Generated by trjconv : CNT in water t= 436.00000
33518
    1C        C    1   2.856   2.779   4.746
    1C        C    2   2.907   2.723   4.866
    1C        C    3   2.840   2.767   4.981
    1C        C    4   2.857   2.777   4.261
    1C        C    5   2.906   2.729   4.384
    1C        C    6   2.851   2.776   4.505
    1C        C    7   3.018   2.639   4.625
    1C        C    8   2.904   2.724   4.626
    1C        C    9   3.080   2.602   4.746
    1C        C   10   3.011   2.628   4.867
    1C        C   11   3.183   2.489   4.977
    1C        C   12   3.067   2.567   4.980
    1C        C   13   2.856   2.775   3.772
    1C        C   14   2.905   2.726   3.895
    1C        C   15   2.855   2.777   4.017
    1C        C   16   3.025   2.648   4.137
    1C        C   17   2.913   2.734   4.138
    1C        C   18   3.083   2.612   4.260
    1C        C   19   3.021   2.647   4.382
    1C        C   20   3.209   2.547   4.503
    1C        C   21   3.079   2.603   4.503
    1C        C   22   3.281   2.530   4.624
    1C        C   23   3.210   2.545   4.745
    1C        C   24   3.413   2.480   4.862
    1C        C   25   3.271   2.498   4.865
    1C        C   26   3.490   2.478   4.979
    1C        C   27   2.854   2.767   3.282
    1C        C   28   2.909   2.725   3.405
    1C        C   29   2.860   2.776   3.527
    1C        C   30   3.019   2.638   3.651
    1C        C   31   2.909   2.727   3.651
    1C        C   32   3.078   2.599   3.773
    1C        C   33   3.019   2.641   3.894
    1C        C   34   3.209   2.543   4.018
    1C        C   35   3.082   2.605   4.015
    1C        C   36   3.276   2.519   4.140
    1C        C   37   3.208   2.546   4.261
    1C        C   38   3.416   2.495   4.382
    1C        C   39   3.277   2.522   4.382
    1C        C   40   3.489   2.497   4.503
    1C        C   41   3.418   2.496   4.625
    1C        C   42   3.633   2.482   4.746
    1C        C   43   3.491   2.476   4.743
    1C        C   44   3.708   2.490   4.865
    1C        C   45   3.629   2.485   4.981
    1C        C   46   2.838   2.754   2.794
    1C        C   47   2.898   2.711   2.915
    1C        C   48   2.844   2.758   3.037
    1C        C   49   3.019   2.638   3.159
    1C        C   50   2.903   2.719   3.159
    1C        C   51   3.079   2.603   3.282
    1C        C   52   3.019   2.636   3.405
    1C        C   53   3.208   2.543   3.527
    1C        C   54   3.079   2.600   3.528
    1C        C   55   3.275   2.522   3.649
    1C        C   56   3.208   2.544   3.771
    1C        C   57   3.414   2.502   3.894
    1C        C   58   3.275   2.524   3.895
    1C        C   59   3.485   2.491   4.016
    1C        C   60   3.415   2.495   4.138
    1C        C   61   3.627   2.495   4.260
    1C        C   62   3.486   2.486   4.260
    1C        C   63   3.700   2.501   4.380
    1C        C   64   3.631   2.499   4.503
    1C        C   65   3.839   2.537   4.622
    1C        C   66   3.704   2.498   4.624
    1C        C   67   3.908   2.559   4.743
    1C        C   68   3.844   2.527   4.865
    1C        C   69   4.056   2.582   4.981
    1C        C   70   3.925   2.532   4.979
    1C        C   71   2.825   2.732   2.307
    1C        C   72   2.883   2.689   2.429
    1C        C   73   2.836   2.745   2.550
    1C        C   74   3.005   2.620   2.673
    1C        C   75   2.889   2.701   2.673
    1C        C   76   3.071   2.588   2.794
    1C        C   77   3.014   2.631   2.916
    1C        C   78   3.208   2.542   3.038
    1C        C   79   3.080   2.601   3.037
    1C        C   80   3.276   2.522   3.161
    1C        C   81   3.208   2.545   3.282
    1C        C   82   3.413   2.494   3.404
    1C        C   83   3.273   2.517   3.404
    1C        C   84   3.485   2.491   3.526
    1C        C   85   3.414   2.495   3.648
    1C        C   86   3.625   2.494   3.769
    1C        C   87   3.484   2.495   3.771
    1C        C   88   3.695   2.505   3.891
    1C        C   89   3.627   2.496   4.014
    1C        C   90   3.830   2.551   4.138
    1C        C   91   3.695   2.510   4.137
    1C        C   92   3.903   2.568   4.258
    1C        C   93   3.837   2.537   4.379
    1C        C   94   4.026   2.638   4.499
    1C        C   95   3.903   2.569   4.500
    1C        C   96   4.090   2.671   4.620
    1C        C   97   4.033   2.627   4.742
    1C        C   98   4.193   2.762   4.862
    1C        C   99   4.099   2.654   4.865
    1C        C  100   4.213   2.841   4.976
    1C        C  101   2.825   2.725   2.070
    1C        C  102   2.992   2.586   2.190
    1C        C  103   2.882   2.677   2.189
    1C        C  104   3.063   2.569   2.313
    1C        C  105   3.001   2.613   2.432
    1C        C  106   3.202   2.536   2.551
    1C        C  107   3.069   2.585   2.553
    1C        C  108   3.270   2.514   2.672
    1C        C  109   3.201   2.533   2.794
    1C        C  110   3.412   2.493   2.917
    1C        C  111   3.273   2.519   2.915
    1C        C  112   3.484   2.481   3.038
    1C        C  113   3.413   2.486   3.160
    1C        C  114   3.624   2.494   3.282
    1C        C  115   3.483   2.485   3.282
    1C        C  116   3.695   2.507   3.403
    1C        C  117   3.626   2.497   3.526
    1C        C  118   3.833   2.541   3.647
    1C        C  119   3.697   2.504   3.648
    1C        C  120   3.895   2.574   3.770
    1C        C  121   3.831   2.546   3.893
    1C        C  122   4.020   2.641   4.011
    1C        C  123   3.897   2.571   4.015
    1C        C  124   4.080   2.677   4.133
    1C        C  125   4.026   2.637   4.257
    1C        C  126   4.200   2.764   4.378
    1C        C  127   4.087   2.679   4.378
    1C        C  128   4.249   2.816   4.500
    1C        C  129   4.196   2.764   4.620
    1C        C  130   4.332   2.929   4.742
    1C        C  131   4.245   2.817   4.742
    1C        C  132   4.352   3.002   4.861
    1C        C  133   4.283   2.961   4.976
    1C        C  134   3.176   2.464   2.084
    1C        C  135   3.043   2.507   2.082
    1C        C  136   3.262   2.475   2.194
    1C        C  137   3.194   2.514   2.312
    1C        C  138   3.407   2.476   2.431
    1C        C  139   3.268   2.498   2.431
    1C        C  140   3.481   2.473   2.552
    1C        C  141   3.410   2.489   2.673
    1C        C  142   3.622   2.489   2.792
    1C        C  143   3.481   2.486   2.794
    1C        C  144   3.692   2.499   2.915
    1C        C  145   3.625   2.486   3.038
    1C        C  146   3.831   2.539   3.156
    1C        C  147   3.696   2.496   3.160
    1C        C  148   3.896   2.566   3.278
    1C        C  149   3.831   2.545   3.402
    1C        C  150   4.021   2.637   3.524
    1C        C  151   3.896   2.570   3.524
    1C        C  152   4.081   2.676   3.645
    1C        C  153   4.021   2.638   3.767
    1C        C  154   4.191   2.767   3.889
    1C        C  155   4.080   2.679   3.889
    1C        C  156   4.240   2.815   4.012
    1C        C  157   4.193   2.762   4.135
    1C        C  158   4.339   2.920   4.255
    1C        C  159   4.249   2.811   4.254
    1C        C  160   4.373   2.986   4.375
    1C        C  161   4.331   2.931   4.498
    1C        C  162   4.439   3.113   4.616
    1C        C  163   4.375   2.987   4.620
    1C        C  164   4.464   3.182   4.736
    1C        C  165   4.430   3.120   4.858
    1C        C  166   4.511   3.320   4.973
    1C        C  167   4.476   3.186   4.973
    1C        C  168   3.478   2.429   2.072
    1C        C  169   3.401   2.455   2.187
    1C        C  170   3.617   2.471   2.308
    1C        C  171   3.475   2.466   2.307
    1C        C  172   3.692   2.482   2.427
    1C        C  173   3.622   2.475   2.550
    1C        C  174   3.827   2.536   2.668
    1C        C  175   3.693   2.494   2.670
    1C        C  176   3.893   2.562   2.791
    1C        C  177   3.829   2.535   2.913
    1C        C  178   4.023   2.629   3.035
    1C        C  179   3.897   2.565   3.034
    1C        C  180   4.083   2.670   3.156
    1C        C  181   4.021   2.631   3.277
    1C        C  182   4.190   2.758   3.399
    1C        C  183   4.081   2.669   3.399
    1C        C  184   4.237   2.813   3.520
    1C        C  185   4.189   2.768   3.645
    1C        C  186   4.335   2.922   3.765
    1C        C  187   4.241   2.817   3.767
    1C        C  188   4.372   2.979   3.889
    1C        C  189   4.333   2.922   4.012
    1C        C  190   4.444   3.105   4.129
    1C        C  191   4.379   2.979   4.133
    1C        C  192   4.470   3.173   4.250
    1C        C  193   4.440   3.110   4.373
    1C        C  194   4.510   3.313   4.493
    1C        C  195   4.466   3.179   4.494
    1C        C  196   4.526   3.385   4.613
    1C        C  197   4.503   3.319   4.736
    1C        C  198   4.553   3.534   4.852
    1C        C  199   4.529   3.393   4.854
    1C        C  200   4.589   3.618   4.962
    1C        C  201   3.616   2.410   2.075
    1C        C  202   3.822   2.516   2.185
    1C        C  203   3.690   2.460   2.187
    1C        C  204   3.896   2.544   2.303
    1C        C  205   3.828   2.517   2.424
    1C        C  206   4.018   2.620   2.546
    1C        C  207   3.892   2.556   2.544
    1C        C  208   4.081   2.658   2.667
    1C        C  209   4.020   2.624   2.790
    1C        C  210   4.192   2.752   2.909
    1C        C  211   4.081   2.664   2.911
    1C        C  212   4.247   2.800   3.030
    1C        C  213   4.195   2.757   3.154
    1C        C  214   4.341   2.908   3.274
    1C        C  215   4.245   2.804   3.277
    1C        C  216   4.373   2.974   3.395
    1C        C  217   4.328   2.922   3.518
    1C        C  218   4.442   3.100   3.641
    1C        C  219   4.375   2.975   3.640
    1C        C  220   4.469   3.166   3.762
    1C        C  221   4.442   3.102   3.885
    1C        C  222   4.512   3.303   4.004
    1C        C  223   4.474   3.168   4.006
    1C        C  224   4.521   3.377   4.125
    1C        C  225   4.507   3.309   4.248
    1C        C  226   4.522   3.522   4.367
    1C        C  227   4.519   3.380   4.369
    1C        C  228   4.521   3.596   4.487
    1C        C  229   4.535   3.526   4.609
    1C        C  230   4.502   3.740   4.729
    1C        C  231   4.538   3.602   4.728
    1C        C  232   4.489   3.817   4.846
    1C        C  233   4.543   3.750   4.957
    1C        C  234   4.017   2.607   2.065
    1C        C  235   3.894   2.542   2.067
    1C        C  236   4.087   2.644   2.181
    1C        C  237   4.021   2.613   2.301
    1C        C  238   4.196   2.733   2.423
    1C        C  239   4.082   2.649   2.423
    1C        C  240   4.250   2.785   2.543
    1C        C  241   4.195   2.741   2.666
    1C        C  242   4.331   2.908   2.784
    1C        C  243   4.244   2.797   2.786
    1C        C  244   4.377   2.963   2.906
    1C        C  245   4.340   2.906   3.030
    1C        C  246   4.446   3.090   3.149
    1C        C  247   4.383   2.964   3.151
    1C        C  248   4.466   3.161   3.270
    1C        C  249   4.438   3.099   3.394
    1C        C  250   4.500   3.300   3.514
    1C        C  251   4.466   3.163   3.517
    1C        C  252   4.511   3.371   3.635
    1C        C  253   4.503   3.303   3.759
    1C        C  254   4.521   3.514   3.879
    1C        C  255   4.517   3.373   3.881
    1C        C  256   4.516   3.588   3.999
    1C        C  257   4.523   3.518   4.122
    1C        C  258   4.492   3.729   4.243
    1C        C  259   4.515   3.590   4.244
    1C        C  260   4.471   3.800   4.363
    1C        C  261   4.489   3.734   4.486
    1C        C  262   4.425   3.938   4.606
    1C        C  263   4.477   3.806   4.607
    1C        C  264   4.397   4.009   4.724
    1C        C  265   4.433   3.946   4.846
    1C        C  266   4.320   4.133   4.958
    1C        C  267   4.397   4.017   4.961
    1C        C  268   4.260   2.775   2.066
    1C        C  269   4.201   2.727   2.183
    1C        C  270   4.349   2.884   2.300
    1C        C  271   4.257   2.776   2.303
    1C        C  272   4.389   2.946   2.420
    1C        C  273   4.343   2.891   2.542
    1C        C  274   4.452   3.080   2.662
    1C        C  275   4.377   2.960   2.660
    1C        C  276   4.475   3.150   2.782
    1C        C  277   4.445   3.086   2.905
    1C        C  278   4.503   3.292   3.024
    1C        C  279   4.472   3.154   3.026
    1C        C  280   4.516   3.365   3.144
    1C        C  281   4.504   3.297   3.267
    1C        C  282   4.519   3.509   3.390
    1C        C  283   4.511   3.367   3.390
    1C        C  284   4.513   3.581   3.511
    1C        C  285   4.515   3.512   3.635
    1C        C  286   4.494   3.723   3.754
    1C        C  287   4.518   3.584   3.756
    1C        C  288   4.475   3.795   3.875
    1C        C  289   4.492   3.727   3.998
    1C        C  290   4.423   3.927   4.118
    1C        C  291   4.477   3.797   4.120
    1C        C  292   4.393   3.995   4.239
    1C        C  293   4.421   3.933   4.363
    1C        C  294   4.323   4.123   4.479
    1C        C  295   4.395   4.002   4.483
    1C        C  296   4.282   4.186   4.598
    1C        C  297   4.324   4.131   4.721
    1C        C  298   4.198   4.314   4.838
    1C        C  299   4.281   4.198   4.840
    1C        C  300   4.173   4.407   4.944
    1C        C  301   4.348   2.883   2.062
    1C        C  302   4.467   3.068   2.178
    1C        C  303   4.397   2.943   2.179
    1C        C  304   4.482   3.139   2.300
    1C        C  305   4.451   3.073   2.421
    1C        C  306   4.506   3.283   2.538
    1C        C  307   4.480   3.144   2.539
    1C        C  308   4.515   3.359   2.657
    1C        C  309   4.503   3.288   2.779
    1C        C  310   4.524   3.500   2.900
    1C        C  311   4.516   3.359   2.900
    1C        C  312   4.521   3.574   3.020
    1C        C  313   4.519   3.507   3.144
    1C        C  314   4.483   3.715   3.266
    1C        C  315   4.514   3.577   3.267
    1C        C  316   4.467   3.786   3.387
    1C        C  317   4.488   3.720   3.511
    1C        C  318   4.422   3.923   3.629
    1C        C  319   4.474   3.791   3.632
    1C        C  320   4.390   3.986   3.751
    1C        C  321   4.421   3.925   3.874
    1C        C  322   4.309   4.106   3.993
    1C        C  323   4.387   3.989   3.996
    1C        C  324   4.273   4.168   4.114
    1C        C  325   4.321   4.116   4.236
    1C        C  326   4.185   4.282   4.356
    1C        C  327   4.284   4.181   4.356
    1C        C  328   4.134   4.336   4.476
    1C        C  329   4.188   4.292   4.599
    1C        C  330   4.023   4.439   4.715
    1C        C  331   4.131   4.347   4.716
    1C        C  332   3.968   4.493   4.833
    1C        C  333   4.051   4.476   4.945
    1C        C  334   4.555   3.265   2.062
    1C        C  335   4.538   3.126   2.069
    1C        C  336   4.539   3.347   2.175
    1C        C  337   4.519   3.277   2.296
    1C        C  338   4.523   3.493   2.412
    1C        C  339   4.523   3.352   2.416
    1C        C  340   4.521   3.569   2.531
    1C        C  341   4.521   3.500   2.654
    1C        C  342   4.495   3.709   2.774
    1C        C  343   4.520   3.570   2.777
    1C        C  344   4.478   3.779   2.895
    1C        C  345   4.499   3.713   3.019
    1C        C  346   4.421   3.911   3.140
    1C        C  347   4.471   3.779   3.141
    1C        C  348   4.394   3.981   3.260
    1C        C  349   4.424   3.920   3.384
    1C        C  350   4.314   4.103   3.503
    1C        C  351   4.393   3.986   3.505
    1C        C  352   4.269   4.161   3.624
    1C        C  353   4.313   4.104   3.746
    1C        C  354   4.174   4.265   3.868
    1C        C  355   4.267   4.159   3.868
    1C        C  356   4.121   4.315   3.989
    1C        C  357   4.174   4.269   4.111
    1C        C  358   4.012   4.404   4.232
    1C        C  359   4.127   4.323   4.234
    1C        C  360   3.954   4.448   4.353
    1C        C  361   4.019   4.418   4.475
    1C        C  362   3.829   4.524   4.592
    1C        C  363   3.958   4.466   4.592
    1C        C  364   3.763   4.558   4.712
    1C        C  365   3.837   4.545   4.831
    1C        C  366   3.628   4.589   4.949
    1C        C  367   3.766   4.570   4.949
    1C        C  368   4.520   3.563   2.054
    1C        C  369   4.523   3.487   2.172
    1C        C  370   4.491   3.702   2.289
    1C        C  371   4.510   3.563   2.290
    1C        C  372   4.476   3.777   2.408
    1C        C  373   4.501   3.709   2.530
    1C        C  374   4.423   3.908   2.649
    1C        C  375   4.476   3.777   2.651
    1C        C  376   4.392   3.973   2.771
    1C        C  377   4.428   3.911   2.893
    1C        C  378   4.318   4.092   3.013
    1C        C  379   4.396   3.973   3.016
    1C        C  380   4.271   4.151   3.131
    1C        C  381   4.314   4.097   3.255
    1C        C  382   4.174   4.255   3.379
    1C        C  383   4.274   4.154   3.378
    1C        C  384   4.121   4.309   3.499
    1C        C  385   4.176   4.267   3.622
    1C        C  386   4.007   4.392   3.741
    1C        C  387   4.125   4.314   3.745
    1C        C  388   3.948   4.435   3.862
    1C        C  389   4.011   4.404   3.985
    1C        C  390   3.823   4.494   4.109
    1C        C  391   3.953   4.440   4.109
    1C        C  392   3.753   4.521   4.230
    1C        C  393   3.824   4.502   4.351
    1C        C  394   3.617   4.556   4.474
    1C        C  395   3.756   4.532   4.471
    1C        C  396   3.547   4.566   4.596
    1C        C  397   3.622   4.572   4.715
    1C        C  398   3.410   4.550   4.843
    1C        C  399   3.548   4.579   4.835
    1C        C  400   3.343   4.518   4.961
    1C        C  401   4.511   3.702   2.054
    1C        C  402   4.454   3.914   2.166
    1C        C  403   4.484   3.776   2.169
    1C        C  404   4.412   3.978   2.285
    1C        C  405   4.428   3.910   2.407
    1C        C  406   4.321   4.095   2.525
    1C        C  407   4.397   3.975   2.528
    1C        C  408   4.277   4.149   2.647
    1C        C  409   4.318   4.093   2.770
    1C        C  410   4.172   4.249   2.887
    1C        C  411   4.271   4.148   2.892
    1C        C  412   4.119   4.297   3.009
    1C        C  413   4.175   4.256   3.132
    1C        C  414   4.008   4.381   3.253
    1C        C  415   4.123   4.300   3.256
    1C        C  416   3.943   4.417   3.373
    1C        C  417   4.002   4.385   3.498
    1C        C  418   3.815   4.483   3.618
    1C        C  419   3.944   4.427   3.620
    1C        C  420   3.750   4.508   3.742
    1C        C  421   3.817   4.487   3.864
    1C        C  422   3.614   4.537   3.986
    1C        C  423   3.752   4.509   3.988
    1C        C  424   3.544   4.546   4.109
    1C        C  425   3.614   4.542   4.232
    1C        C  426   3.403   4.548   4.356
    1C        C  427   3.544   4.557   4.354
    1C        C  428   3.333   4.546   4.479
    1C        C  429   3.406   4.554   4.599
    1C        C  430   3.196   4.523   4.723
    1C        C  431   3.336   4.545   4.722
    1C        C  432   3.124   4.501   4.844
    1C        C  433   3.205   4.496   4.958
    1C        C  434   4.388   4.122   2.057
    1C        C  435   4.445   3.994   2.051
    1C        C  436   4.297   4.161   2.161
    1C        C  437   4.332   4.096   2.282
    1C        C  438   4.183   4.252   2.400
    1C        C  439   4.284   4.153   2.402
    1C        C  440   4.126   4.297   2.522
    1C        C  441   4.179   4.251   2.644
    1C        C  442   4.010   4.383   2.765
    1C        C  443   4.125   4.300   2.765
    1C        C  444   3.947   4.418   2.887
    1C        C  445   4.005   4.380   3.010
    1C        C  446   3.814   4.472   3.128
    1C        C  447   3.945   4.420   3.132
    1C        C  448   3.750   4.499   3.251
    1C        C  449   3.816   4.479   3.374
    1C        C  450   3.610   4.534   3.496
    1C        C  451   3.748   4.504   3.496
    1C        C  452   3.542   4.547   3.619
    1C        C  453   3.613   4.541   3.741
    1C        C  454   3.402   4.549   3.864
    1C        C  455   3.543   4.548   3.864
    1C        C  456   3.335   4.534   3.987
    1C        C  457   3.403   4.543   4.111
    1C        C  458   3.196   4.503   4.236
    1C        C  459   3.334   4.536   4.234
    1C        C  460   3.131   4.480   4.359
    1C        C  461   3.197   4.507   4.481
    1C        C  462   3.001   4.432   4.602
    1C        C  463   3.127   4.495   4.603
    1C        C  464   2.935   4.397   4.722
    1C        C  465   2.993   4.444   4.843
    1C        C  466   2.805   4.336   4.960
    1C        C  467   2.910   4.429   4.959
    1C        C  468   4.126   4.293   2.040
    1C        C  469   4.182   4.247   2.159
    1C        C  470   4.006   4.375   2.276
    1C        C  471   4.123   4.294   2.280
    1C        C  472   3.946   4.406   2.400
    1C        C  473   4.008   4.375   2.523
    1C        C  474   3.817   4.471   2.641
    1C        C  475   3.947   4.415   2.643
    1C        C  476   3.749   4.494   2.763
    1C        C  477   3.816   4.470   2.885
    1C        C  478   3.608   4.520   3.010
    1C        C  479   3.746   4.490   3.006
    1C        C  480   3.537   4.529   3.132
    1C        C  481   3.611   4.526   3.252
    1C        C  482   3.399   4.531   3.374
    1C        C  483   3.540   4.537   3.374
    1C        C  484   3.331   4.526   3.498
    1C        C  485   3.401   4.540   3.620
    1C        C  486   3.195   4.498   3.745
    1C        C  487   3.331   4.538   3.742
    1C        C  488   3.132   4.473   3.869
    1C        C  489   3.199   4.497   3.990
    1C        C  490   3.006   4.410   4.115
    1C        C  491   3.133   4.472   4.113
    1C        C  492   2.946   4.377   4.238
    1C        C  493   3.006   4.414   4.360
    1C        C  494   2.830   4.299   4.483
    1C        C  495   2.942   4.385   4.483
    1C        C  496   2.774   4.254   4.604
    1C        C  497   2.821   4.312   4.724
    1C        C  498   2.668   4.165   4.844
    1C        C  499   2.755   4.275   4.844
    1C        C  500   2.600   4.118   4.957
    1C        C  501   4.001   4.354   2.039
    1C        C  502   3.817   4.473   2.156
    1C        C  503   3.944   4.411   2.154
    1C        C  504   3.746   4.482   2.278
    1C        C  505   3.815   4.458   2.399
    1C        C  506   3.608   4.513   2.522
    1C        C  507   3.746   4.483   2.520
    1C        C  508   3.536   4.523   2.643
    1C        C  509   3.609   4.515   2.764
    1C        C  510   3.398   4.522   2.885
    1C        C  511   3.539   4.522   2.887
    1C        C  512   3.326   4.519   3.007
    1C        C  513   3.396   4.529   3.129
    1C        C  514   3.190   4.490   3.257
    1C        C  515   3.327   4.524   3.252
    1C        C  516   3.124   4.468   3.380
    1C        C  517   3.193   4.494   3.500
    1C        C  518   3.003   4.407   3.626
    1C        C  519   3.128   4.472   3.623
    1C        C  520   2.944   4.371   3.749
    1C        C  521   3.007   4.406   3.870
    1C        C  522   2.841   4.278   3.996
    1C        C  523   2.947   4.370   3.993
    1C        C  524   2.793   4.230   4.120
    1C        C  525   2.840   4.284   4.242
    1C        C  526   2.690   4.134   4.365
    1C        C  527   2.779   4.243   4.363
    1C        C  528   2.651   4.078   4.488
    1C        C  529   2.687   4.143   4.608
    1C        C  530   2.580   3.958   4.733
    1C        C  531   2.640   4.087   4.729
    1C        C  532   2.540   3.903   4.858
    1C        C  533   2.527   3.998   4.964
    1C        C  534   3.617   4.558   2.040
    1C        C  535   3.750   4.514   2.040
    1C        C  536   3.536   4.546   2.157
    1C        C  537   3.608   4.515   2.276
    1C        C  538   3.397   4.514   2.401
    1C        C  539   3.538   4.518   2.399
    1C        C  540   3.323   4.506   2.522
    1C        C  541   3.395   4.515   2.643
    1C        C  542   3.186   4.484   2.767
    1C        C  543   3.324   4.512   2.765
    1C        C  544   3.122   4.460   2.890
    1C        C  545   3.190   4.483   3.013
    1C        C  546   2.999   4.394   3.135
    1C        C  547   3.123   4.462   3.135
    1C        C  548   2.942   4.358   3.259
    1C        C  549   2.999   4.402   3.381
    1C        C  550   2.831   4.278   3.507
    1C        C  551   2.942   4.366   3.505
    1C        C  552   2.782   4.228   3.629
    1C        C  553   2.833   4.282   3.749
    1C        C  554   2.700   4.122   3.878
    1C        C  555   2.787   4.233   3.873
    1C        C  556   2.659   4.064   4.000
    1C        C  557   2.702   4.122   4.122
    1C        C  558   2.591   3.943   4.246
    1C        C  559   2.654   4.070   4.244
    1C        C  560   2.568   3.879   4.370
    1C        C  561   2.590   3.950   4.490
    1C        C  562   2.533   3.749   4.615
    1C        C  563   2.559   3.888   4.613
    1C        C  564   2.522   3.682   4.739
    1C        C  565   2.522   3.761   4.858
    1C        C  566   2.515   3.549   4.980
    1C        C  567   2.513   3.688   4.977
    1C        C  568   3.331   4.476   2.042
    1C        C  569   3.398   4.513   2.159
    1C        C  570   3.187   4.469   2.281
    1C        C  571   3.324   4.505   2.281
    1C        C  572   3.117   4.450   2.403
    1C        C  573   3.185   4.478   2.524
    1C        C  574   2.988   4.402   2.650
    1C        C  575   3.115   4.463   2.646
    1C        C  576   2.932   4.359   2.772
    1C        C  577   3.001   4.388   2.892
    1C        C  578   2.824   4.272   3.017
    1C        C  579   2.936   4.357   3.014
    1C        C  580   2.781   4.218   3.141
    1C        C  581   2.832   4.269   3.262
    1C        C  582   2.697   4.111   3.387
    1C        C  583   2.780   4.226   3.386
    1C        C  584   2.660   4.053   3.510
    1C        C  585   2.694   4.117   3.632
    1C        C  586   2.598   3.935   3.758
    1C        C  587   2.657   4.063   3.757
    1C        C  588   2.570   3.871   3.881
    1C        C  589   2.597   3.938   4.003
    1C        C  590   2.527   3.738   4.127
    1C        C  591   2.567   3.873   4.125
    1C        C  592   2.517   3.673   4.252
    1C        C  593   2.528   3.744   4.373
    1C        C  594   2.509   3.534   4.500
    1C        C  595   2.517   3.675   4.496
    1C        C  596   2.519   3.466   4.623
    1C        C  597   2.521   3.540   4.743
    1C        C  598   2.542   3.329   4.862
    1C        C  599   2.521   3.469   4.865
    1C        C  600   2.535   3.249   4.977
    1C        C  601   3.196   4.447   2.041
    1C        C  602   2.986   4.392   2.161
    1C        C  603   3.120   4.441   2.159
    1C        C  604   2.926   4.355   2.284
    1C        C  605   2.989   4.390   2.405
    1C        C  606   2.821   4.268   2.531
    1C        C  607   2.928   4.360   2.529
    1C        C  608   2.772   4.215   2.652
    1C        C  609   2.823   4.269   2.773
    1C        C  610   2.687   4.109   2.897
    1C        C  611   2.775   4.219   2.896
    1C        C  612   2.645   4.055   3.021
    1C        C  613   2.691   4.109   3.143
    1C        C  614   2.589   3.926   3.267
    1C        C  615   2.652   4.053   3.266
    1C        C  616   2.563   3.865   3.391
    1C        C  617   2.596   3.927   3.513
    1C        C  618   2.529   3.731   3.639
    1C        C  619   2.571   3.866   3.638
    1C        C  620   2.516   3.662   3.762
    1C        C  621   2.529   3.736   3.881
    1C        C  622   2.509   3.527   4.011
    1C        C  623   2.516   3.668   4.004
    1C        C  624   2.509   3.458   4.134
    1C        C  625   2.510   3.532   4.255
    1C        C  626   2.536   3.324   4.379
    1C        C  627   2.509   3.462   4.378
    1C        C  628   2.558   3.255   4.500
    1C        C  629   2.537   3.326   4.621
    1C        C  630   2.603   3.122   4.742
    1C        C  631   2.556   3.256   4.742
    1C        C  632   2.617   3.049   4.863
    1C        C  633   2.562   3.111   4.980
    1C        C  634   2.780   4.307   2.059
    1C        C  635   2.889   4.394   2.055
    1C        C  636   2.747   4.229   2.171
    1C        C  637   2.808   4.276   2.289
    1C        C  638   2.675   4.110   2.411
    1C        C  639   2.765   4.219   2.411
    1C        C  640   2.634   4.051   2.532
    1C        C  641   2.682   4.106   2.653
    1C        C  642   2.583   3.921   2.777
    1C        C  643   2.645   4.047   2.776
    1C        C  644   2.560   3.859   2.902
    1C        C  645   2.583   3.928   3.023
    1C        C  646   2.526   3.724   3.151
    1C        C  647   2.561   3.860   3.145
    1C        C  648   2.509   3.656   3.273
    1C        C  649   2.524   3.729   3.393
    1C        C  650   2.507   3.520   3.517
    1C        C  651   2.513   3.661   3.517
    1C        C  652   2.513   3.453   3.641
    1C        C  653   2.509   3.521   3.765
    1C        C  654   2.536   3.315   3.889
    1C        C  655   2.514   3.455   3.890
    1C        C  656   2.557   3.250   4.012
    1C        C  657   2.539   3.320   4.133
    1C        C  658   2.610   3.125   4.257
    1C        C  659   2.553   3.254   4.257
    1C        C  660   2.640   3.058   4.378
    1C        C  661   2.607   3.123   4.499
    1C        C  662   2.711   2.938   4.623
    1C        C  663   2.634   3.056   4.621
    1C        C  664   2.756   2.880   4.744
    1C        C  665   2.699   2.931   4.863
    1C        C  666   2.749   2.873   4.980
    1C        C  667   2.689   4.022   2.053
    1C        C  668   2.690   4.100   2.169
    1C        C  669   2.587   3.913   2.291
    1C        C  670   2.641   4.045   2.290
    1C        C  671   2.558   3.848   2.413
    1C        C  672   2.582   3.920   2.532
    1C        C  673   2.519   3.718   2.660
    1C        C  674   2.555   3.855   2.655
    1C        C  675   2.516   3.650   2.784
    1C        C  676   2.527   3.721   2.905
    1C        C  677   2.497   3.513   3.028
    1C        C  678   2.513   3.654   3.029
    1C        C  679   2.505   3.442   3.150
    1C        C  680   2.502   3.515   3.271
    1C        C  681   2.526   3.308   3.399
    1C        C  682   2.502   3.448   3.395
    1C        C  683   2.550   3.242   3.522
    1C        C  684   2.536   3.314   3.643
    1C        C  685   2.606   3.116   3.768
    1C        C  686   2.554   3.247   3.767
    1C        C  687   2.643   3.056   3.891
    1C        C  688   2.609   3.119   4.013
    1C        C  689   2.719   2.940   4.138
    1C        C  690   2.644   3.059   4.136
    1C        C  691   2.769   2.888   4.260
    1C        C  692   2.720   2.942   4.381
    1C        C  693   2.757   2.881   4.503
    1C        C  694   2.629   3.896   2.056
    1C        C  695   2.524   3.706   2.177
    1C        C  696   2.579   3.836   2.173
    1C        C  697   2.499   3.638   2.298
    1C        C  698   2.515   3.714   2.417
    1C        C  699   2.490   3.505   2.542
    1C        C  700   2.503   3.646   2.540
    1C        C  701   2.504   3.436   2.665
    1C        C  702   2.502   3.509   2.785
    1C        C  703   2.527   3.301   2.911
    1C        C  704   2.500   3.439   2.908
    1C        C  705   2.551   3.235   3.033
    1C        C  706   2.533   3.304   3.155
    1C        C  707   2.606   3.108   3.279
    1C        C  708   2.550   3.238   3.279
    1C        C  709   2.638   3.047   3.402
    1C        C  710   2.606   3.113   3.524
    1C        C  711   2.719   2.935   3.647
    1C        C  712   2.638   3.051   3.647
    1C        C  713   2.765   2.883   3.770
    1C        C  714   2.723   2.940   3.893
    1C        C  715   2.763   2.884   4.016
    1C        C  716   2.454   3.500   2.061
    1C        C  717   2.494   3.635   2.061
    1C        C  718   2.468   3.420   2.179
    1C        C  719   2.483   3.497   2.298
    1C        C  720   2.518   3.292   2.423
    1C        C  721   2.488   3.430   2.422
    1C        C  722   2.543   3.225   2.545
    1C        C  723   2.530   3.297   2.665
    1C        C  724   2.601   3.102   2.790
    1C        C  725   2.541   3.230   2.789
    1C        C  726   2.633   3.040   2.913
    1C        C  727   2.599   3.102   3.035
    1C        C  728   2.714   2.925   3.157
    1C        C  729   2.632   3.040   3.158
    1C        C  730   2.761   2.873   3.280
    1C        C  731   2.721   2.933   3.402
    1C        C  732   2.765   2.880   3.525
    1C        C  733   2.489   3.198   2.067
    1C        C  734   2.487   3.279   2.182
    1C        C  735   2.587   3.088   2.302
    1C        C  736   2.528   3.217   2.303
    1C        C  737   2.619   3.023   2.424
    1C        C  738   2.593   3.093   2.543
    1C        C  739   2.709   2.920   2.667
    1C        C  740   2.629   3.036   2.668
    1C        C  741   2.747   2.862   2.790
    1C        C  742   2.706   2.919   2.913
    1C        C  743   2.750   2.864   3.035
    1C        C  744   2.554   3.075   2.071
    1C        C  745   2.690   2.898   2.184
    1C        C  746   2.614   3.016   2.184
    1C        C  747   2.733   2.840   2.306
    1C        C  748   2.693   2.902   2.426
    1C        C  749   2.746   2.854   2.548
    1C        C  750   2.737   2.833   2.069
    1C        C  751   3.659   2.292   1.995
    1C        O  752   3.648   2.178   2.047
    1C        O  753   3.669   2.306   1.856
    1C        C  754   4.631   3.037   1.994
    1C        O  755   4.625   3.013   1.870
    1C        O  756   4.749   2.997   2.056
    1C        C  757   4.463   4.216   1.972
    1C        O  758   4.528   4.312   2.022
    1C        O  759   4.409   4.250   1.847
    1C        C  760   3.592   4.679   1.959
    1C        O  761   3.616   4.789   2.014
    1C        O  762   3.609   4.698   1.821
    1C        C  763   2.872   4.521   1.981
    1C        O  764   2.905   4.537   1.860
    1C        O  765   2.827   4.643   2.033
    1C        C  766   2.352   3.482   1.955
    1C        O  767   2.388   3.487   1.834
    1C        O  768   2.215   3.508   1.967
    1C        C  769   4.707   3.591   5.048
    1C        O  770   4.691   3.565   5.170
    1C        O  771   4.836   3.591   4.993
    1C        C  772   4.282   4.484   5.008
    1C        O  773   4.353   4.448   5.105
    1C        O  774   4.354   4.582   4.939
    1C        C  775   4.155   2.489   5.041
    1C        O  776   4.187   2.394   4.965
    1C        O  777   4.122   2.421   5.158
    1C        C  778   2.882   4.532   5.061
    1C        O  779   2.807   4.630   5.034
    1C        O  780   2.875   4.495   5.196
    1C        C  781   2.484   3.043   5.085
    1C        O  782   2.374   2.987   5.061
    1C        O  783   2.519   3.043   5.220
    1C        C  784   2.410   4.011   5.054
    1C        O  785   2.294   4.013   5.006
    1C        O  786   2.417   4.018   5.194
    1C        C  787   2.958   2.424   1.993
    1C        O  788   2.926   2.466   1.879
    1C        O  789   2.925   2.297   2.038
    1C        C  790   3.166   2.374   5.068
    1C        O  791   3.153   2.257   5.023
    1C        O  792   3.194   2.378   5.205
    1C        H  793   4.253   3.035   5.047
    1C        H  794   4.137   2.835   5.051
    1C        H  795   4.498   3.128   5.061
    1C        H  796   4.487   3.374   5.062
    1C        H  797   4.505   3.791   5.048
    1C        H  798   4.400   3.973   5.059
    1C        H  799   4.270   4.157   5.049
    1C        H  800   4.036   4.542   5.028
    1C        H  801   3.824   4.573   5.039
    1C        H  802   3.584   4.644   5.030
    1C        H  803   3.391   4.533   5.056
    1C        H  804   3.175   4.417   5.023
    1C        H  805   3.892   2.484   5.068
    1C        H  806   3.675   2.519   5.071
    1C        H  807   3.046   2.613   5.074
    1C        H  808   3.440   2.443   5.067
    1C        H  809   2.817   2.691   5.052
    1C        H  810   2.735   2.921   5.075
    1C        H  811   2.476   3.283   5.060
    1C        H  812   2.491   3.501   5.072
    1C        H  813   2.539   3.731   5.071
    1C        H  814   2.625   4.156   5.054
    1C        H  815   2.784   4.289   5.053
    1C        H  816   2.685   2.843   1.976
    1C        H  817   2.812   2.661   1.986
    1C        H  818   3.198   2.388   2.011
    1C        H  819   3.437   2.451   1.976
    1C        H  820   3.877   2.475   1.986
    1C        H  821   4.049   2.645   1.970
    1C        H  822   4.291   2.692   2.006
    1C        H  823   4.398   2.906   1.970
    1C        H  824   4.618   3.300   1.983
    1C        H  825   4.534   3.513   1.960
    1C        H  826   4.587   3.743   1.992
    1C        H  827   3.806   4.515   1.949
    1C        H  828   3.937   4.306   1.968
    1C        H  829   4.188   4.331   1.961
    1C        H  830   4.471   3.957   1.954
    1C        H  831   2.574   3.877   1.966
    1C        H  832   2.735   4.059   1.964
    1C        H  833   2.730   4.282   1.967
    1C        H  834   3.386   4.433   1.961
    1C        H  835   3.150   4.408   1.953
    1C        H  836   2.563   3.029   1.975
    1C        H  837   2.393   3.186   2.022
    1C        H  838   2.481   3.688   1.969
    2V3OU   H29  839   2.806   3.550   5.065
    2V3OU   C27  840   2.785   3.505   5.165
    2V3OU   H27  841   2.718   3.573   5.223
    2V3OU   H28  842   2.728   3.408   5.161
    2V3OU   O11  843   2.908   3.488   5.236
    2V3OU   C15  844   2.922   3.389   5.332
    2V3OU   C13  845   3.055   3.370   5.374
    2V3OU   C14  846   3.075   3.272   5.472
    2V3OU   C16  847   2.972   3.190   5.515
    2V3OU    H6  848   2.992   3.103   5.580
    2V3OU   C12  849   3.214   3.230   5.501
    2V3OU    O2  850   3.239   3.127   5.567
    2V3OU   C10  851   3.326   3.309   5.448
    2V3OU    C8  852   3.457   3.277   5.481
    2V3OU   O10  853   3.487   3.159   5.541
    2V3OU   H26  854   3.400   3.120   5.562
    2V3OU    C6  855   3.565   3.358   5.434
    2V3OU    C5  856   3.541   3.474   5.362
    2V3OU    C4  857   3.701   3.296   5.428
    2V3OU    H4  858   3.723   3.225   5.513
    2V3OU    H5  859   3.701   3.234   5.334
    2V3OU    C2  860   3.817   3.396   5.425
    2V3OU    O6  861   3.803   3.472   5.545
    2V3OU   H21  862   3.764   3.551   5.506
    2V3OU    C3  863   3.785   3.494   5.312
    2V3OU    H2  864   3.874   3.561   5.307
    2V3OU    H3  865   3.786   3.439   5.215
    2V3OU   C25  866   3.954   3.326   5.417
    2V3OU    O7  867   4.000   3.299   5.306
    2V3OU   C26  868   4.027   3.290   5.545
    2V3OU   H22  869   4.072   3.379   5.597
    2V3OU   H23  870   4.116   3.226   5.519
    2V3OU    O8  871   3.965   3.205   5.639
    2V3OU   H24  872   3.930   3.258   5.712
    2V3OU    C1  873   3.652   3.568   5.324
    2V3OU    H1  874   3.627   3.616   5.225
    2V3OU    O3  875   3.661   3.659   5.434
    2V3OU   C19  876   3.619   3.794   5.415
    2V3OU    H9  877   3.522   3.796   5.356
    2V3OU    O4  878   3.708   3.847   5.320
    2V3OU   C20  879   3.840   3.873   5.368
    2V3OU   H10  880   3.897   3.776   5.371
    2V3OU   C24  881   3.610   3.857   5.554
    2V3OU   H16  882   3.541   3.799   5.620
    2V3OU   H17  883   3.565   3.958   5.536
    2V3OU   C23  884   3.752   3.877   5.608
    2V3OU   H15  885   3.793   3.773   5.629
    2V3OU    N1  886   3.741   3.957   5.729
    2V3OU   H19  887   3.811   3.937   5.797
    2V3OU   H20  888   3.648   3.940   5.762
    2V3OU   C21  889   3.847   3.944   5.504
    2V3OU   H11  890   3.946   3.927   5.555
    2V3OU    O5  891   3.828   4.085   5.504
    2V3OU   H18  892   3.780   4.104   5.586
    2V3OU   C22  893   3.909   3.950   5.257
    2V3OU   H12  894   3.858   4.049   5.243
    2V3OU   H13  895   3.905   3.890   5.163
    2V3OU   H14  896   4.018   3.963   5.280
    2V3OU   C11  897   3.159   3.469   5.342
    2V3OU    O1  898   3.131   3.589   5.322
    2V3OU    C9  899   3.298   3.429   5.377
    2V3OU    C7  900   3.405   3.505   5.331
    2V3OU    O9  901   3.388   3.612   5.246
    2V3OU   H25  902   3.293   3.633   5.251
    2V3OU   C17  903   2.818   3.310   5.385
    2V3OU    H7  904   2.714   3.343   5.380
    2V3OU   C18  905   2.840   3.206   5.474
    2V3OU    H8  906   2.762   3.147   5.525
    3SOL     OW  907   3.916   3.988   3.975
    3SOL    HW1  908   3.885   4.033   4.059
    3SOL    HW2  909   3.837   3.975   3.914
    4SOL     OW  910   6.703   0.361   0.596
    4SOL    HW1  911   6.614   0.346   0.640
    4SOL    HW2  912   6.689   0.397   0.504
    5SOL     OW  913   4.757   1.696   1.393
    5SOL    HW1  914   4.788   1.618   1.339
    5SOL    HW2  915   4.685   1.744   1.343
    6SOL     OW  916   5.469   0.583   2.826
    6SOL    HW1  917   5.409   0.593   2.905
    6SOL    HW2  918   5.564   0.594   2.855
    7SOL     OW  919   2.054   4.430   3.710
    7SOL    HW1  920   1.962   4.465   3.730
    7SOL    HW2  921   2.080   4.364   3.781
    8SOL     OW  922   1.865   3.313   5.518
    8SOL    HW1  923   1.917   3.308   5.603
    8SOL    HW2  924   1.918   3.272   5.444
    9SOL     OW  925   6.610   0.929   6.775
    9SOL    HW1  926   6.708   0.941   6.786
    9SOL    HW2  927   6.577   0.860   6.840
   10SOL     OW  928   4.540   4.740   2.925
   10SOL    HW1  929   4.621   4.785   2.962
   10SOL    HW2  930   4.568   4.659   2.874
   11SOL     OW  931   2.480   0.914   0.837
   11SOL    HW1  932   2.521   0.822   0.839
   11SOL    HW2  933   2.523   0.968   0.766
   12SOL     OW  934   2.950   5.134   3.223
   12SOL    HW1  935   3.013   5.169   3.154
   12SOL    HW2  936   2.907   5.050   3.190
   13SOL     OW  937   5.218   6.114   1.346
   13SOL    HW1  938   5.214   6.017   1.320
   13SOL    HW2  939   5.298   6.129   1.405
   14SOL     OW  940   4.396   5.371   5.457
   14SOL    HW1  941   4.409   5.412   5.367
   14SOL    HW2  942   4.451   5.421   5.524
   15SOL     OW  943   6.751   5.824   6.210
   15SOL    HW1  944   6.821   5.884   6.171
   15SOL    HW2  945   6.787   5.731   6.218
   16SOL     OW  946   1.039   4.011   4.974
   16SOL    HW1  947   1.023   3.915   4.998
   16SOL    HW2  948   1.112   4.047   5.032
   17SOL     OW  949   6.141   1.524   5.198
   17SOL    HW1  950   6.198   1.442   5.191
   17SOL    HW2  951   6.198   1.603   5.219
   18SOL     OW  952   3.080   0.790   5.650
   18SOL    HW1  953   3.047   0.804   5.743
   18SOL    HW2  954   3.161   0.730   5.652
   19SOL     OW  955   1.807   0.960   3.063
   19SOL    HW1  956   1.877   0.959   3.134
   19SOL    HW2  957   1.806   0.871   3.017
   20SOL     OW  958   6.294   1.870   5.645
   20SOL    HW1  959   6.214   1.873   5.703
   20SOL    HW2  960   6.317   1.962   5.614
   21SOL     OW  961   2.862   4.726   2.992
   21SOL    HW1  962   2.864   4.698   2.896
   21SOL    HW2  963   2.801   4.805   3.003
   22SOL     OW  964   1.783   6.348   6.158
   22SOL    HW1  965   1.744   6.272   6.210
   22SOL    HW2  966   1.721   6.426   6.162
   23SOL     OW  967   5.507   4.289   1.647
   23SOL    HW1  968   5.441   4.223   1.682
   23SOL    HW2  969   5.459   4.362   1.598
   24SOL     OW  970   4.381   0.672   1.226
   24SOL    HW1  971   4.347   0.737   1.294
   24SOL    HW2  972   4.479   0.659   1.239
   25SOL     OW  973   2.125   0.986   4.224
   25SOL    HW1  974   2.205   0.979   4.283
   25SOL    HW2  975   2.153   1.016   4.133
   26SOL     OW  976   1.075   2.935   6.866
   26SOL    HW1  977   1.162   2.983   6.882
   26SOL    HW2  978   1.061   2.867   6.938
   27SOL     OW  979   6.660   0.866   1.094
   27SOL    HW1  980   6.604   0.788   1.122
   27SOL    HW2  981   6.749   0.833   1.064
   28SOL     OW  982   2.687   0.889   4.949
   28SOL    HW1  983   2.701   0.919   5.043
   28SOL    HW2  984   2.593   0.858   4.937
   29SOL     OW  985   0.391   0.501   1.295
   29SOL    HW1  986   0.474   0.496   1.240
   29SOL    HW2  987   0.414   0.487   1.391
   30SOL     OW  988   3.980   0.548   4.869
   30SOL    HW1  989   3.982   0.465   4.923
   30SOL    HW2  990   4.052   0.611   4.900
   31SOL     OW  991   1.004   3.594   5.144
   31SOL    HW1  992   1.023   3.665   5.211
   31SOL    HW2  993   1.017   3.504   5.187
   32SOL     OW  994   2.566   0.637   1.176
   32SOL    HW1  995   2.576   0.589   1.263
   32SOL    HW2  996   2.495   0.706   1.183
   33SOL     OW  997   0.452   5.314   5.364
   33SOL    HW1  998   0.449   5.238   5.299
   33SOL    HW2  999   0.528   5.301   5.428
   34SOL     OW 1000   2.404   5.688   5.259
   34SOL    HW1 1001   2.368   5.772   5.300
   34SOL    HW2 1002   2.331   5.619   5.256
   35SOL     OW 1003   2.782   3.414   0.213
   35SOL    HW1 1004   2.871   3.368   0.202
   35SOL    HW2 1005   2.728   3.400   0.131
   36SOL     OW 1006   4.177   0.741   4.829
   36SOL    HW1 1007   4.164   0.703   4.737
   36SOL    HW2 1008   4.235   0.822   4.824
   37SOL     OW 1009   2.849   0.734   4.050
   37SOL    HW1 1010   2.901   0.673   4.110
   37SOL    HW2 1011   2.833   0.690   3.962
   38SOL     OW 1012   6.844   4.468   2.800
   38SOL    HW1 1013   6.755   4.454   2.844
   38SOL    HW2 1014   6.830   4.507   2.709
   39SOL     OW 1015   6.911   5.393   6.317
   39SOL    HW1 1016   6.968   5.475   6.313
   39SOL    HW2 1017   6.901   5.364   6.413
   40SOL     OW 1018   3.968   0.742   6.107
   40SOL    HW1 1019   4.024   0.755   6.188
   40SOL    HW2 1020   3.902   0.817   6.100
   41SOL     OW 1021   6.094   4.417   1.511
   41SOL    HW1 1022   6.147   4.376   1.437
   41SOL    HW2 1023   6.048   4.499   1.479
   42SOL     OW 1024   2.528   5.349   6.240
   42SOL    HW1 1025   2.624   5.321   6.249
   42SOL    HW2 1026   2.472   5.267   6.226
   43SOL     OW 1027   4.468   6.766   4.490
   43SOL    HW1 1028   4.505   6.858   4.503
   43SOL    HW2 1029   4.517   6.719   4.417
   44SOL     OW 1030   6.715   1.638   6.344
   44SOL    HW1 1031   6.810   1.668   6.339
   44SOL    HW2 1032   6.678   1.630   6.252
   45SOL     OW 1033   3.462   5.212   0.094
   45SOL    HW1 1034   3.529   5.221   0.167
   45SOL    HW2 1035   3.414   5.126   0.103
   46SOL     OW 1036   0.231   2.540   4.322
   46SOL    HW1 1037   0.228   2.640   4.315
   46SOL    HW2 1038   0.323   2.508   4.298
   47SOL     OW 1039   5.722   2.486   1.335
   47SOL    HW1 1040   5.739   2.562   1.273
   47SOL    HW2 1041   5.808   2.436   1.350
   48SOL     OW 1042   6.474   3.575   0.635
   48SOL    HW1 1043   6.375   3.566   0.623
   48SOL    HW2 1044   6.509   3.496   0.686
   49SOL     OW 1045   4.074   3.241   0.006
   49SOL    HW1 1046   3.999   3.307   7.020
   49SOL    HW2 1047   4.124   3.260   0.090
   50SOL     OW 1048   6.346   3.231   6.756
   50SOL    HW1 1049   6.253   3.197   6.740
   50SOL    HW2 1050   6.369   3.220   6.852
   51SOL     OW 1051   2.684   6.133   2.660
   51SOL    HW1 1052   2.766   6.082   2.685
   51SOL    HW2 1053   2.615   6.070   2.624
   52SOL     OW 1054   5.470   2.359   1.365
   52SOL    HW1 1055   5.500   2.285   1.305
   52SOL    HW2 1056   5.541   2.430   1.369
   53SOL     OW 1057   3.850   0.594   2.144
   53SOL    HW1 1058   3.854   0.497   2.168
   53SOL    HW2 1059   3.851   0.604   2.045
   54SOL     OW 1060   5.602   6.663   7.018
   54SOL    HW1 1061   5.590   6.723   0.073
   54SOL    HW2 1062   5.697   6.669   6.986
   55SOL     OW 1063   0.639   3.312   6.354
   55SOL    HW1 1064   0.612   3.380   6.285
   55SOL    HW2 1065   0.656   3.358   6.441
   56SOL     OW 1066   0.741   2.576   6.747
   56SOL    HW1 1067   0.691   2.516   6.684
   56SOL    HW2 1068   0.739   2.537   6.838
   57SOL     OW 1069   4.689   0.289   0.198
   57SOL    HW1 1070   4.595   0.302   0.231
   57SOL    HW2 1071   4.686   0.237   0.112
   58SOL     OW 1072   1.035   0.322   6.188
   58SOL    HW1 1073   0.965   0.390   6.166
   58SOL    HW2 1074   1.005   0.233   6.155
   59SOL     OW 1075   5.000   3.303   5.694
   59SOL    HW1 1076   4.916   3.349   5.725
   59SOL    HW2 1077   5.010   3.315   5.596
   60SOL     OW 1078   5.569   0.841   2.732
   60SOL    HW1 1079   5.503   0.786   2.783
   60SOL    HW2 1080   5.558   0.823   2.634
   61SOL     OW 1081   6.735   6.186   5.171
   61SOL    HW1 1082   6.680   6.262   5.204
   61SOL    HW2 1083   6.823   6.184   5.219
   62SOL     OW 1084   6.539   1.899   2.125
   62SOL    HW1 1085   6.522   1.968   2.196
   62SOL    HW2 1086   6.482   1.918   2.045
   63SOL     OW 1087   4.662   6.144   5.080
   63SOL    HW1 1088   4.743   6.199   5.064
   63SOL    HW2 1089   4.688   6.056   5.120
   64SOL     OW 1090   0.102   4.564   0.087
   64SOL    HW1 1091   0.130   4.521   0.173
   64SOL    HW2 1092   0.155   4.647   0.072
   65SOL     OW 1093   0.950   0.250   5.239
   65SOL    HW1 1094   0.886   0.207   5.302
   65SOL    HW2 1095   1.042   0.216   5.257
   66SOL     OW 1096   4.576   0.787   2.330
   66SOL    HW1 1097   4.634   0.719   2.375
   66SOL    HW2 1098   4.633   0.850   2.277
   67SOL     OW 1099   1.137   2.467   1.186
   67SOL    HW1 1100   1.105   2.417   1.105
   67SOL    HW2 1101   1.086   2.552   1.194
   68SOL     OW 1102   0.229   1.700   5.242
   68SOL    HW1 1103   0.229   1.767   5.168
   68SOL    HW2 1104   0.291   1.730   5.314
   69SOL     OW 1105   1.104   6.001   6.150
   69SOL    HW1 1106   1.180   6.000   6.215
   69SOL    HW2 1107   1.119   6.071   6.081
   70SOL     OW 1108   4.961   3.564   3.903
   70SOL    HW1 1109   5.058   3.588   3.896
   70SOL    HW2 1110   4.906   3.635   3.857
   71SOL     OW 1111   4.450   1.429   4.314
   71SOL    HW1 1112   4.493   1.488   4.246
   71SOL    HW2 1113   4.374   1.477   4.357
   72SOL     OW 1114   0.465   0.615   3.799
   72SOL    HW1 1115   0.456   0.684   3.727
   72SOL    HW2 1116   0.509   0.655   3.879
   73SOL     OW 1117   2.843   0.612   1.222
   73SOL    HW1 1118   2.883   0.682   1.281
   73SOL    HW2 1119   2.746   0.630   1.210
   74SOL     OW 1120   2.102   2.529   0.792
   74SOL    HW1 1121   2.132   2.440   0.757
   74SOL    HW2 1122   2.167   2.561   0.861
   75SOL     OW 1123   4.035   2.969   0.130
   75SOL    HW1 1124   3.963   2.934   0.190
   75SOL    HW2 1125   3.998   3.045   0.076
   76SOL     OW 1126   3.440   4.670   5.275
   76SOL    HW1 1127   3.347   4.695   5.247
   76SOL    HW2 1128   3.456   4.699   5.369
   77SOL     OW 1129   1.409   4.386   4.714
   77SOL    HW1 1130   1.426   4.447   4.636
   77SOL    HW2 1131   1.460   4.301   4.702
   78SOL     OW 1132   5.192   1.754   0.856
   78SOL    HW1 1133   5.147   1.785   0.772
   78SOL    HW2 1134   5.196   1.830   0.921
   79SOL     OW 1135   1.683   5.041   2.828
   79SOL    HW1 1136   1.780   5.027   2.845
   79SOL    HW2 1137   1.657   5.133   2.856
   80SOL     OW 1138   4.716   1.655   4.672
   80SOL    HW1 1139   4.677   1.737   4.630
   80SOL    HW2 1140   4.732   1.672   4.770
   81SOL     OW 1141   3.923   5.662   1.205
   81SOL    HW1 1142   3.961   5.752   1.184
   81SOL    HW2 1143   3.844   5.644   1.145
   82SOL     OW 1144   2.294   5.951   1.409
   82SOL    HW1 1145   2.370   5.904   1.454
   82SOL    HW2 1146   2.322   5.980   1.318
   83SOL     OW 1147   5.195   1.342   4.745
   83SOL    HW1 1148   5.147   1.258   4.719
   83SOL    HW2 1149   5.284   1.344   4.700
   84SOL     OW 1150   5.676   2.194   2.343
   84SOL    HW1 1151   5.699   2.156   2.433
   84SOL    HW2 1152   5.616   2.131   2.294
   85SOL     OW 1153   2.061   0.589   3.908
   85SOL    HW1 1154   2.020   0.675   3.938
   85SOL    HW2 1155   2.155   0.605   3.878
   86SOL     OW 1156   5.278   0.521   6.676
   86SOL    HW1 1157   5.366   0.507   6.630
   86SOL    HW2 1158   5.257   0.442   6.735
   87SOL     OW 1159   2.730   4.387   0.095
   87SOL    HW1 1160   2.786   4.398   0.012
   87SOL    HW2 1161   2.784   4.413   0.175
   88SOL     OW 1162   3.140   3.853   0.008
   88SOL    HW1 1163   3.086   3.827   0.088
   88SOL    HW2 1164   3.210   3.919   0.035
   89SOL     OW 1165   3.026   3.967   3.266
   89SOL    HW1 1166   3.012   3.909   3.346
   89SOL    HW2 1167   2.940   3.981   3.219
   90SOL     OW 1168   4.745   4.221   3.362
   90SOL    HW1 1169   4.795   4.298   3.323
   90SOL    HW2 1170   4.778   4.135   3.322
   91SOL     OW 1171   4.459   4.902   5.864
   91SOL    HW1 1172   4.464   4.806   5.838
   91SOL    HW2 1173   4.524   4.956   5.810
   92SOL     OW 1174   5.870   3.817   6.524
   92SOL    HW1 1175   5.879   3.784   6.618
   92SOL    HW2 1176   5.874   3.917   6.523
   93SOL     OW 1177   2.992   3.805   1.926
   93SOL    HW1 1178   2.914   3.752   1.892
   93SOL    HW2 1179   2.982   3.817   2.025
   94SOL     OW 1180   3.314   1.775   5.374
   94SOL    HW1 1181   3.285   1.777   5.469
   94SOL    HW2 1182   3.238   1.805   5.315
   95SOL     OW 1183   0.563   0.416   4.440
   95SOL    HW1 1184   0.640   0.413   4.503
   95SOL    HW2 1185   0.596   0.420   4.346
   96SOL     OW 1186   5.351   5.230   0.297
   96SOL    HW1 1187   5.338   5.136   0.265
   96SOL    HW2 1188   5.347   5.233   0.396
   97SOL     OW 1189   2.747   5.067   5.747
   97SOL    HW1 1190   2.703   4.978   5.754
   97SOL    HW2 1191   2.681   5.139   5.769
   98SOL     OW 1192   1.485   2.225   3.466
   98SOL    HW1 1193   1.547   2.233   3.544
   98SOL    HW2 1194   1.457   2.130   3.455
   99SOL     OW 1195   4.023   3.296   5.028
   99SOL    HW1 1196   4.032   3.387   4.988
   99SOL    HW2 1197   4.040   3.302   5.127
  100SOL     OW 1198   0.169   1.012   4.217
  100SOL    HW1 1199   0.232   1.052   4.150
  100SOL    HW2 1200   0.098   1.078   4.239
  101SOL     OW 1201   6.739   4.124   2.477
  101SOL    HW1 1202   6.696   4.088   2.560
  101SOL    HW2 1203   6.826   4.076   2.461
  102SOL     OW 1204   3.096   0.406   0.143
  102SOL    HW1 1205   3.025   0.445   0.084
  102SOL    HW2 1206   3.177   0.385   0.089
  103SOL     OW 1207   2.422   0.854   2.072
  103SOL    HW1 1208   2.453   0.773   2.123
  103SOL    HW2 1209   2.493   0.924   2.073
  104SOL     OW 1210   0.737   4.222   1.388
  104SOL    HW1 1211   0.737   4.135   1.439
  104SOL    HW2 1212   0.700   4.207   1.297
  105SOL     OW 1213   5.899   1.030   5.540
  105SOL    HW1 1214   5.961   1.061   5.612
  105SOL    HW2 1215   5.942   1.042   5.451
  106SOL     OW 1216   5.665   4.620   1.932
  106SOL    HW1 1217   5.575   4.594   1.967
  106SOL    HW2 1218   5.719   4.537   1.917
  107SOL     OW 1219   5.866   0.286   1.160
  107SOL    HW1 1220   5.908   0.213   1.107
  107SOL    HW2 1221   5.914   0.372   1.143
  108SOL     OW 1222   2.000   0.887   5.542
  108SOL    HW1 1223   1.946   0.953   5.594
  108SOL    HW2 1224   1.940   0.815   5.506
  109SOL     OW 1225   1.713   1.042   3.834
  109SOL    HW1 1226   1.667   1.092   3.762
  109SOL    HW2 1227   1.714   0.944   3.812
  110SOL     OW 1228   3.256   4.315   5.303
  110SOL    HW1 1229   3.283   4.411   5.307
  110SOL    HW2 1230   3.336   4.259   5.280
  111SOL     OW 1231   6.731   1.686   1.622
  111SOL    HW1 1232   6.815   1.701   1.571
  111SOL    HW2 1233   6.673   1.621   1.573
  112SOL     OW 1234   4.762   0.006   6.746
  112SOL    HW1 1235   4.827   0.030   6.818
  112SOL    HW2 1236   4.783   6.938   6.713
  113SOL     OW 1237   0.278   5.988   1.924
  113SOL    HW1 1238   0.193   5.956   1.965
  113SOL    HW2 1239   0.260   6.066   1.865
  114SOL     OW 1240   0.246   3.576   3.489
  114SOL    HW1 1241   0.251   3.477   3.485
  114SOL    HW2 1242   0.318   3.616   3.431
  115SOL     OW 1243   5.545   0.796   4.286
  115SOL    HW1 1244   5.445   0.789   4.287
  115SOL    HW2 1245   5.571   0.887   4.255
  116SOL     OW 1246   0.612   4.477   0.128
  116SOL    HW1 1247   0.618   4.533   0.210
  116SOL    HW2 1248   0.671   4.515   0.057
  117SOL     OW 1249   2.412   1.815   0.084
  117SOL    HW1 1250   2.486   1.778   0.026
  117SOL    HW2 1251   2.325   1.807   0.036
  118SOL     OW 1252   1.323   1.876   4.452
  118SOL    HW1 1253   1.302   1.930   4.371
  118SOL    HW2 1254   1.306   1.780   4.433
  119SOL     OW 1255   6.598   6.190   6.700
  119SOL    HW1 1256   6.609   6.104   6.650
  119SOL    HW2 1257   6.501   6.213   6.706
  120SOL     OW 1258   4.699   1.959   4.673
  120SOL    HW1 1259   4.628   2.030   4.672
  120SOL    HW2 1260   4.747   1.963   4.760
  121SOL     OW 1261   1.529   4.671   6.583
  121SOL    HW1 1262   1.447   4.622   6.554
  121SOL    HW2 1263   1.579   4.703   6.502
  122SOL     OW 1264   0.623   3.817   6.656
  122SOL    HW1 1265   0.661   3.840   6.746
  122SOL    HW2 1266   0.642   3.721   6.636
  123SOL     OW 1267   1.152   1.484   1.606
  123SOL    HW1 1268   1.101   1.400   1.585
  123SOL    HW2 1269   1.250   1.464   1.601
  124SOL     OW 1270   2.402   2.660   0.752
  124SOL    HW1 1271   2.448   2.575   0.727
  124SOL    HW2 1272   2.342   2.644   0.831
  125SOL     OW 1273   3.708   3.485   0.307
  125SOL    HW1 1274   3.698   3.394   0.347
  125SOL    HW2 1275   3.734   3.477   0.211
  126SOL     OW 1276   4.067   3.523   4.493
  126SOL    HW1 1277   4.111   3.461   4.428
  126SOL    HW2 1278   4.033   3.472   4.572
  127SOL     OW 1279   0.778   6.043   5.974
  127SOL    HW1 1280   0.853   6.105   5.996
  127SOL    HW2 1281   0.694   6.096   5.961
  128SOL     OW 1282   4.576   3.483   0.570
  128SOL    HW1 1283   4.564   3.427   0.652
  128SOL    HW2 1284   4.631   3.433   0.503
  129SOL     OW 1285   1.277   5.437   1.035
  129SOL    HW1 1286   1.275   5.535   1.056
  129SOL    HW2 1287   1.326   5.422   0.949
  130SOL     OW 1288   5.318   2.514   5.189
  130SOL    HW1 1289   5.340   2.567   5.107
  130SOL    HW2 1290   5.303   2.418   5.165
  131SOL     OW 1291   0.018   1.942   3.742
  131SOL    HW1 1292   0.016   1.842   3.748
  131SOL    HW2 1293   0.032   1.980   3.833
  132SOL     OW 1294   4.091   3.520   2.120
  132SOL    HW1 1295   4.062   3.601   2.069
  132SOL    HW2 1296   4.127   3.452   2.056
  133SOL     OW 1297   5.330   6.533   5.961
  133SOL    HW1 1298   5.250   6.544   5.903
  133SOL    HW2 1299   5.335   6.439   5.994
  134SOL     OW 1300   4.759   0.971   1.776
  134SOL    HW1 1301   4.693   0.909   1.735
  134SOL    HW2 1302   4.804   0.926   1.854
  135SOL     OW 1303   4.900   3.459   3.295
  135SOL    HW1 1304   4.859   3.378   3.254
  135SOL    HW2 1305   4.974   3.432   3.356
  136SOL     OW 1306   3.412   0.090   6.232
  136SOL    HW1 1307   3.497   0.057   6.273
  136SOL    HW2 1308   3.434   0.139   6.147
  137SOL     OW 1309   3.198   2.596   5.793
  137SOL    HW1 1310   3.166   2.665   5.728
  137SOL    HW2 1311   3.121   2.538   5.821
  138SOL     OW 1312   1.028   5.725   6.032
  138SOL    HW1 1313   1.101   5.709   5.966
  138SOL    HW2 1314   1.045   5.811   6.080
  139SOL     OW 1315   2.055   6.014   0.009
  139SOL    HW1 1316   2.027   5.922   0.037
  139SOL    HW2 1317   2.152   6.027   0.030
  140SOL     OW 1318   2.933   0.188   1.785
  140SOL    HW1 1319   2.897   0.200   1.693
  140SOL    HW2 1320   3.030   0.164   1.781
  141SOL     OW 1321   6.367   3.269   0.367
  141SOL    HW1 1322   6.383   3.170   0.376
  141SOL    HW2 1323   6.451   3.318   0.391
  142SOL     OW 1324   1.483   4.251   2.311
  142SOL    HW1 1325   1.555   4.299   2.260
  142SOL    HW2 1326   1.481   4.283   2.405
  143SOL     OW 1327   4.855   6.617   2.255
  143SOL    HW1 1328   4.840   6.565   2.339
  143SOL    HW2 1329   4.900   6.703   2.277
  144SOL     OW 1330   3.573   4.954   3.509
  144SOL    HW1 1331   3.512   4.911   3.575
  144SOL    HW2 1332   3.563   5.054   3.514
  145SOL     OW 1333   6.713   4.993   3.032
  145SOL    HW1 1334   6.770   5.029   3.106
  145SOL    HW2 1335   6.770   4.945   2.966
  146SOL     OW 1336   5.579   1.459   6.580
  146SOL    HW1 1337   5.642   1.407   6.522
  146SOL    HW2 1338   5.579   1.419   6.672
  147SOL     OW 1339   5.147   1.064   5.485
  147SOL    HW1 1340   5.189   1.111   5.563
  147SOL    HW2 1341   5.145   0.966   5.502
  148SOL     OW 1342   1.000   5.069   0.733
  148SOL    HW1 1343   0.996   5.122   0.648
  148SOL    HW2 1344   1.093   5.038   0.749
  149SOL     OW 1345   2.057   2.814   5.632
  149SOL    HW1 1346   2.039   2.871   5.713
  149SOL    HW2 1347   2.150   2.779   5.635
  150SOL     OW 1348   4.074   1.805   4.958
  150SOL    HW1 1349   4.110   1.881   5.011
  150SOL    HW2 1350   4.094   1.719   5.004
  151SOL     OW 1351   4.022   2.564   0.582
  151SOL    HW1 1352   3.937   2.523   0.614
  151SOL    HW2 1353   4.083   2.493   0.547
  152SOL     OW 1354   1.204   2.306   0.316
  152SOL    HW1 1355   1.220   2.361   0.399
  152SOL    HW2 1356   1.280   2.244   0.302
  153SOL     OW 1357   3.191   1.120   3.565
  153SOL    HW1 1358   3.253   1.059   3.515
  153SOL    HW2 1359   3.236   1.208   3.579
  154SOL     OW 1360   6.043   1.320   1.621
  154SOL    HW1 1361   6.036   1.317   1.521
  154SOL    HW2 1362   6.132   1.355   1.647
  155SOL     OW 1363   1.662   6.897   2.455
  155SOL    HW1 1364   1.601   6.974   2.438
  155SOL    HW2 1365   1.743   6.905   2.397
  156SOL     OW 1366   5.035   2.148   0.693
  156SOL    HW1 1367   5.009   2.177   0.601
  156SOL    HW2 1368   4.979   2.195   0.761
  157SOL     OW 1369   4.348   5.158   0.014
  157SOL    HW1 1370   4.388   5.127   6.952
  157SOL    HW2 1371   4.332   5.079   0.073
  158SOL     OW 1372   0.055   2.896   2.976
  158SOL    HW1 1373   0.087   2.959   2.905
  158SOL    HW2 1374   0.049   2.945   3.063
  159SOL     OW 1375   5.932   5.471   0.419
  159SOL    HW1 1376   5.854   5.516   0.460
  159SOL    HW2 1377   5.965   5.524   0.341
  160SOL     OW 1378   6.455   0.051   1.255
  160SOL    HW1 1379   6.381   0.006   1.204
  160SOL    HW2 1380   6.538   7.019   1.248
  161SOL     OW 1381   0.106   6.765   0.473
  161SOL    HW1 1382   0.098   6.697   0.401
  161SOL    HW2 1383   0.202   6.783   0.492
  162SOL     OW 1384   4.326   0.228   0.259
  162SOL    HW1 1385   4.324   0.205   0.357
  162SOL    HW2 1386   4.311   0.145   0.205
  163SOL     OW 1387   6.743   4.027   2.804
  163SOL    HW1 1388   6.802   4.099   2.766
  163SOL    HW2 1389   6.792   3.940   2.804
  164SOL     OW 1390   2.171   2.193   3.480
  164SOL    HW1 1391   2.271   2.200   3.484
  164SOL    HW2 1392   2.145   2.105   3.441
  165SOL     OW 1393   0.810   5.999   3.603
  165SOL    HW1 1394   0.724   6.009   3.653
  165SOL    HW2 1395   0.873   6.072   3.631
  166SOL     OW 1396   0.051   3.526   3.102
  166SOL    HW1 1397   6.995   3.467   3.113
  166SOL    HW2 1398   0.049   3.571   3.013
  167SOL     OW 1399   4.630   2.095   0.273
  167SOL    HW1 1400   4.611   2.142   0.188
  167SOL    HW2 1401   4.548   2.048   0.305
  168SOL     OW 1402   5.075   4.388   1.970
  168SOL    HW1 1403   5.112   4.316   2.029
  168SOL    HW2 1404   4.988   4.358   1.932
  169SOL     OW 1405   5.709   2.170   1.400
  169SOL    HW1 1406   5.657   2.240   1.450
  169SOL    HW2 1407   5.739   2.099   1.464
  170SOL     OW 1408   0.800   5.461   2.911
  170SOL    HW1 1409   0.821   5.394   2.981
  170SOL    HW2 1410   0.728   5.523   2.944
  171SOL     OW 1411   3.149   4.449   0.546
  171SOL    HW1 1412   3.135   4.498   0.460
  171SOL    HW2 1413   3.063   4.448   0.598
  172SOL     OW 1414   6.783   2.117   0.125
  172SOL    HW1 1415   6.762   2.197   0.182
  172SOL    HW2 1416   6.731   2.123   0.040
  173SOL     OW 1417   6.976   1.877   5.020
  173SOL    HW1 1418   6.956   1.971   5.048
  173SOL    HW2 1419   0.050   1.867   5.004
  174SOL     OW 1420   6.041   5.355   5.549
  174SOL    HW1 1421   6.029   5.415   5.629
  174SOL    HW2 1422   6.125   5.381   5.501
  175SOL     OW 1423   0.752   0.231   1.138
  175SOL    HW1 1424   0.743   0.316   1.190
  175SOL    HW2 1425   0.812   0.168   1.187
  176SOL     OW 1426   5.414   4.520   2.017
  176SOL    HW1 1427   5.463   4.434   2.034
  176SOL    HW2 1428   5.359   4.543   2.097
  177SOL     OW 1429   5.879   2.722   4.390
  177SOL    HW1 1430   5.907   2.818   4.388
  177SOL    HW2 1431   5.779   2.716   4.389
  178SOL     OW 1432   1.801   6.327   5.211
  178SOL    HW1 1433   1.849   6.415   5.204
  178SOL    HW2 1434   1.840   6.263   5.145
  179SOL     OW 1435   3.636   4.770   1.410
  179SOL    HW1 1436   3.544   4.793   1.381
  179SOL    HW2 1437   3.697   4.768   1.331
  180SOL     OW 1438   3.997   1.598   0.548
  180SOL    HW1 1439   3.919   1.539   0.529
  180SOL    HW2 1440   4.075   1.541   0.576
  181SOL     OW 1441   3.046   2.363   5.501
  181SOL    HW1 1442   3.108   2.290   5.531
  181SOL    HW2 1443   3.013   2.343   5.409
  182SOL     OW 1444   4.649   2.549   6.970
  182SOL    HW1 1445   4.663   2.568   6.873
  182SOL    HW2 1446   4.560   2.582   6.999
  183SOL     OW 1447   3.465   1.409   3.603
  183SOL    HW1 1448   3.418   1.496   3.587
  183SOL    HW2 1449   3.427   1.366   3.685
  184SOL     OW 1450   5.710   6.110   3.916
  184SOL    HW1 1451   5.803   6.083   3.942
  184SOL    HW2 1452   5.655   6.028   3.901
  185SOL     OW 1453   6.569   1.264   4.125
  185SOL    HW1 1454   6.508   1.343   4.133
  185SOL    HW2 1455   6.522   1.190   4.078
  186SOL     OW 1456   4.502   5.952   3.866
  186SOL    HW1 1457   4.480   6.049   3.876
  186SOL    HW2 1458   4.590   5.942   3.818
  187SOL     OW 1459   4.876   6.275   1.718
  187SOL    HW1 1460   4.826   6.230   1.792
  187SOL    HW2 1461   4.902   6.368   1.747
  188SOL     OW 1462   1.734   3.324   3.297
  188SOL    HW1 1463   1.646   3.278   3.315
  188SOL    HW2 1464   1.766   3.299   3.206
  189SOL     OW 1465   6.158   5.284   6.196
  189SOL    HW1 1466   6.099   5.346   6.142
  189SOL    HW2 1467   6.157   5.194   6.154
  190SOL     OW 1468   6.295   0.316   0.140
  190SOL    HW1 1469   6.228   0.388   0.123
  190SOL    HW2 1470   6.297   0.293   0.237
  191SOL     OW 1471   0.005   1.133   5.818
  191SOL    HW1 1472   6.966   1.208   5.840
  191SOL    HW2 1473   0.099   1.166   5.824
  192SOL     OW 1474   0.577   5.329   0.734
  192SOL    HW1 1475   0.588   5.371   0.824
  192SOL    HW2 1476   0.520   5.388   0.676
  193SOL     OW 1477   2.511   6.101   6.321
  193SOL    HW1 1478   2.437   6.096   6.388
  193SOL    HW2 1479   2.492   6.036   6.247
  194SOL     OW 1480   4.099   6.741   2.291
  194SOL    HW1 1481   4.043   6.664   2.260
  194SOL    HW2 1482   4.136   6.789   2.212
  195SOL     OW 1483   3.718   0.601   1.637
  195SOL    HW1 1484   3.682   0.682   1.591
  195SOL    HW2 1485   3.701   0.520   1.581
  196SOL     OW 1486   2.137   1.512   0.769
  196SOL    HW1 1487   2.138   1.432   0.829
  196SOL    HW2 1488   2.181   1.489   0.682
  197SOL     OW 1489   2.198   6.267   0.626
  197SOL    HW1 1490   2.256   6.348   0.635
  197SOL    HW2 1491   2.103   6.295   0.610
  198SOL     OW 1492   4.218   0.163   6.630
  198SOL    HW1 1493   4.285   0.162   6.556
  198SOL    HW2 1494   4.258   0.206   6.711
  199SOL     OW 1495   6.508   6.632   3.155
  199SOL    HW1 1496   6.477   6.710   3.209
  199SOL    HW2 1497   6.486   6.547   3.204
  200SOL     OW 1498   0.166   3.765   3.694
  200SOL    HW1 1499   0.103   3.693   3.722
  200SOL    HW2 1500   0.206   3.742   3.605
  201SOL     OW 1501   3.441   1.110   6.224
  201SOL    HW1 1502   3.482   1.019   6.235
  201SOL    HW2 1503   3.470   1.149   6.137
  202SOL     OW 1504   3.471   0.414   2.623
  202SOL    HW1 1505   3.419   0.342   2.577
  202SOL    HW2 1506   3.450   0.502   2.581
  203SOL     OW 1507   5.531   3.469   6.459
  203SOL    HW1 1508   5.455   3.461   6.395
  203SOL    HW2 1509   5.559   3.565   6.467
  204SOL     OW 1510   2.195   6.619   1.067
  204SOL    HW1 1511   2.201   6.710   1.025
  204SOL    HW2 1512   2.114   6.572   1.031
  205SOL     OW 1513   6.257   1.604   0.377
  205SOL    HW1 1514   6.343   1.649   0.352
  205SOL    HW2 1515   6.184   1.637   0.318
  206SOL     OW 1516   1.021   4.481   1.952
  206SOL    HW1 1517   1.110   4.433   1.949
  206SOL    HW2 1518   0.977   4.475   1.863
  207SOL     OW 1519   4.581   0.578   5.716
  207SOL    HW1 1520   4.539   0.519   5.647
  207SOL    HW2 1521   4.681   0.577   5.705
  208SOL     OW 1522   4.321   5.446   6.230
  208SOL    HW1 1523   4.257   5.407   6.296
  208SOL    HW2 1524   4.293   5.420   6.137
  209SOL     OW 1525   6.703   5.499   5.866
  209SOL    HW1 1526   6.738   5.491   5.773
  209SOL    HW2 1527   6.715   5.413   5.914
  210SOL     OW 1528   4.047   3.117   1.093
  210SOL    HW1 1529   4.046   3.075   1.002
  210SOL    HW2 1530   4.099   3.202   1.091
  211SOL     OW 1531   1.736   1.429   0.992
  211SOL    HW1 1532   1.641   1.399   0.979
  211SOL    HW2 1533   1.785   1.363   1.048
  212SOL     OW 1534   0.195   4.804   4.269
  212SOL    HW1 1535   0.225   4.736   4.336
  212SOL    HW2 1536   0.271   4.830   4.211
  213SOL     OW 1537   5.079   2.191   7.010
  213SOL    HW1 1538   5.072   2.136   0.069
  213SOL    HW2 1539   4.991   2.234   6.991
  214SOL     OW 1540   1.073   0.541   2.781
  214SOL    HW1 1541   1.155   0.545   2.724
  214SOL    HW2 1542   1.006   0.479   2.740
  215SOL     OW 1543   3.532   3.441   2.975
  215SOL    HW1 1544   3.519   3.362   2.915
  215SOL    HW2 1545   3.455   3.449   3.037
  216SOL     OW 1546   1.148   6.727   5.674
  216SOL    HW1 1547   1.174   6.814   5.716
  216SOL    HW2 1548   1.230   6.676   5.649
  217SOL     OW 1549   0.585   2.594   2.940
  217SOL    HW1 1550   0.679   2.599   2.975
  217SOL    HW2 1551   0.537   2.678   2.962
  218SOL     OW 1552   1.129   3.923   5.257
  218SOL    HW1 1553   1.158   4.016   5.237
  218SOL    HW2 1554   1.152   3.864   5.180
  219SOL     OW 1555   4.831   5.421   7.011
  219SOL    HW1 1556   4.808   5.419   0.084
  219SOL    HW2 1557   4.928   5.442   7.000
  220SOL     OW 1558   2.691   5.340   0.293
  220SOL    HW1 1559   2.620   5.285   0.337
  220SOL    HW2 1560   2.654   5.381   0.210
  221SOL     OW 1561   5.626   2.168   4.563
  221SOL    HW1 1562   5.533   2.149   4.530
  221SOL    HW2 1563   5.673   2.226   4.496
  222SOL     OW 1564   0.678   5.955   5.556
  222SOL    HW1 1565   0.588   5.911   5.547
  222SOL    HW2 1566   0.669   6.052   5.532
  223SOL     OW 1567   6.943   3.834   1.960
  223SOL    HW1 1568   6.877   3.797   2.025
  223SOL    HW2 1569   7.007   3.894   2.008
  224SOL     OW 1570   2.954   2.305   1.654
  224SOL    HW1 1571   2.961   2.385   1.713
  224SOL    HW2 1572   2.887   2.241   1.691
  225SOL     OW 1573   6.209   0.850   6.860
  225SOL    HW1 1574   6.187   0.921   6.928
  225SOL    HW2 1575   6.300   0.813   6.880
  226SOL     OW 1576   6.847   5.983   1.056
  226SOL    HW1 1577   6.847   5.894   1.010
  226SOL    HW2 1578   6.788   5.978   1.137
  227SOL     OW 1579   1.494   3.409   3.768
  227SOL    HW1 1580   1.424   3.338   3.778
  227SOL    HW2 1581   1.459   3.495   3.808
  228SOL     OW 1582   4.471   6.832   3.810
  228SOL    HW1 1583   4.500   6.778   3.731
  228SOL    HW2 1584   4.371   6.830   3.816
  229SOL     OW 1585   6.027   5.975   2.462
  229SOL    HW1 1586   6.017   6.005   2.557
  229SOL    HW2 1587   5.942   5.934   2.431
  230SOL     OW 1588   2.194   4.461   4.954
  230SOL    HW1 1589   2.170   4.365   4.970
  230SOL    HW2 1590   2.189   4.512   5.040
  231SOL     OW 1591   0.971   2.672   6.129
  231SOL    HW1 1592   1.034   2.608   6.174
  231SOL    HW2 1593   0.908   2.710   6.197
  232SOL     OW 1594   2.066   4.805   6.609
  232SOL    HW1 1595   2.115   4.722   6.581
  232SOL    HW2 1596   1.973   4.803   6.573
  233SOL     OW 1597   2.205   0.934   5.972
  233SOL    HW1 1598   2.283   0.979   5.929
  233SOL    HW2 1599   2.214   0.835   5.963
  234SOL     OW 1600   2.814   5.565   6.763
  234SOL    HW1 1601   2.870   5.594   6.840
  234SOL    HW2 1602   2.790   5.468   6.774
  235SOL     OW 1603   2.965   3.339   4.552
  235SOL    HW1 1604   2.997   3.415   4.609
  235SOL    HW2 1605   2.866   3.331   4.558
  236SOL     OW 1606   6.788   2.065   5.360
  236SOL    HW1 1607   6.736   2.009   5.425
  236SOL    HW2 1608   6.886   2.052   5.376
  237SOL     OW 1609   0.683   0.107   1.476
  237SOL    HW1 1610   0.748   0.063   1.415
  237SOL    HW2 1611   0.695   0.206   1.472
  238SOL     OW 1612   6.053   2.392   3.023
  238SOL    HW1 1613   5.972   2.372   3.079
  238SOL    HW2 1614   6.043   2.347   2.934
  239SOL     OW 1615   6.921   5.789   0.240
  239SOL    HW1 1616   6.931   5.788   0.339
  239SOL    HW2 1617   6.962   5.873   0.203
  240SOL     OW 1618   0.179   3.980   5.720
  240SOL    HW1 1619   0.267   3.949   5.754
  240SOL    HW2 1620   0.192   4.059   5.660
  241SOL     OW 1621   0.435   0.811   3.016
  241SOL    HW1 1622   0.521   0.792   3.062
  241SOL    HW2 1623   0.397   0.726   2.979
  242SOL     OW 1624   1.791   3.735   4.220
  242SOL    HW1 1625   1.840   3.816   4.253
  242SOL    HW2 1626   1.697   3.737   4.255
  243SOL     OW 1627   5.511   6.917   5.556
  243SOL    HW1 1628   5.536   7.005   5.515
  243SOL    HW2 1629   5.451   6.933   5.635
  244SOL     OW 1630   6.249   2.167   6.025
  244SOL    HW1 1631   6.223   2.090   6.083
  244SOL    HW2 1632   6.186   2.173   5.947
  245SOL     OW 1633   5.578   2.192   4.161
  245SOL    HW1 1634   5.625   2.154   4.081
  245SOL    HW2 1635   5.645   2.221   4.229
  246SOL     OW 1636   5.111   3.351   3.053
  246SOL    HW1 1637   5.160   3.269   3.084
  246SOL    HW2 1638   5.031   3.365   3.112
  247SOL     OW 1639   2.607   1.510   3.664
  247SOL    HW1 1640   2.512   1.516   3.634
  247SOL    HW2 1641   2.619   1.428   3.720
  248SOL     OW 1642   6.103   1.430   3.292
  248SOL    HW1 1643   6.096   1.515   3.345
  248SOL    HW2 1644   6.091   1.451   3.195
  249SOL     OW 1645   3.091   6.866   3.872
  249SOL    HW1 1646   3.174   6.811   3.863
  249SOL    HW2 1647   3.073   6.913   3.786
  250SOL     OW 1648   5.121   2.869   6.194
  250SOL    HW1 1649   5.042   2.838   6.247
  250SOL    HW2 1650   5.089   2.921   6.114
  251SOL     OW 1651   4.094   2.622   0.292
  251SOL    HW1 1652   4.142   2.709   0.282
  251SOL    HW2 1653   4.078   2.604   0.389
  252SOL     OW 1654   7.023   0.783   5.587
  252SOL    HW1 1655   0.009   0.880   5.564
  252SOL    HW2 1656   6.958   0.773   5.662
  253SOL     OW 1657   2.938   3.617   6.682
  253SOL    HW1 1658   2.909   3.528   6.647
  253SOL    HW2 1659   2.961   3.608   6.779
  254SOL     OW 1660   5.730   3.173   5.116
  254SOL    HW1 1661   5.719   3.078   5.143
  254SOL    HW2 1662   5.641   3.212   5.096
  255SOL     OW 1663   2.772   2.008   3.494
  255SOL    HW1 1664   2.688   1.968   3.532
  255SOL    HW2 1665   2.820   2.059   3.565
  256SOL     OW 1666   5.664   5.118   6.884
  256SOL    HW1 1667   5.695   5.162   6.969
  256SOL    HW2 1668   5.575   5.076   6.899
  257SOL     OW 1669   3.093   6.446   6.034
  257SOL    HW1 1670   3.070   6.386   6.111
  257SOL    HW2 1671   3.150   6.521   6.066
  258SOL     OW 1672   5.409   4.341   4.622
  258SOL    HW1 1673   5.345   4.271   4.589
  258SOL    HW2 1674   5.503   4.308   4.613
  259SOL     OW 1675   1.425   2.159   2.188
  259SOL    HW1 1676   1.455   2.126   2.278
  259SOL    HW2 1677   1.503   2.157   2.125
  260SOL     OW 1678   5.356   0.360   5.943
  260SOL    HW1 1679   5.424   0.431   5.922
  260SOL    HW2 1680   5.394   0.296   6.010
  261SOL     OW 1681   0.809   3.785   2.345
  261SOL    HW1 1682   0.803   3.695   2.302
  261SOL    HW2 1683   0.899   3.825   2.328
  262SOL     OW 1684   0.894   4.708   2.070
  262SOL    HW1 1685   0.945   4.676   1.991
  262SOL    HW2 1686   0.951   4.769   2.124
  263SOL     OW 1687   1.122   1.987   4.282
  263SOL    HW1 1688   1.106   2.033   4.195
  263SOL    HW2 1689   1.067   1.904   4.287
  264SOL     OW 1690   2.451   4.566   6.332
  264SOL    HW1 1691   2.353   4.576   6.348
  264SOL    HW2 1692   2.489   4.501   6.398
  265SOL     OW 1693   5.389   3.456   4.824
  265SOL    HW1 1694   5.323   3.448   4.749
  265SOL    HW2 1695   5.343   3.493   4.905
  266SOL     OW 1696   4.167   1.611   0.313
  266SOL    HW1 1697   4.246   1.665   0.284
  266SOL    HW2 1698   4.114   1.663   0.379
  267SOL     OW 1699   1.103   2.383   5.925
  267SOL    HW1 1700   1.168   2.309   5.912
  267SOL    HW2 1701   1.151   2.471   5.919
  268SOL     OW 1702   4.047   4.813   4.550
  268SOL    HW1 1703   4.118   4.792   4.617
  268SOL    HW2 1704   3.964   4.842   4.598
  269SOL     OW 1705   0.514   1.538   5.772
  269SOL    HW1 1706   0.435   1.572   5.822
  269SOL    HW2 1707   0.577   1.614   5.753
  270SOL     OW 1708   4.961   1.137   3.740
  270SOL    HW1 1709   4.986   1.059   3.682
  270SOL    HW2 1710   4.914   1.205   3.685
  271SOL     OW 1711   1.522   1.028   0.312
  271SOL    HW1 1712   1.476   1.020   0.400
  271SOL    HW2 1713   1.602   0.968   0.311
  272SOL     OW 1714   3.358   5.644   3.330
  272SOL    HW1 1715   3.348   5.737   3.366
  272SOL    HW2 1716   3.438   5.640   3.270
  273SOL     OW 1717   2.724   6.444   5.528
  273SOL    HW1 1718   2.733   6.457   5.429
  273SOL    HW2 1719   2.716   6.534   5.573
  274SOL     OW 1720   6.206   2.148   1.429
  274SOL    HW1 1721   6.130   2.094   1.465
  274SOL    HW2 1722   6.282   2.088   1.405
  275SOL     OW 1723   6.361   6.159   5.375
  275SOL    HW1 1724   6.437   6.105   5.409
  275SOL    HW2 1725   6.324   6.117   5.292
  276SOL     OW 1726   6.472   6.356   3.695
  276SOL    HW1 1727   6.556   6.306   3.673
  276SOL    HW2 1728   6.405   6.293   3.734
  277SOL     OW 1729   4.811   1.228   5.555
  277SOL    HW1 1730   4.764   1.315   5.538
  277SOL    HW2 1731   4.906   1.247   5.581
  278SOL     OW 1732   5.907   3.246   2.513
  278SOL    HW1 1733   5.863   3.165   2.550
  278SOL    HW2 1734   5.948   3.225   2.424
  279SOL     OW 1735   6.906   2.646   4.348
  279SOL    HW1 1736   6.916   2.714   4.275
  279SOL    HW2 1737   6.971   2.571   4.333
  280SOL     OW 1738   3.188   1.026   3.823
  280SOL    HW1 1739   3.161   1.049   3.730
  280SOL    HW2 1740   3.163   0.931   3.843
  281SOL     OW 1741   5.186   6.124   3.905
  281SOL    HW1 1742   5.097   6.124   3.952
  281SOL    HW2 1743   5.242   6.197   3.943
  282SOL     OW 1744   3.732   1.790   0.302
  282SOL    HW1 1745   3.681   1.872   0.275
  282SOL    HW2 1746   3.676   1.709   0.284
  283SOL     OW 1747   6.469   1.686   5.210
  283SOL    HW1 1748   6.510   1.672   5.300
  283SOL    HW2 1749   6.487   1.607   5.152
  284SOL     OW 1750   5.581   5.841   3.820
  284SOL    HW1 1751   5.539   5.820   3.908
  284SOL    HW2 1752   5.639   5.764   3.792
  285SOL     OW 1753   4.414   0.467   5.902
  285SOL    HW1 1754   4.468   0.494   5.822
  285SOL    HW2 1755   4.335   0.528   5.910
  286SOL     OW 1756   2.647   5.153   5.170
  286SOL    HW1 1757   2.653   5.239   5.220
  286SOL    HW2 1758   2.711   5.087   5.211
  287SOL     OW 1759   3.017   6.787   5.814
  287SOL    HW1 1760   2.954   6.865   5.812
  287SOL    HW2 1761   3.106   6.816   5.846
  288SOL     OW 1762   3.697   1.111   0.995
  288SOL    HW1 1763   3.608   1.126   1.038
  288SOL    HW2 1764   3.734   1.023   1.026
  289SOL     OW 1765   6.016   6.506   4.314
  289SOL    HW1 1766   5.961   6.475   4.237
  289SOL    HW2 1767   6.057   6.595   4.292
  290SOL     OW 1768   3.593   1.070   5.145
  290SOL    HW1 1769   3.615   1.128   5.066
  290SOL    HW2 1770   3.676   1.048   5.194
  291SOL     OW 1771   3.935   6.937   5.019
  291SOL    HW1 1772   3.899   6.846   5.037
  291SOL    HW2 1773   3.970   6.977   5.104
  292SOL     OW 1774   4.545   0.106   3.806
  292SOL    HW1 1775   4.517   0.016   3.771
  292SOL    HW2 1776   4.485   0.177   3.769
  293SOL     OW 1777   5.637   6.674   2.454
  293SOL    HW1 1778   5.642   6.740   2.529
  293SOL    HW2 1779   5.727   6.662   2.413
  294SOL     OW 1780   6.378   0.534   5.582
  294SOL    HW1 1781   6.364   0.588   5.499
  294SOL    HW2 1782   6.296   0.480   5.601
  295SOL     OW 1783   1.548   1.663   5.066
  295SOL    HW1 1784   1.515   1.588   5.122
  295SOL    HW2 1785   1.532   1.750   5.113
  296SOL     OW 1786   0.020   2.558   0.949
  296SOL    HW1 1787   0.059   2.612   1.024
  296SOL    HW2 1788   6.983   2.489   0.986
  297SOL     OW 1789   5.620   3.625   4.035
  297SOL    HW1 1790   5.581   3.553   3.978
  297SOL    HW2 1791   5.548   3.667   4.090
  298SOL     OW 1792   3.817   1.108   6.641
  298SOL    HW1 1793   3.898   1.114   6.699
  298SOL    HW2 1794   3.757   1.036   6.674
  299SOL     OW 1795   2.044   0.947   6.183
  299SOL    HW1 1796   1.946   0.956   6.167
  299SOL    HW2 1797   2.093   0.959   6.096
  300SOL     OW 1798   4.237   0.124   3.000
  300SOL    HW1 1799   4.286   0.158   3.080
  300SOL    HW2 1800   4.287   0.148   2.917
  301SOL     OW 1801   6.689   5.589   1.001
  301SOL    HW1 1802   6.748   5.596   1.081
  301SOL    HW2 1803   6.645   5.499   0.999
  302SOL     OW 1804   6.210   6.093   1.654
  302SOL    HW1 1805   6.182   6.020   1.716
  302SOL    HW2 1806   6.301   6.125   1.680
  303SOL     OW 1807   5.587   5.508   2.066
  303SOL    HW1 1808   5.542   5.588   2.105
  303SOL    HW2 1809   5.684   5.529   2.051
  304SOL     OW 1810   2.855   6.504   5.283
  304SOL    HW1 1811   2.851   6.603   5.273
  304SOL    HW2 1812   2.800   6.460   5.213
  305SOL     OW 1813   1.007   2.782   2.284
  305SOL    HW1 1814   1.002   2.875   2.319
  305SOL    HW2 1815   0.916   2.751   2.257
  306SOL     OW 1816   6.546   0.208   2.697
  306SOL    HW1 1817   6.597   0.225   2.613
  306SOL    HW2 1818   6.526   0.296   2.742
  307SOL     OW 1819   3.291   3.191   3.030
  307SOL    HW1 1820   3.253   3.127   3.097
  307SOL    HW2 1821   3.371   3.150   2.986
  308SOL     OW 1822   5.618   1.928   3.752
  308SOL    HW1 1823   5.533   1.911   3.802
  308SOL    HW2 1824   5.609   2.014   3.700
  309SOL     OW 1825   1.046   6.232   5.982
  309SOL    HW1 1826   1.027   6.308   6.044
  309SOL    HW2 1827   1.130   6.250   5.931
  310SOL     OW 1828   5.181   6.277   4.992
  310SOL    HW1 1829   5.197   6.367   4.950
  310SOL    HW2 1830   5.231   6.207   4.941
  311SOL     OW 1831   2.458   5.280   2.948
  311SOL    HW1 1832   2.475   5.296   3.046
  311SOL    HW2 1833   2.400   5.354   2.913
  312SOL     OW 1834   4.530   2.176   2.980
  312SOL    HW1 1835   4.499   2.113   2.908
  312SOL    HW2 1836   4.572   2.124   3.054
  313SOL     OW 1837   4.074   3.153   3.041
  313SOL    HW1 1838   4.111   3.246   3.038
  313SOL    HW2 1839   4.081   3.118   3.135
  314SOL     OW 1840   2.313   6.352   6.141
  314SOL    HW1 1841   2.228   6.346   6.193
  314SOL    HW2 1842   2.362   6.435   6.165
  315SOL     OW 1843   6.426   1.596   3.234
  315SOL    HW1 1844   6.412   1.509   3.281
  315SOL    HW2 1845   6.509   1.640   3.269
  316SOL     OW 1846   3.720   1.322   5.315
  316SOL    HW1 1847   3.707   1.399   5.254
  316SOL    HW2 1848   3.673   1.339   5.402
  317SOL     OW 1849   1.403   1.377   1.585
  317SOL    HW1 1850   1.389   1.299   1.524
  317SOL    HW2 1851   1.496   1.411   1.575
  318SOL     OW 1852   0.430   0.447   5.515
  318SOL    HW1 1853   0.427   0.514   5.589
  318SOL    HW2 1854   0.376   0.367   5.540
  319SOL     OW 1855   1.251   2.111   2.590
  319SOL    HW1 1856   1.262   2.177   2.664
  319SOL    HW2 1857   1.166   2.130   2.541
  320SOL     OW 1858   5.996   2.374   6.500
  320SOL    HW1 1859   5.957   2.458   6.538
  320SOL    HW2 1860   5.931   2.299   6.512
  321SOL     OW 1861   4.460   3.199   1.066
  321SOL    HW1 1862   4.464   3.105   1.030
  321SOL    HW2 1863   4.547   3.221   1.110
  322SOL     OW 1864   3.573   3.353   6.048
  322SOL    HW1 1865   3.658   3.325   6.093
  322SOL    HW2 1866   3.527   3.272   6.011
  323SOL     OW 1867   0.066   3.014   3.235
  323SOL    HW1 1868   0.100   3.090   3.180
  323SOL    HW2 1869   0.027   3.050   3.320
  324SOL     OW 1870   0.473   6.859   4.034
  324SOL    HW1 1871   0.557   6.865   3.980
  324SOL    HW2 1872   0.479   6.920   4.113
  325SOL     OW 1873   0.576   3.859   2.451
  325SOL    HW1 1874   0.664   3.821   2.423
  325SOL    HW2 1875   0.585   3.902   2.541
  326SOL     OW 1876   0.563   6.312   6.417
  326SOL    HW1 1877   0.641   6.355   6.462
  326SOL    HW2 1878   0.503   6.383   6.379
  327SOL     OW 1879   3.921   5.151   3.361
  327SOL    HW1 1880   3.894   5.083   3.429
  327SOL    HW2 1881   3.934   5.106   3.273
  328SOL     OW 1882   2.150   4.030   2.365
  328SOL    HW1 1883   2.185   4.047   2.273
  328SOL    HW2 1884   2.176   4.105   2.425
  329SOL     OW 1885   3.292   4.114   2.399
  329SOL    HW1 1886   3.287   4.143   2.495
  329SOL    HW2 1887   3.386   4.091   2.376
  330SOL     OW 1888   3.528   5.051   0.586
  330SOL    HW1 1889   3.571   4.962   0.575
  330SOL    HW2 1890   3.431   5.045   0.564
  331SOL     OW 1891   5.246   5.419   6.502
  331SOL    HW1 1892   5.169   5.453   6.556
  331SOL    HW2 1893   5.247   5.319   6.505
  332SOL     OW 1894   5.227   2.593   3.018
  332SOL    HW1 1895   5.133   2.588   3.052
  332SOL    HW2 1896   5.235   2.540   2.934
  333SOL     OW 1897   3.107   1.366   5.886
  333SOL    HW1 1898   3.092   1.339   5.981
  333SOL    HW2 1899   3.117   1.466   5.882
  334SOL     OW 1900   3.771   3.357   3.307
  334SOL    HW1 1901   3.685   3.392   3.344
  334SOL    HW2 1902   3.759   3.331   3.211
  335SOL     OW 1903   3.251   0.362   5.824
  335SOL    HW1 1904   3.173   0.423   5.835
  335SOL    HW2 1905   3.224   0.283   5.770
  336SOL     OW 1906   2.884   1.818   3.133
  336SOL    HW1 1907   2.848   1.902   3.093
  336SOL    HW2 1908   2.953   1.778   3.072
  337SOL     OW 1909   2.176   0.007   5.891
  337SOL    HW1 1910   2.191   7.016   5.793
  337SOL    HW2 1911   2.229   0.087   5.920
  338SOL     OW 1912   4.861   2.039   1.720
  338SOL    HW1 1913   4.807   2.101   1.776
  338SOL    HW2 1914   4.836   2.050   1.624
  339SOL     OW 1915   3.945   4.942   5.063
  339SOL    HW1 1916   3.943   5.018   5.128
  339SOL    HW2 1917   3.946   4.977   4.970
  340SOL     OW 1918   4.574   2.126   3.681
  340SOL    HW1 1919   4.586   2.163   3.589
  340SOL    HW2 1920   4.602   2.194   3.748
  341SOL     OW 1921   5.532   0.248   3.914
  341SOL    HW1 1922   5.624   0.249   3.955
  341SOL    HW2 1923   5.533   0.304   3.831
  342SOL     OW 1924   4.805   2.507   1.503
  342SOL    HW1 1925   4.903   2.522   1.489
  342SOL    HW2 1926   4.755   2.540   1.424
  343SOL     OW 1927   0.605   5.851   3.017
  343SOL    HW1 1928   0.701   5.869   3.037
  343SOL    HW2 1929   0.551   5.933   3.036
  344SOL     OW 1930   2.265   1.529   1.845
  344SOL    HW1 1931   2.346   1.550   1.900
  344SOL    HW2 1932   2.218   1.450   1.883
  345SOL     OW 1933   6.188   3.243   4.095
  345SOL    HW1 1934   6.166   3.326   4.147
  345SOL    HW2 1935   6.178   3.163   4.154
  346SOL     OW 1936   1.548   6.801   3.154
  346SOL    HW1 1937   1.635   6.832   3.194
  346SOL    HW2 1938   1.537   6.842   3.064
  347SOL     OW 1939   2.836   5.352   0.558
  347SOL    HW1 1940   2.786   5.366   0.472
  347SOL    HW2 1941   2.773   5.362   0.635
  348SOL     OW 1942   5.021   5.872   2.226
  348SOL    HW1 1943   5.064   5.921   2.301
  348SOL    HW2 1944   5.026   5.926   2.142
  349SOL     OW 1945   6.248   4.277   1.295
  349SOL    HW1 1946   6.264   4.335   1.215
  349SOL    HW2 1947   6.193   4.198   1.268
  350SOL     OW 1948   3.017   3.312   0.159
  350SOL    HW1 1949   3.087   3.383   0.149
  350SOL    HW2 1950   3.029   3.266   0.247
  351SOL     OW 1951   2.915   4.648   1.373
  351SOL    HW1 1952   2.948   4.611   1.460
  351SOL    HW2 1953   2.840   4.711   1.390
  352SOL     OW 1954   3.800   6.679   2.850
  352SOL    HW1 1955   3.780   6.769   2.890
  352SOL    HW2 1956   3.717   6.642   2.807
  353SOL     OW 1957   2.202   6.208   6.796
  353SOL    HW1 1958   2.254   6.264   6.731
  353SOL    HW2 1959   2.258   6.190   6.876
  354SOL     OW 1960   6.691   2.180   0.401
  354SOL    HW1 1961   6.671   2.085   0.378
  354SOL    HW2 1962   6.790   2.194   0.405
  355SOL     OW 1963   1.959   2.154   2.598
  355SOL    HW1 1964   1.874   2.207   2.608
  355SOL    HW2 1965   2.021   2.203   2.537
  356SOL     OW 1966   0.965   0.040   6.130
  356SOL    HW1 1967   0.927   6.974   6.149
  356SOL    HW2 1968   1.054   0.049   6.175
  357SOL     OW 1969   5.697   6.406   4.500
  357SOL    HW1 1970   5.669   6.364   4.586
  357SOL    HW2 1971   5.768   6.473   4.517
  358SOL     OW 1972   5.096   5.806   0.443
  358SOL    HW1 1973   5.177   5.844   0.399
  358SOL    HW2 1974   5.037   5.880   0.475
  359SOL     OW 1975   3.089   2.118   2.156
  359SOL    HW1 1976   3.173   2.113   2.103
  359SOL    HW2 1977   3.022   2.176   2.109
  360SOL     OW 1978   1.534   4.662   4.258
  360SOL    HW1 1979   1.587   4.591   4.212
  360SOL    HW2 1980   1.452   4.682   4.205
  361SOL     OW 1981   6.520   6.395   3.316
  361SOL    HW1 1982   6.572   6.312   3.298
  361SOL    HW2 1983   6.427   6.371   3.343
  362SOL     OW 1984   3.747   4.379   1.306
  362SOL    HW1 1985   3.845   4.361   1.304
  362SOL    HW2 1986   3.729   4.470   1.269
  363SOL     OW 1987   5.928   5.625   2.613
  363SOL    HW1 1988   5.962   5.635   2.707
  363SOL    HW2 1989   5.853   5.559   2.612
  364SOL     OW 1990   0.441   5.360   6.732
  364SOL    HW1 1991   0.455   5.417   6.651
  364SOL    HW2 1992   0.531   5.338   6.772
  365SOL     OW 1993   3.740   1.868   2.688
  365SOL    HW1 1994   3.641   1.867   2.675
  365SOL    HW2 1995   3.773   1.962   2.689
  366SOL     OW 1996   5.899   2.352   0.471
  366SOL    HW1 1997   5.858   2.283   0.410
  366SOL    HW2 1998   5.918   2.435   0.418
  367SOL     OW 1999   4.486   1.814   5.607
  367SOL    HW1 2000   4.464   1.892   5.548
  367SOL    HW2 2001   4.428   1.817   5.689
  368SOL     OW 2002   6.533   2.071   5.981
  368SOL    HW1 2003   6.528   2.013   6.063
  368SOL    HW2 2004   6.462   2.140   5.985
  369SOL     OW 2005   5.567   3.524   2.433
  369SOL    HW1 2006   5.584   3.595   2.364
  369SOL    HW2 2007   5.557   3.435   2.388
  370SOL     OW 2008   1.865   3.068   4.152
  370SOL    HW1 2009   1.832   3.092   4.243
  370SOL    HW2 2010   1.875   3.150   4.097
  371SOL     OW 2011   1.602   4.105   6.619
  371SOL    HW1 2012   1.678   4.165   6.597
  371SOL    HW2 2013   1.516   4.154   6.605
  372SOL     OW 2014   3.060   6.513   5.776
  372SOL    HW1 2015   3.066   6.504   5.875
  372SOL    HW2 2016   3.026   6.604   5.752
  373SOL     OW 2017   6.303   6.449   4.482
  373SOL    HW1 2018   6.281   6.394   4.400
  373SOL    HW2 2019   6.329   6.388   4.556
  374SOL     OW 2020   2.722   1.541   2.692
  374SOL    HW1 2021   2.728   1.449   2.730
  374SOL    HW2 2022   2.680   1.536   2.601
  375SOL     OW 2023   1.067   4.763   5.194
  375SOL    HW1 2024   0.989   4.702   5.181
  375SOL    HW2 2025   1.124   4.730   5.270
  376SOL     OW 2026   2.611   0.854   4.144
  376SOL    HW1 2027   2.570   0.769   4.178
  376SOL    HW2 2028   2.690   0.832   4.087
  377SOL     OW 2029   1.551   2.471   6.750
  377SOL    HW1 2030   1.510   2.542   6.693
  377SOL    HW2 2031   1.501   2.386   6.738
  378SOL     OW 2032   3.072   1.730   1.649
  378SOL    HW1 2033   3.098   1.826   1.639
  378SOL    HW2 2034   3.113   1.693   1.732
  379SOL     OW 2035   6.015   2.310   6.187
  379SOL    HW1 2036   6.006   2.317   6.286
  379SOL    HW2 2037   5.959   2.380   6.143
  380SOL     OW 2038   3.750   1.566   1.373
  380SOL    HW1 2039   3.686   1.640   1.353
  380SOL    HW2 2040   3.723   1.485   1.322
  381SOL     OW 2041   1.636   4.656   3.259
  381SOL    HW1 2042   1.707   4.628   3.323
  381SOL    HW2 2043   1.673   4.723   3.195
  382SOL     OW 2044   5.992   0.417   0.611
  382SOL    HW1 2045   6.084   0.388   0.583
  382SOL    HW2 2046   5.976   0.388   0.705
  383SOL     OW 2047   4.064   2.634   1.436
  383SOL    HW1 2048   3.966   2.623   1.453
  383SOL    HW2 2049   4.083   2.730   1.415
  384SOL     OW 2050   6.513   4.143   4.678
  384SOL    HW1 2051   6.415   4.148   4.696
  384SOL    HW2 2052   6.540   4.216   4.615
  385SOL     OW 2053   4.616   4.790   6.745
  385SOL    HW1 2054   4.699   4.769   6.796
  385SOL    HW2 2055   4.602   4.722   6.673
  386SOL     OW 2056   4.028   0.366   4.138
  386SOL    HW1 2057   4.094   0.340   4.208
  386SOL    HW2 2058   3.978   0.448   4.168
  387SOL     OW 2059   2.189   5.387   3.544
  387SOL    HW1 2060   2.155   5.479   3.528
  387SOL    HW2 2061   2.165   5.328   3.467
  388SOL     OW 2062   2.279   2.382   6.636
  388SOL    HW1 2063   2.353   2.411   6.576
  388SOL    HW2 2064   2.206   2.451   6.635
  389SOL     OW 2065   2.959   3.278   3.564
  389SOL    HW1 2066   2.973   3.328   3.479
  389SOL    HW2 2067   3.037   3.219   3.582
  390SOL     OW 2068   2.255   1.796   4.280
  390SOL    HW1 2069   2.265   1.803   4.181
  390SOL    HW2 2070   2.336   1.835   4.324
  391SOL     OW 2071   0.988   2.630   6.667
  391SOL    HW1 2072   1.034   2.542   6.657
  391SOL    HW2 2073   0.893   2.616   6.692
  392SOL     OW 2074   2.825   5.200   1.826
  392SOL    HW1 2075   2.738   5.206   1.776
  392SOL    HW2 2076   2.860   5.292   1.844
  393SOL     OW 2077   6.103   4.606   5.267
  393SOL    HW1 2078   6.077   4.670   5.340
  393SOL    HW2 2079   6.022   4.555   5.238
  394SOL     OW 2080   0.099   6.618   0.238
  394SOL    HW1 2081   0.137   6.698   0.193
  394SOL    HW2 2082   0.013   6.591   0.193
  395SOL     OW 2083   5.378   3.922   2.443
  395SOL    HW1 2084   5.360   3.859   2.518
  395SOL    HW2 2085   5.316   3.903   2.367
  396SOL     OW 2086   3.314   3.857   3.617
  396SOL    HW1 2087   3.333   3.951   3.588
  396SOL    HW2 2088   3.383   3.796   3.578
  397SOL     OW 2089   4.578   2.154   5.543
  397SOL    HW1 2090   4.648   2.094   5.582
  397SOL    HW2 2091   4.523   2.102   5.478
  398SOL     OW 2092   1.109   5.264   2.423
  398SOL    HW1 2093   1.135   5.347   2.374
  398SOL    HW2 2094   1.073   5.197   2.359
  399SOL     OW 2095   4.699   5.563   1.228
  399SOL    HW1 2096   4.761   5.632   1.265
  399SOL    HW2 2097   4.679   5.494   1.298
  400SOL     OW 2098   0.267   6.661   5.525
  400SOL    HW1 2099   0.253   6.563   5.513
  400SOL    HW2 2100   0.323   6.696   5.450
  401SOL     OW 2101   4.669   1.387   6.191
  401SOL    HW1 2102   4.735   1.460   6.208
  401SOL    HW2 2103   4.578   1.427   6.181
  402SOL     OW 2104   6.325   5.977   2.737
  402SOL    HW1 2105   6.316   6.027   2.651
  402SOL    HW2 2106   6.332   6.041   2.813
  403SOL     OW 2107   4.836   2.170   5.999
  403SOL    HW1 2108   4.846   2.241   5.929
  403SOL    HW2 2109   4.749   2.123   5.987
  404SOL     OW 2110   1.110   6.712   4.030
  404SOL    HW1 2111   1.094   6.667   3.942
  404SOL    HW2 2112   1.130   6.808   4.015
  405SOL     OW 2113   1.826   2.585   0.823
  405SOL    HW1 2114   1.785   2.499   0.792
  405SOL    HW2 2115   1.921   2.568   0.850
  406SOL     OW 2116   1.231   2.286   4.194
  406SOL    HW1 2117   1.230   2.218   4.120
  406SOL    HW2 2118   1.243   2.240   4.282
  407SOL     OW 2119   2.946   0.281   4.662
  407SOL    HW1 2120   2.947   0.300   4.760
  407SOL    HW2 2121   2.988   0.192   4.644
  408SOL     OW 2122   1.552   0.028   3.722
  408SOL    HW1 2123   1.577   0.051   3.628
  408SOL    HW2 2124   1.632   0.038   3.782
  409SOL     OW 2125   6.403   2.908   2.857
  409SOL    HW1 2126   6.321   2.885   2.908
  409SOL    HW2 2127   6.416   2.842   2.783
  410SOL     OW 2128   1.934   0.295   6.803
  410SOL    HW1 2129   2.002   0.368   6.809
  410SOL    HW2 2130   1.862   0.311   6.870
  411SOL     OW 2131   5.599   4.755   6.139
  411SOL    HW1 2132   5.636   4.841   6.175
  411SOL    HW2 2133   5.675   4.694   6.116
  412SOL     OW 2134   3.565   6.312   2.823
  412SOL    HW1 2135   3.643   6.330   2.883
  412SOL    HW2 2136   3.494   6.381   2.839
  413SOL     OW 2137   3.270   5.402   0.549
  413SOL    HW1 2138   3.250   5.443   0.460
  413SOL    HW2 2139   3.204   5.330   0.569
  414SOL     OW 2140   4.653   5.046   1.380
  414SOL    HW1 2141   4.660   4.948   1.401
  414SOL    HW2 2142   4.640   5.058   1.282
  415SOL     OW 2143   1.674   5.908   1.048
  415SOL    HW1 2144   1.681   5.974   1.122
  415SOL    HW2 2145   1.757   5.911   0.992
  416SOL     OW 2146   3.823   5.895   4.871
  416SOL    HW1 2147   3.771   5.822   4.825
  416SOL    HW2 2148   3.761   5.968   4.898
  417SOL     OW 2149   3.177   6.364   1.933
  417SOL    HW1 2150   3.251   6.392   1.994
  417SOL    HW2 2151   3.091   6.358   1.984
  418SOL     OW 2152   4.827   6.257   0.553
  418SOL    HW1 2153   4.873   6.345   0.540
  418SOL    HW2 2154   4.877   6.203   0.620
  419SOL     OW 2155   0.103   0.725   1.047
  419SOL    HW1 2156   0.112   0.648   0.984
  419SOL    HW2 2157   0.007   0.735   1.073
  420SOL     OW 2158   5.642   3.914   0.869
  420SOL    HW1 2159   5.681   3.965   0.946
  420SOL    HW2 2160   5.685   3.824   0.863
  421SOL     OW 2161   1.742   4.979   6.142
  421SOL    HW1 2162   1.837   4.994   6.171
  421SOL    HW2 2163   1.735   4.894   6.091
  422SOL     OW 2164   6.001   4.833   0.141
  422SOL    HW1 2165   5.928   4.879   0.090
  422SOL    HW2 2166   5.965   4.800   0.228
  423SOL     OW 2167   5.895   2.826   0.071
  423SOL    HW1 2168   5.876   2.923   0.057
  423SOL    HW2 2169   5.974   2.816   0.131
  424SOL     OW 2170   2.680   4.110   6.845
  424SOL    HW1 2171   2.639   4.114   6.937
  424SOL    HW2 2172   2.779   4.101   6.853
  425SOL     OW 2173   5.185   1.676   1.177
  425SOL    HW1 2174   5.230   1.740   1.239
  425SOL    HW2 2175   5.117   1.725   1.123
  426SOL     OW 2176   5.060   2.662   5.601
  426SOL    HW1 2177   4.984   2.597   5.595
  426SOL    HW2 2178   5.135   2.631   5.543
  427SOL     OW 2179   5.554   4.268   2.064
  427SOL    HW1 2180   5.651   4.265   2.086
  427SOL    HW2 2181   5.501   4.226   2.138
  428SOL     OW 2182   3.760   0.648   5.503
  428SOL    HW1 2183   3.732   0.611   5.414
  428SOL    HW2 2184   3.737   0.745   5.508
  429SOL     OW 2185   1.853   5.193   0.667
  429SOL    HW1 2186   1.867   5.127   0.741
  429SOL    HW2 2187   1.877   5.285   0.699
  430SOL     OW 2188   1.375   6.906   4.411
  430SOL    HW1 2189   1.427   6.879   4.492
  430SOL    HW2 2190   1.314   6.981   4.434
  431SOL     OW 2191   3.395   1.046   6.951
  431SOL    HW1 2192   3.450   1.127   6.972
  431SOL    HW2 2193   3.315   1.073   6.897
  432SOL     OW 2194   0.016   2.070   0.144
  432SOL    HW1 2195   6.941   2.068   0.126
  432SOL    HW2 2196   0.042   2.159   0.180
  433SOL     OW 2197   3.085   0.022   4.335
  433SOL    HW1 2198   3.123   6.997   4.257
  433SOL    HW2 2199   3.085   0.120   4.317
  434SOL     OW 2200   5.720   4.397   1.069
  434SOL    HW1 2201   5.747   4.489   1.041
  434SOL    HW2 2202   5.693   4.398   1.166
  435SOL     OW 2203   3.355   3.434   5.753
  435SOL    HW1 2204   3.329   3.348   5.798
  435SOL    HW2 2205   3.441   3.467   5.793
  436SOL     OW 2206   1.534   0.074   0.878
  436SOL    HW1 2207   1.612   0.130   0.849
  436SOL    HW2 2208   1.539   0.057   0.976
  437SOL     OW 2209   6.797   6.981   6.383
  437SOL    HW1 2210   6.837   0.046   6.360
  437SOL    HW2 2211   6.716   6.966   6.327
  438SOL     OW 2212   1.827   2.902   2.175
  438SOL    HW1 2213   1.755   2.833   2.175
  438SOL    HW2 2214   1.916   2.858   2.189
  439SOL     OW 2215   6.338   4.743   2.779
  439SOL    HW1 2216   6.344   4.645   2.799
  439SOL    HW2 2217   6.350   4.795   2.863
  440SOL     OW 2218   0.744   2.097   4.763
  440SOL    HW1 2219   0.744   2.031   4.838
  440SOL    HW2 2220   0.824   2.156   4.770
  441SOL     OW 2221   1.574   1.539   3.457
  441SOL    HW1 2222   1.657   1.595   3.447
  441SOL    HW2 2223   1.499   1.597   3.489
  442SOL     OW 2224   0.340   4.214   6.936
  442SOL    HW1 2225   0.398   4.132   6.932
  442SOL    HW2 2226   0.361   4.273   6.858
  443SOL     OW 2227   1.183   4.477   4.922
  443SOL    HW1 2228   1.171   4.410   4.849
  443SOL    HW2 2229   1.203   4.566   4.882
  444SOL     OW 2230   4.358   2.830   5.903
  444SOL    HW1 2231   4.271   2.829   5.854
  444SOL    HW2 2232   4.358   2.759   5.973
  445SOL     OW 2233   1.927   5.740   3.003
  445SOL    HW1 2234   1.913   5.815   2.938
  445SOL    HW2 2235   2.003   5.683   2.972
  446SOL     OW 2236   3.832   4.947   3.958
  446SOL    HW1 2237   3.854   4.965   4.054
  446SOL    HW2 2238   3.907   4.894   3.916
  447SOL     OW 2239   0.041   3.926   6.835
  447SOL    HW1 2240   7.020   3.957   6.752
  447SOL    HW2 2241   0.131   3.889   6.813
  448SOL     OW 2242   3.884   0.960   4.952
  448SOL    HW1 2243   3.871   0.864   4.977
  448SOL    HW2 2244   3.795   1.006   4.946
  449SOL     OW 2245   5.412   1.102   4.981
  449SOL    HW1 2246   5.330   1.048   5.001
  449SOL    HW2 2247   5.438   1.155   5.061
  450SOL     OW 2248   0.106   5.810   3.599
  450SOL    HW1 2249   0.041   5.789   3.526
  450SOL    HW2 2250   0.196   5.827   3.560
  451SOL     OW 2251   0.554   2.444   2.362
  451SOL    HW1 2252   0.486   2.436   2.290
  451SOL    HW2 2253   0.508   2.442   2.451
  452SOL     OW 2254   6.902   5.584   6.977
  452SOL    HW1 2255   6.803   5.602   6.977
  452SOL    HW2 2256   6.949   5.656   6.925
  453SOL     OW 2257   3.005   0.885   6.645
  453SOL    HW1 2258   3.089   0.893   6.699
  453SOL    HW2 2259   3.027   0.853   6.553
  454SOL     OW 2260   0.162   6.199   5.949
  454SOL    HW1 2261   0.171   6.100   5.934
  454SOL    HW2 2262   0.066   6.223   5.961
  455SOL     OW 2263   6.286   0.118   4.523
  455SOL    HW1 2264   6.256   0.213   4.531
  455SOL    HW2 2265   6.378   0.115   4.484
  456SOL     OW 2266   4.133   5.742   5.712
  456SOL    HW1 2267   4.149   5.840   5.698
  456SOL    HW2 2268   4.135   5.694   5.624
  457SOL     OW 2269   2.035   4.437   3.394
  457SOL    HW1 2270   2.040   4.341   3.369
  457SOL    HW2 2271   2.113   4.460   3.453
  458SOL     OW 2272   5.441   5.413   5.218
  458SOL    HW1 2273   5.451   5.349   5.141
  458SOL    HW2 2274   5.495   5.495   5.199
  459SOL     OW 2275   1.147   0.118   3.271
  459SOL    HW1 2276   1.105   0.132   3.182
  459SOL    HW2 2277   1.194   0.201   3.300
  460SOL     OW 2278   0.301   1.380   2.060
  460SOL    HW1 2279   0.213   1.429   2.057
  460SOL    HW2 2280   0.375   1.445   2.047
  461SOL     OW 2281   4.499   6.743   5.001
  461SOL    HW1 2282   4.563   6.757   4.925
  461SOL    HW2 2283   4.517   6.655   5.045
  462SOL     OW 2284   4.395   2.434   5.773
  462SOL    HW1 2285   4.476   2.458   5.826
  462SOL    HW2 2286   4.315   2.480   5.811
  463SOL     OW 2287   6.254   5.493   2.970
  463SOL    HW1 2288   6.309   5.573   2.949
  463SOL    HW2 2289   6.268   5.423   2.901
  464SOL     OW 2290   2.871   1.729   6.537
  464SOL    HW1 2291   2.785   1.775   6.516
  464SOL    HW2 2292   2.929   1.728   6.455
  465SOL     OW 2293   0.906   1.704   4.553
  465SOL    HW1 2294   0.899   1.800   4.526
  465SOL    HW2 2295   0.876   1.646   4.477
  466SOL     OW 2296   0.082   6.224   3.504
  466SOL    HW1 2297   0.020   6.254   3.432
  466SOL    HW2 2298   0.033   6.163   3.567
  467SOL     OW 2299   1.223   0.021   6.283
  467SOL    HW1 2300   1.195   6.972   6.345
  467SOL    HW2 2301   1.286   0.082   6.331
  468SOL     OW 2302   3.522   5.899   0.508
  468SOL    HW1 2303   3.615   5.862   0.516
  468SOL    HW2 2304   3.457   5.832   0.544
  469SOL     OW 2305   2.754   4.747   0.154
  469SOL    HW1 2306   2.725   4.704   0.069
  469SOL    HW2 2307   2.797   4.679   0.213
  470SOL     OW 2308   3.423   0.778   2.241
  470SOL    HW1 2309   3.484   0.800   2.165
  470SOL    HW2 2310   3.340   0.734   2.206
  471SOL     OW 2311   1.210   2.591   4.146
  471SOL    HW1 2312   1.264   2.589   4.230
  471SOL    HW2 2313   1.171   2.501   4.129
  472SOL     OW 2314   4.615   3.633   6.573
  472SOL    HW1 2315   4.528   3.632   6.623
  472SOL    HW2 2316   4.599   3.668   6.480
  473SOL     OW 2317   0.427   2.844   1.256
  473SOL    HW1 2318   0.354   2.827   1.190
  473SOL    HW2 2319   0.510   2.794   1.228
  474SOL     OW 2320   4.256   4.981   3.671
  474SOL    HW1 2321   4.331   4.931   3.714
  474SOL    HW2 2322   4.288   5.073   3.646
  475SOL     OW 2323   6.930   0.557   6.985
  475SOL    HW1 2324   6.834   0.530   6.979
  475SOL    HW2 2325   6.936   0.652   7.014
  476SOL     OW 2326   0.131   4.214   2.297
  476SOL    HW1 2327   0.170   4.291   2.247
  476SOL    HW2 2328   0.181   4.199   2.382
  477SOL     OW 2329   2.414   4.913   4.733
  477SOL    HW1 2330   2.467   4.869   4.805
  477SOL    HW2 2331   2.364   4.991   4.772
  478SOL     OW 2332   2.969   6.409   2.092
  478SOL    HW1 2333   3.005   6.453   2.174
  478SOL    HW2 2334   2.879   6.446   2.071
  479SOL     OW 2335   3.944   1.910   0.433
  479SOL    HW1 2336   3.995   1.866   0.507
  479SOL    HW2 2337   3.904   1.840   0.374
  480SOL     OW 2338   1.396   6.830   0.628
  480SOL    HW1 2339   1.400   6.930   0.635
  480SOL    HW2 2340   1.326   6.795   0.689
  481SOL     OW 2341   2.194   0.396   0.783
  481SOL    HW1 2342   2.246   0.326   0.734
  481SOL    HW2 2343   2.250   0.434   0.857
  482SOL     OW 2344   4.750   4.885   2.418
  482SOL    HW1 2345   4.782   4.978   2.402
  482SOL    HW2 2346   4.669   4.887   2.478
  483SOL     OW 2347   5.639   2.015   1.610
  483SOL    HW1 2348   5.652   1.922   1.644
  483SOL    HW2 2349   5.547   2.024   1.571
  484SOL     OW 2350   1.169   2.645   4.801
  484SOL    HW1 2351   1.202   2.608   4.887
  484SOL    HW2 2352   1.168   2.573   4.731
  485SOL     OW 2353   4.186   5.526   2.103
  485SOL    HW1 2354   4.098   5.479   2.112
  485SOL    HW2 2355   4.251   5.486   2.167
  486SOL     OW 2356   0.948   1.864   0.972
  486SOL    HW1 2357   0.885   1.822   1.038
  486SOL    HW2 2358   1.042   1.849   1.001
  487SOL     OW 2359   1.124   1.811   6.879
  487SOL    HW1 2360   1.081   1.806   6.969
  487SOL    HW2 2361   1.064   1.768   6.812
  488SOL     OW 2362   1.339   0.394   1.409
  488SOL    HW1 2363   1.242   0.377   1.393
  488SOL    HW2 2364   1.367   0.477   1.360
  489SOL     OW 2365   3.639   5.855   0.095
  489SOL    HW1 2366   3.568   5.795   0.056
  489SOL    HW2 2367   3.681   5.909   0.023
  490SOL     OW 2368   6.589   5.660   4.231
  490SOL    HW1 2369   6.630   5.729   4.291
  490SOL    HW2 2370   6.507   5.699   4.187
  491SOL     OW 2371   6.851   2.665   3.698
  491SOL    HW1 2372   6.823   2.581   3.744
  491SOL    HW2 2373   6.853   2.650   3.599
  492SOL     OW 2374   3.056   0.317   4.906
  492SOL    HW1 2375   3.106   0.246   4.857
  492SOL    HW2 2376   3.046   0.291   5.002
  493SOL     OW 2377   5.392   5.174   6.323
  493SOL    HW1 2378   5.384   5.217   6.233
  493SOL    HW2 2379   5.301   5.163   6.363
  494SOL     OW 2380   0.664   6.353   0.005
  494SOL    HW1 2381   0.625   6.364   0.096
  494SOL    HW2 2382   0.725   6.430   7.010
  495SOL     OW 2383   5.180   5.665   2.992
  495SOL    HW1 2384   5.143   5.704   2.908
  495SOL    HW2 2385   5.275   5.693   3.003
  496SOL     OW 2386   5.534   2.823   2.773
  496SOL    HW1 2387   5.580   2.897   2.724
  496SOL    HW2 2388   5.441   2.813   2.740
  497SOL     OW 2389   3.444   1.573   5.267
  497SOL    HW1 2390   3.400   1.660   5.288
  497SOL    HW2 2391   3.500   1.544   5.344
  498SOL     OW 2392   1.299   4.013   1.747
  498SOL    HW1 2393   1.376   4.026   1.685
  498SOL    HW2 2394   1.269   3.918   1.743
  499SOL     OW 2395   3.161   0.768   3.937
  499SOL    HW1 2396   3.245   0.755   3.989
  499SOL    HW2 2397   3.113   0.681   3.928
  500SOL     OW 2398   1.103   3.988   3.751
  500SOL    HW1 2399   1.147   3.948   3.671
  500SOL    HW2 2400   1.155   4.067   3.782
  501SOL     OW 2401   3.189   0.762   0.775
  501SOL    HW1 2402   3.185   0.774   0.676
  501SOL    HW2 2403   3.261   0.819   0.814
  502SOL     OW 2404   5.843   4.166   6.294
  502SOL    HW1 2405   5.788   4.222   6.356
  502SOL    HW2 2406   5.783   4.120   6.229
  503SOL     OW 2407   6.006   4.527   5.807
  503SOL    HW1 2408   5.931   4.572   5.855
  503SOL    HW2 2409   6.048   4.459   5.867
  504SOL     OW 2410   2.812   6.521   3.813
  504SOL    HW1 2411   2.881   6.453   3.837
  504SOL    HW2 2412   2.810   6.593   3.883
  505SOL     OW 2413   3.762   0.425   5.701
  505SOL    HW1 2414   3.704   0.446   5.622
  505SOL    HW2 2415   3.719   0.460   5.784
  506SOL     OW 2416   1.911   5.501   4.773
  506SOL    HW1 2417   1.980   5.509   4.701
  506SOL    HW2 2418   1.832   5.450   4.738
  507SOL     OW 2419   3.008   0.567   4.236
  507SOL    HW1 2420   2.959   0.597   4.318
  507SOL    HW2 2421   3.100   0.605   4.236
  508SOL     OW 2422   6.379   3.719   2.378
  508SOL    HW1 2423   6.406   3.662   2.455
  508SOL    HW2 2424   6.368   3.662   2.296
  509SOL     OW 2425   3.552   1.388   1.666
  509SOL    HW1 2426   3.474   1.351   1.716
  509SOL    HW2 2427   3.528   1.479   1.630
  510SOL     OW 2428   6.960   4.589   5.884
  510SOL    HW1 2429   6.947   4.503   5.836
  510SOL    HW2 2430   6.913   4.586   5.972
  511SOL     OW 2431   0.029   6.604   6.967
  511SOL    HW1 2432   6.989   6.585   6.893
  511SOL    HW2 2433   0.106   6.657   6.932
  512SOL     OW 2434   0.090   3.383   0.137
  512SOL    HW1 2435   0.017   3.437   0.097
  512SOL    HW2 2436   0.096   3.401   0.235
  513SOL     OW 2437   5.679   6.408   2.982
  513SOL    HW1 2438   5.757   6.437   3.037
  513SOL    HW2 2439   5.664   6.310   2.994
  514SOL     OW 2440   6.740   2.108   4.252
  514SOL    HW1 2441   6.806   2.092   4.179
  514SOL    HW2 2442   6.768   2.188   4.306
  515SOL     OW 2443   1.932   6.629   6.312
  515SOL    HW1 2444   2.002   6.694   6.283
  515SOL    HW2 2445   1.971   6.537   6.314
  516SOL     OW 2446   2.681   4.505   1.737
  516SOL    HW1 2447   2.770   4.494   1.782
  516SOL    HW2 2448   2.695   4.526   1.640
  517SOL     OW 2449   5.083   6.183   2.460
  517SOL    HW1 2450   5.156   6.164   2.394
  517SOL    HW2 2451   5.068   6.282   2.465
  518SOL     OW 2452   3.044   2.016   1.863
  518SOL    HW1 2453   3.103   1.996   1.785
  518SOL    HW2 2454   2.975   2.084   1.837
  519SOL     OW 2455   6.755   0.391   4.948
  519SOL    HW1 2456   6.848   0.427   4.944
  519SOL    HW2 2457   6.720   0.379   4.854
  520SOL     OW 2458   5.415   4.875   6.553
  520SOL    HW1 2459   5.355   4.949   6.522
  520SOL    HW2 2460   5.501   4.913   6.585
  521SOL     OW 2461   6.415   2.127   6.750
  521SOL    HW1 2462   6.365   2.174   6.677
  521SOL    HW2 2463   6.401   2.028   6.741
  522SOL     OW 2464   3.945   2.952   5.505
  522SOL    HW1 2465   3.937   3.051   5.513
  522SOL    HW2 2466   3.876   2.908   5.563
  523SOL     OW 2467   6.801   5.157   3.886
  523SOL    HW1 2468   6.799   5.086   3.815
  523SOL    HW2 2469   6.801   5.247   3.843
  524SOL     OW 2470   2.597   1.300   6.568
  524SOL    HW1 2471   2.627   1.378   6.512
  524SOL    HW2 2472   2.676   1.241   6.587
  525SOL     OW 2473   2.410   3.488   6.388
  525SOL    HW1 2474   2.380   3.398   6.355
  525SOL    HW2 2475   2.340   3.556   6.367
  526SOL     OW 2476   2.695   6.460   5.061
  526SOL    HW1 2477   2.662   6.423   4.974
  526SOL    HW2 2478   2.621   6.458   5.129
  527SOL     OW 2479   6.042   2.958   6.080
  527SOL    HW1 2480   6.032   3.021   6.003
  527SOL    HW2 2481   6.139   2.951   6.105
  528SOL     OW 2482   1.496   1.109   4.007
  528SOL    HW1 2483   1.575   1.108   3.946
  528SOL    HW2 2484   1.503   1.035   4.074
  529SOL     OW 2485   0.792   5.184   4.654
  529SOL    HW1 2486   0.851   5.140   4.587
  529SOL    HW2 2487   0.847   5.235   4.720
  530SOL     OW 2488   2.745   2.947   5.364
  530SOL    HW1 2489   2.729   2.864   5.418
  530SOL    HW2 2490   2.669   2.960   5.300
  531SOL     OW 2491   0.537   1.145   1.672
  531SOL    HW1 2492   0.479   1.225   1.655
  531SOL    HW2 2493   0.485   1.062   1.651
  532SOL     OW 2494   1.151   2.680   5.873
  532SOL    HW1 2495   1.245   2.681   5.909
  532SOL    HW2 2496   1.088   2.715   5.942
  533SOL     OW 2497   4.816   6.101   4.366
  533SOL    HW1 2498   4.767   6.167   4.310
  533SOL    HW2 2499   4.754   6.065   4.437
  534SOL     OW 2500   5.145   5.237   3.390
  534SOL    HW1 2501   5.159   5.143   3.422
  534SOL    HW2 2502   5.074   5.238   3.320
  535SOL     OW 2503   0.890   4.484   4.295
  535SOL    HW1 2504   0.846   4.414   4.239
  535SOL    HW2 2505   0.985   4.457   4.314
  536SOL     OW 2506   0.100   5.162   1.869
  536SOL    HW1 2507   0.164   5.113   1.929
  536SOL    HW2 2508   0.151   5.217   1.804
  537SOL     OW 2509   2.286   6.400   3.709
  537SOL    HW1 2510   2.376   6.355   3.713
  537SOL    HW2 2511   2.295   6.488   3.663
  538SOL     OW 2512   1.482   5.729   3.510
  538SOL    HW1 2513   1.558   5.749   3.572
  538SOL    HW2 2514   1.517   5.704   3.420
  539SOL     OW 2515   7.018   5.795   0.534
  539SOL    HW1 2516   0.087   5.764   0.517
  539SOL    HW2 2517   6.957   5.716   0.539
  540SOL     OW 2518   0.271   2.169   2.324
  540SOL    HW1 2519   0.182   2.154   2.366
  540SOL    HW2 2520   0.343   2.139   2.386
  541SOL     OW 2521   3.086   6.577   4.497
  541SOL    HW1 2522   3.094   6.596   4.399
  541SOL    HW2 2523   3.175   6.591   4.541
  542SOL     OW 2524   6.674   6.785   0.060
  542SOL    HW1 2525   6.730   6.733   0.124
  542SOL    HW2 2526   6.580   6.789   0.094
  543SOL     OW 2527   0.580   5.077   5.812
  543SOL    HW1 2528   0.552   5.151   5.751
  543SOL    HW2 2529   0.500   5.042   5.861
  544SOL     OW 2530   0.994   4.353   1.056
  544SOL    HW1 2531   1.041   4.341   0.969
  544SOL    HW2 2532   0.939   4.437   1.053
  545SOL     OW 2533   3.410   1.849   3.593
  545SOL    HW1 2534   3.331   1.873   3.537
  545SOL    HW2 2535   3.487   1.826   3.533
  546SOL     OW 2536   1.767   3.396   1.815
  546SOL    HW1 2537   1.690   3.353   1.862
  546SOL    HW2 2538   1.810   3.463   1.876
  547SOL     OW 2539   2.360   1.514   6.898
  547SOL    HW1 2540   2.383   1.484   6.991
  547SOL    HW2 2541   2.387   1.443   6.833
  548SOL     OW 2542   3.625   2.868   2.836
  548SOL    HW1 2543   3.687   2.917   2.775
  548SOL    HW2 2544   3.569   2.805   2.783
  549SOL     OW 2545   4.207   3.333   1.612
  549SOL    HW1 2546   4.266   3.395   1.663
  549SOL    HW2 2547   4.218   3.349   1.514
  550SOL     OW 2548   6.870   3.338   2.713
  550SOL    HW1 2549   6.824   3.349   2.625
  550SOL    HW2 2550   6.832   3.259   2.761
  551SOL     OW 2551   6.871   1.971   1.040
  551SOL    HW1 2552   6.874   2.061   0.996
  551SOL    HW2 2553   6.812   1.910   0.987
  552SOL     OW 2554   3.789   5.715   0.390
  552SOL    HW1 2555   3.848   5.653   0.338
  552SOL    HW2 2556   3.826   5.728   0.482
  553SOL     OW 2557   1.712   7.006   2.753
  553SOL    HW1 2558   1.776   6.949   2.701
  553SOL    HW2 2559   1.632   6.951   2.778
  554SOL     OW 2560   5.036   6.901   6.625
  554SOL    HW1 2561   5.112   6.854   6.580
  554SOL    HW2 2562   4.954   6.845   6.618
  555SOL     OW 2563   2.232   5.023   4.107
  555SOL    HW1 2564   2.286   4.973   4.039
  555SOL    HW2 2565   2.222   4.967   4.189
  556SOL     OW 2566   6.089   2.144   4.312
  556SOL    HW1 2567   6.146   2.149   4.394
  556SOL    HW2 2568   6.059   2.236   4.288
  557SOL     OW 2569   6.905   6.151   6.558
  557SOL    HW1 2570   6.890   6.148   6.657
  557SOL    HW2 2571   7.001   6.131   6.539
  558SOL     OW 2572   4.089   3.777   5.041
  558SOL    HW1 2573   4.106   3.699   4.981
  558SOL    HW2 2574   4.052   3.852   4.987
  559SOL     OW 2575   6.765   6.356   6.848
  559SOL    HW1 2576   6.716   6.304   6.777
  559SOL    HW2 2577   6.840   6.407   6.806
  560SOL     OW 2578   3.928   6.510   0.692
  560SOL    HW1 2579   3.843   6.501   0.641
  560SOL    HW2 2580   4.006   6.508   0.629
  561SOL     OW 2581   5.972   0.073   6.909
  561SOL    HW1 2582   5.877   0.072   6.879
  561SOL    HW2 2583   6.024   0.003   6.860
  562SOL     OW 2584   4.751   1.133   6.251
  562SOL    HW1 2585   4.716   1.224   6.230
  562SOL    HW2 2586   4.750   1.076   6.169
  563SOL     OW 2587   2.740   6.615   3.567
  563SOL    HW1 2588   2.814   6.594   3.502
  563SOL    HW2 2589   2.766   6.583   3.658
  564SOL     OW 2590   2.216   2.338   5.978
  564SOL    HW1 2591   2.203   2.398   6.057
  564SOL    HW2 2592   2.160   2.256   5.988
  565SOL     OW 2593   4.522   3.033   5.793
  565SOL    HW1 2594   4.430   3.001   5.816
  565SOL    HW2 2595   4.568   3.064   5.876
  566SOL     OW 2596   4.494   4.655   3.415
  566SOL    HW1 2597   4.529   4.749   3.419
  566SOL    HW2 2598   4.396   4.655   3.434
  567SOL     OW 2599   3.528   3.392   3.956
  567SOL    HW1 2600   3.479   3.479   3.955
  567SOL    HW2 2601   3.485   3.328   3.892
  568SOL     OW 2602   3.583   2.242   0.458
  568SOL    HW1 2603   3.662   2.295   0.429
  568SOL    HW2 2604   3.614   2.163   0.511
  569SOL     OW 2605   1.379   3.080   0.454
  569SOL    HW1 2606   1.430   3.058   0.537
  569SOL    HW2 2607   1.399   3.012   0.384
  570SOL     OW 2608   1.186   6.494   0.412
  570SOL    HW1 2609   1.275   6.526   0.380
  570SOL    HW2 2610   1.196   6.401   0.449
  571SOL     OW 2611   3.276   5.698   2.462
  571SOL    HW1 2612   3.229   5.655   2.540
  571SOL    HW2 2613   3.248   5.654   2.377
  572SOL     OW 2614   2.215   4.526   5.634
  572SOL    HW1 2615   2.256   4.437   5.613
  572SOL    HW2 2616   2.225   4.545   5.732
  573SOL     OW 2617   3.628   1.379   5.962
  573SOL    HW1 2618   3.603   1.302   5.903
  573SOL    HW2 2619   3.672   1.450   5.907
  574SOL     OW 2620   2.080   2.103   4.326
  574SOL    HW1 2621   2.120   2.099   4.418
  574SOL    HW2 2622   2.110   2.023   4.274
  575SOL     OW 2623   6.198   3.518   0.572
  575SOL    HW1 2624   6.123   3.583   0.555
  575SOL    HW2 2625   6.164   3.425   0.560
  576SOL     OW 2626   1.305   2.257   1.793
  576SOL    HW1 2627   1.264   2.275   1.703
  576SOL    HW2 2628   1.333   2.344   1.835
  577SOL     OW 2629   2.298   1.946   3.831
  577SOL    HW1 2630   2.220   1.933   3.893
  577SOL    HW2 2631   2.368   1.878   3.851
  578SOL     OW 2632   0.515   3.073   3.497
  578SOL    HW1 2633   0.591   3.008   3.506
  578SOL    HW2 2634   0.513   3.109   3.404
  579SOL     OW 2635   4.333   2.287   1.222
  579SOL    HW1 2636   4.316   2.230   1.303
  579SOL    HW2 2637   4.325   2.383   1.248
  580SOL     OW 2638   1.068   4.739   6.166
  580SOL    HW1 2639   1.070   4.792   6.250
  580SOL    HW2 2640   1.039   4.645   6.187
  581SOL     OW 2641   3.796   2.935   3.410
  581SOL    HW1 2642   3.707   2.946   3.454
  581SOL    HW2 2643   3.797   2.849   3.358
  582SOL     OW 2644   5.820   3.994   2.270
  582SOL    HW1 2645   5.829   3.997   2.370
  582SOL    HW2 2646   5.830   4.087   2.234
  583SOL     OW 2647   2.844   4.402   6.877
  583SOL    HW1 2648   2.817   4.361   6.790
  583SOL    HW2 2649   2.908   4.477   6.861
  584SOL     OW 2650   0.137   4.599   5.341
  584SOL    HW1 2651   0.153   4.681   5.397
  584SOL    HW2 2652   0.174   4.614   5.249
  585SOL     OW 2653   0.583   2.313   5.898
  585SOL    HW1 2654   0.677   2.323   5.864
  585SOL    HW2 2655   0.548   2.403   5.924
  586SOL     OW 2656   2.566   0.043   0.423
  586SOL    HW1 2657   2.653   0.001   0.399
  586SOL    HW2 2658   2.566   0.069   0.519
  587SOL     OW 2659   1.355   2.359   5.399
  587SOL    HW1 2660   1.428   2.339   5.333
  587SOL    HW2 2661   1.341   2.281   5.459
  588SOL     OW 2662   3.751   0.008   1.740
  588SOL    HW1 2663   3.653   0.024   1.723
  588SOL    HW2 2664   3.766   7.017   1.837
  589SOL     OW 2665   3.733   5.172   1.825
  589SOL    HW1 2666   3.710   5.181   1.729
  589SOL    HW2 2667   3.709   5.256   1.874
  590SOL     OW 2668   0.057   2.873   2.222
  590SOL    HW1 2669   0.081   2.885   2.318
  590SOL    HW2 2670   0.065   2.961   2.174
  591SOL     OW 2671   4.096   0.204   3.929
  591SOL    HW1 2672   4.064   0.280   3.986
  591SOL    HW2 2673   4.130   0.131   3.987
  592SOL     OW 2674   5.033   0.917   0.547
  592SOL    HW1 2675   5.097   0.852   0.589
  592SOL    HW2 2676   5.084   0.982   0.490
  593SOL     OW 2677   4.381   2.445   4.282
  593SOL    HW1 2678   4.314   2.411   4.216
  593SOL    HW2 2679   4.423   2.529   4.247
  594SOL     OW 2680   3.949   3.758   0.162
  594SOL    HW1 2681   3.879   3.687   0.157
  594SOL    HW2 2682   3.929   3.820   0.238
  595SOL     OW 2683   4.003   0.008   4.398
  595SOL    HW1 2684   3.953   7.022   4.485
  595SOL    HW2 2685   3.949   6.994   4.324
  596SOL     OW 2686   0.797   4.268   2.558
  596SOL    HW1 2687   0.760   4.241   2.469
  596SOL    HW2 2688   0.814   4.187   2.613
  597SOL     OW 2689   3.456   0.150   0.122
  597SOL    HW1 2690   3.526   0.099   0.072
  597SOL    HW2 2691   3.495   0.186   0.207
  598SOL     OW 2692   4.065   4.644   0.316
  598SOL    HW1 2693   4.012   4.729   0.317
  598SOL    HW2 2694   4.011   4.572   0.272
  599SOL     OW 2695   0.011   0.258   3.071
  599SOL    HW1 2696   6.962   0.323   3.051
  599SOL    HW2 2697   6.998   0.177   3.115
  600SOL     OW 2698   1.035   6.537   0.814
  600SOL    HW1 2699   0.998   6.484   0.890
  600SOL    HW2 2700   0.960   6.571   0.757
  601SOL     OW 2701   2.726   5.862   3.091
  601SOL    HW1 2702   2.814   5.843   3.048
  601SOL    HW2 2703   2.692   5.779   3.136
  602SOL     OW 2704   1.257   6.959   0.937
  602SOL    HW1 2705   1.252   6.867   0.898
  602SOL    HW2 2706   1.339   7.005   0.904
  603SOL     OW 2707   4.088   1.915   3.735
  603SOL    HW1 2708   4.072   1.971   3.653
  603SOL    HW2 2709   4.147   1.838   3.711
  604SOL     OW 2710   1.268   3.409   6.870
  604SOL    HW1 2711   1.195   3.377   6.809
  604SOL    HW2 2712   1.314   3.487   6.828
  605SOL     OW 2713   6.876   5.822   3.449
  605SOL    HW1 2714   6.825   5.737   3.438
  605SOL    HW2 2715   6.902   5.857   3.359
  606SOL     OW 2716   4.005   0.348   5.072
  606SOL    HW1 2717   3.999   0.257   5.030
  606SOL    HW2 2718   4.088   0.353   5.127
  607SOL     OW 2719   5.185   1.438   4.305
  607SOL    HW1 2720   5.174   1.530   4.342
  607SOL    HW2 2721   5.276   1.429   4.265
  608SOL     OW 2722   3.067   0.646   0.331
  608SOL    HW1 2723   3.091   0.557   0.291
  608SOL    HW2 2724   2.991   0.686   0.280
  609SOL     OW 2725   3.693   2.961   3.996
  609SOL    HW1 2726   3.697   2.969   4.096
  609SOL    HW2 2727   3.773   3.006   3.956
  610SOL     OW 2728   5.038   2.510   3.958
  610SOL    HW1 2729   5.130   2.497   3.994
  610SOL    HW2 2730   5.000   2.421   3.933
  611SOL     OW 2731   0.390   0.551   0.056
  611SOL    HW1 2732   0.338   0.633   0.080
  611SOL    HW2 2733   0.354   0.512   6.996
  612SOL     OW 2734   3.718   5.369   5.998
  612SOL    HW1 2735   3.726   5.446   6.061
  612SOL    HW2 2736   3.699   5.404   5.906
  613SOL     OW 2737   4.137   1.455   5.863
  613SOL    HW1 2738   4.231   1.491   5.864
  613SOL    HW2 2739   4.085   1.497   5.937
  614SOL     OW 2740   6.406   4.890   0.664
  614SOL    HW1 2741   6.336   4.854   0.726
  614SOL    HW2 2742   6.363   4.948   0.595
  615SOL     OW 2743   0.440   6.926   0.234
  615SOL    HW1 2744   0.359   6.955   0.285
  615SOL    HW2 2745   0.522   6.964   0.276
  616SOL     OW 2746   5.656   1.881   4.764
  616SOL    HW1 2747   5.604   1.864   4.681
  616SOL    HW2 2748   5.595   1.880   4.843
  617SOL     OW 2749   0.621   4.668   5.901
  617SOL    HW1 2750   0.548   4.621   5.951
  617SOL    HW2 2751   0.663   4.736   5.960
  618SOL     OW 2752   5.859   3.484   1.163
  618SOL    HW1 2753   5.880   3.420   1.089
  618SOL    HW2 2754   5.940   3.539   1.184
  619SOL     OW 2755   3.305   0.424   0.341
  619SOL    HW1 2756   3.290   0.337   0.293
  619SOL    HW2 2757   3.316   0.406   0.439
  620SOL     OW 2758   5.505   3.422   1.995
  620SOL    HW1 2759   5.485   3.326   2.011
  620SOL    HW2 2760   5.497   3.443   1.898
  621SOL     OW 2761   2.502   0.059   6.247
  621SOL    HW1 2762   2.406   0.082   6.232
  621SOL    HW2 2763   2.544   0.126   6.309
  622SOL     OW 2764   1.110   2.088   5.296
  622SOL    HW1 2765   1.081   2.076   5.391
  622SOL    HW2 2766   1.186   2.026   5.277
  623SOL     OW 2767   6.188   6.874   4.284
  623SOL    HW1 2768   6.195   6.826   4.371
  623SOL    HW2 2769   6.246   6.955   4.286
  624SOL     OW 2770   6.312   1.393   6.668
  624SOL    HW1 2771   6.295   1.330   6.592
  624SOL    HW2 2772   6.269   1.357   6.751
  625SOL     OW 2773   2.368   1.280   0.306
  625SOL    HW1 2774   2.362   1.194   0.357
  625SOL    HW2 2775   2.375   1.356   0.370
  626SOL     OW 2776   1.383   5.634   3.865
  626SOL    HW1 2777   1.457   5.668   3.807
  626SOL    HW2 2778   1.300   5.688   3.849
  627SOL     OW 2779   6.445   6.971   6.828
  627SOL    HW1 2780   6.508   6.961   6.751
  627SOL    HW2 2781   6.417   0.043   6.835
  628SOL     OW 2782   5.282   4.619   5.564
  628SOL    HW1 2783   5.382   4.614   5.570
  628SOL    HW2 2784   5.246   4.661   5.647
  629SOL     OW 2785   0.046   0.480   0.228
  629SOL    HW1 2786   0.113   0.432   0.172
  629SOL    HW2 2787   6.989   0.500   0.172
  630SOL     OW 2788   0.017   1.353   1.276
  630SOL    HW1 2789   0.111   1.361   1.309
  630SOL    HW2 2790   0.000   1.258   1.248
  631SOL     OW 2791   2.356   2.790   4.848
  631SOL    HW1 2792   2.344   2.848   4.767
  631SOL    HW2 2793   2.372   2.848   4.928
  632SOL     OW 2794   4.703   3.241   0.455
  632SOL    HW1 2795   4.640   3.169   0.483
  632SOL    HW2 2796   4.770   3.204   0.390
  633SOL     OW 2797   1.667   5.349   1.270
  633SOL    HW1 2798   1.661   5.431   1.213
  633SOL    HW2 2799   1.579   5.301   1.269
  634SOL     OW 2800   2.966   3.313   3.864
  634SOL    HW1 2801   3.034   3.383   3.842
  634SOL    HW2 2802   2.901   3.304   3.788
  635SOL     OW 2803   5.103   1.064   6.479
  635SOL    HW1 2804   5.141   1.025   6.395
  635SOL    HW2 2805   5.103   1.164   6.473
  636SOL     OW 2806   2.923   0.219   6.220
  636SOL    HW1 2807   3.014   0.231   6.181
  636SOL    HW2 2808   2.876   0.307   6.223
  637SOL     OW 2809   6.643   1.080   1.770
  637SOL    HW1 2810   6.673   1.007   1.831
  637SOL    HW2 2811   6.607   1.040   1.686
  638SOL     OW 2812   6.104   3.386   3.823
  638SOL    HW1 2813   6.011   3.348   3.816
  638SOL    HW2 2814   6.145   3.359   3.910
  639SOL     OW 2815   5.378   4.723   3.228
  639SOL    HW1 2816   5.402   4.789   3.300
  639SOL    HW2 2817   5.283   4.694   3.239
  640SOL     OW 2818   0.107   2.894   2.498
  640SOL    HW1 2819   0.057   2.900   2.584
  640SOL    HW2 2820   0.194   2.847   2.514
  641SOL     OW 2821   1.840   4.657   5.289
  641SOL    HW1 2822   1.773   4.689   5.223
  641SOL    HW2 2823   1.862   4.561   5.271
  642SOL     OW 2824   0.989   3.656   4.495
  642SOL    HW1 2825   0.892   3.646   4.470
  642SOL    HW2 2826   1.015   3.580   4.555
  643SOL     OW 2827   4.717   5.919   6.555
  643SOL    HW1 2828   4.682   5.842   6.608
  643SOL    HW2 2829   4.701   5.903   6.458
  644SOL     OW 2830   0.197   6.925   4.818
  644SOL    HW1 2831   0.255   6.917   4.899
  644SOL    HW2 2832   0.101   6.928   4.846
  645SOL     OW 2833   3.395   5.071   2.855
  645SOL    HW1 2834   3.493   5.053   2.854
  645SOL    HW2 2835   3.350   5.014   2.786
  646SOL     OW 2836   3.836   1.089   5.346
  646SOL    HW1 2837   3.779   1.169   5.327
  646SOL    HW2 2838   3.933   1.114   5.334
  647SOL     OW 2839   4.946   2.058   4.573
  647SOL    HW1 2840   5.002   2.056   4.656
  647SOL    HW2 2841   4.854   2.026   4.595
  648SOL     OW 2842   6.183   1.558   2.663
  648SOL    HW1 2843   6.094   1.602   2.645
  648SOL    HW2 2844   6.256   1.616   2.626
  649SOL     OW 2845   2.517   5.225   0.503
  649SOL    HW1 2846   2.437   5.177   0.465
  649SOL    HW2 2847   2.561   5.166   0.570
  650SOL     OW 2848   6.613   5.633   0.739
  650SOL    HW1 2849   6.537   5.586   0.696
  650SOL    HW2 2850   6.606   5.624   0.839
  651SOL     OW 2851   1.358   0.258   5.633
  651SOL    HW1 2852   1.409   0.344   5.637
  651SOL    HW2 2853   1.328   0.233   5.725
  652SOL     OW 2854   4.325   0.649   2.262
  652SOL    HW1 2855   4.294   0.738   2.295
  652SOL    HW2 2856   4.425   0.644   2.267
  653SOL     OW 2857   0.019   6.717   0.923
  653SOL    HW1 2858   6.968   6.665   0.884
  653SOL    HW2 2859   7.006   6.792   0.978
  654SOL     OW 2860   6.567   6.652   6.095
  654SOL    HW1 2861   6.469   6.631   6.105
  654SOL    HW2 2862   6.619   6.566   6.096
  655SOL     OW 2863   0.272   5.028   2.045
  655SOL    HW1 2864   0.217   4.945   2.033
  655SOL    HW2 2865   0.356   5.005   2.095
  656SOL     OW 2866   3.409   6.520   0.507
  656SOL    HW1 2867   3.439   6.448   0.444
  656SOL    HW2 2868   3.355   6.479   0.581
  657SOL     OW 2869   3.388   3.086   1.787
  657SOL    HW1 2870   3.395   2.987   1.777
  657SOL    HW2 2871   3.392   3.129   1.697
  658SOL     OW 2872   2.461   4.446   4.171
  658SOL    HW1 2873   2.409   4.510   4.114
  658SOL    HW2 2874   2.433   4.353   4.149
  659SOL     OW 2875   3.623   6.391   6.207
  659SOL    HW1 2876   3.577   6.396   6.296
  659SOL    HW2 2877   3.674   6.475   6.192
  660SOL     OW 2878   5.054   4.613   2.641
  660SOL    HW1 2879   5.031   4.582   2.733
  660SOL    HW2 2880   5.142   4.575   2.613
  661SOL     OW 2881   5.132   4.511   4.208
  661SOL    HW1 2882   5.184   4.427   4.194
  661SOL    HW2 2883   5.183   4.588   4.171
  662SOL     OW 2884   5.277   2.954   0.079
  662SOL    HW1 2885   5.268   2.969   7.005
  662SOL    HW2 2886   5.204   3.003   0.127
  663SOL     OW 2887   6.919   4.104   0.192
  663SOL    HW1 2888   7.013   4.105   0.155
  663SOL    HW2 2889   6.866   4.176   0.147
  664SOL     OW 2890   1.534   6.222   6.277
  664SOL    HW1 2891   1.503   6.302   6.226
  664SOL    HW2 2892   1.458   6.183   6.329
  665SOL     OW 2893   3.997   5.188   1.225
  665SOL    HW1 2894   3.983   5.281   1.190
  665SOL    HW2 2895   3.924   5.128   1.194
  666SOL     OW 2896   3.947   1.505   0.176
  666SOL    HW1 2897   3.947   1.410   0.143
  666SOL    HW2 2898   4.038   1.529   0.210
  667SOL     OW 2899   0.476   2.824   3.740
  667SOL    HW1 2900   0.535   2.826   3.821
  667SOL    HW2 2901   0.423   2.909   3.735
  668SOL     OW 2902   4.760   6.868   0.138
  668SOL    HW1 2903   4.789   6.786   0.188
  668SOL    HW2 2904   4.840   6.923   0.116
  669SOL     OW 2905   0.849   6.504   3.621
  669SOL    HW1 2906   0.798   6.530   3.702
  669SOL    HW2 2907   0.873   6.587   3.569
  670SOL     OW 2908   3.077   3.597   3.127
  670SOL    HW1 2909   3.161   3.651   3.134
  670SOL    HW2 2910   3.012   3.645   3.068
  671SOL     OW 2911   1.553   6.519   6.212
  671SOL    HW1 2912   1.537   6.606   6.166
  671SOL    HW2 2913   1.535   6.530   6.310
  672SOL     OW 2914   1.448   3.245   4.472
  672SOL    HW1 2915   1.452   3.222   4.375
  672SOL    HW2 2916   1.406   3.335   4.484
  673SOL     OW 2917   5.083   0.513   0.023
  673SOL    HW1 2918   5.047   0.422   7.023
  673SOL    HW2 2919   5.048   0.540   0.113
  674SOL     OW 2920   0.727   2.358   3.587
  674SOL    HW1 2921   0.760   2.410   3.666
  674SOL    HW2 2922   0.657   2.293   3.617
  675SOL     OW 2923   0.426   2.555   4.950
  675SOL    HW1 2924   0.359   2.487   4.981
  675SOL    HW2 2925   0.451   2.615   5.026
  676SOL     OW 2926   2.548   4.774   4.491
  676SOL    HW1 2927   2.475   4.815   4.545
  676SOL    HW2 2928   2.525   4.680   4.468
  677SOL     OW 2929   6.424   0.640   0.940
  677SOL    HW1 2930   6.516   0.610   0.915
  677SOL    HW2 2931   6.381   0.685   0.861
  678SOL     OW 2932   2.433   0.728   5.674
  678SOL    HW1 2933   2.518   0.769   5.706
  678SOL    HW2 2934   2.376   0.704   5.752
  679SOL     OW 2935   3.644   0.984   3.176
  679SOL    HW1 2936   3.688   0.903   3.215
  679SOL    HW2 2937   3.698   1.066   3.199
  680SOL     OW 2938   5.028   3.985   5.786
  680SOL    HW1 2939   5.106   3.947   5.837
  680SOL    HW2 2940   4.973   3.910   5.749
  681SOL     OW 2941   0.189   6.615   1.135
  681SOL    HW1 2942   0.211   6.542   1.071
  681SOL    HW2 2943   0.118   6.674   1.096
  682SOL     OW 2944   1.672   6.408   0.074
  682SOL    HW1 2945   1.738   6.335   0.091
  682SOL    HW2 2946   1.721   6.495   0.065
  683SOL     OW 2947   3.745   1.395   6.238
  683SOL    HW1 2948   3.709   1.405   6.145
  683SOL    HW2 2949   3.669   1.384   6.302
  684SOL     OW 2950   0.439   6.630   6.001
  684SOL    HW1 2951   0.508   6.677   6.056
  684SOL    HW2 2952   0.432   6.535   6.032
  685SOL     OW 2953   4.991   0.425   6.686
  685SOL    HW1 2954   5.050   0.454   6.612
  685SOL    HW2 2955   4.898   0.409   6.652
  686SOL     OW 2956   5.241   2.855   3.477
  686SOL    HW1 2957   5.302   2.834   3.401
  686SOL    HW2 2958   5.218   2.771   3.526
  687SOL     OW 2959   6.509   2.996   6.252
  687SOL    HW1 2960   6.539   3.043   6.169
  687SOL    HW2 2961   6.516   3.058   6.330
  688SOL     OW 2962   1.696   3.879   6.737
  688SOL    HW1 2963   1.651   3.950   6.683
  688SOL    HW2 2964   1.629   3.808   6.760
  689SOL     OW 2965   6.965   3.796   6.524
  689SOL    HW1 2966   6.970   3.713   6.580
  689SOL    HW2 2967   6.921   3.774   6.437
  690SOL     OW 2968   1.529   1.913   3.628
  690SOL    HW1 2969   1.438   1.953   3.628
  690SOL    HW2 2970   1.544   1.862   3.713
  691SOL     OW 2971   1.100   2.512   6.324
  691SOL    HW1 2972   1.098   2.516   6.424
  691SOL    HW2 2973   1.194   2.520   6.292
  692SOL     OW 2974   2.519   6.798   2.883
  692SOL    HW1 2975   2.425   6.768   2.894
  692SOL    HW2 2976   2.575   6.761   2.958
  693SOL     OW 2977   6.734   2.571   2.383
  693SOL    HW1 2978   6.807   2.612   2.438
  693SOL    HW2 2979   6.646   2.606   2.415
  694SOL     OW 2980   2.881   5.551   0.927
  694SOL    HW1 2981   2.829   5.628   0.963
  694SOL    HW2 2982   2.954   5.584   0.868
  695SOL     OW 2983   5.041   5.729   5.083
  695SOL    HW1 2984   5.021   5.752   5.178
  695SOL    HW2 2985   5.060   5.631   5.075
  696SOL     OW 2986   3.721   5.114   2.550
  696SOL    HW1 2987   3.772   5.200   2.554
  696SOL    HW2 2988   3.774   5.046   2.499
  697SOL     OW 2989   0.653   3.184   4.767
  697SOL    HW1 2990   0.573   3.144   4.811
  697SOL    HW2 2991   0.637   3.281   4.749
  698SOL     OW 2992   4.252   0.789   3.516
  698SOL    HW1 2993   4.282   0.739   3.435
  698SOL    HW2 2994   4.162   0.830   3.498
  699SOL     OW 2995   1.532   4.330   1.005
  699SOL    HW1 2996   1.537   4.282   0.917
  699SOL    HW2 2997   1.476   4.412   0.995
  700SOL     OW 2998   2.325   2.609   4.570
  700SOL    HW1 2999   2.311   2.706   4.588
  700SOL    HW2 3000   2.251   2.575   4.512
  701SOL     OW 3001   0.506   4.576   6.759
  701SOL    HW1 3002   0.498   4.481   6.730
  701SOL    HW2 3003   0.481   4.584   6.856
  702SOL     OW 3004   5.024   6.829   5.084
  702SOL    HW1 3005   5.101   6.839   5.021
  702SOL    HW2 3006   5.046   6.758   5.152
  703SOL     OW 3007   4.183   3.419   6.268
  703SOL    HW1 3008   4.105   3.370   6.308
  703SOL    HW2 3009   4.173   3.423   6.169
  704SOL     OW 3010   1.731   0.394   6.584
  704SOL    HW1 3011   1.819   0.426   6.618
  704SOL    HW2 3012   1.709   0.441   6.499
  705SOL     OW 3013   5.278   1.117   3.465
  705SOL    HW1 3014   5.365   1.143   3.506
  705SOL    HW2 3015   5.284   1.125   3.365
  706SOL     OW 3016   3.624   2.055   3.933
  706SOL    HW1 3017   3.668   1.988   3.873
  706SOL    HW2 3018   3.694   2.097   3.992
  707SOL     OW 3019   4.958   0.854   1.222
  707SOL    HW1 3020   4.924   0.835   1.314
  707SOL    HW2 3021   5.024   0.784   1.196
  708SOL     OW 3022   4.417   0.513   0.975
  708SOL    HW1 3023   4.381   0.593   1.023
  708SOL    HW2 3024   4.381   0.430   1.016
  709SOL     OW 3025   0.845   4.775   0.713
  709SOL    HW1 3026   0.881   4.847   0.653
  709SOL    HW2 3027   0.854   4.805   0.809
  710SOL     OW 3028   3.265   4.141   2.698
  710SOL    HW1 3029   3.193   4.084   2.738
  710SOL    HW2 3030   3.352   4.094   2.705
  711SOL     OW 3031   6.676   1.950   5.135
  711SOL    HW1 3032   6.713   1.859   5.119
  711SOL    HW2 3033   6.727   1.995   5.208
  712SOL     OW 3034   1.306   3.873   1.428
  712SOL    HW1 3035   1.309   3.882   1.328
  712SOL    HW2 3036   1.216   3.839   1.456
  713SOL     OW 3037   3.555   3.400   2.346
  713SOL    HW1 3038   3.580   3.436   2.257
  713SOL    HW2 3039   3.459   3.421   2.365
  714SOL     OW 3040   5.711   4.575   5.277
  714SOL    HW1 3041   5.625   4.547   5.233
  714SOL    HW2 3042   5.787   4.527   5.234
  715SOL     OW 3043   4.101   5.740   6.119
  715SOL    HW1 3044   4.078   5.836   6.099
  715SOL    HW2 3045   4.192   5.736   6.160
  716SOL     OW 3046   0.487   5.345   1.506
  716SOL    HW1 3047   0.506   5.319   1.412
  716SOL    HW2 3048   0.439   5.433   1.507
  717SOL     OW 3049   6.109   4.286   6.905
  717SOL    HW1 3050   6.208   4.274   6.894
  717SOL    HW2 3051   6.081   4.250   6.994
  718SOL     OW 3052   3.602   3.069   5.785
  718SOL    HW1 3053   3.603   3.145   5.720
  718SOL    HW2 3054   3.627   3.103   5.876
  719SOL     OW 3055   6.761   2.785   1.159
  719SOL    HW1 3056   6.706   2.852   1.208
  719SOL    HW2 3057   6.844   2.766   1.212
  720SOL     OW 3058   2.518   2.221   5.673
  720SOL    HW1 3059   2.586   2.148   5.664
  720SOL    HW2 3060   2.494   2.256   5.583
  721SOL     OW 3061   1.888   0.324   5.492
  721SOL    HW1 3062   1.829   0.327   5.411
  721SOL    HW2 3063   1.963   0.389   5.479
  722SOL     OW 3064   4.224   6.720   5.091
  722SOL    HW1 3065   4.322   6.739   5.084
  722SOL    HW2 3066   4.195   6.665   5.013
  723SOL     OW 3067   1.859   2.545   2.483
  723SOL    HW1 3068   1.841   2.554   2.581
  723SOL    HW2 3069   1.774   2.521   2.436
  724SOL     OW 3070   0.750   1.664   5.190
  724SOL    HW1 3071   0.667   1.691   5.141
  724SOL    HW2 3072   0.829   1.713   5.153
  725SOL     OW 3073   2.762   5.140   2.187
  725SOL    HW1 3074   2.799   5.193   2.111
  725SOL    HW2 3075   2.764   5.043   2.164
  726SOL     OW 3076   3.104   5.569   6.691
  726SOL    HW1 3077   3.014   5.569   6.647
  726SOL    HW2 3078   3.155   5.650   6.663
  727SOL     OW 3079   3.507   5.657   4.302
  727SOL    HW1 3080   3.520   5.723   4.227
  727SOL    HW2 3081   3.409   5.644   4.318
  728SOL     OW 3082   0.196   3.802   5.450
  728SOL    HW1 3083   0.224   3.733   5.518
  728SOL    HW2 3084   0.118   3.854   5.486
  729SOL     OW 3085   2.099   1.048   0.310
  729SOL    HW1 3086   2.136   1.003   0.391
  729SOL    HW2 3087   2.167   1.044   0.237
  730SOL     OW 3088   6.139   0.205   3.939
  730SOL    HW1 3089   6.051   0.170   3.907
  730SOL    HW2 3090   6.204   0.129   3.946
  731SOL     OW 3091   5.076   3.019   4.789
  731SOL    HW1 3092   4.984   2.981   4.794
  731SOL    HW2 3093   5.128   2.992   4.870
  732SOL     OW 3094   0.625   2.241   1.053
  732SOL    HW1 3095   0.529   2.266   1.038
  732SOL    HW2 3096   0.676   2.254   0.969
  733SOL     OW 3097   5.169   4.573   3.666
  733SOL    HW1 3098   5.158   4.504   3.595
  733SOL    HW2 3099   5.115   4.547   3.747
  734SOL     OW 3100   6.916   4.120   1.528
  734SOL    HW1 3101   6.856   4.199   1.530
  734SOL    HW2 3102   6.959   4.111   1.438
  735SOL     OW 3103   1.432   3.323   0.344
  735SOL    HW1 3104   1.407   3.234   0.382
  735SOL    HW2 3105   1.452   3.313   0.246
  736SOL     OW 3106   6.186   0.169   3.119
  736SOL    HW1 3107   6.237   0.083   3.120
  736SOL    HW2 3108   6.088   0.150   3.128
  737SOL     OW 3109   4.683   3.525   1.696
  737SOL    HW1 3110   4.665   3.602   1.636
  737SOL    HW2 3111   4.715   3.447   1.642
  738SOL     OW 3112   0.213   4.449   4.330
  738SOL    HW1 3113   0.242   4.380   4.395
  738SOL    HW2 3114   0.240   4.540   4.363
  739SOL     OW 3115   4.509   6.744   5.820
  739SOL    HW1 3116   4.528   6.690   5.903
  739SOL    HW2 3117   4.591   6.746   5.763
  740SOL     OW 3118   5.641   0.416   0.989
  740SOL    HW1 3119   5.590   0.345   1.039
  740SOL    HW2 3120   5.674   0.485   1.054
  741SOL     OW 3121   1.166   6.117   3.433
  741SOL    HW1 3122   1.091   6.096   3.370
  741SOL    HW2 3123   1.131   6.125   3.526
  742SOL     OW 3124   1.780   6.581   3.567
  742SOL    HW1 3125   1.690   6.561   3.605
  742SOL    HW2 3126   1.845   6.510   3.594
  743SOL     OW 3127   1.318   4.492   4.125
  743SOL    HW1 3128   1.270   4.476   4.210
  743SOL    HW2 3129   1.286   4.577   4.083
  744SOL     OW 3130   6.704   6.118   7.009
  744SOL    HW1 3131   6.692   6.198   6.950
  744SOL    HW2 3132   6.635   6.050   6.986
  745SOL     OW 3133   1.055   5.240   3.564
  745SOL    HW1 3134   1.091   5.278   3.650
  745SOL    HW2 3135   1.132   5.213   3.506
  746SOL     OW 3136   0.364   6.612   5.048
  746SOL    HW1 3137   0.364   6.712   5.038
  746SOL    HW2 3138   0.458   6.580   5.057
  747SOL     OW 3139   4.487   4.886   3.820
  747SOL    HW1 3140   4.547   4.811   3.793
  747SOL    HW2 3141   4.516   4.922   3.908
  748SOL     OW 3142   4.578   4.631   0.894
  748SOL    HW1 3143   4.578   4.588   0.984
  748SOL    HW2 3144   4.510   4.586   0.836
  749SOL     OW 3145   6.993   2.755   5.131
  749SOL    HW1 3146   6.948   2.673   5.095
  749SOL    HW2 3147   6.985   2.756   5.231
  750SOL     OW 3148   3.076   2.872   0.740
  750SOL    HW1 3149   3.032   2.942   0.796
  750SOL    HW2 3150   3.175   2.877   0.753
  751SOL     OW 3151   4.303   1.209   0.699
  751SOL    HW1 3152   4.334   1.114   0.689
  751SOL    HW2 3153   4.253   1.219   0.785
  752SOL     OW 3154   4.276   2.358   2.122
  752SOL    HW1 3155   4.205   2.288   2.133
  752SOL    HW2 3156   4.289   2.376   2.024
  753SOL     OW 3157   1.830   3.247   4.732
  753SOL    HW1 3158   1.777   3.332   4.726
  753SOL    HW2 3159   1.900   3.256   4.804
  754SOL     OW 3160   5.086   4.075   6.838
  754SOL    HW1 3161   5.103   4.010   6.764
  754SOL    HW2 3162   5.156   4.147   6.836
  755SOL     OW 3163   0.347   5.893   6.728
  755SOL    HW1 3164   0.382   5.808   6.768
  755SOL    HW2 3165   0.418   5.963   6.729
  756SOL     OW 3166   5.193   0.777   2.445
  756SOL    HW1 3167   5.099   0.811   2.446
  756SOL    HW2 3168   5.193   0.678   2.431
  757SOL     OW 3169   0.442   6.543   4.179
  757SOL    HW1 3170   0.460   6.544   4.278
  757SOL    HW2 3171   0.426   6.636   4.147
  758SOL     OW 3172   3.344   2.215   1.163
  758SOL    HW1 3173   3.255   2.171   1.176
  758SOL    HW2 3174   3.387   2.230   1.251
  759SOL     OW 3175   0.901   1.416   0.163
  759SOL    HW1 3176   0.982   1.447   0.212
  759SOL    HW2 3177   0.847   1.495   0.135
  760SOL     OW 3178   4.821   1.778   6.614
  760SOL    HW1 3179   4.759   1.731   6.552
  760SOL    HW2 3180   4.797   1.756   6.709
  761SOL     OW 3181   5.984   3.211   0.348
  761SOL    HW1 3182   5.957   3.200   0.252
  761SOL    HW2 3183   6.081   3.235   0.352
  762SOL     OW 3184   2.121   6.237   3.868
  762SOL    HW1 3185   2.189   6.285   3.813
  762SOL    HW2 3186   2.151   6.143   3.884
  763SOL     OW 3187   4.248   5.838   0.019
  763SOL    HW1 3188   4.157   5.815   0.054
  763SOL    HW2 3189   4.315   5.772   0.054
  764SOL     OW 3190   3.250   1.112   2.890
  764SOL    HW1 3191   3.166   1.062   2.869
  764SOL    HW2 3192   3.227   1.203   2.926
  765SOL     OW 3193   0.934   6.268   1.796
  765SOL    HW1 3194   0.937   6.169   1.805
  765SOL    HW2 3195   0.988   6.310   1.869
  766SOL     OW 3196   0.035   0.704   6.424
  766SOL    HW1 3197   6.989   0.708   6.352
  766SOL    HW2 3198   0.082   0.616   6.419
  767SOL     OW 3199   0.500   6.795   2.194
  767SOL    HW1 3200   0.454   6.824   2.110
  767SOL    HW2 3201   0.554   6.871   2.231
  768SOL     OW 3202   2.437   0.181   2.449
  768SOL    HW1 3203   2.533   0.189   2.475
  768SOL    HW2 3204   2.383   0.157   2.529
  769SOL     OW 3205   3.578   0.590   4.690
  769SOL    HW1 3206   3.532   0.588   4.601
  769SOL    HW2 3207   3.607   0.683   4.710
  770SOL     OW 3208   2.879   5.661   3.377
  770SOL    HW1 3209   2.965   5.655   3.326
  770SOL    HW2 3210   2.886   5.606   3.460
  771SOL     OW 3211   2.024   5.598   2.636
  771SOL    HW1 3212   1.994   5.504   2.652
  771SOL    HW2 3213   2.049   5.641   2.722
  772SOL     OW 3214   0.006   4.251   0.410
  772SOL    HW1 3215   6.978   4.196   0.345
  772SOL    HW2 3216   0.088   4.287   0.365
  773SOL     OW 3217   6.645   2.732   3.300
  773SOL    HW1 3218   6.633   2.638   3.270
  773SOL    HW2 3219   6.734   2.766   3.271
  774SOL     OW 3220   1.677   1.943   1.805
  774SOL    HW1 3221   1.758   1.899   1.766
  774SOL    HW2 3222   1.673   1.925   1.903
  775SOL     OW 3223   1.109   1.732   3.965
  775SOL    HW1 3224   1.055   1.685   4.035
  775SOL    HW2 3225   1.048   1.779   3.901
  776SOL     OW 3226   1.407   6.670   6.005
  776SOL    HW1 3227   1.350   6.593   5.975
  776SOL    HW2 3228   1.483   6.681   5.940
  777SOL     OW 3229   3.903   1.175   1.237
  777SOL    HW1 3230   4.003   1.177   1.237
  777SOL    HW2 3231   3.868   1.254   1.187
  778SOL     OW 3232   3.990   0.845   3.470
  778SOL    HW1 3233   4.007   0.785   3.391
  778SOL    HW2 3234   3.940   0.926   3.440
  779SOL     OW 3235   0.345   1.929   2.151
  779SOL    HW1 3236   0.354   2.018   2.196
  779SOL    HW2 3237   0.408   1.864   2.192
  780SOL     OW 3238   6.141   2.618   4.452
  780SOL    HW1 3239   6.110   2.528   4.481
  780SOL    HW2 3240   6.063   2.681   4.450
  781SOL     OW 3241   6.021   1.310   6.240
  781SOL    HW1 3242   5.981   1.300   6.149
  781SOL    HW2 3243   6.059   1.402   6.250
  782SOL     OW 3244   0.690   3.796   1.124
  782SOL    HW1 3245   0.620   3.861   1.092
  782SOL    HW2 3246   0.748   3.770   1.047
  783SOL     OW 3247   2.838   5.684   0.164
  783SOL    HW1 3248   2.901   5.724   0.097
  783SOL    HW2 3249   2.824   5.749   0.239
  784SOL     OW 3250   4.133   0.526   5.331
  784SOL    HW1 3251   4.181   0.596   5.278
  784SOL    HW2 3252   4.089   0.569   5.410
  785SOL     OW 3253   6.214   1.679   2.336
  785SOL    HW1 3254   6.273   1.703   2.413
  785SOL    HW2 3255   6.259   1.610   2.280
  786SOL     OW 3256   0.251   0.354   0.371
  786SOL    HW1 3257   0.207   0.301   0.445
  786SOL    HW2 3258   0.196   0.435   0.351
  787SOL     OW 3259   2.755   1.154   5.407
  787SOL    HW1 3260   2.715   1.077   5.456
  787SOL    HW2 3261   2.814   1.206   5.470
  788SOL     OW 3262   2.154   3.410   4.240
  788SOL    HW1 3263   2.083   3.454   4.295
  788SOL    HW2 3264   2.243   3.445   4.266
  789SOL     OW 3265   6.056   4.141   1.967
  789SOL    HW1 3266   6.103   4.075   2.027
  789SOL    HW2 3267   6.123   4.207   1.932
  790SOL     OW 3268   2.194   1.535   4.096
  790SOL    HW1 3269   2.146   1.587   4.026
  790SOL    HW2 3270   2.144   1.540   4.182
  791SOL     OW 3271   3.947   0.411   3.758
  791SOL    HW1 3272   4.016   0.468   3.802
  791SOL    HW2 3273   3.952   0.318   3.795
  792SOL     OW 3274   6.389   0.204   2.237
  792SOL    HW1 3275   6.334   0.135   2.285
  792SOL    HW2 3276   6.485   0.193   2.261
  793SOL     OW 3277   5.101   6.102   1.619
  793SOL    HW1 3278   5.022   6.140   1.668
  793SOL    HW2 3279   5.098   6.134   1.524
  794SOL     OW 3280   2.681   4.801   5.692
  794SOL    HW1 3281   2.676   4.720   5.751
  794SOL    HW2 3282   2.638   4.781   5.604
  795SOL     OW 3283   3.648   4.965   5.786
  795SOL    HW1 3284   3.635   5.064   5.795
  795SOL    HW2 3285   3.653   4.941   5.689
  796SOL     OW 3286   0.314   1.959   5.309
  796SOL    HW1 3287   0.397   1.915   5.345
  796SOL    HW2 3288   0.292   2.039   5.366
  797SOL     OW 3289   5.351   2.245   2.975
  797SOL    HW1 3290   5.438   2.237   3.023
  797SOL    HW2 3291   5.346   2.334   2.930
  798SOL     OW 3292   4.805   0.561   0.612
  798SOL    HW1 3293   4.724   0.516   0.649
  798SOL    HW2 3294   4.828   0.640   0.669
  799SOL     OW 3295   6.108   2.212   3.314
  799SOL    HW1 3296   6.031   2.159   3.280
  799SOL    HW2 3297   6.105   2.304   3.275
  800SOL     OW 3298   5.631   0.507   1.968
  800SOL    HW1 3299   5.535   0.528   1.987
  800SOL    HW2 3300   5.648   0.410   1.984
  801SOL     OW 3301   1.336   2.708   3.325
  801SOL    HW1 3302   1.258   2.670   3.374
  801SOL    HW2 3303   1.306   2.741   3.235
  802SOL     OW 3304   4.996   1.201   0.288
  802SOL    HW1 3305   5.062   1.249   0.345
  802SOL    HW2 3306   4.949   1.266   0.229
  803SOL     OW 3307   5.992   5.801   4.731
  803SOL    HW1 3308   5.926   5.774   4.660
  803SOL    HW2 3309   6.025   5.893   4.712
  804SOL     OW 3310   6.805   6.723   0.342
  804SOL    HW1 3311   6.823   6.777   0.424
  804SOL    HW2 3312   6.761   6.636   0.368
  805SOL     OW 3313   4.143   2.772   5.768
  805SOL    HW1 3314   4.096   2.731   5.847
  805SOL    HW2 3315   4.132   2.713   5.688
  806SOL     OW 3316   4.312   1.216   6.148
  806SOL    HW1 3317   4.320   1.268   6.233
  806SOL    HW2 3318   4.248   1.262   6.086
  807SOL     OW 3319   1.154   0.902   3.617
  807SOL    HW1 3320   1.076   0.867   3.565
  807SOL    HW2 3321   1.233   0.911   3.556
  808SOL     OW 3322   5.140   3.238   5.917
  808SOL    HW1 3323   5.080   3.278   5.849
  808SOL    HW2 3324   5.091   3.167   5.968
  809SOL     OW 3325   1.097   4.902   1.048
  809SOL    HW1 3326   1.140   4.882   1.136
  809SOL    HW2 3327   1.100   4.821   0.989
  810SOL     OW 3328   4.471   3.656   1.352
  810SOL    HW1 3329   4.537   3.688   1.420
  810SOL    HW2 3330   4.417   3.581   1.391
  811SOL     OW 3331   4.972   5.680   3.343
  811SOL    HW1 3332   5.022   5.640   3.266
  811SOL    HW2 3333   5.019   5.657   3.428
  812SOL     OW 3334   0.058   0.306   1.464
  812SOL    HW1 3335   0.053   0.402   1.439
  812SOL    HW2 3336   0.145   0.268   1.434
  813SOL     OW 3337   4.361   6.149   3.418
  813SOL    HW1 3338   4.437   6.161   3.354
  813SOL    HW2 3339   4.275   6.156   3.369
  814SOL     OW 3340   5.126   6.657   2.731
  814SOL    HW1 3341   5.164   6.712   2.805
  814SOL    HW2 3342   5.063   6.589   2.768
  815SOL     OW 3343   6.043   2.506   1.669
  815SOL    HW1 3344   5.974   2.443   1.704
  815SOL    HW2 3345   6.127   2.457   1.648
  816SOL     OW 3346   6.723   6.160   0.246
  816SOL    HW1 3347   6.711   6.160   0.147
  816SOL    HW2 3348   6.818   6.181   0.269
  817SOL     OW 3349   1.867   4.015   2.370
  817SOL    HW1 3350   1.967   4.023   2.361
  817SOL    HW2 3351   1.845   3.969   2.457
  818SOL     OW 3352   6.113   2.294   0.747
  818SOL    HW1 3353   6.163   2.266   0.665
  818SOL    HW2 3354   6.135   2.232   0.823
  819SOL     OW 3355   6.597   2.540   4.389
  819SOL    HW1 3356   6.687   2.551   4.348
  819SOL    HW2 3357   6.590   2.452   4.435
  820SOL     OW 3358   1.307   3.023   4.810
  820SOL    HW1 3359   1.379   3.084   4.776
  820SOL    HW2 3360   1.255   2.987   4.733
  821SOL     OW 3361   1.661   4.457   0.613
  821SOL    HW1 3362   1.696   4.451   0.706
  821SOL    HW2 3363   1.733   4.431   0.548
  822SOL     OW 3364   0.498   4.270   4.874
  822SOL    HW1 3365   0.485   4.304   4.781
  822SOL    HW2 3366   0.468   4.175   4.880
  823SOL     OW 3367   5.035   4.354   6.348
  823SOL    HW1 3368   5.063   4.443   6.313
  823SOL    HW2 3369   5.073   4.342   6.440
  824SOL     OW 3370   4.696   1.747   4.931
  824SOL    HW1 3371   4.751   1.822   4.895
  824SOL    HW2 3372   4.600   1.773   4.934
  825SOL     OW 3373   1.976   3.259   2.291
  825SOL    HW1 3374   1.994   3.344   2.341
  825SOL    HW2 3375   1.999   3.272   2.195
  826SOL     OW 3376   5.864   3.471   0.483
  826SOL    HW1 3377   5.878   3.438   0.390
  826SOL    HW2 3378   5.839   3.395   0.543
  827SOL     OW 3379   3.242   5.371   6.420
  827SOL    HW1 3380   3.164   5.342   6.475
  827SOL    HW2 3381   3.322   5.386   6.479
  828SOL     OW 3382   6.328   0.639   5.323
  828SOL    HW1 3383   6.332   0.557   5.266
  828SOL    HW2 3384   6.353   0.719   5.268
  829SOL     OW 3385   3.122   3.135   3.734
  829SOL    HW1 3386   3.054   3.199   3.768
  829SOL    HW2 3387   3.129   3.057   3.797
  830SOL     OW 3388   4.836   4.873   5.819
  830SOL    HW1 3389   4.833   4.833   5.911
  830SOL    HW2 3390   4.861   4.802   5.753
  831SOL     OW 3391   6.615   6.928   4.450
  831SOL    HW1 3392   6.671   6.851   4.418
  831SOL    HW2 3393   6.632   7.007   4.391
  832SOL     OW 3394   2.492   1.400   0.094
  832SOL    HW1 3395   2.540   1.475   0.138
  832SOL    HW2 3396   2.447   1.343   0.164
  833SOL     OW 3397   6.262   6.643   6.537
  833SOL    HW1 3398   6.229   6.626   6.629
  833SOL    HW2 3399   6.299   6.558   6.498
  834SOL     OW 3400   3.415   3.588   3.737
  834SOL    HW1 3401   3.468   3.637   3.668
  834SOL    HW2 3402   3.378   3.653   3.803
  835SOL     OW 3403   4.125   6.777   3.816
  835SOL    HW1 3404   4.213   6.761   3.861
  835SOL    HW2 3405   4.058   6.806   3.885
  836SOL     OW 3406   3.450   6.638   6.918
  836SOL    HW1 3407   3.446   6.556   6.975
  836SOL    HW2 3408   3.439   6.719   6.975
  837SOL     OW 3409   5.590   0.250   6.998
  837SOL    HW1 3410   5.574   0.345   6.971
  837SOL    HW2 3411   5.617   0.246   0.070
  838SOL     OW 3412   1.294   6.498   5.070
  838SOL    HW1 3413   1.311   6.489   4.972
  838SOL    HW2 3414   1.375   6.469   5.121
  839SOL     OW 3415   2.931   1.153   3.616
  839SOL    HW1 3416   3.028   1.141   3.595
  839SOL    HW2 3417   2.898   1.239   3.576
  840SOL     OW 3418   1.252   1.409   0.062
  840SOL    HW1 3419   1.186   1.437   0.131
  840SOL    HW2 3420   1.271   1.311   0.073
  841SOL     OW 3421   6.384   3.654   0.111
  841SOL    HW1 3422   6.288   3.630   0.098
  841SOL    HW2 3423   6.422   3.686   0.024
  842SOL     OW 3424   4.056   5.335   3.090
  842SOL    HW1 3425   4.101   5.293   3.168
  842SOL    HW2 3426   4.122   5.345   3.015
  843SOL     OW 3427   5.930   2.070   1.260
  843SOL    HW1 3428   5.878   2.020   1.191
  843SOL    HW2 3429   5.867   2.109   1.326
  844SOL     OW 3430   5.214   6.355   0.738
  844SOL    HW1 3431   5.124   6.338   0.696
  844SOL    HW2 3432   5.216   6.447   0.777
  845SOL     OW 3433   6.045   3.319   5.048
  845SOL    HW1 3434   6.104   3.285   5.121
  845SOL    HW2 3435   6.029   3.246   4.982
  846SOL     OW 3436   5.794   1.237   0.293
  846SOL    HW1 3437   5.727   1.208   0.362
  846SOL    HW2 3438   5.784   1.335   0.277
  847SOL     OW 3439   6.198   3.495   0.882
  847SOL    HW1 3440   6.132   3.420   0.893
  847SOL    HW2 3441   6.260   3.474   0.807
  848SOL     OW 3442   6.758   0.397   6.193
  848SOL    HW1 3443   6.760   0.365   6.099
  848SOL    HW2 3444   6.681   0.356   6.242
  849SOL     OW 3445   0.366   5.873   4.841
  849SOL    HW1 3446   0.337   5.969   4.847
  849SOL    HW2 3447   0.369   5.845   4.745
  850SOL     OW 3448   4.915   0.902   3.380
  850SOL    HW1 3449   4.930   0.903   3.281
  850SOL    HW2 3450   4.817   0.897   3.399
  851SOL     OW 3451   0.551   1.136   7.001
  851SOL    HW1 3452   0.499   1.134   0.062
  851SOL    HW2 3453   0.503   1.192   6.934
  852SOL     OW 3454   2.301   2.750   6.803
  852SOL    HW1 3455   2.296   2.658   6.841
  852SOL    HW2 3456   2.275   2.817   6.873
  853SOL     OW 3457   1.027   2.653   1.941
  853SOL    HW1 3458   1.098   2.656   2.011
  853SOL    HW2 3459   0.991   2.560   1.934
  854SOL     OW 3460   5.362   6.511   2.650
  854SOL    HW1 3461   5.344   6.412   2.654
  854SOL    HW2 3462   5.279   6.561   2.676
  855SOL     OW 3463   5.538   0.224   1.778
  855SOL    HW1 3464   5.602   0.244   1.704
  855SOL    HW2 3465   5.588   0.212   1.864
  856SOL     OW 3466   2.010   6.894   5.687
  856SOL    HW1 3467   1.960   6.931   5.766
  856SOL    HW2 3468   1.972   6.805   5.662
  857SOL     OW 3469   6.175   3.768   1.000
  857SOL    HW1 3470   6.171   3.681   0.950
  857SOL    HW2 3471   6.219   3.754   1.088
  858SOL     OW 3472   2.918   5.019   1.458
  858SOL    HW1 3473   2.959   5.086   1.397
  858SOL    HW2 3474   2.990   4.969   1.506
  859SOL     OW 3475   6.555   4.823   6.584
  859SOL    HW1 3476   6.582   4.845   6.678
  859SOL    HW2 3477   6.541   4.724   6.576
  860SOL     OW 3478   3.335   4.938   0.231
  860SOL    HW1 3479   3.243   4.967   0.206
  860SOL    HW2 3480   3.367   4.867   0.168
  861SOL     OW 3481   3.163   6.624   4.964
  861SOL    HW1 3482   3.173   6.554   5.034
  861SOL    HW2 3483   3.182   6.584   4.874
  862SOL     OW 3484   5.887   4.386   4.829
  862SOL    HW1 3485   5.944   4.334   4.765
  862SOL    HW2 3486   5.839   4.458   4.779
  863SOL     OW 3487   0.592   1.051   0.664
  863SOL    HW1 3488   0.505   1.100   0.660
  863SOL    HW2 3489   0.627   1.053   0.758
  864SOL     OW 3490   4.998   4.235   3.161
  864SOL    HW1 3491   5.057   4.187   3.097
  864SOL    HW2 3492   5.015   4.202   3.254
  865SOL     OW 3493   1.280   0.068   3.733
  865SOL    HW1 3494   1.246   0.161   3.715
  865SOL    HW2 3495   1.380   0.070   3.739
  866SOL     OW 3496   2.738   1.748   2.010
  866SOL    HW1 3497   2.701   1.841   2.009
  866SOL    HW2 3498   2.838   1.751   2.000
  867SOL     OW 3499   2.982   3.021   6.874
  867SOL    HW1 3500   3.013   3.041   6.781
  867SOL    HW2 3501   2.920   3.093   6.904
  868SOL     OW 3502   5.815   0.220   3.021
  868SOL    HW1 3503   5.799   0.284   3.096
  868SOL    HW2 3504   5.908   0.232   2.985
  869SOL     OW 3505   6.363   5.875   2.465
  869SOL    HW1 3506   6.307   5.958   2.453
  869SOL    HW2 3507   6.453   5.901   2.501
  870SOL     OW 3508   0.061   2.686   1.194
  870SOL    HW1 3509   0.128   2.760   1.199
  870SOL    HW2 3510   0.072   2.626   1.273
  871SOL     OW 3511   6.613   2.536   2.102
  871SOL    HW1 3512   6.662   2.514   2.186
  871SOL    HW2 3513   6.632   2.631   2.076
  872SOL     OW 3514   6.242   2.746   4.769
  872SOL    HW1 3515   6.222   2.843   4.780
  872SOL    HW2 3516   6.300   2.733   4.689
  873SOL     OW 3517   3.830   6.675   3.456
  873SOL    HW1 3518   3.735   6.674   3.488
  873SOL    HW2 3519   3.846   6.595   3.398
  874SOL     OW 3520   1.568   4.728   4.820
  874SOL    HW1 3521   1.635   4.661   4.789
  874SOL    HW2 3522   1.589   4.755   4.914
  875SOL     OW 3523   5.504   4.288   0.657
  875SOL    HW1 3524   5.567   4.234   0.600
  875SOL    HW2 3525   5.476   4.233   0.736
  876SOL     OW 3526   6.776   3.619   2.477
  876SOL    HW1 3527   6.691   3.578   2.511
  876SOL    HW2 3528   6.755   3.708   2.436
  877SOL     OW 3529   5.058   5.075   6.888
  877SOL    HW1 3530   4.971   5.121   6.870
  877SOL    HW2 3531   5.043   5.000   6.953
  878SOL     OW 3532   3.093   5.169   0.539
  878SOL    HW1 3533   3.159   5.095   0.530
  878SOL    HW2 3534   3.014   5.151   0.480
  879SOL     OW 3535   4.556   1.872   2.408
  879SOL    HW1 3536   4.552   1.945   2.477
  879SOL    HW2 3537   4.650   1.860   2.378
  880SOL     OW 3538   3.686   5.034   0.273
  880SOL    HW1 3539   3.705   5.108   0.337
  880SOL    HW2 3540   3.631   4.964   0.319
  881SOL     OW 3541   4.338   4.944   4.408
  881SOL    HW1 3542   4.343   5.022   4.345
  881SOL    HW2 3543   4.316   4.861   4.356
  882SOL     OW 3544   0.945   0.583   4.416
  882SOL    HW1 3545   1.022   0.624   4.465
  882SOL    HW2 3546   0.865   0.642   4.423
  883SOL     OW 3547   3.361   5.158   6.658
  883SOL    HW1 3548   3.413   5.138   6.575
  883SOL    HW2 3549   3.359   5.257   6.673
  884SOL     OW 3550   6.036   3.534   1.814
  884SOL    HW1 3551   5.974   3.476   1.761
  884SOL    HW2 3552   5.985   3.610   1.854
  885SOL     OW 3553   6.007   6.426   0.194
  885SOL    HW1 3554   5.999   6.349   0.258
  885SOL    HW2 3555   6.090   6.478   0.215
  886SOL     OW 3556   3.840   0.971   0.023
  886SOL    HW1 3557   3.747   0.948   7.021
  886SOL    HW2 3558   3.853   0.952   0.121
  887SOL     OW 3559   3.895   0.205   6.079
  887SOL    HW1 3560   3.982   0.156   6.072
  887SOL    HW2 3561   3.909   0.300   6.050
  888SOL     OW 3562   6.802   6.430   3.400
  888SOL    HW1 3563   6.753   6.496   3.343
  888SOL    HW2 3564   6.840   6.358   3.341
  889SOL     OW 3565   6.920   6.442   5.117
  889SOL    HW1 3566   6.855   6.461   5.191
  889SOL    HW2 3567   6.985   6.518   5.110
  890SOL     OW 3568   2.596   4.609   2.289
  890SOL    HW1 3569   2.500   4.590   2.310
  890SOL    HW2 3570   2.606   4.627   2.191
  891SOL     OW 3571   5.591   2.547   0.787
  891SOL    HW1 3572   5.574   2.449   0.775
  891SOL    HW2 3573   5.533   2.583   0.861
  892SOL     OW 3574   2.800   3.931   1.055
  892SOL    HW1 3575   2.850   3.845   1.046
  892SOL    HW2 3576   2.864   4.006   1.070
  893SOL     OW 3577   1.276   0.764   0.348
  893SOL    HW1 3578   1.322   0.695   0.404
  893SOL    HW2 3579   1.193   0.725   0.308
  894SOL     OW 3580   1.276   5.917   4.418
  894SOL    HW1 3581   1.182   5.895   4.391
  894SOL    HW2 3582   1.286   5.901   4.516
  895SOL     OW 3583   2.337   6.939   4.407
  895SOL    HW1 3584   2.324   6.851   4.362
  895SOL    HW2 3585   2.320   7.013   4.341
  896SOL     OW 3586   5.726   6.211   3.603
  896SOL    HW1 3587   5.755   6.295   3.647
  896SOL    HW2 3588   5.713   6.140   3.672
  897SOL     OW 3589   4.642   2.662   6.395
  897SOL    HW1 3590   4.549   2.697   6.411
  897SOL    HW2 3591   4.690   2.653   6.482
  898SOL     OW 3592   5.481   6.592   3.662
  898SOL    HW1 3593   5.427   6.508   3.652
  898SOL    HW2 3594   5.439   6.665   3.607
  899SOL     OW 3595   0.187   4.325   6.492
  899SOL    HW1 3596   0.199   4.420   6.463
  899SOL    HW2 3597   0.196   4.265   6.413
  900SOL     OW 3598   0.367   6.167   3.491
  900SOL    HW1 3599   0.271   6.194   3.489
  900SOL    HW2 3600   0.404   6.167   3.398
  901SOL     OW 3601   6.447   1.064   3.995
  901SOL    HW1 3602   6.353   1.039   3.971
  901SOL    HW2 3603   6.498   1.085   3.912
  902SOL     OW 3604   0.201   0.174   6.797
  902SOL    HW1 3605   0.245   0.091   6.830
  902SOL    HW2 3606   0.216   0.184   6.699
  903SOL     OW 3607   0.580   4.766   0.696
  903SOL    HW1 3608   0.550   4.834   0.630
  903SOL    HW2 3609   0.678   4.777   0.715
  904SOL     OW 3610   1.811   1.669   3.388
  904SOL    HW1 3611   1.831   1.679   3.291
  904SOL    HW2 3612   1.893   1.640   3.436
  905SOL     OW 3613   5.277   1.940   5.649
  905SOL    HW1 3614   5.290   1.940   5.748
  905SOL    HW2 3615   5.352   1.892   5.604
  906SOL     OW 3616   0.006   3.969   6.163
  906SOL    HW1 3617   6.981   3.993   6.247
  906SOL    HW2 3618   0.088   3.917   6.187
  907SOL     OW 3619   5.865   2.405   2.626
  907SOL    HW1 3620   5.808   2.483   2.651
  907SOL    HW2 3621   5.860   2.390   2.527
  908SOL     OW 3622   2.026   0.259   4.133
  908SOL    HW1 3623   1.932   0.284   4.159
  908SOL    HW2 3624   2.023   0.181   4.070
  909SOL     OW 3625   3.745   1.036   1.412
  909SOL    HW1 3626   3.790   1.059   1.326
  909SOL    HW2 3627   3.770   0.942   1.439
  910SOL     OW 3628   2.014   1.677   0.568
  910SOL    HW1 3629   1.973   1.610   0.629
  910SOL    HW2 3630   2.013   1.643   0.474
  911SOL     OW 3631   0.459   4.679   1.121
  911SOL    HW1 3632   0.502   4.591   1.100
  911SOL    HW2 3633   0.371   4.663   1.166
  912SOL     OW 3634   6.955   0.443   5.894
  912SOL    HW1 3635   6.976   0.355   5.936
  912SOL    HW2 3636   7.005   0.515   5.942
  913SOL     OW 3637   2.437   1.069   2.315
  913SOL    HW1 3638   2.499   1.065   2.237
  913SOL    HW2 3639   2.369   1.141   2.300
  914SOL     OW 3640   2.712   5.895   3.420
  914SOL    HW1 3641   2.795   5.917   3.472
  914SOL    HW2 3642   2.720   5.802   3.384
  915SOL     OW 3643   0.700   2.724   0.271
  915SOL    HW1 3644   0.601   2.738   0.278
  915SOL    HW2 3645   0.747   2.809   0.294
  916SOL     OW 3646   2.647   2.475   3.091
  916SOL    HW1 3647   2.719   2.415   3.056
  916SOL    HW2 3648   2.574   2.482   3.024
  917SOL     OW 3649   3.976   1.665   1.208
  917SOL    HW1 3650   4.034   1.586   1.227
  917SOL    HW2 3651   3.892   1.659   1.263
  918SOL     OW 3652   2.292   6.125   6.485
  918SOL    HW1 3653   2.270   6.069   6.565
  918SOL    HW2 3654   2.260   6.219   6.500
  919SOL     OW 3655   1.804   5.923   1.480
  919SOL    HW1 3656   1.837   5.878   1.397
  919SOL    HW2 3657   1.882   5.959   1.531
  920SOL     OW 3658   2.858   0.725   3.555
  920SOL    HW1 3659   2.946   0.729   3.507
  920SOL    HW2 3660   2.823   0.817   3.569
  921SOL     OW 3661   5.931   5.286   4.360
  921SOL    HW1 3662   5.995   5.263   4.433
  921SOL    HW2 3663   5.862   5.349   4.395
  922SOL     OW 3664   3.297   3.727   6.833
  922SOL    HW1 3665   3.307   3.779   6.748
  922SOL    HW2 3666   3.242   3.779   6.898
  923SOL     OW 3667   2.973   6.679   6.762
  923SOL    HW1 3668   3.064   6.717   6.748
  923SOL    HW2 3669   2.933   6.653   6.673
  924SOL     OW 3670   5.927   3.906   2.572
  924SOL    HW1 3671   6.021   3.917   2.540
  924SOL    HW2 3672   5.906   3.809   2.581
  925SOL     OW 3673   0.228   1.722   4.578
  925SOL    HW1 3674   0.142   1.692   4.538
  925SOL    HW2 3675   0.211   1.777   4.660
  926SOL     OW 3676   5.283   6.020   0.429
  926SOL    HW1 3677   5.341   6.009   0.348
  926SOL    HW2 3678   5.308   6.104   0.477
  927SOL     OW 3679   4.585   4.377   4.337
  927SOL    HW1 3680   4.677   4.346   4.359
  927SOL    HW2 3681   4.554   4.442   4.406
  928SOL     OW 3682   2.052   0.844   1.507
  928SOL    HW1 3683   2.139   0.822   1.464
  928SOL    HW2 3684   2.056   0.937   1.545
  929SOL     OW 3685   6.957   2.651   2.862
  929SOL    HW1 3686   6.866   2.689   2.873
  929SOL    HW2 3687   7.017   2.687   2.934
  930SOL     OW 3688   5.317   4.748   4.144
  930SOL    HW1 3689   5.261   4.802   4.081
  930SOL    HW2 3690   5.388   4.807   4.183
  931SOL     OW 3691   1.016   2.147   2.444
  931SOL    HW1 3692   0.947   2.218   2.428
  931SOL    HW2 3693   1.050   2.113   2.357
  932SOL     OW 3694   4.751   6.174   1.116
  932SOL    HW1 3695   4.665   6.128   1.136
  932SOL    HW2 3696   4.824   6.135   1.173
  933SOL     OW 3697   1.971   5.325   2.769
  933SOL    HW1 3698   1.898   5.330   2.838
  933SOL    HW2 3699   1.935   5.287   2.685
  934SOL     OW 3700   3.175   1.620   5.107
  934SOL    HW1 3701   3.230   1.611   5.025
  934SOL    HW2 3702   3.099   1.554   5.104
  935SOL     OW 3703   4.002   3.211   6.340
  935SOL    HW1 3704   3.996   3.198   6.439
  935SOL    HW2 3705   4.067   3.145   6.302
  936SOL     OW 3706   0.648   0.808   0.732
  936SOL    HW1 3707   0.594   0.726   0.712
  936SOL    HW2 3708   0.624   0.880   0.667
  937SOL     OW 3709   4.338   1.570   4.744
  937SOL    HW1 3710   4.245   1.573   4.780
  937SOL    HW2 3711   4.387   1.492   4.784
  938SOL     OW 3712   0.411   2.992   6.125
  938SOL    HW1 3713   0.433   2.895   6.123
  938SOL    HW2 3714   0.417   3.026   6.219
  939SOL     OW 3715   5.611   1.615   6.082
  939SOL    HW1 3716   5.525   1.582   6.122
  939SOL    HW2 3717   5.624   1.711   6.105
  940SOL     OW 3718   6.820   1.048   3.948
  940SOL    HW1 3719   6.830   1.147   3.957
  940SOL    HW2 3720   6.774   1.012   4.030
  941SOL     OW 3721   5.406   1.884   3.904
  941SOL    HW1 3722   5.354   1.808   3.865
  941SOL    HW2 3723   5.379   1.897   4.000
  942SOL     OW 3724   4.972   6.573   5.305
  942SOL    HW1 3725   5.047   6.515   5.274
  942SOL    HW2 3726   4.885   6.531   5.279
  943SOL     OW 3727   5.853   2.366   1.796
  943SOL    HW1 3728   5.776   2.374   1.733
  943SOL    HW2 3729   5.819   2.366   1.890
  944SOL     OW 3730   5.539   3.662   4.447
  944SOL    HW1 3731   5.625   3.712   4.430
  944SOL    HW2 3732   5.558   3.564   4.452
  945SOL     OW 3733   5.375   4.312   4.303
  945SOL    HW1 3734   5.333   4.309   4.212
  945SOL    HW2 3735   5.305   4.301   4.373
  946SOL     OW 3736   5.800   2.865   5.798
  946SOL    HW1 3737   5.727   2.897   5.738
  946SOL    HW2 3738   5.761   2.811   5.873
  947SOL     OW 3739   3.017   2.631   6.583
  947SOL    HW1 3740   3.004   2.544   6.631
  947SOL    HW2 3741   3.112   2.639   6.554
  948SOL     OW 3742   3.900   2.006   0.838
  948SOL    HW1 3743   3.847   2.091   0.840
  948SOL    HW2 3744   3.990   2.022   0.878
  949SOL     OW 3745   6.347   5.225   6.393
  949SOL    HW1 3746   6.344   5.125   6.392
  949SOL    HW2 3747   6.278   5.261   6.330
  950SOL     OW 3748   4.077   5.565   0.797
  950SOL    HW1 3749   4.128   5.630   0.853
  950SOL    HW2 3750   4.140   5.516   0.737
  951SOL     OW 3751   1.119   1.047   1.704
  951SOL    HW1 3752   1.151   1.062   1.798
  951SOL    HW2 3753   1.195   1.014   1.648
  952SOL     OW 3754   5.593   0.816   3.451
  952SOL    HW1 3755   5.669   0.750   3.440
  952SOL    HW2 3756   5.575   0.860   3.363
  953SOL     OW 3757   4.064   6.084   6.029
  953SOL    HW1 3758   4.044   6.171   6.075
  953SOL    HW2 3759   4.149   6.093   5.977
  954SOL     OW 3760   6.124   0.345   1.585
  954SOL    HW1 3761   6.156   0.260   1.627
  954SOL    HW2 3762   6.046   0.381   1.636
  955SOL     OW 3763   0.873   5.853   3.047
  955SOL    HW1 3764   0.925   5.902   3.117
  955SOL    HW2 3765   0.923   5.771   3.020
  956SOL     OW 3766   2.091   2.013   0.967
  956SOL    HW1 3767   2.173   2.017   1.024
  956SOL    HW2 3768   2.086   1.923   0.924
  957SOL     OW 3769   1.845   4.928   4.785
  957SOL    HW1 3770   1.826   4.831   4.774
  957SOL    HW2 3771   1.762   4.981   4.766
  958SOL     OW 3772   5.413   1.830   1.357
  958SOL    HW1 3773   5.417   1.767   1.434
  958SOL    HW2 3774   5.396   1.923   1.390
  959SOL     OW 3775   3.046   4.857   3.150
  959SOL    HW1 3776   2.988   4.815   3.080
  959SOL    HW2 3777   3.136   4.878   3.112
  960SOL     OW 3778   1.999   5.850   4.730
  960SOL    HW1 3779   2.037   5.767   4.689
  960SOL    HW2 3780   1.997   5.840   4.830
  961SOL     OW 3781   4.405   6.655   1.671
  961SOL    HW1 3782   4.374   6.656   1.576
  961SOL    HW2 3783   4.327   6.666   1.733
  962SOL     OW 3784   1.744   0.965   3.427
  962SOL    HW1 3785   1.752   0.890   3.493
  962SOL    HW2 3786   1.707   0.929   3.341
  963SOL     OW 3787   6.577   0.717   1.626
  963SOL    HW1 3788   6.539   0.808   1.607
  963SOL    HW2 3789   6.502   0.651   1.637
  964SOL     OW 3790   5.091   3.700   1.693
  964SOL    HW1 3791   5.031   3.742   1.625
  964SOL    HW2 3792   5.185   3.731   1.677
  965SOL     OW 3793   0.450   1.748   0.518
  965SOL    HW1 3794   0.406   1.686   0.583
  965SOL    HW2 3795   0.418   1.841   0.534
  966SOL     OW 3796   6.660   1.490   2.734
  966SOL    HW1 3797   6.645   1.463   2.639
  966SOL    HW2 3798   6.630   1.416   2.794
  967SOL     OW 3799   0.816   5.350   0.590
  967SOL    HW1 3800   0.894   5.356   0.652
  967SOL    HW2 3801   0.732   5.341   0.644
  968SOL     OW 3802   4.607   2.611   1.985
  968SOL    HW1 3803   4.580   2.679   2.054
  968SOL    HW2 3804   4.584   2.520   2.018
  969SOL     OW 3805   4.733   6.151   5.739
  969SOL    HW1 3806   4.702   6.129   5.646
  969SOL    HW2 3807   4.692   6.238   5.768
  970SOL     OW 3808   4.393   1.995   5.401
  970SOL    HW1 3809   4.429   1.968   5.311
  970SOL    HW2 3810   4.293   1.991   5.400
  971SOL     OW 3811   6.977   1.628   1.818
  971SOL    HW1 3812   6.977   1.717   1.863
  971SOL    HW2 3813   0.016   1.629   1.740
  972SOL     OW 3814   6.411   5.532   0.616
  972SOL    HW1 3815   6.315   5.523   0.643
  972SOL    HW2 3816   6.416   5.554   0.519
  973SOL     OW 3817   6.498   4.508   6.109
  973SOL    HW1 3818   6.425   4.548   6.053
  973SOL    HW2 3819   6.466   4.422   6.149
  974SOL     OW 3820   3.095   0.707   3.396
  974SOL    HW1 3821   3.131   0.718   3.489
  974SOL    HW2 3822   3.166   0.671   3.336
  975SOL     OW 3823   2.722   5.916   5.595
  975SOL    HW1 3824   2.690   5.842   5.655
  975SOL    HW2 3825   2.809   5.952   5.631
  976SOL     OW 3826   6.564   3.156   3.195
  976SOL    HW1 3827   6.489   3.221   3.212
  976SOL    HW2 3828   6.596   3.167   3.101
  977SOL     OW 3829   1.602   1.129   3.590
  977SOL    HW1 3830   1.670   1.079   3.536
  977SOL    HW2 3831   1.511   1.089   3.575
  978SOL     OW 3832   5.581   4.115   4.272
  978SOL    HW1 3833   5.507   4.181   4.257
  978SOL    HW2 3834   5.562   4.031   4.220
  979SOL     OW 3835   6.329   0.695   3.349
  979SOL    HW1 3836   6.359   0.663   3.259
  979SOL    HW2 3837   6.283   0.783   3.340
  980SOL     OW 3838   5.158   2.180   4.201
  980SOL    HW1 3839   5.214   2.200   4.120
  980SOL    HW2 3840   5.070   2.142   4.173
  981SOL     OW 3841   1.519   1.459   4.381
  981SOL    HW1 3842   1.479   1.502   4.300
  981SOL    HW2 3843   1.512   1.360   4.373
  982SOL     OW 3844   1.256   2.294   1.515
  982SOL    HW1 3845   1.190   2.262   1.447
  982SOL    HW2 3846   1.338   2.327   1.470
  983SOL     OW 3847   5.861   2.081   3.194
  983SOL    HW1 3848   5.841   2.109   3.288
  983SOL    HW2 3849   5.777   2.044   3.152
  984SOL     OW 3850   4.652   1.441   5.486
  984SOL    HW1 3851   4.650   1.541   5.487
  984SOL    HW2 3852   4.559   1.406   5.475
  985SOL     OW 3853   3.207   5.888   0.836
  985SOL    HW1 3854   3.115   5.884   0.875
  985SOL    HW2 3855   3.203   5.929   0.745
  986SOL     OW 3856   4.601   5.400   6.226
  986SOL    HW1 3857   4.630   5.374   6.134
  986SOL    HW2 3858   4.506   5.430   6.224
  987SOL     OW 3859   2.900   6.606   1.596
  987SOL    HW1 3860   2.884   6.654   1.682
  987SOL    HW2 3861   2.823   6.544   1.578
  988SOL     OW 3862   4.104   2.922   0.871
  988SOL    HW1 3863   4.080   2.899   0.777
  988SOL    HW2 3864   4.139   2.841   0.918
  989SOL     OW 3865   0.585   0.191   5.833
  989SOL    HW1 3866   0.645   0.271   5.844
  989SOL    HW2 3867   0.611   0.142   5.750
  990SOL     OW 3868   4.441   0.485   4.161
  990SOL    HW1 3869   4.422   0.548   4.086
  990SOL    HW2 3870   4.480   0.401   4.125
  991SOL     OW 3871   0.977   2.235   4.711
  991SOL    HW1 3872   1.028   2.264   4.793
  991SOL    HW2 3873   1.036   2.176   4.655
  992SOL     OW 3874   0.232   3.154   6.797
  992SOL    HW1 3875   0.327   3.131   6.818
  992SOL    HW2 3876   0.176   3.138   6.878
  993SOL     OW 3877   3.096   4.830   2.522
  993SOL    HW1 3878   3.095   4.844   2.423
  993SOL    HW2 3879   3.004   4.805   2.553
  994SOL     OW 3880   3.488   3.524   2.100
  994SOL    HW1 3881   3.518   3.607   2.053
  994SOL    HW2 3882   3.526   3.443   2.053
  995SOL     OW 3883   1.896   2.489   6.152
  995SOL    HW1 3884   1.874   2.460   6.058
  995SOL    HW2 3885   1.991   2.466   6.172
  996SOL     OW 3886   2.105   3.457   2.659
  996SOL    HW1 3887   2.056   3.462   2.572
  996SOL    HW2 3888   2.110   3.362   2.689
  997SOL     OW 3889   0.824   0.901   1.475
  997SOL    HW1 3890   0.824   1.001   1.482
  997SOL    HW2 3891   0.916   0.866   1.492
  998SOL     OW 3892   4.154   6.821   2.027
  998SOL    HW1 3893   4.241   6.871   2.025
  998SOL    HW2 3894   4.083   6.880   2.064
  999SOL     OW 3895   6.367   5.478   1.171
  999SOL    HW1 3896   6.416   5.453   1.087
  999SOL    HW2 3897   6.270   5.493   1.150
 1000SOL     OW 3898   2.291   2.830   3.586
 1000SOL    HW1 3899   2.295   2.867   3.679
 1000SOL    HW2 3900   2.324   2.736   3.585
 1001SOL     OW 3901   4.676   6.663   6.306
 1001SOL    HW1 3902   4.581   6.668   6.335
 1001SOL    HW2 3903   4.723   6.591   6.357
 1002SOL     OW 3904   5.728   1.479   7.004
 1002SOL    HW1 3905   5.700   1.443   6.916
 1002SOL    HW2 3906   5.648   1.519   0.026
 1003SOL     OW 3907   3.050   6.316   2.468
 1003SOL    HW1 3908   3.013   6.238   2.519
 1003SOL    HW2 3909   2.989   6.394   2.477
 1004SOL     OW 3910   6.944   0.119   6.641
 1004SOL    HW1 3911   6.860   0.069   6.663
 1004SOL    HW2 3912   7.003   0.121   6.721
 1005SOL     OW 3913   0.359   0.442   2.498
 1005SOL    HW1 3914   0.442   0.388   2.511
 1005SOL    HW2 3915   0.287   0.384   2.462
 1006SOL     OW 3916   2.353   5.394   1.490
 1006SOL    HW1 3917   2.317   5.435   1.406
 1006SOL    HW2 3918   2.351   5.462   1.563
 1007SOL     OW 3919   6.763   1.339   3.638
 1007SOL    HW1 3920   6.737   1.420   3.690
 1007SOL    HW2 3921   6.763   1.361   3.541
 1008SOL     OW 3922   0.979   2.598   3.909
 1008SOL    HW1 3923   0.922   2.640   3.980
 1008SOL    HW2 3924   1.067   2.645   3.906
 1009SOL     OW 3925   0.088   5.714   4.195
 1009SOL    HW1 3926   0.121   5.647   4.262
 1009SOL    HW2 3927   0.093   5.806   4.233
 1010SOL     OW 3928   4.343   1.691   0.590
 1010SOL    HW1 3929   4.304   1.641   0.667
 1010SOL    HW2 3930   4.422   1.640   0.555
 1011SOL     OW 3931   2.650   5.528   3.742
 1011SOL    HW1 3932   2.600   5.471   3.677
 1011SOL    HW2 3933   2.622   5.623   3.732
 1012SOL     OW 3934   6.147   5.419   0.138
 1012SOL    HW1 3935   6.228   5.474   0.117
 1012SOL    HW2 3936   6.176   5.328   0.168
 1013SOL     OW 3937   0.998   0.758   0.233
 1013SOL    HW1 3938   1.019   0.818   0.155
 1013SOL    HW2 3939   0.899   0.751   0.244
 1014SOL     OW 3940   3.999   5.615   5.906
 1014SOL    HW1 3941   4.025   5.650   5.996
 1014SOL    HW2 3942   4.047   5.667   5.835
 1015SOL     OW 3943   3.608   6.602   5.119
 1015SOL    HW1 3944   3.607   6.563   5.027
 1015SOL    HW2 3945   3.698   6.641   5.138
 1016SOL     OW 3946   3.572   2.724   1.389
 1016SOL    HW1 3947   3.509   2.647   1.391
 1016SOL    HW2 3948   3.589   2.751   1.294
 1017SOL     OW 3949   4.731   2.463   0.664
 1017SOL    HW1 3950   4.708   2.441   0.570
 1017SOL    HW2 3951   4.682   2.545   0.692
 1018SOL     OW 3952   1.296   2.891   3.715
 1018SOL    HW1 3953   1.377   2.833   3.716
 1018SOL    HW2 3954   1.216   2.838   3.744
 1019SOL     OW 3955   0.041   1.233   0.006
 1019SOL    HW1 3956   0.090   1.172   0.069
 1019SOL    HW2 3957   0.012   1.315   0.055
 1020SOL     OW 3958   2.792   0.661   0.509
 1020SOL    HW1 3959   2.861   0.701   0.569
 1020SOL    HW2 3960   2.804   0.696   0.416
 1021SOL     OW 3961   6.844   1.293   1.719
 1021SOL    HW1 3962   6.772   1.252   1.663
 1021SOL    HW2 3963   6.802   1.350   1.790
 1022SOL     OW 3964   4.564   3.518   6.131
 1022SOL    HW1 3965   4.520   3.514   6.221
 1022SOL    HW2 3966   4.497   3.547   6.062
 1023SOL     OW 3967   5.383   0.415   2.629
 1023SOL    HW1 3968   5.382   0.323   2.670
 1023SOL    HW2 3969   5.419   0.480   2.696
 1024SOL     OW 3970   6.448   1.692   4.432
 1024SOL    HW1 3971   6.414   1.701   4.339
 1024SOL    HW2 3972   6.509   1.769   4.454
 1025SOL     OW 3973   3.383   4.666   1.030
 1025SOL    HW1 3974   3.386   4.643   0.933
 1025SOL    HW2 3975   3.319   4.607   1.078
 1026SOL     OW 3976   2.087   1.868   0.247
 1026SOL    HW1 3977   2.087   1.785   0.303
 1026SOL    HW2 3978   2.098   1.843   0.150
 1027SOL     OW 3979   2.914   4.980   1.963
 1027SOL    HW1 3980   2.888   5.070   1.927
 1027SOL    HW2 3981   2.834   4.935   2.002
 1028SOL     OW 3982   1.853   6.009   0.295
 1028SOL    HW1 3983   1.952   6.014   0.280
 1028SOL    HW2 3984   1.833   6.021   0.392
 1029SOL     OW 3985   1.613   0.500   0.229
 1029SOL    HW1 3986   1.571   0.585   0.199
 1029SOL    HW2 3987   1.712   0.505   0.217
 1030SOL     OW 3988   3.849   3.602   4.729
 1030SOL    HW1 3989   3.766   3.609   4.785
 1030SOL    HW2 3990   3.852   3.511   4.687
 1031SOL     OW 3991   3.168   5.054   1.279
 1031SOL    HW1 3992   3.156   4.956   1.263
 1031SOL    HW2 3993   3.084   5.102   1.253
 1032SOL     OW 3994   1.862   1.823   5.078
 1032SOL    HW1 3995   1.838   1.768   5.158
 1032SOL    HW2 3996   1.873   1.762   4.999
 1033SOL     OW 3997   2.364   5.579   1.692
 1033SOL    HW1 3998   2.412   5.645   1.750
 1033SOL    HW2 3999   2.285   5.623   1.650
 1034SOL     OW 4000   2.308   6.011   3.903
 1034SOL    HW1 4001   2.342   6.035   3.812
 1034SOL    HW2 4002   2.356   6.064   3.972
 1035SOL     OW 4003   2.706   1.572   4.689
 1035SOL    HW1 4004   2.644   1.493   4.695
 1035SOL    HW2 4005   2.771   1.557   4.615
 1036SOL     OW 4006   4.574   1.806   1.197
 1036SOL    HW1 4007   4.627   1.814   1.113
 1036SOL    HW2 4008   4.485   1.765   1.176
 1037SOL     OW 4009   1.632   1.141   0.825
 1037SOL    HW1 4010   1.665   1.214   0.765
 1037SOL    HW2 4011   1.571   1.181   0.894
 1038SOL     OW 4012   1.317   1.130   5.191
 1038SOL    HW1 4013   1.411   1.117   5.225
 1038SOL    HW2 4014   1.261   1.169   5.263
 1039SOL     OW 4015   3.676   1.522   4.586
 1039SOL    HW1 4016   3.722   1.584   4.523
 1039SOL    HW2 4017   3.729   1.439   4.597
 1040SOL     OW 4018   6.111   3.560   2.519
 1040SOL    HW1 4019   6.178   3.567   2.445
 1040SOL    HW2 4020   6.087   3.464   2.532
 1041SOL     OW 4021   6.662   0.402   4.134
 1041SOL    HW1 4022   6.762   0.406   4.134
 1041SOL    HW2 4023   6.627   0.441   4.049
 1042SOL     OW 4024   5.083   5.030   0.862
 1042SOL    HW1 4025   5.134   4.993   0.940
 1042SOL    HW2 4026   5.053   4.955   0.803
 1043SOL     OW 4027   3.756   1.873   6.088
 1043SOL    HW1 4028   3.660   1.845   6.093
 1043SOL    HW2 4029   3.770   1.955   6.144
 1044SOL     OW 4030   3.804   2.654   1.497
 1044SOL    HW1 4031   3.716   2.695   1.472
 1044SOL    HW2 4032   3.800   2.622   1.592
 1045SOL     OW 4033   3.200   1.260   2.561
 1045SOL    HW1 4034   3.100   1.263   2.571
 1045SOL    HW2 4035   3.230   1.165   2.551
 1046SOL     OW 4036   3.009   0.016   0.370
 1046SOL    HW1 4037   2.947   7.020   0.445
 1046SOL    HW2 4038   3.060   6.958   0.345
 1047SOL     OW 4039   1.323   5.212   3.055
 1047SOL    HW1 4040   1.245   5.158   3.024
 1047SOL    HW2 4041   1.405   5.154   3.056
 1048SOL     OW 4042   5.164   5.104   4.739
 1048SOL    HW1 4043   5.141   5.197   4.768
 1048SOL    HW2 4044   5.091   5.067   4.682
 1049SOL     OW 4045   6.769   3.844   5.126
 1049SOL    HW1 4046   6.729   3.934   5.141
 1049SOL    HW2 4047   6.717   3.796   5.055
 1050SOL     OW 4048   3.739   7.013   6.905
 1050SOL    HW1 4049   3.772   0.078   6.937
 1050SOL    HW2 4050   3.817   6.956   6.879
 1051SOL     OW 4051   4.206   4.672   0.563
 1051SOL    HW1 4052   4.161   4.653   0.476
 1051SOL    HW2 4053   4.305   4.662   0.552
 1052SOL     OW 4054   3.995   0.129   4.860
 1052SOL    HW1 4055   3.915   0.122   4.801
 1052SOL    HW2 4056   3.999   0.049   4.920
 1053SOL     OW 4057   4.773   5.333   3.566
 1053SOL    HW1 4058   4.866   5.368   3.577
 1053SOL    HW2 4059   4.726   5.333   3.655
 1054SOL     OW 4060   3.092   5.198   5.177
 1054SOL    HW1 4061   3.181   5.198   5.223
 1054SOL    HW2 4062   3.041   5.280   5.203
 1055SOL     OW 4063   4.872   5.295   4.580
 1055SOL    HW1 4064   4.931   5.275   4.658
 1055SOL    HW2 4065   4.777   5.301   4.611
 1056SOL     OW 4066   1.805   6.131   4.835
 1056SOL    HW1 4067   1.787   6.062   4.905
 1056SOL    HW2 4068   1.874   6.196   4.871
 1057SOL     OW 4069   2.869   3.631   2.737
 1057SOL    HW1 4070   2.885   3.654   2.641
 1057SOL    HW2 4071   2.867   3.532   2.748
 1058SOL     OW 4072   3.740   1.422   2.225
 1058SOL    HW1 4073   3.740   1.358   2.302
 1058SOL    HW2 4074   3.803   1.497   2.245
 1059SOL     OW 4075   4.348   1.352   1.959
 1059SOL    HW1 4076   4.292   1.271   1.977
 1059SOL    HW2 4077   4.380   1.350   1.864
 1060SOL     OW 4078   0.729   3.791   5.479
 1060SOL    HW1 4079   0.651   3.840   5.517
 1060SOL    HW2 4080   0.780   3.747   5.552
 1061SOL     OW 4081   3.174   5.113   1.901
 1061SOL    HW1 4082   3.084   5.098   1.859
 1061SOL    HW2 4083   3.212   5.026   1.931
 1062SOL     OW 4084   6.688   5.301   5.582
 1062SOL    HW1 4085   6.743   5.384   5.575
 1062SOL    HW2 4086   6.703   5.244   5.501
 1063SOL     OW 4087   1.702   3.353   1.312
 1063SOL    HW1 4088   1.619   3.407   1.296
 1063SOL    HW2 4089   1.782   3.413   1.307
 1064SOL     OW 4090   1.156   3.222   2.207
 1064SOL    HW1 4091   1.106   3.301   2.242
 1064SOL    HW2 4092   1.124   3.139   2.252
 1065SOL     OW 4093   5.253   0.303   3.902
 1065SOL    HW1 4094   5.230   0.248   3.982
 1065SOL    HW2 4095   5.350   0.292   3.881
 1066SOL     OW 4096   4.756   0.600   3.986
 1066SOL    HW1 4097   4.847   0.565   3.964
 1066SOL    HW2 4098   4.758   0.643   4.077
 1067SOL     OW 4099   1.898   2.598   1.868
 1067SOL    HW1 4100   1.989   2.617   1.833
 1067SOL    HW2 4101   1.835   2.669   1.836
 1068SOL     OW 4102   0.510   3.640   2.285
 1068SOL    HW1 4103   0.410   3.632   2.275
 1068SOL    HW2 4104   0.531   3.720   2.342
 1069SOL     OW 4105   4.068   4.397   0.866
 1069SOL    HW1 4106   4.105   4.489   0.879
 1069SOL    HW2 4107   4.076   4.346   0.952
 1070SOL     OW 4108   2.239   1.071   0.059
 1070SOL    HW1 4109   2.177   1.139   0.018
 1070SOL    HW2 4110   2.325   1.070   0.008
 1071SOL     OW 4111   4.360   6.403   2.743
 1071SOL    HW1 4112   4.269   6.424   2.709
 1071SOL    HW2 4113   4.392   6.478   2.801
 1072SOL     OW 4114   3.274   6.695   2.516
 1072SOL    HW1 4115   3.308   6.683   2.610
 1072SOL    HW2 4116   3.289   6.789   2.487
 1073SOL     OW 4117   2.743   5.078   2.597
 1073SOL    HW1 4118   2.712   5.081   2.692
 1073SOL    HW2 4119   2.768   5.170   2.567
 1074SOL     OW 4120   1.031   5.000   1.685
 1074SOL    HW1 4121   0.976   5.061   1.628
 1074SOL    HW2 4122   1.127   5.025   1.677
 1075SOL     OW 4123   5.513   4.294   3.743
 1075SOL    HW1 4124   5.490   4.226   3.673
 1075SOL    HW2 4125   5.479   4.263   3.831
 1076SOL     OW 4126   0.487   4.318   4.596
 1076SOL    HW1 4127   0.528   4.234   4.560
 1076SOL    HW2 4128   0.539   4.397   4.564
 1077SOL     OW 4129   5.652   6.996   1.107
 1077SOL    HW1 4130   5.730   0.034   1.105
 1077SOL    HW2 4131   5.650   6.949   1.195
 1078SOL     OW 4132   1.687   1.905   1.437
 1078SOL    HW1 4133   1.606   1.964   1.434
 1078SOL    HW2 4134   1.715   1.882   1.344
 1079SOL     OW 4135   2.442   5.848   3.450
 1079SOL    HW1 4136   2.376   5.891   3.389
 1079SOL    HW2 4137   2.533   5.887   3.434
 1080SOL     OW 4138   2.373   5.583   3.398
 1080SOL    HW1 4139   2.413   5.674   3.409
 1080SOL    HW2 4140   2.365   5.540   3.488
 1081SOL     OW 4141   1.722   1.056   6.305
 1081SOL    HW1 4142   1.742   0.964   6.270
 1081SOL    HW2 4143   1.692   1.114   6.229
 1082SOL     OW 4144   1.465   0.445   5.818
 1082SOL    HW1 4145   1.386   0.411   5.869
 1082SOL    HW2 4146   1.445   0.537   5.783
 1083SOL     OW 4147   4.096   3.293   1.961
 1083SOL    HW1 4148   4.045   3.288   2.046
 1083SOL    HW2 4149   4.036   3.331   1.889
 1084SOL     OW 4150   6.000   4.516   0.849
 1084SOL    HW1 4151   6.007   4.416   0.841
 1084SOL    HW2 4152   6.060   4.559   0.782
 1085SOL     OW 4153   1.917   5.031   4.102
 1085SOL    HW1 4154   1.949   5.107   4.046
 1085SOL    HW2 4155   1.939   5.049   4.198
 1086SOL     OW 4156   4.895   6.081   2.822
 1086SOL    HW1 4157   4.876   5.983   2.835
 1086SOL    HW2 4158   4.913   6.123   2.911
 1087SOL     OW 4159   4.735   3.121   5.365
 1087SOL    HW1 4160   4.659   3.128   5.430
 1087SOL    HW2 4161   4.754   3.210   5.325
 1088SOL     OW 4162   5.174   4.912   3.979
 1088SOL    HW1 4163   5.215   5.003   3.985
 1088SOL    HW2 4164   5.155   4.890   3.883
 1089SOL     OW 4165   0.105   0.142   5.276
 1089SOL    HW1 4166   0.055   0.149   5.363
 1089SOL    HW2 4167   0.061   0.199   5.207
 1090SOL     OW 4168   1.653   1.515   5.976
 1090SOL    HW1 4169   1.578   1.509   5.910
 1090SOL    HW2 4170   1.727   1.570   5.937
 1091SOL     OW 4171   1.308   1.672   4.856
 1091SOL    HW1 4172   1.344   1.673   4.763
 1091SOL    HW2 4173   1.383   1.658   4.921
 1092SOL     OW 4174   2.225   4.326   1.507
 1092SOL    HW1 4175   2.255   4.317   1.412
 1092SOL    HW2 4176   2.305   4.340   1.566
 1093SOL     OW 4177   1.067   2.512   2.438
 1093SOL    HW1 4178   1.051   2.444   2.366
 1093SOL    HW2 4179   1.043   2.603   2.404
 1094SOL     OW 4180   0.657   6.625   1.735
 1094SOL    HW1 4181   0.589   6.689   1.701
 1094SOL    HW2 4182   0.732   6.676   1.779
 1095SOL     OW 4183   6.048   3.113   6.358
 1095SOL    HW1 4184   5.980   3.040   6.359
 1095SOL    HW2 4185   6.035   3.170   6.276
 1096SOL     OW 4186   3.173   4.875   1.623
 1096SOL    HW1 4187   3.099   4.848   1.685
 1096SOL    HW2 4188   3.253   4.818   1.641
 1097SOL     OW 4189   1.301   4.703   4.780
 1097SOL    HW1 4190   1.287   4.778   4.846
 1097SOL    HW2 4191   1.398   4.684   4.771
 1098SOL     OW 4192   4.770   2.240   2.327
 1098SOL    HW1 4193   4.707   2.177   2.282
 1098SOL    HW2 4194   4.838   2.272   2.260
 1099SOL     OW 4195   4.081   2.247   4.492
 1099SOL    HW1 4196   4.121   2.287   4.574
 1099SOL    HW2 4197   4.079   2.316   4.419
 1100SOL     OW 4198   1.474   0.891   6.642
 1100SOL    HW1 4199   1.509   0.978   6.606
 1100SOL    HW2 4200   1.527   0.865   6.723
 1101SOL     OW 4201   4.920   3.069   1.103
 1101SOL    HW1 4202   4.911   3.098   1.008
 1101SOL    HW2 4203   4.855   3.119   1.160
 1102SOL     OW 4204   0.255   4.229   4.509
 1102SOL    HW1 4205   0.266   4.130   4.507
 1102SOL    HW2 4206   0.332   4.270   4.559
 1103SOL     OW 4207   2.068   1.748   1.582
 1103SOL    HW1 4208   2.126   1.707   1.652
 1103SOL    HW2 4209   2.122   1.766   1.500
 1104SOL     OW 4210   3.112   4.493   6.278
 1104SOL    HW1 4211   3.204   4.523   6.305
 1104SOL    HW2 4212   3.044   4.548   6.326
 1105SOL     OW 4213   4.769   3.980   6.511
 1105SOL    HW1 4214   4.773   3.895   6.563
 1105SOL    HW2 4215   4.861   4.007   6.483
 1106SOL     OW 4216   6.999   2.403   5.406
 1106SOL    HW1 4217   6.985   2.348   5.323
 1106SOL    HW2 4218   0.057   2.459   5.395
 1107SOL     OW 4219   0.971   0.685   0.634
 1107SOL    HW1 4220   0.995   0.770   0.682
 1107SOL    HW2 4221   0.914   0.629   0.694
 1108SOL     OW 4222   1.776   0.777   6.277
 1108SOL    HW1 4223   1.771   0.700   6.213
 1108SOL    HW2 4224   1.706   0.766   6.348
 1109SOL     OW 4225   4.003   6.230   4.149
 1109SOL    HW1 4226   4.011   6.297   4.223
 1109SOL    HW2 4227   3.991   6.278   4.062
 1110SOL     OW 4228   2.925   3.086   1.802
 1110SOL    HW1 4229   2.948   3.020   1.731
 1110SOL    HW2 4230   2.972   3.062   1.887
 1111SOL     OW 4231   5.748   0.670   0.159
 1111SOL    HW1 4232   5.736   0.714   0.070
 1111SOL    HW2 4233   5.736   0.571   0.148
 1112SOL     OW 4234   6.572   0.620   2.172
 1112SOL    HW1 4235   6.509   0.643   2.247
 1112SOL    HW2 4236   6.600   0.704   2.125
 1113SOL     OW 4237   6.510   3.571   2.589
 1113SOL    HW1 4238   6.470   3.480   2.587
 1113SOL    HW2 4239   6.508   3.606   2.682
 1114SOL     OW 4240   4.699   0.619   6.114
 1114SOL    HW1 4241   4.698   0.554   6.038
 1114SOL    HW2 4242   4.760   0.584   6.186
 1115SOL     OW 4243   3.540   3.176   0.700
 1115SOL    HW1 4244   3.609   3.110   0.730
 1115SOL    HW2 4245   3.517   3.236   0.776
 1116SOL     OW 4246   4.538   5.877   4.132
 1116SOL    HW1 4247   4.505   5.936   4.059
 1116SOL    HW2 4248   4.629   5.843   4.108
 1117SOL     OW 4249   2.678   2.844   1.422
 1117SOL    HW1 4250   2.770   2.805   1.414
 1117SOL    HW2 4251   2.670   2.891   1.510
 1118SOL     OW 4252   2.391   4.922   3.092
 1118SOL    HW1 4253   2.385   4.902   2.994
 1118SOL    HW2 4254   2.373   4.839   3.144
 1119SOL     OW 4255   4.257   4.078   1.720
 1119SOL    HW1 4256   4.307   4.021   1.655
 1119SOL    HW2 4257   4.321   4.138   1.768
 1120SOL     OW 4258   5.161   0.123   6.364
 1120SOL    HW1 4259   5.175   0.104   6.462
 1120SOL    HW2 4260   5.090   0.063   6.328
 1121SOL     OW 4261   4.913   2.784   1.919
 1121SOL    HW1 4262   4.869   2.869   1.949
 1121SOL    HW2 4263   4.912   2.717   1.993
 1122SOL     OW 4264   5.849   3.157   6.739
 1122SOL    HW1 4265   5.867   3.087   6.670
 1122SOL    HW2 4266   5.802   3.234   6.696
 1123SOL     OW 4267   4.757   1.270   1.816
 1123SOL    HW1 4268   4.732   1.173   1.824
 1123SOL    HW2 4269   4.856   1.278   1.805
 1124SOL     OW 4270   6.484   3.325   5.257
 1124SOL    HW1 4271   6.565   3.365   5.215
 1124SOL    HW2 4272   6.414   3.396   5.269
 1125SOL     OW 4273   3.024   3.203   5.078
 1125SOL    HW1 4274   3.043   3.115   5.121
 1125SOL    HW2 4275   2.931   3.232   5.102
 1126SOL     OW 4276   4.869   0.183   0.940
 1126SOL    HW1 4277   4.920   0.103   0.973
 1126SOL    HW2 4278   4.845   0.169   0.844
 1127SOL     OW 4279   2.711   4.834   0.783
 1127SOL    HW1 4280   2.653   4.755   0.765
 1127SOL    HW2 4281   2.737   4.835   0.880
 1128SOL     OW 4282   3.323   1.677   3.809
 1128SOL    HW1 4283   3.337   1.751   3.743
 1128SOL    HW2 4284   3.400   1.675   3.873
 1129SOL     OW 4285   4.634   0.604   6.712
 1129SOL    HW1 4286   4.608   0.685   6.659
 1129SOL    HW2 4287   4.715   0.625   6.766
 1130SOL     OW 4288   1.348   3.862   0.350
 1130SOL    HW1 4289   1.345   3.821   0.442
 1130SOL    HW2 4290   1.255   3.883   0.320
 1131SOL     OW 4291   0.468   6.193   5.541
 1131SOL    HW1 4292   0.472   6.281   5.493
 1131SOL    HW2 4293   0.420   6.126   5.484
 1132SOL     OW 4294   4.958   0.046   5.428
 1132SOL    HW1 4295   5.058   0.038   5.432
 1132SOL    HW2 4296   4.930   0.066   5.333
 1133SOL     OW 4297   0.792   3.178   1.434
 1133SOL    HW1 4298   0.836   3.224   1.512
 1133SOL    HW2 4299   0.718   3.236   1.399
 1134SOL     OW 4300   5.600   2.278   6.951
 1134SOL    HW1 4301   5.503   2.257   6.941
 1134SOL    HW2 4302   5.623   2.357   6.894
 1135SOL     OW 4303   3.167   2.170   3.663
 1135SOL    HW1 4304   3.253   2.163   3.714
 1135SOL    HW2 4305   3.111   2.243   3.703
 1136SOL     OW 4306   2.908   5.460   3.592
 1136SOL    HW1 4307   2.910   5.364   3.565
 1136SOL    HW2 4308   2.814   5.488   3.609
 1137SOL     OW 4309   1.639   1.799   6.282
 1137SOL    HW1 4310   1.677   1.838   6.198
 1137SOL    HW2 4311   1.552   1.844   6.303
 1138SOL     OW 4312   1.941   3.152   6.229
 1138SOL    HW1 4313   1.968   3.090   6.303
 1138SOL    HW2 4314   1.947   3.247   6.262
 1139SOL     OW 4315   1.127   6.537   2.929
 1139SOL    HW1 4316   1.095   6.461   2.986
 1139SOL    HW2 4317   1.217   6.566   2.959
 1140SOL     OW 4318   3.362   1.673   3.322
 1140SOL    HW1 4319   3.295   1.697   3.392
 1140SOL    HW2 4320   3.410   1.755   3.293
 1141SOL     OW 4321   6.037   5.732   5.000
 1141SOL    HW1 4322   6.054   5.635   4.985
 1141SOL    HW2 4323   6.011   5.775   4.913
 1142SOL     OW 4324   5.138   0.001   4.455
 1142SOL    HW1 4325   5.217   0.045   4.413
 1142SOL    HW2 4326   5.092   0.067   4.515
 1143SOL     OW 4327   3.845   2.059   3.250
 1143SOL    HW1 4328   3.933   2.090   3.216
 1143SOL    HW2 4329   3.847   2.058   3.350
 1144SOL     OW 4330   0.548   4.353   4.280
 1144SOL    HW1 4331   0.590   4.404   4.356
 1144SOL    HW2 4332   0.456   4.388   4.264
 1145SOL     OW 4333   0.063   5.507   4.404
 1145SOL    HW1 4334   0.162   5.503   4.409
 1145SOL    HW2 4335   0.032   5.453   4.326
 1146SOL     OW 4336   5.945   2.130   0.946
 1146SOL    HW1 4337   5.852   2.095   0.946
 1146SOL    HW2 4338   5.972   2.153   1.040
 1147SOL     OW 4339   0.364   4.201   2.495
 1147SOL    HW1 4340   0.355   4.102   2.504
 1147SOL    HW2 4341   0.432   4.222   2.425
 1148SOL     OW 4342   3.526   6.823   6.582
 1148SOL    HW1 4343   3.499   6.740   6.631
 1148SOL    HW2 4344   3.625   6.824   6.571
 1149SOL     OW 4345   6.533   3.696   2.826
 1149SOL    HW1 4346   6.621   3.650   2.845
 1149SOL    HW2 4347   6.462   3.656   2.884
 1150SOL     OW 4348   1.954   4.833   0.634
 1150SOL    HW1 4349   1.899   4.881   0.565
 1150SOL    HW2 4350   1.951   4.884   0.720
 1151SOL     OW 4351   5.739   4.986   6.241
 1151SOL    HW1 4352   5.800   4.929   6.298
 1151SOL    HW2 4353   5.791   5.024   6.164
 1152SOL     OW 4354   1.092   0.405   4.804
 1152SOL    HW1 4355   0.993   0.421   4.804
 1152SOL    HW2 4356   1.116   0.344   4.879
 1153SOL     OW 4357   2.370   5.775   2.792
 1153SOL    HW1 4358   2.300   5.830   2.745
 1153SOL    HW2 4359   2.461   5.806   2.764
 1154SOL     OW 4360   0.476   4.010   2.236
 1154SOL    HW1 4361   0.412   3.941   2.201
 1154SOL    HW2 4362   0.531   3.970   2.310
 1155SOL     OW 4363   3.638   6.039   1.535
 1155SOL    HW1 4364   3.676   6.104   1.469
 1155SOL    HW2 4365   3.603   6.089   1.615
 1156SOL     OW 4366   2.246   0.722   4.145
 1156SOL    HW1 4367   2.333   0.676   4.160
 1156SOL    HW2 4368   2.260   0.803   4.088
 1157SOL     OW 4369   7.015   2.273   4.043
 1157SOL    HW1 4370   6.942   2.209   4.018
 1157SOL    HW2 4371   7.020   2.346   3.975
 1158SOL     OW 4372   5.797   4.687   5.882
 1158SOL    HW1 4373   5.794   4.778   5.840
 1158SOL    HW2 4374   5.707   4.644   5.876
 1159SOL     OW 4375   3.977   5.567   2.742
 1159SOL    HW1 4376   3.933   5.647   2.701
 1159SOL    HW2 4377   4.054   5.538   2.685
 1160SOL     OW 4378   4.093   3.367   2.478
 1160SOL    HW1 4379   4.171   3.312   2.451
 1160SOL    HW2 4380   4.085   3.368   2.578
 1161SOL     OW 4381   5.746   0.596   3.568
 1161SOL    HW1 4382   5.728   0.505   3.607
 1161SOL    HW2 4383   5.790   0.654   3.637
 1162SOL     OW 4384   3.314   3.972   2.012
 1162SOL    HW1 4385   3.409   4.004   2.004
 1162SOL    HW2 4386   3.259   4.013   1.938
 1163SOL     OW 4387   4.949   2.572   2.097
 1163SOL    HW1 4388   4.927   2.478   2.120
 1163SOL    HW2 4389   4.985   2.619   2.178
 1164SOL     OW 4390   5.622   2.756   3.365
 1164SOL    HW1 4391   5.546   2.815   3.341
 1164SOL    HW2 4392   5.702   2.811   3.389
 1165SOL     OW 4393   0.945   3.174   3.694
 1165SOL    HW1 4394   0.959   3.084   3.736
 1165SOL    HW2 4395   0.851   3.204   3.710
 1166SOL     OW 4396   4.121   2.109   6.527
 1166SOL    HW1 4397   4.211   2.070   6.548
 1166SOL    HW2 4398   4.068   2.043   6.473
 1167SOL     OW 4399   4.318   1.127   5.230
 1167SOL    HW1 4400   4.415   1.123   5.206
 1167SOL    HW2 4401   4.263   1.126   5.146
 1168SOL     OW 4402   0.101   6.514   3.496
 1168SOL    HW1 4403   0.125   6.429   3.450
 1168SOL    HW2 4404   0.003   6.515   3.516
 1169SOL     OW 4405   1.188   3.708   1.703
 1169SOL    HW1 4406   1.098   3.714   1.744
 1169SOL    HW2 4407   1.189   3.637   1.633
 1170SOL     OW 4408   3.271   1.634   2.323
 1170SOL    HW1 4409   3.173   1.613   2.316
 1170SOL    HW2 4410   3.285   1.702   2.395
 1171SOL     OW 4411   3.135   5.758   1.267
 1171SOL    HW1 4412   3.123   5.666   1.229
 1171SOL    HW2 4413   3.160   5.751   1.364
 1172SOL     OW 4414   3.182   3.741   4.441
 1172SOL    HW1 4415   3.096   3.751   4.491
 1172SOL    HW2 4416   3.175   3.789   4.354
 1173SOL     OW 4417   3.025   0.788   5.921
 1173SOL    HW1 4418   2.966   0.850   5.973
 1173SOL    HW2 4419   3.116   0.786   5.964
 1174SOL     OW 4420   2.786   5.893   0.543
 1174SOL    HW1 4421   2.721   5.884   0.618
 1174SOL    HW2 4422   2.773   5.980   0.497
 1175SOL     OW 4423   6.165   4.631   6.225
 1175SOL    HW1 4424   6.154   4.594   6.132
 1175SOL    HW2 4425   6.199   4.558   6.285
 1176SOL     OW 4426   5.831   4.654   0.996
 1176SOL    HW1 4427   5.765   4.689   0.929
 1176SOL    HW2 4428   5.898   4.596   0.951
 1177SOL     OW 4429   6.853   3.138   5.873
 1177SOL    HW1 4430   6.948   3.117   5.895
 1177SOL    HW2 4431   6.849   3.195   5.790
 1178SOL     OW 4432   5.400   3.653   2.205
 1178SOL    HW1 4433   5.475   3.718   2.216
 1178SOL    HW2 4434   5.421   3.590   2.130
 1179SOL     OW 4435   1.819   4.494   7.011
 1179SOL    HW1 4436   1.764   4.577   7.000
 1179SOL    HW2 4437   1.794   4.450   0.073
 1180SOL     OW 4438   2.085   1.874   4.006
 1180SOL    HW1 4439   2.030   1.953   3.979
 1180SOL    HW2 4440   2.024   1.801   4.039
 1181SOL     OW 4441   1.584   4.432   4.087
 1181SOL    HW1 4442   1.602   4.341   4.049
 1181SOL    HW2 4443   1.487   4.452   4.081
 1182SOL     OW 4444   2.317   4.348   3.956
 1182SOL    HW1 4445   2.296   4.442   3.981
 1182SOL    HW2 4446   2.287   4.286   4.029
 1183SOL     OW 4447   4.240   6.067   1.625
 1183SOL    HW1 4448   4.238   6.167   1.628
 1183SOL    HW2 4449   4.296   6.033   1.702
 1184SOL     OW 4450   3.256   2.861   5.192
 1184SOL    HW1 4451   3.246   2.766   5.221
 1184SOL    HW2 4452   3.180   2.915   5.228
 1185SOL     OW 4453   1.934   0.299   0.173
 1185SOL    HW1 4454   2.033   0.308   0.164
 1185SOL    HW2 4455   1.912   0.205   0.199
 1186SOL     OW 4456   5.665   0.423   4.785
 1186SOL    HW1 4457   5.651   0.394   4.690
 1186SOL    HW2 4458   5.752   0.473   4.791
 1187SOL     OW 4459   5.994   6.776   5.045
 1187SOL    HW1 4460   5.981   6.711   4.970
 1187SOL    HW2 4461   5.914   6.837   5.050
 1188SOL     OW 4462   1.973   6.615   5.916
 1188SOL    HW1 4463   1.960   6.517   5.901
 1188SOL    HW2 4464   1.904   6.649   5.979
 1189SOL     OW 4465   5.782   1.285   1.128
 1189SOL    HW1 4466   5.806   1.308   1.034
 1189SOL    HW2 4467   5.821   1.196   1.153
 1190SOL     OW 4468   4.613   5.252   3.043
 1190SOL    HW1 4469   4.679   5.314   3.001
 1190SOL    HW2 4470   4.638   5.236   3.138
 1191SOL     OW 4471   3.090   5.360   5.825
 1191SOL    HW1 4472   3.086   5.428   5.752
 1191SOL    HW2 4473   3.143   5.395   5.901
 1192SOL     OW 4474   6.132   5.025   3.007
 1192SOL    HW1 4475   6.206   4.958   3.018
 1192SOL    HW2 4476   6.139   5.068   2.917
 1193SOL     OW 4477   4.770   0.199   4.185
 1193SOL    HW1 4478   4.715   0.158   4.112
 1193SOL    HW2 4479   4.761   0.299   4.181
 1194SOL     OW 4480   6.503   0.990   0.902
 1194SOL    HW1 4481   6.502   0.956   0.808
 1194SOL    HW2 4482   6.557   0.928   0.959
 1195SOL     OW 4483   5.412   0.759   6.097
 1195SOL    HW1 4484   5.465   0.830   6.144
 1195SOL    HW2 4485   5.415   0.674   6.150
 1196SOL     OW 4486   6.982   5.543   2.470
 1196SOL    HW1 4487   7.020   5.634   2.488
 1196SOL    HW2 4488   0.023   5.473   2.499
 1197SOL     OW 4489   3.875   5.800   5.561
 1197SOL    HW1 4490   3.797   5.843   5.606
 1197SOL    HW2 4491   3.870   5.701   5.573
 1198SOL     OW 4492   3.355   2.053   3.170
 1198SOL    HW1 4493   3.446   2.092   3.185
 1198SOL    HW2 4494   3.296   2.075   3.247
 1199SOL     OW 4495   3.218   4.242   1.764
 1199SOL    HW1 4496   3.149   4.172   1.788
 1199SOL    HW2 4497   3.303   4.223   1.814
 1200SOL     OW 4498   4.162   4.276   6.676
 1200SOL    HW1 4499   4.193   4.222   6.598
 1200SOL    HW2 4500   4.079   4.235   6.714
 1201SOL     OW 4501   1.023   1.676   4.822
 1201SOL    HW1 4502   1.012   1.649   4.726
 1201SOL    HW2 4503   1.117   1.658   4.851
 1202SOL     OW 4504   5.213   0.250   4.612
 1202SOL    HW1 4505   5.264   0.233   4.697
 1202SOL    HW2 4506   5.277   0.276   4.539
 1203SOL     OW 4507   5.476   0.224   1.098
 1203SOL    HW1 4508   5.500   0.131   1.125
 1203SOL    HW2 4509   5.409   0.221   1.023
 1204SOL     OW 4510   3.680   0.657   0.430
 1204SOL    HW1 4511   3.608   0.707   0.381
 1204SOL    HW2 4512   3.639   0.604   0.503
 1205SOL     OW 4513   6.090   1.980   5.795
 1205SOL    HW1 4514   6.049   2.049   5.856
 1205SOL    HW2 4515   6.081   2.011   5.700
 1206SOL     OW 4516   1.864   1.668   4.679
 1206SOL    HW1 4517   1.935   1.645   4.746
 1206SOL    HW2 4518   1.778   1.688   4.726
 1207SOL     OW 4519   6.200   0.048   0.060
 1207SOL    HW1 4520   6.126   0.055   7.017
 1207SOL    HW2 4521   6.235   0.139   0.082
 1208SOL     OW 4522   3.860   3.843   2.700
 1208SOL    HW1 4523   3.782   3.784   2.719
 1208SOL    HW2 4524   3.858   3.922   2.762
 1209SOL     OW 4525   6.130   5.485   4.919
 1209SOL    HW1 4526   6.095   5.391   4.926
 1209SOL    HW2 4527   6.179   5.495   4.833
 1210SOL     OW 4528   4.382   0.429   2.846
 1210SOL    HW1 4529   4.363   0.470   2.757
 1210SOL    HW2 4530   4.378   0.330   2.839
 1211SOL     OW 4531   1.535   3.729   3.746
 1211SOL    HW1 4532   1.449   3.755   3.788
 1211SOL    HW2 4533   1.599   3.699   3.817
 1212SOL     OW 4534   1.150   4.149   4.437
 1212SOL    HW1 4535   1.238   4.107   4.459
 1212SOL    HW2 4536   1.076   4.095   4.478
 1213SOL     OW 4537   6.203   2.756   5.511
 1213SOL    HW1 4538   6.254   2.713   5.437
 1213SOL    HW2 4539   6.133   2.816   5.473
 1214SOL     OW 4540   1.524   3.469   4.195
 1214SOL    HW1 4541   1.571   3.492   4.110
 1214SOL    HW2 4542   1.503   3.553   4.245
 1215SOL     OW 4543   1.620   4.058   3.275
 1215SOL    HW1 4544   1.533   4.104   3.295
 1215SOL    HW2 4545   1.661   4.097   3.193
 1216SOL     OW 4546   1.324   0.119   1.446
 1216SOL    HW1 4547   1.354   0.214   1.440
 1216SOL    HW2 4548   1.228   0.116   1.471
 1217SOL     OW 4549   1.582   6.550   0.967
 1217SOL    HW1 4550   1.513   6.480   0.986
 1217SOL    HW2 4551   1.611   6.542   0.872
 1218SOL     OW 4552   0.209   3.506   4.475
 1218SOL    HW1 4553   0.109   3.497   4.473
 1218SOL    HW2 4554   0.239   3.528   4.568
 1219SOL     OW 4555   3.726   5.880   1.129
 1219SOL    HW1 4556   3.765   5.945   1.063
 1219SOL    HW2 4557   3.779   5.883   1.214
 1220SOL     OW 4558   5.783   2.588   3.116
 1220SOL    HW1 4559   5.734   2.537   3.187
 1220SOL    HW2 4560   5.865   2.629   3.156
 1221SOL     OW 4561   4.868   3.183   0.803
 1221SOL    HW1 4562   4.776   3.187   0.842
 1221SOL    HW2 4563   4.888   3.269   0.756
 1222SOL     OW 4564   0.259   6.804   0.786
 1222SOL    HW1 4565   0.187   6.768   0.845
 1222SOL    HW2 4566   0.348   6.783   0.826
 1223SOL     OW 4567   6.225   0.085   6.021
 1223SOL    HW1 4568   6.143   0.139   6.040
 1223SOL    HW2 4569   6.243   0.022   6.097
 1224SOL     OW 4570   4.259   5.708   0.944
 1224SOL    HW1 4571   4.176   5.750   0.979
 1224SOL    HW2 4572   4.324   5.695   1.019
 1225SOL     OW 4573   4.694   1.838   0.459
 1225SOL    HW1 4574   4.784   1.825   0.501
 1225SOL    HW2 4575   4.695   1.803   0.365
 1226SOL     OW 4576   6.137   6.225   1.401
 1226SOL    HW1 4577   6.188   6.190   1.480
 1226SOL    HW2 4578   6.158   6.322   1.388
 1227SOL     OW 4579   5.564   4.043   5.631
 1227SOL    HW1 4580   5.466   4.043   5.651
 1227SOL    HW2 4581   5.581   4.087   5.543
 1228SOL     OW 4582   3.605   3.111   2.431
 1228SOL    HW1 4583   3.585   3.185   2.367
 1228SOL    HW2 4584   3.530   3.104   2.497
 1229SOL     OW 4585   1.752   6.206   2.549
 1229SOL    HW1 4586   1.773   6.301   2.530
 1229SOL    HW2 4587   1.790   6.148   2.477
 1230SOL     OW 4588   4.961   5.077   1.456
 1230SOL    HW1 4589   4.945   5.172   1.483
 1230SOL    HW2 4590   4.880   5.040   1.411
 1231SOL     OW 4591   2.009   2.151   6.676
 1231SOL    HW1 4592   2.041   2.158   6.581
 1231SOL    HW2 4593   1.950   2.229   6.697
 1232SOL     OW 4594   3.234   0.549   5.211
 1232SOL    HW1 4595   3.202   0.455   5.200
 1232SOL    HW2 4596   3.175   0.597   5.276
 1233SOL     OW 4597   0.262   5.288   4.013
 1233SOL    HW1 4598   0.231   5.383   4.006
 1233SOL    HW2 4599   0.248   5.256   4.107
 1234SOL     OW 4600   6.730   3.345   6.777
 1234SOL    HW1 4601   6.729   3.258   6.727
 1234SOL    HW2 4602   6.819   3.357   6.821
 1235SOL     OW 4603   6.269   4.974   0.433
 1235SOL    HW1 4604   6.284   5.070   0.458
 1235SOL    HW2 4605   6.196   4.969   0.364
 1236SOL     OW 4606   2.256   1.147   1.254
 1236SOL    HW1 4607   2.261   1.051   1.228
 1236SOL    HW2 4608   2.333   1.170   1.312
 1237SOL     OW 4609   1.238   0.218   5.020
 1237SOL    HW1 4610   1.196   0.154   5.084
 1237SOL    HW2 4611   1.322   0.254   5.060
 1238SOL     OW 4612   0.026   6.975   4.060
 1238SOL    HW1 4613   0.116   6.931   4.061
 1238SOL    HW2 4614   6.984   6.914   4.016
 1239SOL     OW 4615   5.511   5.204   4.287
 1239SOL    HW1 4616   5.422   5.175   4.322
 1239SOL    HW2 4617   5.545   5.137   4.222
 1240SOL     OW 4618   5.402   4.851   2.723
 1240SOL    HW1 4619   5.419   4.812   2.814
 1240SOL    HW2 4620   5.328   4.917   2.728
 1241SOL     OW 4621   5.620   5.014   4.010
 1241SOL    HW1 4622   5.690   5.082   3.988
 1241SOL    HW2 4623   5.576   4.983   3.925
 1242SOL     OW 4624   1.473   4.352   6.730
 1242SOL    HW1 4625   1.571   4.355   6.749
 1242SOL    HW2 4626   1.422   4.346   6.816
 1243SOL     OW 4627   0.965   4.222   4.853
 1243SOL    HW1 4628   0.882   4.265   4.888
 1243SOL    HW2 4629   0.983   4.138   4.903
 1244SOL     OW 4630   5.561   6.081   4.772
 1244SOL    HW1 4631   5.603   6.061   4.683
 1244SOL    HW2 4632   5.561   6.179   4.788
 1245SOL     OW 4633   5.382   6.340   2.086
 1245SOL    HW1 4634   5.300   6.396   2.083
 1245SOL    HW2 4635   5.463   6.399   2.092
 1246SOL     OW 4636   4.931   1.732   0.573
 1246SOL    HW1 4637   4.869   1.740   0.651
 1246SOL    HW2 4638   5.010   1.791   0.586
 1247SOL     OW 4639   6.576   6.599   3.490
 1247SOL    HW1 4640   6.581   6.522   3.428
 1247SOL    HW2 4641   6.496   6.589   3.550
 1248SOL     OW 4642   0.399   6.902   5.029
 1248SOL    HW1 4643   0.365   6.972   5.091
 1248SOL    HW2 4644   0.487   6.930   4.992
 1249SOL     OW 4645   0.247   4.665   0.366
 1249SOL    HW1 4646   0.343   4.691   0.358
 1249SOL    HW2 4647   0.207   4.712   0.445
 1250SOL     OW 4648   5.642   3.137   5.470
 1250SOL    HW1 4649   5.639   3.068   5.543
 1250SOL    HW2 4650   5.718   3.117   5.409
 1251SOL     OW 4651   2.689   0.532   2.536
 1251SOL    HW1 4652   2.686   0.433   2.520
 1251SOL    HW2 4653   2.722   0.578   2.453
 1252SOL     OW 4654   2.036   5.445   0.114
 1252SOL    HW1 4655   1.999   5.407   0.199
 1252SOL    HW2 4656   2.053   5.371   0.049
 1253SOL     OW 4657   3.279   1.289   1.441
 1253SOL    HW1 4658   3.267   1.377   1.488
 1253SOL    HW2 4659   3.376   1.270   1.429
 1254SOL     OW 4660   6.303   1.030   2.473
 1254SOL    HW1 4661   6.223   0.994   2.520
 1254SOL    HW2 4662   6.275   1.101   2.408
 1255SOL     OW 4663   5.389   1.713   4.699
 1255SOL    HW1 4664   5.388   1.638   4.633
 1255SOL    HW2 4665   5.393   1.676   4.792
 1256SOL     OW 4666   0.340   6.093   4.550
 1256SOL    HW1 4667   0.289   6.137   4.623
 1256SOL    HW2 4668   0.351   6.157   4.474
 1257SOL     OW 4669   0.444   4.842   3.725
 1257SOL    HW1 4670   0.451   4.875   3.631
 1257SOL    HW2 4671   0.376   4.895   3.774
 1258SOL     OW 4672   3.332   6.571   4.627
 1258SOL    HW1 4673   3.351   6.521   4.711
 1258SOL    HW2 4674   3.417   6.583   4.575
 1259SOL     OW 4675   5.276   0.226   4.892
 1259SOL    HW1 4676   5.353   0.276   4.930
 1259SOL    HW2 4677   5.192   0.277   4.909
 1260SOL     OW 4678   1.822   0.219   1.971
 1260SOL    HW1 4679   1.850   0.153   1.902
 1260SOL    HW2 4680   1.899   0.237   2.033
 1261SOL     OW 4681   6.867   4.598   6.310
 1261SOL    HW1 4682   6.947   4.565   6.258
 1261SOL    HW2 4683   6.838   4.529   6.375
 1262SOL     OW 4684   5.325   5.476   0.714
 1262SOL    HW1 4685   5.399   5.542   0.707
 1262SOL    HW2 4686   5.335   5.406   0.643
 1263SOL     OW 4687   0.708   2.254   1.321
 1263SOL    HW1 4688   0.668   2.244   1.230
 1263SOL    HW2 4689   0.677   2.340   1.362
 1264SOL     OW 4690   0.963   3.322   3.439
 1264SOL    HW1 4691   1.018   3.398   3.474
 1264SOL    HW2 4692   0.931   3.265   3.514
 1265SOL     OW 4693   6.657   4.548   4.934
 1265SOL    HW1 4694   6.686   4.565   4.840
 1265SOL    HW2 4695   6.716   4.598   4.997
 1266SOL     OW 4696   3.085   1.872   5.229
 1266SOL    HW1 4697   3.111   1.782   5.193
 1266SOL    HW2 4698   3.007   1.907   5.178
 1267SOL     OW 4699   0.121   5.129   3.285
 1267SOL    HW1 4700   0.216   5.097   3.278
 1267SOL    HW2 4701   0.099   5.146   3.381
 1268SOL     OW 4702   5.277   2.771   6.528
 1268SOL    HW1 4703   5.270   2.693   6.591
 1268SOL    HW2 4704   5.354   2.756   6.466
 1269SOL     OW 4705   6.740   6.064   5.530
 1269SOL    HW1 4706   6.717   6.023   5.619
 1269SOL    HW2 4707   6.778   5.993   5.470
 1270SOL     OW 4708   2.090   3.805   4.600
 1270SOL    HW1 4709   2.096   3.849   4.511
 1270SOL    HW2 4710   2.014   3.740   4.601
 1271SOL     OW 4711   3.140   1.864   2.597
 1271SOL    HW1 4712   3.105   1.786   2.649
 1271SOL    HW2 4713   3.070   1.935   2.593
 1272SOL     OW 4714   6.663   5.252   1.378
 1272SOL    HW1 4715   6.693   5.279   1.470
 1272SOL    HW2 4716   6.735   5.271   1.312
 1273SOL     OW 4717   2.202   4.554   6.426
 1273SOL    HW1 4718   2.138   4.554   6.349
 1273SOL    HW2 4719   2.156   4.520   6.508
 1274SOL     OW 4720   6.606   2.805   1.972
 1274SOL    HW1 4721   6.653   2.843   2.052
 1274SOL    HW2 4722   6.641   2.849   1.889
 1275SOL     OW 4723   4.319   0.985   4.820
 1275SOL    HW1 4724   4.292   1.056   4.755
 1275SOL    HW2 4725   4.392   1.019   4.879
 1276SOL     OW 4726   0.153   0.694   2.041
 1276SOL    HW1 4727   0.218   0.762   2.075
 1276SOL    HW2 4728   0.063   0.735   2.031
 1277SOL     OW 4729   6.908   0.753   4.595
 1277SOL    HW1 4730   6.924   0.782   4.500
 1277SOL    HW2 4731   6.987   0.777   4.650
 1278SOL     OW 4732   1.975   1.819   5.365
 1278SOL    HW1 4733   2.053   1.760   5.386
 1278SOL    HW2 4734   1.994   1.872   5.282
 1279SOL     OW 4735   2.771   6.089   0.315
 1279SOL    HW1 4736   2.753   6.168   0.375
 1279SOL    HW2 4737   2.698   6.082   0.247
 1280SOL     OW 4738   2.320   0.269   3.042
 1280SOL    HW1 4739   2.365   0.228   2.963
 1280SOL    HW2 4740   2.223   0.284   3.022
 1281SOL     OW 4741   1.469   6.328   3.184
 1281SOL    HW1 4742   1.492   6.420   3.152
 1281SOL    HW2 4743   1.395   6.334   3.252
 1282SOL     OW 4744   0.763   1.564   1.362
 1282SOL    HW1 4745   0.856   1.585   1.393
 1282SOL    HW2 4746   0.745   1.611   1.276
 1283SOL     OW 4747   5.534   4.304   5.435
 1283SOL    HW1 4748   5.624   4.299   5.479
 1283SOL    HW2 4749   5.467   4.336   5.502
 1284SOL     OW 4750   3.109   2.671   1.767
 1284SOL    HW1 4751   3.179   2.604   1.743
 1284SOL    HW2 4752   3.033   2.625   1.814
 1285SOL     OW 4753   4.823   2.397   5.872
 1285SOL    HW1 4754   4.741   2.453   5.859
 1285SOL    HW2 4755   4.867   2.382   5.783
 1286SOL     OW 4756   5.482   4.070   2.248
 1286SOL    HW1 4757   5.440   4.019   2.323
 1286SOL    HW2 4758   5.541   4.010   2.195
 1287SOL     OW 4759   5.826   5.675   6.756
 1287SOL    HW1 4760   5.812   5.656   6.854
 1287SOL    HW2 4761   5.874   5.598   6.714
 1288SOL     OW 4762   0.073   2.797   6.848
 1288SOL    HW1 4763   0.122   2.846   6.921
 1288SOL    HW2 4764   0.127   2.802   6.764
 1289SOL     OW 4765   6.782   5.995   2.302
 1289SOL    HW1 4766   6.701   6.029   2.254
 1289SOL    HW2 4767   6.863   6.046   2.272
 1290SOL     OW 4768   0.903   0.261   6.805
 1290SOL    HW1 4769   0.839   0.189   6.780
 1290SOL    HW2 4770   0.868   0.349   6.773
 1291SOL     OW 4771   1.297   5.648   6.296
 1291SOL    HW1 4772   1.331   5.737   6.327
 1291SOL    HW2 4773   1.330   5.576   6.357
 1292SOL     OW 4774   0.086   4.901   1.148
 1292SOL    HW1 4775   0.156   4.904   1.219
 1292SOL    HW2 4776   0.001   4.940   1.183
 1293SOL     OW 4777   1.802   1.597   6.916
 1293SOL    HW1 4778   1.779   1.665   6.986
 1293SOL    HW2 4779   1.890   1.621   6.874
 1294SOL     OW 4780   0.554   3.267   2.444
 1294SOL    HW1 4781   0.535   3.343   2.381
 1294SOL    HW2 4782   0.618   3.298   2.514
 1295SOL     OW 4783   5.472   3.137   1.963
 1295SOL    HW1 4784   5.448   3.117   1.868
 1295SOL    HW2 4785   5.537   3.068   1.996
 1296SOL     OW 4786   3.722   2.292   6.498
 1296SOL    HW1 4787   3.770   2.260   6.579
 1296SOL    HW2 4788   3.624   2.301   6.518
 1297SOL     OW 4789   6.784   1.702   5.828
 1297SOL    HW1 4790   6.687   1.724   5.820
 1297SOL    HW2 4791   6.828   1.708   5.739
 1298SOL     OW 4792   5.288   3.279   2.465
 1298SOL    HW1 4793   5.326   3.234   2.384
 1298SOL    HW2 4794   5.240   3.212   2.521
 1299SOL     OW 4795   1.742   4.441   3.784
 1299SOL    HW1 4796   1.689   4.441   3.699
 1299SOL    HW2 4797   1.715   4.362   3.839
 1300SOL     OW 4798   2.785   3.644   1.833
 1300SOL    HW1 4799   2.803   3.548   1.854
 1300SOL    HW2 4800   2.702   3.651   1.778
 1301SOL     OW 4801   0.681   6.591   3.844
 1301SOL    HW1 4802   0.700   6.531   3.921
 1301SOL    HW2 4803   0.585   6.621   3.847
 1302SOL     OW 4804   2.748   6.717   5.614
 1302SOL    HW1 4805   2.665   6.717   5.669
 1302SOL    HW2 4806   2.814   6.782   5.653
 1303SOL     OW 4807   3.755   1.657   0.986
 1303SOL    HW1 4808   3.800   1.688   0.903
 1303SOL    HW2 4809   3.739   1.734   1.047
 1304SOL     OW 4810   2.080   0.280   6.055
 1304SOL    HW1 4811   1.984   0.256   6.072
 1304SOL    HW2 4812   2.137   0.238   6.124
 1305SOL     OW 4813   4.770   6.519   4.433
 1305SOL    HW1 4814   4.770   6.499   4.531
 1305SOL    HW2 4815   4.838   6.590   4.413
 1306SOL     OW 4816   0.970   3.936   4.511
 1306SOL    HW1 4817   0.982   3.837   4.504
 1306SOL    HW2 4818   0.902   3.957   4.581
 1307SOL     OW 4819   1.223   3.327   5.055
 1307SOL    HW1 4820   1.173   3.312   5.141
 1307SOL    HW2 4821   1.321   3.333   5.074
 1308SOL     OW 4822   4.174   5.863   4.424
 1308SOL    HW1 4823   4.174   5.956   4.460
 1308SOL    HW2 4824   4.127   5.802   4.488
 1309SOL     OW 4825   5.414   2.691   4.979
 1309SOL    HW1 4826   5.403   2.732   4.888
 1309SOL    HW2 4827   5.405   2.762   5.049
 1310SOL     OW 4828   5.932   4.101   4.284
 1310SOL    HW1 4829   5.865   4.144   4.344
 1310SOL    HW2 4830   5.897   4.101   4.190
 1311SOL     OW 4831   5.814   6.918   4.702
 1311SOL    HW1 4832   5.773   7.003   4.735
 1311SOL    HW2 4833   5.912   6.931   4.692
 1312SOL     OW 4834   0.953   0.138   0.162
 1312SOL    HW1 4835   0.967   0.177   0.253
 1312SOL    HW2 4836   1.025   0.070   0.144
 1313SOL     OW 4837   3.165   5.519   5.049
 1313SOL    HW1 4838   3.096   5.457   5.086
 1313SOL    HW2 4839   3.142   5.613   5.074
 1314SOL     OW 4840   1.587   1.365   5.554
 1314SOL    HW1 4841   1.526   1.289   5.577
 1314SOL    HW2 4842   1.636   1.343   5.470
 1315SOL     OW 4843   2.066   1.402   1.108
 1315SOL    HW1 4844   2.010   1.330   1.068
 1315SOL    HW2 4845   2.161   1.391   1.078
 1316SOL     OW 4846   2.247   0.409   3.582
 1316SOL    HW1 4847   2.195   0.493   3.602
 1316SOL    HW2 4848   2.211   0.367   3.499
 1317SOL     OW 4849   0.667   4.500   4.483
 1317SOL    HW1 4850   0.681   4.513   4.582
 1317SOL    HW2 4851   0.755   4.508   4.436
 1318SOL     OW 4852   0.190   0.937   0.538
 1318SOL    HW1 4853   0.099   0.936   0.497
 1318SOL    HW2 4854   0.227   0.844   0.537
 1319SOL     OW 4855   0.048   1.020   0.981
 1319SOL    HW1 4856   0.073   0.923   0.979
 1319SOL    HW2 4857   0.124   1.075   0.948
 1320SOL     OW 4858   5.741   4.492   6.329
 1320SOL    HW1 4859   5.701   4.548   6.401
 1320SOL    HW2 4860   5.829   4.456   6.359
 1321SOL     OW 4861   4.098   3.516   6.780
 1321SOL    HW1 4862   4.060   3.493   6.870
 1321SOL    HW2 4863   4.114   3.432   6.728
 1322SOL     OW 4864   6.139   1.200   3.662
 1322SOL    HW1 4865   6.147   1.135   3.737
 1322SOL    HW2 4866   6.226   1.208   3.614
 1323SOL     OW 4867   6.853   1.441   5.255
 1323SOL    HW1 4868   6.837   1.358   5.201
 1323SOL    HW2 4869   6.880   1.416   5.348
 1324SOL     OW 4870   1.427   2.649   1.670
 1324SOL    HW1 4871   1.349   2.689   1.718
 1324SOL    HW2 4872   1.401   2.623   1.578
 1325SOL     OW 4873   1.742   6.178   3.310
 1325SOL    HW1 4874   1.714   6.097   3.361
 1325SOL    HW2 4875   1.668   6.245   3.311
 1326SOL     OW 4876   5.178   2.509   4.878
 1326SOL    HW1 4877   5.172   2.558   4.791
 1326SOL    HW2 4878   5.149   2.570   4.952
 1327SOL     OW 4879   2.715   5.384   2.775
 1327SOL    HW1 4880   2.621   5.416   2.784
 1327SOL    HW2 4881   2.722   5.291   2.812
 1328SOL     OW 4882   1.970   1.888   6.240
 1328SOL    HW1 4883   1.940   1.823   6.311
 1328SOL    HW2 4884   1.940   1.980   6.265
 1329SOL     OW 4885   0.668   1.647   0.379
 1329SOL    HW1 4886   0.740   1.666   0.446
 1329SOL    HW2 4887   0.582   1.687   0.409
 1330SOL     OW 4888   6.843   0.697   0.978
 1330SOL    HW1 4889   6.826   0.653   1.067
 1330SOL    HW2 4890   6.846   0.628   0.907
 1331SOL     OW 4891   6.235   0.769   2.224
 1331SOL    HW1 4892   6.318   0.752   2.277
 1331SOL    HW2 4893   6.233   0.864   2.195
 1332SOL     OW 4894   4.262   2.114   1.437
 1332SOL    HW1 4895   4.178   2.059   1.439
 1332SOL    HW2 4896   4.334   2.064   1.484
 1333SOL     OW 4897   3.500   4.217   4.665
 1333SOL    HW1 4898   3.542   4.132   4.694
 1333SOL    HW2 4899   3.453   4.260   4.743
 1334SOL     OW 4900   1.541   4.133   4.720
 1334SOL    HW1 4901   1.616   4.185   4.760
 1334SOL    HW2 4902   1.545   4.038   4.752
 1335SOL     OW 4903   2.366   6.468   2.926
 1335SOL    HW1 4904   2.284   6.506   2.968
 1335SOL    HW2 4905   2.401   6.393   2.982
 1336SOL     OW 4906   1.381   1.886   6.393
 1336SOL    HW1 4907   1.315   1.921   6.459
 1336SOL    HW2 4908   1.343   1.894   6.301
 1337SOL     OW 4909   2.146   2.218   6.432
 1337SOL    HW1 4910   2.152   2.317   6.420
 1337SOL    HW2 4911   2.228   2.184   6.477
 1338SOL     OW 4912   4.333   4.591   6.315
 1338SOL    HW1 4913   4.353   4.493   6.324
 1338SOL    HW2 4914   4.357   4.638   6.400
 1339SOL     OW 4915   0.100   4.327   6.049
 1339SOL    HW1 4916   0.072   4.346   5.955
 1339SOL    HW2 4917   0.084   4.231   6.071
 1340SOL     OW 4918   1.178   2.559   0.202
 1340SOL    HW1 4919   1.234   2.577   0.121
 1340SOL    HW2 4920   1.196   2.467   0.236
 1341SOL     OW 4921   3.611   1.116   4.433
 1341SOL    HW1 4922   3.546   1.172   4.382
 1341SOL    HW2 4923   3.570   1.087   4.519
 1342SOL     OW 4924   0.561   6.147   6.157
 1342SOL    HW1 4925   0.515   6.060   6.177
 1342SOL    HW2 4926   0.545   6.211   6.233
 1343SOL     OW 4927   3.793   6.258   2.489
 1343SOL    HW1 4928   3.790   6.217   2.580
 1343SOL    HW2 4929   3.803   6.186   2.420
 1344SOL     OW 4930   6.431   1.634   2.810
 1344SOL    HW1 4931   6.513   1.581   2.786
 1344SOL    HW2 4932   6.366   1.575   2.858
 1345SOL     OW 4933   0.802   0.992   3.366
 1345SOL    HW1 4934   0.749   1.066   3.408
 1345SOL    HW2 4935   0.828   1.017   3.273
 1346SOL     OW 4936   0.188   6.814   3.632
 1346SOL    HW1 4937   0.232   6.724   3.627
 1346SOL    HW2 4938   0.248   6.883   3.591
 1347SOL     OW 4939   6.320   6.189   2.912
 1347SOL    HW1 4940   6.296   6.162   3.005
 1347SOL    HW2 4941   6.340   6.287   2.910
 1348SOL     OW 4942   5.674   4.681   4.236
 1348SOL    HW1 4943   5.711   4.637   4.154
 1348SOL    HW2 4944   5.631   4.612   4.294
 1349SOL     OW 4945   4.143   2.826   6.927
 1349SOL    HW1 4946   4.178   2.733   6.938
 1349SOL    HW2 4947   4.103   2.858   7.013
 1350SOL     OW 4948   3.278   6.121   6.799
 1350SOL    HW1 4949   3.181   6.113   6.824
 1350SOL    HW2 4950   3.331   6.148   6.880
 1351SOL     OW 4951   0.116   0.545   4.543
 1351SOL    HW1 4952   0.060   0.470   4.508
 1351SOL    HW2 4953   0.106   0.624   4.483
 1352SOL     OW 4954   6.681   0.711   3.176
 1352SOL    HW1 4955   6.690   0.778   3.103
 1352SOL    HW2 4956   6.681   0.757   3.265
 1353SOL     OW 4957   0.148   4.322   5.184
 1353SOL    HW1 4958   0.071   4.293   5.241
 1353SOL    HW2 4959   0.232   4.324   5.238
 1354SOL     OW 4960   0.547   0.870   1.509
 1354SOL    HW1 4961   0.640   0.893   1.482
 1354SOL    HW2 4962   0.487   0.870   1.428
 1355SOL     OW 4963   5.487   4.311   0.254
 1355SOL    HW1 4964   5.512   4.256   0.334
 1355SOL    HW2 4965   5.388   4.303   0.239
 1356SOL     OW 4966   3.493   3.946   2.721
 1356SOL    HW1 4967   3.531   3.880   2.656
 1356SOL    HW2 4968   3.566   4.005   2.755
 1357SOL     OW 4969   2.324   3.232   6.242
 1357SOL    HW1 4970   2.395   3.163   6.258
 1357SOL    HW2 4971   2.328   3.262   6.147
 1358SOL     OW 4972   2.095   2.675   6.444
 1358SOL    HW1 4973   2.173   2.725   6.482
 1358SOL    HW2 4974   2.067   2.604   6.508
 1359SOL     OW 4975   6.075   3.623   1.264
 1359SOL    HW1 4976   6.172   3.646   1.274
 1359SOL    HW2 4977   6.019   3.697   1.300
 1360SOL     OW 4978   3.652   3.750   3.324
 1360SOL    HW1 4979   3.646   3.736   3.225
 1360SOL    HW2 4980   3.729   3.811   3.344
 1361SOL     OW 4981   0.694   6.591   6.332
 1361SOL    HW1 4982   0.737   6.525   6.394
 1361SOL    HW2 4983   0.722   6.570   6.238
 1362SOL     OW 4984   3.010   3.238   5.819
 1362SOL    HW1 4985   2.936   3.171   5.829
 1362SOL    HW2 4986   2.977   3.315   5.763
 1363SOL     OW 4987   6.649   6.131   3.235
 1363SOL    HW1 4988   6.724   6.068   3.253
 1363SOL    HW2 4989   6.648   6.156   3.139
 1364SOL     OW 4990   6.827   3.194   0.723
 1364SOL    HW1 4991   6.794   3.104   0.753
 1364SOL    HW2 4992   6.872   3.184   0.635
 1365SOL     OW 4993   0.688   3.429   5.884
 1365SOL    HW1 4994   0.625   3.352   5.893
 1365SOL    HW2 4995   0.744   3.436   5.966
 1366SOL     OW 4996   6.886   2.379   0.675
 1366SOL    HW1 4997   6.787   2.389   0.678
 1366SOL    HW2 4998   6.913   2.346   0.585
 1367SOL     OW 4999   0.699   4.259   3.896
 1367SOL    HW1 5000   0.713   4.358   3.899
 1367SOL    HW2 5001   0.608   4.238   3.931
 1368SOL     OW 5002   6.757   0.240   4.451
 1368SOL    HW1 5003   6.832   0.263   4.513
 1368SOL    HW2 5004   6.782   0.158   4.398
 1369SOL     OW 5005   1.875   6.095   2.291
 1369SOL    HW1 5006   1.833   6.004   2.282
 1369SOL    HW2 5007   1.830   6.159   2.228
 1370SOL     OW 5008   6.851   2.070   4.002
 1370SOL    HW1 5009   6.823   2.086   3.907
 1370SOL    HW2 5010   6.868   1.972   4.015
 1371SOL     OW 5011   5.924   1.087   4.513
 1371SOL    HW1 5012   5.862   1.011   4.491
 1371SOL    HW2 5013   5.871   1.171   4.523
 1372SOL     OW 5014   6.375   2.974   0.183
 1372SOL    HW1 5015   6.375   2.879   0.153
 1372SOL    HW2 5016   6.399   2.979   0.280
 1373SOL     OW 5017   4.418   2.706   1.600
 1373SOL    HW1 5018   4.491   2.736   1.662
 1373SOL    HW2 5019   4.412   2.606   1.603
 1374SOL     OW 5020   4.888   3.445   0.689
 1374SOL    HW1 5021   4.847   3.471   0.777
 1374SOL    HW2 5022   4.815   3.438   0.620
 1375SOL     OW 5023   0.085   6.076   5.390
 1375SOL    HW1 5024   0.081   6.140   5.467
 1375SOL    HW2 5025   0.067   6.126   5.305
 1376SOL     OW 5026   2.832   4.972   6.099
 1376SOL    HW1 5027   2.804   5.063   6.127
 1376SOL    HW2 5028   2.915   4.978   6.042
 1377SOL     OW 5029   1.135   2.278   3.511
 1377SOL    HW1 5030   1.091   2.360   3.548
 1377SOL    HW2 5031   1.234   2.291   3.510
 1378SOL     OW 5032   3.753   2.102   4.756
 1378SOL    HW1 5033   3.660   2.103   4.793
 1378SOL    HW2 5034   3.750   2.100   4.657
 1379SOL     OW 5035   5.255   5.030   1.541
 1379SOL    HW1 5036   5.269   4.961   1.612
 1379SOL    HW2 5037   5.168   5.013   1.494
 1380SOL     OW 5038   6.541   6.402   1.619
 1380SOL    HW1 5039   6.632   6.392   1.579
 1380SOL    HW2 5040   6.511   6.314   1.656
 1381SOL     OW 5041   6.117   2.501   5.884
 1381SOL    HW1 5042   6.158   2.501   5.975
 1381SOL    HW2 5043   6.134   2.413   5.839
 1382SOL     OW 5044   4.700   2.627   1.257
 1382SOL    HW1 5045   4.614   2.670   1.283
 1382SOL    HW2 5046   4.770   2.697   1.245
 1383SOL     OW 5047   1.424   0.212   2.097
 1383SOL    HW1 5048   1.506   0.170   2.136
 1383SOL    HW2 5049   1.372   0.143   2.047
 1384SOL     OW 5050   5.035   0.475   0.527
 1384SOL    HW1 5051   5.009   0.458   0.432
 1384SOL    HW2 5052   4.953   0.498   0.580
 1385SOL     OW 5053   1.901   5.148   3.622
 1385SOL    HW1 5054   1.953   5.229   3.594
 1385SOL    HW2 5055   1.959   5.091   3.680
 1386SOL     OW 5056   3.042   6.434   4.154
 1386SOL    HW1 5057   3.094   6.386   4.224
 1386SOL    HW2 5058   3.008   6.521   4.190
 1387SOL     OW 5059   3.836   5.882   1.396
 1387SOL    HW1 5060   3.821   5.783   1.400
 1387SOL    HW2 5061   3.756   5.929   1.435
 1388SOL     OW 5062   5.941   0.461   1.762
 1388SOL    HW1 5063   5.848   0.426   1.772
 1388SOL    HW2 5064   5.978   0.484   1.851
 1389SOL     OW 5065   6.534   1.183   3.106
 1389SOL    HW1 5066   6.456   1.123   3.090
 1389SOL    HW2 5067   6.540   1.205   3.204
 1390SOL     OW 5068   1.052   3.357   6.668
 1390SOL    HW1 5069   0.971   3.379   6.721
 1390SOL    HW2 5070   1.027   3.296   6.593
 1391SOL     OW 5071   6.822   1.347   4.047
 1391SOL    HW1 5072   6.726   1.332   4.068
 1391SOL    HW2 5073   6.837   1.444   4.025
 1392SOL     OW 5074   5.481   5.076   5.999
 1392SOL    HW1 5075   5.483   5.042   6.094
 1392SOL    HW2 5076   5.444   5.169   5.998
 1393SOL     OW 5077   5.852   5.941   5.504
 1393SOL    HW1 5078   5.933   5.960   5.559
 1393SOL    HW2 5079   5.771   5.942   5.563
 1394SOL     OW 5080   3.360   6.054   5.690
 1394SOL    HW1 5081   3.300   6.100   5.625
 1394SOL    HW2 5082   3.438   6.014   5.641
 1395SOL     OW 5083   3.118   4.340   5.699
 1395SOL    HW1 5084   3.030   4.312   5.661
 1395SOL    HW2 5085   3.106   4.375   5.792
 1396SOL     OW 5086   0.889   0.046   3.811
 1396SOL    HW1 5087   0.806   0.004   3.775
 1396SOL    HW2 5088   0.883   0.145   3.802
 1397SOL     OW 5089   6.158   0.593   4.512
 1397SOL    HW1 5090   6.192   0.653   4.585
 1397SOL    HW2 5091   6.144   0.501   4.549
 1398SOL     OW 5092   1.742   1.037   4.861
 1398SOL    HW1 5093   1.783   1.126   4.879
 1398SOL    HW2 5094   1.780   0.999   4.776
 1399SOL     OW 5095   3.805   6.616   1.436
 1399SOL    HW1 5096   3.898   6.603   1.400
 1399SOL    HW2 5097   3.775   6.532   1.481
 1400SOL     OW 5098   0.205   1.842   3.007
 1400SOL    HW1 5099   0.181   1.858   3.103
 1400SOL    HW2 5100   0.211   1.744   2.990
 1401SOL     OW 5101   0.404   1.370   5.395
 1401SOL    HW1 5102   0.361   1.376   5.485
 1401SOL    HW2 5103   0.338   1.398   5.325
 1402SOL     OW 5104   0.005   3.636   6.877
 1402SOL    HW1 5105   6.969   3.699   6.926
 1402SOL    HW2 5106   0.100   3.653   6.904
 1403SOL     OW 5107   3.465   1.258   1.975
 1403SOL    HW1 5108   3.560   1.288   1.976
 1403SOL    HW2 5109   3.420   1.285   2.060
 1404SOL     OW 5110   5.730   0.390   0.257
 1404SOL    HW1 5111   5.731   0.305   0.310
 1404SOL    HW2 5112   5.758   0.466   0.316
 1405SOL     OW 5113   2.217   3.990   0.771
 1405SOL    HW1 5114   2.163   4.073   0.758
 1405SOL    HW2 5115   2.216   3.965   0.868
 1406SOL     OW 5116   1.725   5.269   1.788
 1406SOL    HW1 5117   1.663   5.346   1.799
 1406SOL    HW2 5118   1.771   5.250   1.875
 1407SOL     OW 5119   0.470   1.594   1.970
 1407SOL    HW1 5120   0.422   1.660   1.912
 1407SOL    HW2 5121   0.567   1.593   1.947
 1408SOL     OW 5122   5.243   0.695   5.896
 1408SOL    HW1 5123   5.304   0.740   5.961
 1408SOL    HW2 5124   5.187   0.627   5.944
 1409SOL     OW 5125   0.722   6.970   5.201
 1409SOL    HW1 5126   0.766   7.023   5.274
 1409SOL    HW2 5127   0.675   0.007   5.139
 1410SOL     OW 5128   1.648   3.516   6.451
 1410SOL    HW1 5129   1.643   3.505   6.352
 1410SOL    HW2 5130   1.729   3.570   6.474
 1411SOL     OW 5131   2.653   6.492   3.169
 1411SOL    HW1 5132   2.626   6.401   3.138
 1411SOL    HW2 5133   2.665   6.552   3.090
 1412SOL     OW 5134   0.263   2.368   6.802
 1412SOL    HW1 5135   0.325   2.305   6.756
 1412SOL    HW2 5136   0.178   2.321   6.825
 1413SOL     OW 5137   1.691   0.781   4.956
 1413SOL    HW1 5138   1.708   0.865   4.905
 1413SOL    HW2 5139   1.741   0.705   4.915
 1414SOL     OW 5140   2.801   1.084   1.686
 1414SOL    HW1 5141   2.847   0.998   1.665
 1414SOL    HW2 5142   2.788   1.137   1.602
 1415SOL     OW 5143   2.751   0.312   4.429
 1415SOL    HW1 5144   2.819   0.326   4.501
 1415SOL    HW2 5145   2.705   0.224   4.444
 1416SOL     OW 5146   4.712   4.497   3.589
 1416SOL    HW1 5147   4.749   4.409   3.616
 1416SOL    HW2 5148   4.612   4.495   3.596
 1417SOL     OW 5149   2.081   2.475   0.362
 1417SOL    HW1 5150   2.163   2.443   0.409
 1417SOL    HW2 5151   2.030   2.536   0.421
 1418SOL     OW 5152   2.998   3.164   3.254
 1418SOL    HW1 5153   3.060   3.086   3.247
 1418SOL    HW2 5154   2.911   3.134   3.294
 1419SOL     OW 5155   3.570   6.523   4.512
 1419SOL    HW1 5156   3.529   6.523   4.421
 1419SOL    HW2 5157   3.652   6.580   4.512
 1420SOL     OW 5158   1.827   6.521   1.830
 1420SOL    HW1 5159   1.779   6.565   1.907
 1420SOL    HW2 5160   1.833   6.585   1.754
 1421SOL     OW 5161   1.594   2.740   2.977
 1421SOL    HW1 5162   1.615   2.729   3.074
 1421SOL    HW2 5163   1.504   2.703   2.958
 1422SOL     OW 5164   2.575   4.605   1.960
 1422SOL    HW1 5165   2.574   4.587   1.861
 1422SOL    HW2 5166   2.669   4.612   1.991
 1423SOL     OW 5167   5.143   6.518   2.161
 1423SOL    HW1 5168   5.065   6.581   2.163
 1423SOL    HW2 5169   5.222   6.561   2.204
 1424SOL     OW 5170   6.166   4.342   4.764
 1424SOL    HW1 5171   6.233   4.338   4.838
 1424SOL    HW2 5172   6.139   4.437   4.749
 1425SOL     OW 5173   1.510   6.393   4.295
 1425SOL    HW1 5174   1.435   6.447   4.256
 1425SOL    HW2 5175   1.472   6.321   4.353
 1426SOL     OW 5176   0.988   2.903   5.449
 1426SOL    HW1 5177   0.921   2.942   5.513
 1426SOL    HW2 5178   1.051   2.844   5.500
 1427SOL     OW 5179   0.097   6.880   2.660
 1427SOL    HW1 5180   0.010   6.831   2.655
 1427SOL    HW2 5181   0.117   6.905   2.755
 1428SOL     OW 5182   5.858   2.528   0.765
 1428SOL    HW1 5183   5.877   2.458   0.697
 1428SOL    HW2 5184   5.759   2.532   0.782
 1429SOL     OW 5185   6.370   1.989   0.286
 1429SOL    HW1 5186   6.431   1.944   0.351
 1429SOL    HW2 5187   6.399   1.967   0.193
 1430SOL     OW 5188   1.699   4.716   3.726
 1430SOL    HW1 5189   1.656   4.789   3.779
 1430SOL    HW2 5190   1.698   4.631   3.779
 1431SOL     OW 5191   2.482   2.273   1.365
 1431SOL    HW1 5192   2.578   2.296   1.379
 1431SOL    HW2 5193   2.442   2.337   1.299
 1432SOL     OW 5194   2.777   1.646   3.492
 1432SOL    HW1 5195   2.863   1.650   3.544
 1432SOL    HW2 5196   2.712   1.587   3.539
 1433SOL     OW 5197   4.372   1.128   4.242
 1433SOL    HW1 5198   4.358   1.186   4.161
 1433SOL    HW2 5199   4.448   1.166   4.296
 1434SOL     OW 5200   6.527   0.887   5.434
 1434SOL    HW1 5201   6.625   0.904   5.419
 1434SOL    HW2 5202   6.489   0.843   5.353
 1435SOL     OW 5203   5.870   0.965   2.261
 1435SOL    HW1 5204   5.867   1.004   2.353
 1435SOL    HW2 5205   5.786   0.990   2.212
 1436SOL     OW 5206   5.321   4.018   0.240
 1436SOL    HW1 5207   5.299   3.983   0.331
 1436SOL    HW2 5208   5.239   4.020   0.184
 1437SOL     OW 5209   2.196   2.438   3.934
 1437SOL    HW1 5210   2.229   2.532   3.944
 1437SOL    HW2 5211   2.203   2.410   3.838
 1438SOL     OW 5212   3.435   6.346   1.289
 1438SOL    HW1 5213   3.429   6.340   1.388
 1438SOL    HW2 5214   3.379   6.422   1.256
 1439SOL     OW 5215   0.005   5.908   1.973
 1439SOL    HW1 5216   7.016   5.828   1.916
 1439SOL    HW2 5217   0.011   5.880   2.069
 1440SOL     OW 5218   3.197   3.671   1.226
 1440SOL    HW1 5219   3.280   3.619   1.207
 1440SOL    HW2 5220   3.118   3.611   1.213
 1441SOL     OW 5221   6.133   0.571   2.358
 1441SOL    HW1 5222   6.106   0.614   2.444
 1441SOL    HW2 5223   6.160   0.641   2.292
 1442SOL     OW 5224   6.402   6.019   0.209
 1442SOL    HW1 5225   6.335   5.945   0.205
 1442SOL    HW2 5226   6.473   5.995   0.275
 1443SOL     OW 5227   0.280   2.424   2.553
 1443SOL    HW1 5228   0.314   2.330   2.543
 1443SOL    HW2 5229   0.191   2.432   2.510
 1444SOL     OW 5230   5.546   0.183   0.586
 1444SOL    HW1 5231   5.599   0.166   0.670
 1444SOL    HW2 5232   5.539   0.281   0.571
 1445SOL     OW 5233   0.699   3.044   2.715
 1445SOL    HW1 5234   0.744   2.995   2.641
 1445SOL    HW2 5235   0.611   3.001   2.735
 1446SOL     OW 5236   0.075   0.277   7.008
 1446SOL    HW1 5237   0.115   0.248   6.921
 1446SOL    HW2 5238   0.045   0.372   7.002
 1447SOL     OW 5239   5.456   4.921   3.412
 1447SOL    HW1 5240   5.503   5.008   3.424
 1447SOL    HW2 5241   5.365   4.927   3.452
 1448SOL     OW 5242   6.898   2.549   4.998
 1448SOL    HW1 5243   6.847   2.478   5.047
 1448SOL    HW2 5244   6.870   2.551   4.902
 1449SOL     OW 5245   0.843   4.011   5.326
 1449SOL    HW1 5246   0.927   3.963   5.298
 1449SOL    HW2 5247   0.783   3.947   5.373
 1450SOL     OW 5248   0.916   2.904   5.989
 1450SOL    HW1 5249   0.951   2.825   6.039
 1450SOL    HW2 5250   0.843   2.947   6.042
 1451SOL     OW 5251   1.297   6.311   2.412
 1451SOL    HW1 5252   1.255   6.392   2.453
 1451SOL    HW2 5253   1.244   6.281   2.334
 1452SOL     OW 5254   4.686   2.576   5.336
 1452SOL    HW1 5255   4.629   2.525   5.402
 1452SOL    HW2 5256   4.627   2.630   5.277
 1453SOL     OW 5257   0.558   4.482   5.233
 1453SOL    HW1 5258   0.647   4.445   5.258
 1453SOL    HW2 5259   0.487   4.415   5.252
 1454SOL     OW 5260   2.252   1.964   2.993
 1454SOL    HW1 5261   2.310   2.024   3.049
 1454SOL    HW2 5262   2.175   2.016   2.956
 1455SOL     OW 5263   1.471   6.201   2.605
 1455SOL    HW1 5264   1.438   6.210   2.511
 1455SOL    HW2 5265   1.569   6.186   2.604
 1456SOL     OW 5266   6.488   6.172   6.125
 1456SOL    HW1 5267   6.571   6.130   6.162
 1456SOL    HW2 5268   6.409   6.117   6.151
 1457SOL     OW 5269   0.766   4.350   0.711
 1457SOL    HW1 5270   0.764   4.318   0.617
 1457SOL    HW2 5271   0.843   4.412   0.724
 1458SOL     OW 5272   5.132   4.999   5.177
 1458SOL    HW1 5273   5.177   4.939   5.111
 1458SOL    HW2 5274   5.131   4.954   5.267
 1459SOL     OW 5275   4.388   6.458   6.125
 1459SOL    HW1 5276   4.330   6.465   6.044
 1459SOL    HW2 5277   4.370   6.371   6.171
 1460SOL     OW 5278   1.545   6.912   4.698
 1460SOL    HW1 5279   1.644   6.912   4.684
 1460SOL    HW2 5280   1.516   7.004   4.726
 1461SOL     OW 5281   0.304   3.495   3.211
 1461SOL    HW1 5282   0.208   3.505   3.185
 1461SOL    HW2 5283   0.349   3.585   3.208
 1462SOL     OW 5284   0.935   1.014   6.402
 1462SOL    HW1 5285   1.012   0.955   6.425
 1462SOL    HW2 5286   0.851   0.960   6.401
 1463SOL     OW 5287   1.404   4.832   5.754
 1463SOL    HW1 5288   1.306   4.815   5.760
 1463SOL    HW2 5289   1.451   4.785   5.829
 1464SOL     OW 5290   6.832   4.143   3.118
 1464SOL    HW1 5291   6.806   4.121   3.023
 1464SOL    HW2 5292   6.807   4.067   3.178
 1465SOL     OW 5293   1.632   2.181   3.926
 1465SOL    HW1 5294   1.725   2.164   3.959
 1465SOL    HW2 5295   1.602   2.271   3.958
 1466SOL     OW 5296   4.100   2.166   2.199
 1466SOL    HW1 5297   4.017   2.163   2.144
 1466SOL    HW2 5298   4.076   2.153   2.295
 1467SOL     OW 5299   2.021   1.578   4.305
 1467SOL    HW1 5300   2.037   1.666   4.350
 1467SOL    HW2 5301   1.928   1.547   4.323
 1468SOL     OW 5302   2.213   5.403   1.872
 1468SOL    HW1 5303   2.254   5.414   1.781
 1468SOL    HW2 5304   2.124   5.450   1.874
 1469SOL     OW 5305   6.878   5.972   3.218
 1469SOL    HW1 5306   6.948   6.034   3.183
 1469SOL    HW2 5307   6.856   5.904   3.148
 1470SOL     OW 5308   0.286   2.586   0.877
 1470SOL    HW1 5309   0.271   2.683   0.863
 1470SOL    HW2 5310   0.202   2.535   0.856
 1471SOL     OW 5311   0.935   0.204   0.698
 1471SOL    HW1 5312   0.884   0.118   0.698
 1471SOL    HW2 5313   0.899   0.264   0.627
 1472SOL     OW 5314   2.351   6.393   6.613
 1472SOL    HW1 5315   2.319   6.483   6.585
 1472SOL    HW2 5316   2.431   6.403   6.671
 1473SOL     OW 5317   2.944   5.680   4.382
 1473SOL    HW1 5318   2.895   5.654   4.299
 1473SOL    HW2 5319   2.934   5.608   4.450
 1474SOL     OW 5320   4.186   4.913   1.744
 1474SOL    HW1 5321   4.195   4.833   1.804
 1474SOL    HW2 5322   4.134   4.888   1.662
 1475SOL     OW 5323   5.132   1.369   0.052
 1475SOL    HW1 5324   5.091   1.459   0.034
 1475SOL    HW2 5325   5.088   1.300   7.019
 1476SOL     OW 5326   3.039   1.168   1.498
 1476SOL    HW1 5327   3.124   1.204   1.458
 1476SOL    HW2 5328   3.033   1.195   1.594
 1477SOL     OW 5329   3.914   0.144   0.476
 1477SOL    HW1 5330   3.833   0.153   0.535
 1477SOL    HW2 5331   3.990   0.196   0.516
 1478SOL     OW 5332   5.676   6.476   5.460
 1478SOL    HW1 5333   5.588   6.432   5.441
 1478SOL    HW2 5334   5.741   6.454   5.388
 1479SOL     OW 5335   3.741   3.832   1.540
 1479SOL    HW1 5336   3.664   3.865   1.594
 1479SOL    HW2 5337   3.710   3.813   1.447
 1480SOL     OW 5338   2.145   6.776   6.243
 1480SOL    HW1 5339   2.156   6.769   6.342
 1480SOL    HW2 5340   2.234   6.769   6.198
 1481SOL     OW 5341   5.580   2.922   5.646
 1481SOL    HW1 5342   5.494   2.920   5.698
 1481SOL    HW2 5343   5.582   2.845   5.583
 1482SOL     OW 5344   4.453   0.710   0.678
 1482SOL    HW1 5345   4.520   0.643   0.709
 1482SOL    HW2 5346   4.379   0.663   0.630
 1483SOL     OW 5347   5.398   2.267   5.332
 1483SOL    HW1 5348   5.441   2.178   5.348
 1483SOL    HW2 5349   5.470   2.336   5.317
 1484SOL     OW 5350   3.736   5.350   3.990
 1484SOL    HW1 5351   3.725   5.325   3.894
 1484SOL    HW2 5352   3.777   5.274   4.040
 1485SOL     OW 5353   5.359   0.995   3.786
 1485SOL    HW1 5354   5.454   0.970   3.766
 1485SOL    HW2 5355   5.300   0.916   3.770
 1486SOL     OW 5356   4.693   6.836   3.518
 1486SOL    HW1 5357   4.635   6.918   3.515
 1486SOL    HW2 5358   4.637   6.756   3.537
 1487SOL     OW 5359   0.594   0.874   6.714
 1487SOL    HW1 5360   0.641   0.960   6.733
 1487SOL    HW2 5361   0.514   0.892   6.657
 1488SOL     OW 5362   6.152   0.379   3.321
 1488SOL    HW1 5363   6.230   0.376   3.383
 1488SOL    HW2 5364   6.165   0.310   3.249
 1489SOL     OW 5365   3.885   4.694   6.451
 1489SOL    HW1 5366   3.800   4.742   6.427
 1489SOL    HW2 5367   3.960   4.760   6.454
 1490SOL     OW 5368   0.368   3.270   1.328
 1490SOL    HW1 5369   0.307   3.252   1.250
 1490SOL    HW2 5370   0.388   3.184   1.375
 1491SOL     OW 5371   6.773   4.095   1.994
 1491SOL    HW1 5372   6.828   4.173   1.965
 1491SOL    HW2 5373   6.685   4.096   1.946
 1492SOL     OW 5374   6.851   0.335   2.087
 1492SOL    HW1 5375   6.829   0.413   2.144
 1492SOL    HW2 5376   6.769   0.305   2.039
 1493SOL     OW 5377   3.890   1.312   6.462
 1493SOL    HW1 5378   3.829   1.316   6.383
 1493SOL    HW2 5379   3.840   1.278   6.542
 1494SOL     OW 5380   5.540   2.476   6.536
 1494SOL    HW1 5381   5.595   2.393   6.538
 1494SOL    HW2 5382   5.493   2.487   6.623
 1495SOL     OW 5383   6.718   3.479   3.337
 1495SOL    HW1 5384   6.809   3.489   3.378
 1495SOL    HW2 5385   6.688   3.566   3.299
 1496SOL     OW 5386   0.324   0.172   0.089
 1496SOL    HW1 5387   0.251   0.238   0.071
 1496SOL    HW2 5388   0.400   0.218   0.135
 1497SOL     OW 5389   5.084   2.967   2.244
 1497SOL    HW1 5390   5.064   3.064   2.252
 1497SOL    HW2 5391   5.001   2.914   2.260
 1498SOL     OW 5392   2.641   4.785   1.081
 1498SOL    HW1 5393   2.716   4.736   1.125
 1498SOL    HW2 5394   2.616   4.864   1.138
 1499SOL     OW 5395   0.516   3.585   5.706
 1499SOL    HW1 5396   0.538   3.510   5.645
 1499SOL    HW2 5397   0.582   3.587   5.782
 1500SOL     OW 5398   1.272   6.073   6.918
 1500SOL    HW1 5399   1.361   6.119   6.909
 1500SOL    HW2 5400   1.278   6.004   6.990
 1501SOL     OW 5401   6.086   1.700   6.733
 1501SOL    HW1 5402   6.112   1.650   6.650
 1501SOL    HW2 5403   5.995   1.739   6.720
 1502SOL     OW 5404   5.725   1.340   6.397
 1502SOL    HW1 5405   5.787   1.295   6.462
 1502SOL    HW2 5406   5.769   1.346   6.307
 1503SOL     OW 5407   0.801   2.941   2.454
 1503SOL    HW1 5408   0.751   2.858   2.480
 1503SOL    HW2 5409   0.750   2.989   2.383
 1504SOL     OW 5410   0.606   6.953   3.755
 1504SOL    HW1 5411   0.520   7.001   3.777
 1504SOL    HW2 5412   0.591   6.892   3.677
 1505SOL     OW 5413   5.378   6.405   5.669
 1505SOL    HW1 5414   5.430   6.332   5.714
 1505SOL    HW2 5415   5.382   6.488   5.724
 1506SOL     OW 5416   1.302   0.484   0.932
 1506SOL    HW1 5417   1.383   0.531   0.969
 1506SOL    HW2 5418   1.222   0.543   0.942
 1507SOL     OW 5419   0.755   1.525   4.352
 1507SOL    HW1 5420   0.749   1.464   4.431
 1507SOL    HW2 5421   0.665   1.565   4.334
 1508SOL     OW 5422   0.774   1.772   0.775
 1508SOL    HW1 5423   0.819   1.824   0.848
 1508SOL    HW2 5424   0.723   1.696   0.814
 1509SOL     OW 5425   5.224   1.352   5.312
 1509SOL    HW1 5426   5.128   1.332   5.327
 1509SOL    HW2 5427   5.244   1.353   5.214
 1510SOL     OW 5428   4.236   0.071   4.114
 1510SOL    HW1 5429   4.335   0.075   4.100
 1510SOL    HW2 5430   4.213   0.113   4.201
 1511SOL     OW 5431   2.993   3.884   3.981
 1511SOL    HW1 5432   3.029   3.949   3.914
 1511SOL    HW2 5433   3.026   3.907   4.072
 1512SOL     OW 5434   5.829   5.422   1.143
 1512SOL    HW1 5435   5.782   5.468   1.219
 1512SOL    HW2 5436   5.774   5.431   1.060
 1513SOL     OW 5437   3.231   0.142   4.792
 1513SOL    HW1 5438   3.294   0.096   4.855
 1513SOL    HW2 5439   3.238   0.100   4.702
 1514SOL     OW 5440   3.480   2.552   5.504
 1514SOL    HW1 5441   3.463   2.482   5.435
 1514SOL    HW2 5442   3.575   2.585   5.496
 1515SOL     OW 5443   6.634   1.335   2.491
 1515SOL    HW1 5444   6.538   1.324   2.518
 1515SOL    HW2 5445   6.640   1.333   2.391
 1516SOL     OW 5446   6.185   5.788   5.433
 1516SOL    HW1 5447   6.116   5.854   5.464
 1516SOL    HW2 5448   6.244   5.831   5.364
 1517SOL     OW 5449   4.126   7.002   3.275
 1517SOL    HW1 5450   4.086   0.069   3.265
 1517SOL    HW2 5451   4.104   6.966   3.366
 1518SOL     OW 5452   6.110   2.970   0.543
 1518SOL    HW1 5453   6.054   2.889   0.559
 1518SOL    HW2 5454   6.205   2.951   0.567
 1519SOL     OW 5455   0.049   5.186   0.677
 1519SOL    HW1 5456   0.130   5.178   0.735
 1519SOL    HW2 5457   0.013   5.279   0.682
 1520SOL     OW 5458   0.611   4.529   1.691
 1520SOL    HW1 5459   0.562   4.513   1.776
 1520SOL    HW2 5460   0.632   4.627   1.682
 1521SOL     OW 5461   2.306   4.975   0.440
 1521SOL    HW1 5462   2.243   5.049   0.421
 1521SOL    HW2 5463   2.321   4.968   0.539
 1522SOL     OW 5464   5.246   5.202   4.451
 1522SOL    HW1 5465   5.283   5.111   4.467
 1522SOL    HW2 5466   5.157   5.195   4.407
 1523SOL     OW 5467   3.461   6.969   6.898
 1523SOL    HW1 5468   3.439   7.009   6.809
 1523SOL    HW2 5469   3.558   6.982   6.917
 1524SOL     OW 5470   2.948   2.193   2.385
 1524SOL    HW1 5471   2.980   2.129   2.316
 1524SOL    HW2 5472   2.877   2.251   2.346
 1525SOL     OW 5473   5.997   2.523   1.166
 1525SOL    HW1 5474   5.974   2.460   1.241
 1525SOL    HW2 5475   6.037   2.606   1.204
 1526SOL     OW 5476   0.392   1.297   6.850
 1526SOL    HW1 5477   0.428   1.385   6.821
 1526SOL    HW2 5478   0.315   1.272   6.792
 1527SOL     OW 5479   3.935   1.038   4.664
 1527SOL    HW1 5480   3.930   0.998   4.755
 1527SOL    HW2 5481   3.957   0.967   4.597
 1528SOL     OW 5482   4.315   4.824   1.135
 1528SOL    HW1 5483   4.289   4.877   1.215
 1528SOL    HW2 5484   4.345   4.885   1.062
 1529SOL     OW 5485   4.946   1.191   6.916
 1529SOL    HW1 5486   4.979   1.125   6.984
 1529SOL    HW2 5487   4.855   1.165   6.886
 1530SOL     OW 5488   3.392   0.551   1.607
 1530SOL    HW1 5489   3.474   0.604   1.581
 1530SOL    HW2 5490   3.419   0.476   1.667
 1531SOL     OW 5491   4.503   0.689   4.803
 1531SOL    HW1 5492   4.565   0.645   4.868
 1531SOL    HW2 5493   4.412   0.696   4.844
 1532SOL     OW 5494   3.427   4.581   5.787
 1532SOL    HW1 5495   3.462   4.569   5.880
 1532SOL    HW2 5496   3.440   4.497   5.735
 1533SOL     OW 5497   5.773   5.871   0.427
 1533SOL    HW1 5498   5.674   5.858   0.432
 1533SOL    HW2 5499   5.807   5.833   0.340
 1534SOL     OW 5500   4.009   5.518   6.895
 1534SOL    HW1 5501   3.973   5.599   6.850
 1534SOL    HW2 5502   4.058   5.461   6.829
 1535SOL     OW 5503   5.769   5.976   4.909
 1535SOL    HW1 5504   5.698   6.020   4.854
 1535SOL    HW2 5505   5.752   5.878   4.915
 1536SOL     OW 5506   4.307   4.894   0.279
 1536SOL    HW1 5507   4.358   4.942   0.351
 1536SOL    HW2 5508   4.223   4.857   0.318
 1537SOL     OW 5509   3.985   5.710   3.553
 1537SOL    HW1 5510   3.977   5.712   3.453
 1537SOL    HW2 5511   4.022   5.622   3.582
 1538SOL     OW 5512   3.212   0.920   0.079
 1538SOL    HW1 5513   3.268   0.980   0.022
 1538SOL    HW2 5514   3.241   0.825   0.065
 1539SOL     OW 5515   4.906   3.225   2.005
 1539SOL    HW1 5516   4.844   3.149   2.025
 1539SOL    HW2 5517   4.969   3.238   2.082
 1540SOL     OW 5518   1.180   0.076   5.231
 1540SOL    HW1 5519   1.112   0.003   5.219
 1540SOL    HW2 5520   1.245   0.051   5.302
 1541SOL     OW 5521   3.449   3.269   4.223
 1541SOL    HW1 5522   3.363   3.306   4.258
 1541SOL    HW2 5523   3.467   3.307   4.133
 1542SOL     OW 5524   6.411   6.961   1.871
 1542SOL    HW1 5525   6.349   6.989   1.944
 1542SOL    HW2 5526   6.505   6.986   1.896
 1543SOL     OW 5527   3.860   5.158   6.180
 1543SOL    HW1 5528   3.843   5.237   6.122
 1543SOL    HW2 5529   3.810   5.167   6.266
 1544SOL     OW 5530   2.883   3.699   3.764
 1544SOL    HW1 5531   2.916   3.768   3.828
 1544SOL    HW2 5532   2.787   3.679   3.783
 1545SOL     OW 5533   6.126   0.978   2.681
 1545SOL    HW1 5534   6.136   1.025   2.769
 1545SOL    HW2 5535   6.100   0.883   2.697
 1546SOL     OW 5536   5.417   5.900   5.878
 1546SOL    HW1 5537   5.318   5.900   5.891
 1546SOL    HW2 5538   5.438   5.875   5.784
 1547SOL     OW 5539   1.916   3.804   1.289
 1547SOL    HW1 5540   1.990   3.871   1.278
 1547SOL    HW2 5541   1.922   3.763   1.380
 1548SOL     OW 5542   5.886   3.650   0.116
 1548SOL    HW1 5543   5.867   3.744   0.144
 1548SOL    HW2 5544   5.832   3.587   0.173
 1549SOL     OW 5545   4.482   1.477   3.763
 1549SOL    HW1 5546   4.556   1.543   3.781
 1549SOL    HW2 5547   4.484   1.406   3.833
 1550SOL     OW 5548   2.938   3.186   1.486
 1550SOL    HW1 5549   2.964   3.281   1.498
 1550SOL    HW2 5550   2.871   3.161   1.556
 1551SOL     OW 5551   1.231   5.251   6.846
 1551SOL    HW1 5552   1.150   5.301   6.814
 1551SOL    HW2 5553   1.312   5.307   6.832
 1552SOL     OW 5554   1.904   4.993   0.873
 1552SOL    HW1 5555   1.992   5.018   0.913
 1552SOL    HW2 5556   1.833   4.998   0.944
 1553SOL     OW 5557   0.137   1.552   6.441
 1553SOL    HW1 5558   0.092   1.466   6.466
 1553SOL    HW2 5559   0.140   1.613   6.520
 1554SOL     OW 5560   2.911   2.278   3.760
 1554SOL    HW1 5561   2.841   2.226   3.809
 1554SOL    HW2 5562   2.874   2.309   3.672
 1555SOL     OW 5563   6.116   3.148   6.625
 1555SOL    HW1 5564   6.072   3.143   6.535
 1555SOL    HW2 5565   6.048   3.128   6.696
 1556SOL     OW 5566   1.851   1.145   5.999
 1556SOL    HW1 5567   1.859   1.069   5.934
 1556SOL    HW2 5568   1.918   1.215   5.977
 1557SOL     OW 5569   1.944   3.935   5.908
 1557SOL    HW1 5570   1.854   3.910   5.871
 1557SOL    HW2 5571   2.001   3.854   5.915
 1558SOL     OW 5572   6.272   0.419   4.301
 1558SOL    HW1 5573   6.276   0.514   4.332
 1558SOL    HW2 5574   6.236   0.416   4.207
 1559SOL     OW 5575   1.340   3.379   6.468
 1559SOL    HW1 5576   1.340   3.479   6.470
 1559SOL    HW2 5577   1.374   3.347   6.380
 1560SOL     OW 5578   0.436   0.652   6.656
 1560SOL    HW1 5579   0.432   0.583   6.584
 1560SOL    HW2 5580   0.532   0.674   6.676
 1561SOL     OW 5581   5.001   6.350   3.567
 1561SOL    HW1 5582   4.939   6.336   3.490
 1561SOL    HW2 5583   5.095   6.350   3.535
 1562SOL     OW 5584   4.458   6.091   2.197
 1562SOL    HW1 5585   4.485   6.185   2.221
 1562SOL    HW2 5586   4.541   6.036   2.182
 1563SOL     OW 5587   3.050   0.450   5.532
 1563SOL    HW1 5588   3.144   0.416   5.542
 1563SOL    HW2 5589   3.049   0.525   5.465
 1564SOL     OW 5590   1.347   0.614   3.171
 1564SOL    HW1 5591   1.344   0.529   3.223
 1564SOL    HW2 5592   1.268   0.619   3.110
 1565SOL     OW 5593   4.649   4.253   2.857
 1565SOL    HW1 5594   4.643   4.207   2.768
 1565SOL    HW2 5595   4.711   4.203   2.916
 1566SOL     OW 5596   6.061   3.125   3.169
 1566SOL    HW1 5597   6.058   3.216   3.210
 1566SOL    HW2 5598   5.968   3.091   3.156
 1567SOL     OW 5599   5.900   5.961   0.017
 1567SOL    HW1 5600   5.937   6.050   7.015
 1567SOL    HW2 5601   5.800   5.966   0.022
 1568SOL     OW 5602   1.465   0.541   0.459
 1568SOL    HW1 5603   1.409   0.467   0.496
 1568SOL    HW2 5604   1.513   0.510   0.377
 1569SOL     OW 5605   4.739   5.965   3.694
 1569SOL    HW1 5606   4.692   6.026   3.630
 1569SOL    HW2 5607   4.838   5.969   3.678
 1570SOL     OW 5608   2.764   1.146   1.204
 1570SOL    HW1 5609   2.709   1.085   1.261
 1570SOL    HW2 5610   2.856   1.109   1.195
 1571SOL     OW 5611   5.949   3.356   0.881
 1571SOL    HW1 5612   5.881   3.417   0.842
 1571SOL    HW2 5613   5.924   3.261   0.861
 1572SOL     OW 5614   0.245   0.609   2.995
 1572SOL    HW1 5615   0.181   0.624   3.070
 1572SOL    HW2 5616   0.278   0.515   2.996
 1573SOL     OW 5617   5.159   0.743   1.784
 1573SOL    HW1 5618   5.099   0.672   1.746
 1573SOL    HW2 5619   5.129   0.833   1.751
 1574SOL     OW 5620   0.419   2.219   1.396
 1574SOL    HW1 5621   0.365   2.150   1.444
 1574SOL    HW2 5622   0.515   2.189   1.392
 1575SOL     OW 5623   2.776   2.056   0.454
 1575SOL    HW1 5624   2.681   2.027   0.443
 1575SOL    HW2 5625   2.786   2.151   0.423
 1576SOL     OW 5626   5.861   5.796   4.426
 1576SOL    HW1 5627   5.869   5.858   4.348
 1576SOL    HW2 5628   5.916   5.714   4.409
 1577SOL     OW 5629   2.559   1.705   4.992
 1577SOL    HW1 5630   2.654   1.726   4.969
 1577SOL    HW2 5631   2.505   1.701   4.908
 1578SOL     OW 5632   5.662   3.424   5.551
 1578SOL    HW1 5633   5.598   3.494   5.521
 1578SOL    HW2 5634   5.626   3.333   5.527
 1579SOL     OW 5635   0.323   1.487   3.596
 1579SOL    HW1 5636   0.316   1.503   3.694
 1579SOL    HW2 5637   0.233   1.500   3.553
 1580SOL     OW 5638   2.668   3.981   5.283
 1580SOL    HW1 5639   2.711   3.947   5.199
 1580SOL    HW2 5640   2.572   4.003   5.265
 1581SOL     OW 5641   6.422   4.710   4.102
 1581SOL    HW1 5642   6.494   4.762   4.149
 1581SOL    HW2 5643   6.414   4.620   4.144
 1582SOL     OW 5644   0.971   5.064   4.488
 1582SOL    HW1 5645   0.999   5.036   4.396
 1582SOL    HW2 5646   1.052   5.092   4.540
 1583SOL     OW 5647   1.848   2.611   4.097
 1583SOL    HW1 5648   1.888   2.673   4.030
 1583SOL    HW2 5649   1.856   2.651   4.188
 1584SOL     OW 5650   2.206   6.792   5.310
 1584SOL    HW1 5651   2.121   6.778   5.258
 1584SOL    HW2 5652   2.201   6.741   5.396
 1585SOL     OW 5653   5.314   2.035   3.246
 1585SOL    HW1 5654   5.365   2.006   3.165
 1585SOL    HW2 5655   5.307   1.959   3.310
 1586SOL     OW 5656   4.087   3.815   2.042
 1586SOL    HW1 5657   4.073   3.888   1.975
 1586SOL    HW2 5658   4.182   3.815   2.071
 1587SOL     OW 5659   2.787   5.230   6.238
 1587SOL    HW1 5660   2.886   5.224   6.227
 1587SOL    HW2 5661   2.760   5.188   6.324
 1588SOL     OW 5662   4.697   1.757   3.186
 1588SOL    HW1 5663   4.795   1.772   3.179
 1588SOL    HW2 5664   4.656   1.826   3.245
 1589SOL     OW 5665   5.748   3.543   3.601
 1589SOL    HW1 5666   5.664   3.598   3.608
 1589SOL    HW2 5667   5.786   3.552   3.509
 1590SOL     OW 5668   1.543   6.324   6.705
 1590SOL    HW1 5669   1.506   6.355   6.792
 1590SOL    HW2 5670   1.614   6.255   6.721
 1591SOL     OW 5671   0.765   4.768   2.556
 1591SOL    HW1 5672   0.845   4.748   2.612
 1591SOL    HW2 5673   0.694   4.700   2.573
 1592SOL     OW 5674   2.982   3.497   1.214
 1592SOL    HW1 5675   2.913   3.444   1.263
 1592SOL    HW2 5676   2.938   3.552   1.144
 1593SOL     OW 5677   0.881   6.179   5.249
 1593SOL    HW1 5678   0.878   6.262   5.305
 1593SOL    HW2 5679   0.911   6.102   5.306
 1594SOL     OW 5680   0.392   5.478   3.191
 1594SOL    HW1 5681   0.417   5.395   3.141
 1594SOL    HW2 5682   0.296   5.500   3.174
 1595SOL     OW 5683   0.241   4.721   6.547
 1595SOL    HW1 5684   0.163   4.751   6.492
 1595SOL    HW2 5685   0.208   4.686   6.634
 1596SOL     OW 5686   1.488   4.178   5.124
 1596SOL    HW1 5687   1.486   4.087   5.083
 1596SOL    HW2 5688   1.567   4.187   5.184
 1597SOL     OW 5689   2.647   5.931   0.771
 1597SOL    HW1 5690   2.551   5.958   0.776
 1597SOL    HW2 5691   2.687   5.931   0.862
 1598SOL     OW 5692   0.683   3.811   0.707
 1598SOL    HW1 5693   0.638   3.723   0.689
 1598SOL    HW2 5694   0.635   3.884   0.659
 1599SOL     OW 5695   4.356   3.880   6.171
 1599SOL    HW1 5696   4.315   3.963   6.133
 1599SOL    HW2 5697   4.283   3.818   6.200
 1600SOL     OW 5698   5.363   1.596   4.955
 1600SOL    HW1 5699   5.296   1.663   4.986
 1600SOL    HW2 5700   5.316   1.511   4.929
 1601SOL     OW 5701   2.124   4.766   4.603
 1601SOL    HW1 5702   2.163   4.680   4.634
 1601SOL    HW2 5703   2.035   4.749   4.561
 1602SOL     OW 5704   1.705   5.909   3.380
 1602SOL    HW1 5705   1.628   5.898   3.317
 1602SOL    HW2 5706   1.779   5.847   3.352
 1603SOL     OW 5707   1.389   6.695   1.887
 1603SOL    HW1 5708   1.340   6.699   1.800
 1603SOL    HW2 5709   1.323   6.699   1.962
 1604SOL     OW 5710   5.646   5.196   6.370
 1604SOL    HW1 5711   5.547   5.186   6.378
 1604SOL    HW2 5712   5.684   5.117   6.321
 1605SOL     OW 5713   6.708   0.236   2.485
 1605SOL    HW1 5714   6.737   0.332   2.483
 1605SOL    HW2 5715   6.786   0.178   2.506
 1606SOL     OW 5716   4.433   0.448   5.512
 1606SOL    HW1 5717   4.432   0.491   5.421
 1606SOL    HW2 5718   4.340   0.420   5.536
 1607SOL     OW 5719   4.719   2.595   0.960
 1607SOL    HW1 5720   4.627   2.570   0.992
 1607SOL    HW2 5721   4.785   2.578   1.033
 1608SOL     OW 5722   1.871   7.000   6.444
 1608SOL    HW1 5723   1.952   6.948   6.471
 1608SOL    HW2 5724   1.805   6.939   6.401
 1609SOL     OW 5725   6.271   2.414   6.133
 1609SOL    HW1 5726   6.239   2.343   6.071
 1609SOL    HW2 5727   6.211   2.418   6.213
 1610SOL     OW 5728   5.726   4.586   4.747
 1610SOL    HW1 5729   5.640   4.564   4.701
 1610SOL    HW2 5730   5.708   4.629   4.835
 1611SOL     OW 5731   3.471   3.099   2.054
 1611SOL    HW1 5732   3.479   3.009   2.095
 1611SOL    HW2 5733   3.436   3.090   1.960
 1612SOL     OW 5734   2.260   1.709   5.332
 1612SOL    HW1 5735   2.305   1.783   5.280
 1612SOL    HW2 5736   2.239   1.633   5.270
 1613SOL     OW 5737   2.142   6.147   0.900
 1613SOL    HW1 5738   2.171   6.178   0.810
 1613SOL    HW2 5739   2.172   6.212   0.970
 1614SOL     OW 5740   6.767   3.233   0.100
 1614SOL    HW1 5741   6.804   3.248   0.008
 1614SOL    HW2 5742   6.696   3.301   0.119
 1615SOL     OW 5743   6.960   4.737   0.295
 1615SOL    HW1 5744   6.926   4.717   0.203
 1615SOL    HW2 5745   0.018   4.683   0.313
 1616SOL     OW 5746   4.382   2.059   6.604
 1616SOL    HW1 5747   4.429   2.148   6.610
 1616SOL    HW2 5748   4.389   2.013   6.692
 1617SOL     OW 5749   6.364   0.449   2.403
 1617SOL    HW1 5750   6.280   0.491   2.368
 1617SOL    HW2 5751   6.375   0.358   2.363
 1618SOL     OW 5752   0.150   3.746   1.832
 1618SOL    HW1 5753   0.055   3.763   1.860
 1618SOL    HW2 5754   0.212   3.770   1.906
 1619SOL     OW 5755   1.014   3.409   4.334
 1619SOL    HW1 5756   1.031   3.347   4.258
 1619SOL    HW2 5757   1.095   3.411   4.393
 1620SOL     OW 5758   1.888   5.945   0.903
 1620SOL    HW1 5759   1.927   5.864   0.948
 1620SOL    HW2 5760   1.961   6.010   0.883
 1621SOL     OW 5761   0.802   0.545   6.597
 1621SOL    HW1 5762   0.785   0.562   6.694
 1621SOL    HW2 5763   0.716   0.548   6.546
 1622SOL     OW 5764   1.586   1.836   4.579
 1622SOL    HW1 5765   1.630   1.855   4.667
 1622SOL    HW2 5766   1.508   1.896   4.567
 1623SOL     OW 5767   2.490   3.023   6.277
 1623SOL    HW1 5768   2.479   2.932   6.238
 1623SOL    HW2 5769   2.534   3.016   6.367
 1624SOL     OW 5770   2.771   0.774   6.348
 1624SOL    HW1 5771   2.690   0.805   6.398
 1624SOL    HW2 5772   2.746   0.752   6.254
 1625SOL     OW 5773   1.254   5.189   1.767
 1625SOL    HW1 5774   1.329   5.213   1.705
 1625SOL    HW2 5775   1.290   5.136   1.844
 1626SOL     OW 5776   2.250   2.574   7.007
 1626SOL    HW1 5777   2.322   2.538   0.041
 1626SOL    HW2 5778   2.192   2.635   0.035
 1627SOL     OW 5779   6.402   1.785   4.158
 1627SOL    HW1 5780   6.353   1.868   4.128
 1627SOL    HW2 5781   6.501   1.802   4.153
 1628SOL     OW 5782   3.281   4.960   0.508
 1628SOL    HW1 5783   3.312   4.944   0.414
 1628SOL    HW2 5784   3.244   4.875   0.545
 1629SOL     OW 5785   3.151   2.137   4.520
 1629SOL    HW1 5786   3.131   2.147   4.423
 1629SOL    HW2 5787   3.240   2.093   4.531
 1630SOL     OW 5788   0.597   5.827   5.241
 1630SOL    HW1 5789   0.691   5.860   5.251
 1630SOL    HW2 5790   0.597   5.735   5.202
 1631SOL     OW 5791   6.694   0.456   5.812
 1631SOL    HW1 5792   6.689   0.495   5.720
 1631SOL    HW2 5793   6.789   0.456   5.844
 1632SOL     OW 5794   0.747   1.080   6.722
 1632SOL    HW1 5795   0.787   1.064   6.632
 1632SOL    HW2 5796   0.814   1.123   6.782
 1633SOL     OW 5797   5.698   2.599   2.675
 1633SOL    HW1 5798   5.638   2.661   2.726
 1633SOL    HW2 5799   5.703   2.630   2.580
 1634SOL     OW 5800   3.847   5.406   6.475
 1634SOL    HW1 5801   3.749   5.421   6.463
 1634SOL    HW2 5802   3.895   5.494   6.472
 1635SOL     OW 5803   6.560   5.609   5.110
 1635SOL    HW1 5804   6.461   5.624   5.103
 1635SOL    HW2 5805   6.599   5.675   5.174
 1636SOL     OW 5806   2.589   5.136   1.717
 1636SOL    HW1 5807   2.508   5.163   1.770
 1636SOL    HW2 5808   2.613   5.041   1.739
 1637SOL     OW 5809   6.996   2.366   2.885
 1637SOL    HW1 5810   6.898   2.377   2.901
 1637SOL    HW2 5811   0.011   2.452   2.852
 1638SOL     OW 5812   6.884   3.084   4.001
 1638SOL    HW1 5813   6.856   3.166   4.051
 1638SOL    HW2 5814   6.910   3.108   3.908
 1639SOL     OW 5815   5.581   5.715   2.740
 1639SOL    HW1 5816   5.615   5.621   2.736
 1639SOL    HW2 5817   5.565   5.740   2.836
 1640SOL     OW 5818   6.051   1.863   0.534
 1640SOL    HW1 5819   6.065   1.889   0.438
 1640SOL    HW2 5820   5.955   1.838   0.548
 1641SOL     OW 5821   5.494   2.963   3.652
 1641SOL    HW1 5822   5.479   2.867   3.629
 1641SOL    HW2 5823   5.440   3.021   3.592
 1642SOL     OW 5824   6.876   3.360   0.319
 1642SOL    HW1 5825   6.877   3.452   0.279
 1642SOL    HW2 5826   6.867   3.292   0.246
 1643SOL     OW 5827   3.878   6.681   5.099
 1643SOL    HW1 5828   3.929   6.687   5.186
 1643SOL    HW2 5829   3.915   6.605   5.045
 1644SOL     OW 5830   3.195   1.992   1.643
 1644SOL    HW1 5831   3.212   1.975   1.546
 1644SOL    HW2 5832   3.275   2.036   1.683
 1645SOL     OW 5833   2.992   6.125   5.889
 1645SOL    HW1 5834   2.928   6.165   5.955
 1645SOL    HW2 5835   2.994   6.181   5.806
 1646SOL     OW 5836   2.946   5.220   1.240
 1646SOL    HW1 5837   2.894   5.212   1.155
 1646SOL    HW2 5838   2.913   5.299   1.292
 1647SOL     OW 5839   6.022   2.737   3.236
 1647SOL    HW1 5840   6.022   2.814   3.300
 1647SOL    HW2 5841   6.104   2.682   3.250
 1648SOL     OW 5842   5.464   7.015   2.055
 1648SOL    HW1 5843   5.500   6.947   2.119
 1648SOL    HW2 5844   5.473   6.981   1.962
 1649SOL     OW 5845   2.757   0.650   2.961
 1649SOL    HW1 5846   2.808   0.647   3.047
 1649SOL    HW2 5847   2.814   0.613   2.887
 1650SOL     OW 5848   2.945   0.014   4.069
 1650SOL    HW1 5849   2.996   6.980   4.005
 1650SOL    HW2 5850   2.894   6.980   4.132
 1651SOL     OW 5851   0.614   0.204   0.399
 1651SOL    HW1 5852   0.574   0.255   0.323
 1651SOL    HW2 5853   0.657   0.121   0.363
 1652SOL     OW 5854   2.878   2.004   0.911
 1652SOL    HW1 5855   2.842   2.092   0.879
 1652SOL    HW2 5856   2.971   2.017   0.945
 1653SOL     OW 5857   0.109   5.232   1.103
 1653SOL    HW1 5858   0.124   5.327   1.131
 1653SOL    HW2 5859   0.164   5.171   1.160
 1654SOL     OW 5860   6.567   3.094   2.610
 1654SOL    HW1 5861   6.540   3.124   2.702
 1654SOL    HW2 5862   6.485   3.078   2.555
 1655SOL     OW 5863   5.423   4.559   6.230
 1655SOL    HW1 5864   5.425   4.539   6.328
 1655SOL    HW2 5865   5.492   4.628   6.209
 1656SOL     OW 5866   1.570   4.449   3.558
 1656SOL    HW1 5867   1.559   4.418   3.463
 1656SOL    HW2 5868   1.506   4.524   3.575
 1657SOL     OW 5869   1.181   1.232   5.676
 1657SOL    HW1 5870   1.134   1.144   5.662
 1657SOL    HW2 5871   1.179   1.256   5.773
 1658SOL     OW 5872   5.910   6.371   3.130
 1658SOL    HW1 5873   5.960   6.340   3.049
 1658SOL    HW2 5874   5.897   6.293   3.192
 1659SOL     OW 5875   3.395   2.132   6.902
 1659SOL    HW1 5876   3.480   2.185   6.908
 1659SOL    HW2 5877   3.380   2.083   6.988
 1660SOL     OW 5878   0.628   5.281   3.712
 1660SOL    HW1 5879   0.677   5.284   3.799
 1660SOL    HW2 5880   0.693   5.268   3.638
 1661SOL     OW 5881   3.391   1.808   2.543
 1661SOL    HW1 5882   3.442   1.801   2.629
 1661SOL    HW2 5883   3.297   1.837   2.562
 1662SOL     OW 5884   6.311   2.018   3.272
 1662SOL    HW1 5885   6.247   2.087   3.303
 1662SOL    HW2 5886   6.295   1.997   3.175
 1663SOL     OW 5887   3.023   0.160   3.392
 1663SOL    HW1 5888   3.106   0.186   3.342
 1663SOL    HW2 5889   2.954   0.232   3.382
 1664SOL     OW 5890   2.112   0.505   4.259
 1664SOL    HW1 5891   2.159   0.585   4.222
 1664SOL    HW2 5892   2.120   0.428   4.195
 1665SOL     OW 5893   0.133   1.468   2.575
 1665SOL    HW1 5894   0.044   1.433   2.544
 1665SOL    HW2 5895   0.204   1.438   2.512
 1666SOL     OW 5896   5.920   2.930   6.587
 1666SOL    HW1 5897   5.913   2.865   6.663
 1666SOL    HW2 5898   5.994   2.901   6.526
 1667SOL     OW 5899   5.885   6.700   6.966
 1667SOL    HW1 5900   5.955   6.632   6.943
 1667SOL    HW2 5901   5.914   6.790   6.934
 1668SOL     OW 5902   4.630   0.017   5.090
 1668SOL    HW1 5903   4.632   6.989   5.005
 1668SOL    HW2 5904   4.562   7.001   5.152
 1669SOL     OW 5905   5.455   6.091   0.195
 1669SOL    HW1 5906   5.490   6.177   0.232
 1669SOL    HW2 5907   5.448   6.099   0.095
 1670SOL     OW 5908   6.248   5.375   5.789
 1670SOL    HW1 5909   6.170   5.417   5.834
 1670SOL    HW2 5910   6.309   5.335   5.858
 1671SOL     OW 5911   4.491   2.869   1.004
 1671SOL    HW1 5912   4.432   2.788   1.004
 1671SOL    HW2 5913   4.563   2.857   1.072
 1672SOL     OW 5914   1.964   4.319   2.653
 1672SOL    HW1 5915   1.987   4.290   2.746
 1672SOL    HW2 5916   2.038   4.293   2.591
 1673SOL     OW 5917   6.186   2.923   5.104
 1673SOL    HW1 5918   6.238   2.908   5.188
 1673SOL    HW2 5919   6.097   2.964   5.127
 1674SOL     OW 5920   1.406   4.097   0.598
 1674SOL    HW1 5921   1.471   4.149   0.653
 1674SOL    HW2 5922   1.420   3.999   0.615
 1675SOL     OW 5923   4.348   0.998   6.450
 1675SOL    HW1 5924   4.392   0.926   6.396
 1675SOL    HW2 5925   4.254   0.971   6.470
 1676SOL     OW 5926   2.487   1.688   2.252
 1676SOL    HW1 5927   2.492   1.637   2.167
 1676SOL    HW2 5928   2.428   1.767   2.240
 1677SOL     OW 5929   5.953   2.170   5.962
 1677SOL    HW1 5930   5.978   2.187   6.057
 1677SOL    HW2 5931   5.882   2.235   5.934
 1678SOL     OW 5932   5.442   5.789   2.971
 1678SOL    HW1 5933   5.475   5.802   3.064
 1678SOL    HW2 5934   5.456   5.873   2.918
 1679SOL     OW 5935   1.335   3.541   5.394
 1679SOL    HW1 5936   1.422   3.516   5.352
 1679SOL    HW2 5937   1.351   3.610   5.465
 1680SOL     OW 5938   0.928   1.571   4.130
 1680SOL    HW1 5939   0.874   1.570   4.213
 1680SOL    HW2 5940   0.881   1.517   4.059
 1681SOL     OW 5941   6.474   5.150   1.130
 1681SOL    HW1 5942   6.431   5.173   1.217
 1681SOL    HW2 5943   6.508   5.234   1.087
 1682SOL     OW 5944   0.021   3.140   4.933
 1682SOL    HW1 5945   6.987   3.064   4.904
 1682SOL    HW2 5946   0.109   3.134   4.887
 1683SOL     OW 5947   4.361   5.023   0.945
 1683SOL    HW1 5948   4.394   5.054   0.856
 1683SOL    HW2 5949   4.307   5.097   0.987
 1684SOL     OW 5950   0.815   6.588   4.716
 1684SOL    HW1 5951   0.762   6.659   4.761
 1684SOL    HW2 5952   0.778   6.498   4.741
 1685SOL     OW 5953   1.836   1.361   6.647
 1685SOL    HW1 5954   1.909   1.419   6.685
 1685SOL    HW2 5955   1.829   1.377   6.549
 1686SOL     OW 5956   1.308   5.492   5.360
 1686SOL    HW1 5957   1.313   5.590   5.379
 1686SOL    HW2 5958   1.364   5.470   5.281
 1687SOL     OW 5959   1.651   4.443   1.858
 1687SOL    HW1 5960   1.693   4.407   1.775
 1687SOL    HW2 5961   1.722   4.459   1.927
 1688SOL     OW 5962   1.384   1.479   3.164
 1688SOL    HW1 5963   1.434   1.476   3.078
 1688SOL    HW2 5964   1.443   1.446   3.238
 1689SOL     OW 5965   3.292   2.081   1.991
 1689SOL    HW1 5966   3.389   2.102   1.979
 1689SOL    HW2 5967   3.241   2.110   1.910
 1690SOL     OW 5968   1.663   1.733   2.353
 1690SOL    HW1 5969   1.602   1.780   2.417
 1690SOL    HW2 5970   1.757   1.762   2.369
 1691SOL     OW 5971   5.343   3.661   3.373
 1691SOL    HW1 5972   5.342   3.589   3.303
 1691SOL    HW2 5973   5.337   3.750   3.329
 1692SOL     OW 5974   0.070   6.885   1.259
 1692SOL    HW1 5975   0.165   6.911   1.238
 1692SOL    HW2 5976   0.037   6.938   1.337
 1693SOL     OW 5977   1.930   2.574   3.655
 1693SOL    HW1 5978   1.859   2.509   3.629
 1693SOL    HW2 5979   2.018   2.527   3.660
 1694SOL     OW 5980   4.258   5.763   4.836
 1694SOL    HW1 5981   4.200   5.843   4.822
 1694SOL    HW2 5982   4.256   5.737   4.933
 1695SOL     OW 5983   2.075   2.259   5.375
 1695SOL    HW1 5984   1.984   2.291   5.352
 1695SOL    HW2 5985   2.119   2.324   5.436
 1696SOL     OW 5986   4.979   5.620   0.208
 1696SOL    HW1 5987   5.036   5.567   0.145
 1696SOL    HW2 5988   5.034   5.649   0.286
 1697SOL     OW 5989   0.925   6.740   1.130
 1697SOL    HW1 5990   0.984   6.814   1.099
 1697SOL    HW2 5991   0.973   6.686   1.199
 1698SOL     OW 5992   4.937   1.789   1.104
 1698SOL    HW1 5993   4.911   1.846   1.183
 1698SOL    HW2 5994   4.917   1.839   1.020
 1699SOL     OW 5995   2.539   2.921   1.226
 1699SOL    HW1 5996   2.593   2.900   1.307
 1699SOL    HW2 5997   2.561   2.856   1.153
 1700SOL     OW 5998   6.366   2.326   3.425
 1700SOL    HW1 5999   6.276   2.303   3.388
 1700SOL    HW2 6000   6.377   2.280   3.514
 1701SOL     OW 6001   5.522   2.231   4.804
 1701SOL    HW1 6002   5.518   2.200   4.900
 1701SOL    HW2 6003   5.582   2.170   4.752
 1702SOL     OW 6004   6.278   3.527   1.532
 1702SOL    HW1 6005   6.302   3.539   1.628
 1702SOL    HW2 6006   6.348   3.569   1.474
 1703SOL     OW 6007   3.035   3.785   1.520
 1703SOL    HW1 6008   3.119   3.741   1.490
 1703SOL    HW2 6009   2.963   3.717   1.531
 1704SOL     OW 6010   0.791   1.309   0.908
 1704SOL    HW1 6011   0.801   1.319   0.809
 1704SOL    HW2 6012   0.817   1.394   0.953
 1705SOL     OW 6013   3.709   2.386   1.442
 1705SOL    HW1 6014   3.741   2.480   1.430
 1705SOL    HW2 6015   3.714   2.338   1.355
 1706SOL     OW 6016   4.189   0.515   0.716
 1706SOL    HW1 6017   4.236   0.548   0.633
 1706SOL    HW2 6018   4.127   0.586   0.748
 1707SOL     OW 6019   4.588   1.661   2.573
 1707SOL    HW1 6020   4.660   1.684   2.638
 1707SOL    HW2 6021   4.585   1.730   2.501
 1708SOL     OW 6022   6.636   6.269   2.985
 1708SOL    HW1 6023   6.705   6.303   2.921
 1708SOL    HW2 6024   6.545   6.283   2.947
 1709SOL     OW 6025   2.465   6.902   2.522
 1709SOL    HW1 6026   2.503   6.976   2.466
 1709SOL    HW2 6027   2.400   6.941   2.588
 1710SOL     OW 6028   0.160   4.284   3.553
 1710SOL    HW1 6029   0.098   4.234   3.493
 1710SOL    HW2 6030   0.209   4.353   3.499
 1711SOL     OW 6031   1.338   4.472   5.143
 1711SOL    HW1 6032   1.261   4.426   5.099
 1711SOL    HW2 6033   1.415   4.477   5.079
 1712SOL     OW 6034   0.572   4.210   0.274
 1712SOL    HW1 6035   0.579   4.280   0.203
 1712SOL    HW2 6036   0.647   4.220   0.339
 1713SOL     OW 6037   2.139   2.501   1.744
 1713SOL    HW1 6038   2.112   2.586   1.699
 1713SOL    HW2 6039   2.110   2.423   1.689
 1714SOL     OW 6040   3.748   1.872   6.855
 1714SOL    HW1 6041   3.826   1.855   6.915
 1714SOL    HW2 6042   3.685   1.794   6.860
 1715SOL     OW 6043   7.023   3.085   3.505
 1715SOL    HW1 6044   6.924   3.091   3.492
 1715SOL    HW2 6045   0.018   3.063   3.601
 1716SOL     OW 6046   6.175   0.416   1.301
 1716SOL    HW1 6047   6.145   0.479   1.373
 1716SOL    HW2 6048   6.118   0.429   1.220
 1717SOL     OW 6049   2.282   6.155   0.056
 1717SOL    HW1 6050   2.245   6.216   0.126
 1717SOL    HW2 6051   2.377   6.132   0.079
 1718SOL     OW 6052   2.088   3.443   0.018
 1718SOL    HW1 6053   2.061   3.382   0.093
 1718SOL    HW2 6054   2.032   3.425   6.962
 1719SOL     OW 6055   2.094   3.076   1.330
 1719SOL    HW1 6056   2.073   3.038   1.240
 1719SOL    HW2 6057   2.155   3.154   1.320
 1720SOL     OW 6058   6.669   1.837   0.876
 1720SOL    HW1 6059   6.592   1.779   0.851
 1720SOL    HW2 6060   6.726   1.853   0.796
 1721SOL     OW 6061   1.361   6.201   2.847
 1721SOL    HW1 6062   1.413   6.245   2.921
 1721SOL    HW2 6063   1.412   6.210   2.762
 1722SOL     OW 6064   5.858   0.192   2.599
 1722SOL    HW1 6065   5.816   0.127   2.662
 1722SOL    HW2 6066   5.802   0.274   2.593
 1723SOL     OW 6067   6.274   2.501   2.891
 1723SOL    HW1 6068   6.262   2.411   2.933
 1723SOL    HW2 6069   6.197   2.559   2.914
 1724SOL     OW 6070   6.022   0.746   0.276
 1724SOL    HW1 6071   6.059   0.839   0.269
 1724SOL    HW2 6072   5.936   0.740   0.226
 1725SOL     OW 6073   3.560   4.415   0.255
 1725SOL    HW1 6074   3.591   4.361   0.332
 1725SOL    HW2 6075   3.638   4.443   0.199
 1726SOL     OW 6076   6.748   4.659   4.691
 1726SOL    HW1 6077   6.787   4.629   4.604
 1726SOL    HW2 6078   6.707   4.749   4.679
 1727SOL     OW 6079   3.863   3.854   4.629
 1727SOL    HW1 6080   3.846   3.768   4.677
 1727SOL    HW2 6081   3.951   3.850   4.582
 1728SOL     OW 6082   4.997   4.568   4.473
 1728SOL    HW1 6083   5.032   4.511   4.547
 1728SOL    HW2 6084   5.054   4.557   4.392
 1729SOL     OW 6085   1.738   3.821   3.316
 1729SOL    HW1 6086   1.685   3.742   3.284
 1729SOL    HW2 6087   1.682   3.904   3.307
 1730SOL     OW 6088   6.783   1.491   4.788
 1730SOL    HW1 6089   6.699   1.475   4.735
 1730SOL    HW2 6090   6.860   1.449   4.741
 1731SOL     OW 6091   2.072   4.947   2.022
 1731SOL    HW1 6092   2.151   4.887   2.023
 1731SOL    HW2 6093   2.027   4.941   1.933
 1732SOL     OW 6094   2.237   4.807   0.181
 1732SOL    HW1 6095   2.291   4.774   0.258
 1732SOL    HW2 6096   2.284   4.787   0.095
 1733SOL     OW 6097   1.097   3.895   2.226
 1733SOL    HW1 6098   1.043   3.929   2.149
 1733SOL    HW2 6099   1.181   3.949   2.234
 1734SOL     OW 6100   4.439   2.779   1.329
 1734SOL    HW1 6101   4.423   2.871   1.294
 1734SOL    HW2 6102   4.418   2.776   1.427
 1735SOL     OW 6103   5.951   5.985   1.570
 1735SOL    HW1 6104   6.049   6.002   1.562
 1735SOL    HW2 6105   5.934   5.912   1.636
 1736SOL     OW 6106   4.888   2.836   6.906
 1736SOL    HW1 6107   4.860   2.914   6.961
 1736SOL    HW2 6108   4.940   2.772   6.963
 1737SOL     OW 6109   2.396   6.976   3.790
 1737SOL    HW1 6110   2.434   6.934   3.873
 1737SOL    HW2 6111   2.469   6.986   3.722
 1738SOL     OW 6112   2.028   2.718   2.882
 1738SOL    HW1 6113   1.964   2.668   2.824
 1738SOL    HW2 6114   2.115   2.728   2.834
 1739SOL     OW 6115   4.373   2.186   4.955
 1739SOL    HW1 6116   4.454   2.210   5.009
 1739SOL    HW2 6117   4.317   2.267   4.941
 1740SOL     OW 6118   6.888   1.047   6.572
 1740SOL    HW1 6119   6.900   1.146   6.579
 1740SOL    HW2 6120   6.878   1.021   6.476
 1741SOL     OW 6121   2.142   0.750   2.760
 1741SOL    HW1 6122   2.205   0.705   2.822
 1741SOL    HW2 6123   2.118   0.840   2.796
 1742SOL     OW 6124   4.900   6.797   5.928
 1742SOL    HW1 6125   4.973   6.865   5.918
 1742SOL    HW2 6126   4.835   6.806   5.853
 1743SOL     OW 6127   2.174   0.943   2.037
 1743SOL    HW1 6128   2.269   0.928   2.010
 1743SOL    HW2 6129   2.172   0.992   2.124
 1744SOL     OW 6130   2.166   0.513   1.349
 1744SOL    HW1 6131   2.105   0.494   1.426
 1744SOL    HW2 6132   2.163   0.611   1.328
 1745SOL     OW 6133   6.586   1.558   4.038
 1745SOL    HW1 6134   6.616   1.562   4.133
 1745SOL    HW2 6135   6.498   1.605   4.029
 1746SOL     OW 6136   3.027   5.834   6.084
 1746SOL    HW1 6137   3.095   5.907   6.086
 1746SOL    HW2 6138   3.066   5.753   6.040
 1747SOL     OW 6139   4.981   0.003   1.940
 1747SOL    HW1 6140   5.006   0.057   1.860
 1747SOL    HW2 6141   4.914   0.054   1.994
 1748SOL     OW 6142   6.024   1.709   3.911
 1748SOL    HW1 6143   5.936   1.740   3.877
 1748SOL    HW2 6144   6.096   1.737   3.848
 1749SOL     OW 6145   3.849   0.004   6.527
 1749SOL    HW1 6146   3.828   6.930   6.530
 1749SOL    HW2 6147   3.940   0.020   6.565
 1750SOL     OW 6148   5.433   1.323   2.838
 1750SOL    HW1 6149   5.483   1.327   2.751
 1750SOL    HW2 6150   5.497   1.304   2.912
 1751SOL     OW 6151   2.596   4.754   4.897
 1751SOL    HW1 6152   2.521   4.688   4.891
 1751SOL    HW2 6153   2.662   4.724   4.966
 1752SOL     OW 6154   6.504   2.083   0.826
 1752SOL    HW1 6155   6.583   2.024   0.812
 1752SOL    HW2 6156   6.423   2.042   0.784
 1753SOL     OW 6157   0.756   0.262   0.019
 1753SOL    HW1 6158   0.823   0.231   0.087
 1753SOL    HW2 6159   0.803   0.274   6.955
 1754SOL     OW 6160   3.428   3.832   0.463
 1754SOL    HW1 6161   3.499   3.883   0.414
 1754SOL    HW2 6162   3.428   3.858   0.559
 1755SOL     OW 6163   5.308   4.470   1.605
 1755SOL    HW1 6164   5.215   4.482   1.640
 1755SOL    HW2 6165   5.369   4.534   1.651
 1756SOL     OW 6166   6.200   4.976   4.568
 1756SOL    HW1 6167   6.176   4.926   4.485
 1756SOL    HW2 6168   6.206   4.911   4.644
 1757SOL     OW 6169   1.889   6.720   4.955
 1757SOL    HW1 6170   1.913   6.719   5.052
 1757SOL    HW2 6171   1.972   6.721   4.900
 1758SOL     OW 6172   3.222   1.320   3.051
 1758SOL    HW1 6173   3.234   1.324   3.150
 1758SOL    HW2 6174   3.251   1.407   3.010
 1759SOL     OW 6175   0.311   4.534   6.347
 1759SOL    HW1 6176   0.406   4.526   6.317
 1759SOL    HW2 6177   0.301   4.614   6.406
 1760SOL     OW 6178   6.224   1.743   1.423
 1760SOL    HW1 6179   6.185   1.654   1.399
 1760SOL    HW2 6180   6.231   1.800   1.341
 1761SOL     OW 6181   6.818   0.847   0.722
 1761SOL    HW1 6182   6.723   0.820   0.704
 1761SOL    HW2 6183   6.845   0.815   0.813
 1762SOL     OW 6184   6.201   2.092   5.310
 1762SOL    HW1 6185   6.262   2.027   5.265
 1762SOL    HW2 6186   6.227   2.185   5.284
 1763SOL     OW 6187   2.111   3.950   4.304
 1763SOL    HW1 6188   2.119   3.854   4.275
 1763SOL    HW2 6189   2.022   3.986   4.276
 1764SOL     OW 6190   2.225   4.015   2.718
 1764SOL    HW1 6191   2.324   4.029   2.720
 1764SOL    HW2 6192   2.206   3.918   2.704
 1765SOL     OW 6193   3.158   1.119   6.845
 1765SOL    HW1 6194   3.158   1.182   6.923
 1765SOL    HW2 6195   3.154   1.172   6.760
 1766SOL     OW 6196   5.768   2.684   4.643
 1766SOL    HW1 6197   5.713   2.655   4.722
 1766SOL    HW2 6198   5.819   2.606   4.608
 1767SOL     OW 6199   5.105   4.006   2.758
 1767SOL    HW1 6200   5.130   4.063   2.680
 1767SOL    HW2 6201   5.151   3.918   2.751
 1768SOL     OW 6202   4.413   0.167   4.833
 1768SOL    HW1 6203   4.489   0.219   4.871
 1768SOL    HW2 6204   4.385   0.097   4.899
 1769SOL     OW 6205   3.979   2.052   4.345
 1769SOL    HW1 6206   4.044   1.976   4.353
 1769SOL    HW2 6207   4.003   2.124   4.411
 1770SOL     OW 6208   1.546   5.580   4.553
 1770SOL    HW1 6209   1.603   5.657   4.583
 1770SOL    HW2 6210   1.472   5.565   4.617
 1771SOL     OW 6211   2.671   5.858   7.010
 1771SOL    HW1 6212   2.593   5.812   6.967
 1771SOL    HW2 6213   2.741   5.877   6.940
 1772SOL     OW 6214   3.584   0.259   4.038
 1772SOL    HW1 6215   3.597   0.356   4.019
 1772SOL    HW2 6216   3.673   0.213   4.040
 1773SOL     OW 6217   2.544   5.228   5.852
 1773SOL    HW1 6218   2.468   5.212   5.789
 1773SOL    HW2 6219   2.552   5.326   5.870
 1774SOL     OW 6220   4.364   5.501   1.856
 1774SOL    HW1 6221   4.458   5.536   1.863
 1774SOL    HW2 6222   4.315   5.517   1.942
 1775SOL     OW 6223   1.410   3.854   2.868
 1775SOL    HW1 6224   1.424   3.771   2.922
 1775SOL    HW2 6225   1.483   3.863   2.801
 1776SOL     OW 6226   3.862   6.359   4.520
 1776SOL    HW1 6227   3.904   6.340   4.432
 1776SOL    HW2 6228   3.769   6.321   4.522
 1777SOL     OW 6229   3.969   5.640   6.326
 1777SOL    HW1 6230   4.008   5.668   6.239
 1777SOL    HW2 6231   3.943   5.721   6.378
 1778SOL     OW 6232   4.262   3.543   5.615
 1778SOL    HW1 6233   4.328   3.494   5.557
 1778SOL    HW2 6234   4.263   3.503   5.707
 1779SOL     OW 6235   4.431   0.334   4.598
 1779SOL    HW1 6236   4.385   0.315   4.684
 1779SOL    HW2 6237   4.519   0.286   4.595
 1780SOL     OW 6238   3.394   3.054   6.847
 1780SOL    HW1 6239   3.369   3.150   6.843
 1780SOL    HW2 6240   3.329   3.004   6.905
 1781SOL     OW 6241   3.758   6.111   2.709
 1781SOL    HW1 6242   3.686   6.164   2.754
 1781SOL    HW2 6243   3.757   6.017   2.743
 1782SOL     OW 6244   3.072   1.736   2.963
 1782SOL    HW1 6245   3.136   1.812   2.953
 1782SOL    HW2 6246   3.011   1.733   2.884
 1783SOL     OW 6247   2.137   5.884   5.761
 1783SOL    HW1 6248   2.181   5.974   5.756
 1783SOL    HW2 6249   2.152   5.844   5.851
 1784SOL     OW 6250   4.197   1.277   6.402
 1784SOL    HW1 6251   4.255   1.327   6.465
 1784SOL    HW2 6252   4.115   1.245   6.450
 1785SOL     OW 6253   6.092   3.950   2.835
 1785SOL    HW1 6254   6.130   3.858   2.823
 1785SOL    HW2 6255   6.070   3.988   2.745
 1786SOL     OW 6256   2.215   2.911   7.014
 1786SOL    HW1 6257   2.143   2.869   0.044
 1786SOL    HW2 6258   2.237   3.001   0.029
 1787SOL     OW 6259   2.459   1.453   5.055
 1787SOL    HW1 6260   2.462   1.550   5.031
 1787SOL    HW2 6261   2.495   1.440   5.147
 1788SOL     OW 6262   2.842   3.912   6.400
 1788SOL    HW1 6263   2.797   4.002   6.404
 1788SOL    HW2 6264   2.781   3.843   6.440
 1789SOL     OW 6265   5.742   1.505   2.336
 1789SOL    HW1 6266   5.779   1.442   2.403
 1789SOL    HW2 6267   5.810   1.574   2.313
 1790SOL     OW 6268   4.026   6.381   3.862
 1790SOL    HW1 6269   4.038   6.315   3.788
 1790SOL    HW2 6270   3.968   6.456   3.830
 1791SOL     OW 6271   6.325   0.499   3.571
 1791SOL    HW1 6272   6.402   0.525   3.628
 1791SOL    HW2 6273   6.321   0.559   3.491
 1792SOL     OW 6274   6.190   3.223   5.247
 1792SOL    HW1 6275   6.275   3.214   5.195
 1792SOL    HW2 6276   6.208   3.270   5.333
 1793SOL     OW 6277   5.982   6.850   3.876
 1793SOL    HW1 6278   6.058   6.867   3.939
 1793SOL    HW2 6279   5.946   6.937   3.843
 1794SOL     OW 6280   5.089   6.309   5.672
 1794SOL    HW1 6281   5.062   6.230   5.618
 1794SOL    HW2 6282   5.189   6.316   5.674
 1795SOL     OW 6283   1.037   2.283   1.347
 1795SOL    HW1 6284   1.066   2.344   1.273
 1795SOL    HW2 6285   1.005   2.338   1.424
 1796SOL     OW 6286   2.755   0.670   5.398
 1796SOL    HW1 6287   2.755   0.640   5.494
 1796SOL    HW2 6288   2.676   0.728   5.381
 1797SOL     OW 6289   1.715   0.064   0.440
 1797SOL    HW1 6290   1.635   0.116   0.412
 1797SOL    HW2 6291   1.780   0.059   0.364
 1798SOL     OW 6292   4.635   2.305   3.882
 1798SOL    HW1 6293   4.679   2.385   3.841
 1798SOL    HW2 6294   4.651   2.306   3.981
 1799SOL     OW 6295   6.947   2.739   5.425
 1799SOL    HW1 6296   6.928   2.663   5.488
 1799SOL    HW2 6297   6.983   2.817   5.477
 1800SOL     OW 6298   4.207   4.520   1.634
 1800SOL    HW1 6299   4.284   4.525   1.698
 1800SOL    HW2 6300   4.193   4.610   1.593
 1801SOL     OW 6301   0.287   0.013   1.701
 1801SOL    HW1 6302   0.275   6.945   1.665
 1801SOL    HW2 6303   0.198   0.058   1.709
 1802SOL     OW 6304   5.237   5.487   4.271
 1802SOL    HW1 6305   5.308   5.473   4.340
 1802SOL    HW2 6306   5.147   5.485   4.314
 1803SOL     OW 6307   0.119   5.340   6.577
 1803SOL    HW1 6308   0.129   5.383   6.667
 1803SOL    HW2 6309   0.167   5.394   6.508
 1804SOL     OW 6310   2.447   3.742   5.324
 1804SOL    HW1 6311   2.372   3.788   5.373
 1804SOL    HW2 6312   2.475   3.798   5.247
 1805SOL     OW 6313   5.408   4.156   6.218
 1805SOL    HW1 6314   5.450   4.123   6.302
 1805SOL    HW2 6315   5.317   4.115   6.208
 1806SOL     OW 6316   0.572   0.247   6.671
 1806SOL    HW1 6317   0.556   0.211   6.763
 1806SOL    HW2 6318   0.623   0.181   6.617
 1807SOL     OW 6319   5.103   2.740   4.735
 1807SOL    HW1 6320   5.019   2.695   4.768
 1807SOL    HW2 6321   5.091   2.768   4.640
 1808SOL     OW 6322   0.442   4.337   5.591
 1808SOL    HW1 6323   0.467   4.432   5.612
 1808SOL    HW2 6324   0.443   4.284   5.676
 1809SOL     OW 6325   2.154   2.375   4.918
 1809SOL    HW1 6326   2.225   2.326   4.968
 1809SOL    HW2 6327   2.154   2.471   4.945
 1810SOL     OW 6328   2.843   6.741   3.970
 1810SOL    HW1 6329   2.767   6.801   3.994
 1810SOL    HW2 6330   2.905   6.788   3.908
 1811SOL     OW 6331   5.657   6.134   3.127
 1811SOL    HW1 6332   5.733   6.145   3.191
 1811SOL    HW2 6333   5.571   6.132   3.179
 1812SOL     OW 6334   4.084   5.970   4.820
 1812SOL    HW1 6335   4.113   6.040   4.884
 1812SOL    HW2 6336   3.996   5.933   4.848
 1813SOL     OW 6337   6.240   4.127   0.793
 1813SOL    HW1 6338   6.302   4.050   0.808
 1813SOL    HW2 6339   6.293   4.212   0.786
 1814SOL     OW 6340   5.197   0.099   2.132
 1814SOL    HW1 6341   5.285   0.062   2.104
 1814SOL    HW2 6342   5.124   0.060   2.075
 1815SOL     OW 6343   0.538   2.107   2.392
 1815SOL    HW1 6344   0.582   2.148   2.472
 1815SOL    HW2 6345   0.596   2.122   2.312
 1816SOL     OW 6346   2.889   3.691   0.972
 1816SOL    HW1 6347   2.844   3.603   0.954
 1816SOL    HW2 6348   2.920   3.731   0.886
 1817SOL     OW 6349   2.671   6.965   2.217
 1817SOL    HW1 6350   2.600   6.928   2.156
 1817SOL    HW2 6351   2.744   6.898   2.228
 1818SOL     OW 6352   1.384   0.172   3.102
 1818SOL    HW1 6353   1.479   0.193   3.125
 1818SOL    HW2 6354   1.355   0.090   3.151
 1819SOL     OW 6355   1.023   4.316   2.189
 1819SOL    HW1 6356   0.933   4.293   2.226
 1819SOL    HW2 6357   1.014   4.391   2.124
 1820SOL     OW 6358   4.036   1.175   2.887
 1820SOL    HW1 6359   4.084   1.259   2.913
 1820SOL    HW2 6360   4.075   1.139   2.802
 1821SOL     OW 6361   1.139   1.630   2.420
 1821SOL    HW1 6362   1.056   1.661   2.467
 1821SOL    HW2 6363   1.158   1.690   2.343
 1822SOL     OW 6364   3.546   2.507   1.110
 1822SOL    HW1 6365   3.596   2.594   1.116
 1822SOL    HW2 6366   3.471   2.507   1.176
 1823SOL     OW 6367   3.890   6.073   3.447
 1823SOL    HW1 6368   3.839   6.069   3.361
 1823SOL    HW2 6369   3.941   5.988   3.459
 1824SOL     OW 6370   3.943   2.425   1.140
 1824SOL    HW1 6371   3.924   2.513   1.096
 1824SOL    HW2 6372   3.986   2.440   1.229
 1825SOL     OW 6373   1.049   0.311   2.329
 1825SOL    HW1 6374   0.998   0.385   2.372
 1825SOL    HW2 6375   0.985   0.246   2.288
 1826SOL     OW 6376   3.200   1.606   1.296
 1826SOL    HW1 6377   3.277   1.590   1.357
 1826SOL    HW2 6378   3.118   1.563   1.333
 1827SOL     OW 6379   0.518   4.967   2.171
 1827SOL    HW1 6380   0.477   4.899   2.232
 1827SOL    HW2 6381   0.594   5.011   2.218
 1828SOL     OW 6382   0.330   2.633   6.846
 1828SOL    HW1 6383   0.323   2.533   6.839
 1828SOL    HW2 6384   0.238   2.672   6.850
 1829SOL     OW 6385   4.952   0.130   2.992
 1829SOL    HW1 6386   4.959   0.036   3.026
 1829SOL    HW2 6387   4.859   0.165   3.008
 1830SOL     OW 6388   5.445   5.965   3.604
 1830SOL    HW1 6389   5.450   5.909   3.521
 1830SOL    HW2 6390   5.496   5.920   3.677
 1831SOL     OW 6391   5.733   6.577   2.802
 1831SOL    HW1 6392   5.695   6.666   2.828
 1831SOL    HW2 6393   5.690   6.505   2.857
 1832SOL     OW 6394   5.499   1.995   1.087
 1832SOL    HW1 6395   5.413   1.953   1.116
 1832SOL    HW2 6396   5.479   2.068   1.020
 1833SOL     OW 6397   5.497   0.628   4.664
 1833SOL    HW1 6398   5.499   0.552   4.730
 1833SOL    HW2 6399   5.434   0.606   4.590
 1834SOL     OW 6400   3.325   4.049   0.101
 1834SOL    HW1 6401   3.401   4.036   0.038
 1834SOL    HW2 6402   3.331   4.139   0.144
 1835SOL     OW 6403   1.141   4.294   1.532
 1835SOL    HW1 6404   1.095   4.344   1.458
 1835SOL    HW2 6405   1.192   4.217   1.493
 1836SOL     OW 6406   7.013   2.069   1.260
 1836SOL    HW1 6407   7.019   2.163   1.225
 1836SOL    HW2 6408   6.959   2.013   1.197
 1837SOL     OW 6409   0.423   1.807   3.941
 1837SOL    HW1 6410   0.494   1.872   3.916
 1837SOL    HW2 6411   0.400   1.817   4.038
 1838SOL     OW 6412   0.126   1.703   3.850
 1838SOL    HW1 6413   0.174   1.619   3.872
 1838SOL    HW2 6414   0.190   1.780   3.852
 1839SOL     OW 6415   4.704   2.576   5.053
 1839SOL    HW1 6416   4.777   2.531   5.105
 1839SOL    HW2 6417   4.637   2.508   5.025
 1840SOL     OW 6418   3.253   6.277   1.682
 1840SOL    HW1 6419   3.285   6.183   1.695
 1840SOL    HW2 6420   3.239   6.320   1.771
 1841SOL     OW 6421   1.911   3.587   4.543
 1841SOL    HW1 6422   1.893   3.540   4.457
 1841SOL    HW2 6423   1.847   3.556   4.613
 1842SOL     OW 6424   0.392   5.509   0.627
 1842SOL    HW1 6425   0.438   5.589   0.590
 1842SOL    HW2 6426   0.294   5.517   0.614
 1843SOL     OW 6427   1.551   2.421   4.553
 1843SOL    HW1 6428   1.590   2.412   4.462
 1843SOL    HW2 6429   1.561   2.516   4.584
 1844SOL     OW 6430   3.740   1.564   5.165
 1844SOL    HW1 6431   3.772   1.515   5.083
 1844SOL    HW2 6432   3.692   1.647   5.137
 1845SOL     OW 6433   2.397   0.342   6.602
 1845SOL    HW1 6434   2.496   0.335   6.620
 1845SOL    HW2 6435   2.361   0.422   6.650
 1846SOL     OW 6436   3.976   1.976   6.744
 1846SOL    HW1 6437   3.908   1.911   6.776
 1846SOL    HW2 6438   4.022   1.940   6.663
 1847SOL     OW 6439   1.607   0.687   6.509
 1847SOL    HW1 6440   1.550   0.759   6.548
 1847SOL    HW2 6441   1.548   0.622   6.460
 1848SOL     OW 6442   1.966   5.905   2.578
 1848SOL    HW1 6443   2.053   5.941   2.612
 1848SOL    HW2 6444   1.895   5.916   2.648
 1849SOL     OW 6445   4.129   1.001   0.607
 1849SOL    HW1 6446   4.050   1.003   0.669
 1849SOL    HW2 6447   4.104   0.952   0.524
 1850SOL     OW 6448   5.995   1.809   2.657
 1850SOL    HW1 6449   6.069   1.871   2.683
 1850SOL    HW2 6450   5.957   1.836   2.568
 1851SOL     OW 6451   0.582   1.532   1.037
 1851SOL    HW1 6452   0.603   1.513   0.941
 1851SOL    HW2 6453   0.535   1.453   1.077
 1852SOL     OW 6454   4.612   3.774   0.962
 1852SOL    HW1 6455   4.585   3.820   0.877
 1852SOL    HW2 6456   4.531   3.738   1.007
 1853SOL     OW 6457   0.831   3.471   1.951
 1853SOL    HW1 6458   0.736   3.488   1.926
 1853SOL    HW2 6459   0.852   3.374   1.939
 1854SOL     OW 6460   2.723   5.861   4.036
 1854SOL    HW1 6461   2.740   5.901   4.126
 1854SOL    HW2 6462   2.625   5.860   4.018
 1855SOL     OW 6463   4.852   4.567   0.297
 1855SOL    HW1 6464   4.928   4.624   0.267
 1855SOL    HW2 6465   4.832   4.499   0.226
 1856SOL     OW 6466   5.992   3.052   5.759
 1856SOL    HW1 6467   5.998   3.131   5.820
 1856SOL    HW2 6468   5.912   2.997   5.783
 1857SOL     OW 6469   4.080   1.211   5.362
 1857SOL    HW1 6470   4.086   1.300   5.407
 1857SOL    HW2 6471   4.172   1.173   5.351
 1858SOL     OW 6472   5.686   3.119   3.747
 1858SOL    HW1 6473   5.602   3.090   3.701
 1858SOL    HW2 6474   5.714   3.049   3.811
 1859SOL     OW 6475   4.051   2.065   3.963
 1859SOL    HW1 6476   4.046   2.030   3.869
 1859SOL    HW2 6477   4.146   2.071   3.991
 1860SOL     OW 6478   7.008   1.235   3.608
 1860SOL    HW1 6479   6.917   1.276   3.615
 1860SOL    HW2 6480   7.014   1.156   3.669
 1861SOL     OW 6481   4.742   6.463   2.054
 1861SOL    HW1 6482   4.684   6.528   2.004
 1861SOL    HW2 6483   4.765   6.501   2.143
 1862SOL     OW 6484   2.136   7.008   0.113
 1862SOL    HW1 6485   2.211   6.961   0.159
 1862SOL    HW2 6486   2.137   6.985   0.016
 1863SOL     OW 6487   2.685   2.650   0.662
 1863SOL    HW1 6488   2.626   2.680   0.588
 1863SOL    HW2 6489   2.708   2.553   0.649
 1864SOL     OW 6490   0.810   0.100   5.431
 1864SOL    HW1 6491   0.726   0.092   5.483
 1864SOL    HW2 6492   0.885   0.127   5.491
 1865SOL     OW 6493   3.752   0.929   5.581
 1865SOL    HW1 6494   3.813   0.976   5.517
 1865SOL    HW2 6495   3.694   0.996   5.627
 1866SOL     OW 6496   4.275   4.723   2.189
 1866SOL    HW1 6497   4.330   4.639   2.182
 1866SOL    HW2 6498   4.253   4.741   2.284
 1867SOL     OW 6499   0.811   3.683   0.377
 1867SOL    HW1 6500   0.711   3.680   0.367
 1867SOL    HW2 6501   0.837   3.639   0.463
 1868SOL     OW 6502   5.327   4.697   6.834
 1868SOL    HW1 6503   5.410   4.640   6.836
 1868SOL    HW2 6504   5.322   4.744   6.746
 1869SOL     OW 6505   6.385   1.948   5.175
 1869SOL    HW1 6506   6.390   1.849   5.184
 1869SOL    HW2 6507   6.477   1.987   5.181
 1870SOL     OW 6508   1.825   4.204   5.615
 1870SOL    HW1 6509   1.911   4.197   5.666
 1870SOL    HW2 6510   1.784   4.294   5.631
 1871SOL     OW 6511   1.266   6.690   0.815
 1871SOL    HW1 6512   1.178   6.642   0.813
 1871SOL    HW2 6513   1.339   6.625   0.835
 1872SOL     OW 6514   3.461   4.227   6.644
 1872SOL    HW1 6515   3.476   4.207   6.741
 1872SOL    HW2 6516   3.544   4.208   6.593
 1873SOL     OW 6517   4.380   1.306   5.475
 1873SOL    HW1 6518   4.378   1.207   5.486
 1873SOL    HW2 6519   4.287   1.343   5.484
 1874SOL     OW 6520   2.820   1.657   1.299
 1874SOL    HW1 6521   2.801   1.726   1.369
 1874SOL    HW2 6522   2.846   1.703   1.214
 1875SOL     OW 6523   1.096   0.575   6.672
 1875SOL    HW1 6524   1.108   0.569   6.771
 1875SOL    HW2 6525   1.006   0.539   6.646
 1876SOL     OW 6526   3.427   0.276   6.045
 1876SOL    HW1 6527   3.479   0.340   6.100
 1876SOL    HW2 6528   3.384   0.325   5.969
 1877SOL     OW 6529   0.201   0.333   3.624
 1877SOL    HW1 6530   0.216   0.321   3.526
 1877SOL    HW2 6531   0.280   0.298   3.674
 1878SOL     OW 6532   6.672   1.573   3.756
 1878SOL    HW1 6533   6.647   1.577   3.853
 1878SOL    HW2 6534   6.605   1.626   3.703
 1879SOL     OW 6535   1.139   3.706   4.263
 1879SOL    HW1 6536   1.111   3.802   4.261
 1879SOL    HW2 6537   1.084   3.656   4.331
 1880SOL     OW 6538   0.091   0.753   4.937
 1880SOL    HW1 6539   0.090   0.853   4.936
 1880SOL    HW2 6540   0.140   0.721   5.018
 1881SOL     OW 6541   5.720   2.347   2.058
 1881SOL    HW1 6542   5.725   2.392   2.147
 1881SOL    HW2 6543   5.678   2.256   2.069
 1882SOL     OW 6544   1.448   4.491   6.330
 1882SOL    HW1 6545   1.487   4.416   6.384
 1882SOL    HW2 6546   1.481   4.484   6.236
 1883SOL     OW 6547   6.270   2.297   2.623
 1883SOL    HW1 6548   6.324   2.230   2.572
 1883SOL    HW2 6549   6.297   2.390   2.596
 1884SOL     OW 6550   1.606   1.961   1.139
 1884SOL    HW1 6551   1.588   1.882   1.080
 1884SOL    HW2 6552   1.520   2.003   1.166
 1885SOL     OW 6553   1.514   1.988   5.973
 1885SOL    HW1 6554   1.609   1.962   5.994
 1885SOL    HW2 6555   1.487   1.947   5.887
 1886SOL     OW 6556   2.002   0.252   1.597
 1886SOL    HW1 6557   1.909   0.228   1.623
 1886SOL    HW2 6558   2.026   0.206   1.511
 1887SOL     OW 6559   0.647   5.513   5.763
 1887SOL    HW1 6560   0.719   5.550   5.705
 1887SOL    HW2 6561   0.679   5.510   5.858
 1888SOL     OW 6562   3.118   2.096   6.850
 1888SOL    HW1 6563   3.214   2.123   6.862
 1888SOL    HW2 6564   3.095   2.025   6.915
 1889SOL     OW 6565   0.132   3.320   3.999
 1889SOL    HW1 6566   0.228   3.294   4.004
 1889SOL    HW2 6567   0.123   3.417   4.017
 1890SOL     OW 6568   0.685   5.579   4.159
 1890SOL    HW1 6569   0.706   5.666   4.114
 1890SOL    HW2 6570   0.768   5.522   4.162
 1891SOL     OW 6571   4.216   2.880   1.580
 1891SOL    HW1 6572   4.228   2.960   1.638
 1891SOL    HW2 6573   4.289   2.814   1.599
 1892SOL     OW 6574   0.362   0.523   1.823
 1892SOL    HW1 6575   0.416   0.597   1.782
 1892SOL    HW2 6576   0.270   0.556   1.842
 1893SOL     OW 6577   3.553   2.835   2.121
 1893SOL    HW1 6578   3.609   2.819   2.039
 1893SOL    HW2 6579   3.608   2.820   2.203
 1894SOL     OW 6580   3.473   3.863   4.135
 1894SOL    HW1 6581   3.545   3.793   4.140
 1894SOL    HW2 6582   3.513   3.950   4.105
 1895SOL     OW 6583   4.174   6.973   0.933
 1895SOL    HW1 6584   4.231   0.019   0.889
 1895SOL    HW2 6585   4.219   6.884   0.923
 1896SOL     OW 6586   6.358   1.242   0.655
 1896SOL    HW1 6587   6.420   1.305   0.607
 1896SOL    HW2 6588   6.382   1.148   0.631
 1897SOL     OW 6589   1.626   4.884   2.049
 1897SOL    HW1 6590   1.710   4.871   2.101
 1897SOL    HW2 6591   1.563   4.809   2.069
 1898SOL     OW 6592   2.363   4.296   2.300
 1898SOL    HW1 6593   2.339   4.384   2.259
 1898SOL    HW2 6594   2.442   4.257   2.251
 1899SOL     OW 6595   1.028   0.950   0.020
 1899SOL    HW1 6596   0.945   1.002   0.002
 1899SOL    HW2 6597   1.106   0.994   7.000
 1900SOL     OW 6598   2.599   0.896   6.529
 1900SOL    HW1 6599   2.642   0.880   6.618
 1900SOL    HW2 6600   2.503   0.867   6.532
 1901SOL     OW 6601   2.562   2.319   1.045
 1901SOL    HW1 6602   2.497   2.298   0.973
 1901SOL    HW2 6603   2.544   2.410   1.082
 1902SOL     OW 6604   2.577   0.734   4.662
 1902SOL    HW1 6605   2.602   0.683   4.580
 1902SOL    HW2 6606   2.606   0.829   4.653
 1903SOL     OW 6607   0.818   3.409   3.226
 1903SOL    HW1 6608   0.863   3.392   3.313
 1903SOL    HW2 6609   0.776   3.325   3.193
 1904SOL     OW 6610   5.611   5.441   2.864
 1904SOL    HW1 6611   5.607   5.341   2.874
 1904SOL    HW2 6612   5.656   5.481   2.943
 1905SOL     OW 6613   0.769   0.558   3.483
 1905SOL    HW1 6614   0.730   0.513   3.563
 1905SOL    HW2 6615   0.795   0.489   3.415
 1906SOL     OW 6616   2.670   0.796   5.732
 1906SOL    HW1 6617   2.720   0.871   5.775
 1906SOL    HW2 6618   2.726   0.713   5.732
 1907SOL     OW 6619   4.762   2.339   1.249
 1907SOL    HW1 6620   4.739   2.431   1.281
 1907SOL    HW2 6621   4.679   2.287   1.233
 1908SOL     OW 6622   3.966   6.689   6.359
 1908SOL    HW1 6623   3.923   6.651   6.277
 1908SOL    HW2 6624   4.054   6.644   6.374
 1909SOL     OW 6625   0.867   2.905   3.757
 1909SOL    HW1 6626   0.845   2.878   3.663
 1909SOL    HW2 6627   0.786   2.893   3.815
 1910SOL     OW 6628   6.874   6.304   5.605
 1910SOL    HW1 6629   6.820   6.223   5.580
 1910SOL    HW2 6630   6.842   6.383   5.552
 1911SOL     OW 6631   0.016   3.669   4.818
 1911SOL    HW1 6632   0.097   3.668   4.759
 1911SOL    HW2 6633   0.043   3.685   4.913
 1912SOL     OW 6634   2.851   5.515   2.594
 1912SOL    HW1 6635   2.808   5.458   2.663
 1912SOL    HW2 6636   2.822   5.610   2.607
 1913SOL     OW 6637   2.194   6.718   4.309
 1913SOL    HW1 6638   2.221   6.637   4.256
 1913SOL    HW2 6639   2.162   6.688   4.399
 1914SOL     OW 6640   4.068   3.822   6.826
 1914SOL    HW1 6641   4.102   3.860   6.912
 1914SOL    HW2 6642   4.098   3.727   6.818
 1915SOL     OW 6643   4.817   2.888   5.817
 1915SOL    HW1 6644   4.760   2.908   5.897
 1915SOL    HW2 6645   4.763   2.838   5.749
 1916SOL     OW 6646   4.765   6.568   1.307
 1916SOL    HW1 6647   4.697   6.551   1.236
 1916SOL    HW2 6648   4.784   6.666   1.313
 1917SOL     OW 6649   2.766   3.798   0.121
 1917SOL    HW1 6650   2.752   3.885   0.168
 1917SOL    HW2 6651   2.680   3.769   0.079
 1918SOL     OW 6652   1.153   1.034   4.757
 1918SOL    HW1 6653   1.197   1.112   4.800
 1918SOL    HW2 6654   1.121   1.060   4.665
 1919SOL     OW 6655   2.040   1.715   0.907
 1919SOL    HW1 6656   2.064   1.627   0.866
 1919SOL    HW2 6657   1.960   1.704   0.966
 1920SOL     OW 6658   5.999   2.895   2.266
 1920SOL    HW1 6659   6.000   2.988   2.231
 1920SOL    HW2 6660   5.908   2.873   2.301
 1921SOL     OW 6661   0.944   3.006   0.119
 1921SOL    HW1 6662   1.012   2.943   0.155
 1921SOL    HW2 6663   0.881   2.957   0.059
 1922SOL     OW 6664   3.204   3.363   1.851
 1922SOL    HW1 6665   3.222   3.336   1.946
 1922SOL    HW2 6666   3.121   3.316   1.819
 1923SOL     OW 6667   4.810   0.873   0.394
 1923SOL    HW1 6668   4.890   0.888   0.453
 1923SOL    HW2 6669   4.727   0.875   0.449
 1924SOL     OW 6670   4.618   0.235   1.053
 1924SOL    HW1 6671   4.718   0.228   1.049
 1924SOL    HW2 6672   4.580   0.224   0.961
 1925SOL     OW 6673   0.918   4.439   1.714
 1925SOL    HW1 6674   0.991   4.382   1.675
 1925SOL    HW2 6675   0.830   4.397   1.695
 1926SOL     OW 6676   3.529   0.169   1.568
 1926SOL    HW1 6677   3.555   0.265   1.573
 1926SOL    HW2 6678   3.440   0.161   1.522
 1927SOL     OW 6679   2.464   3.903   0.698
 1927SOL    HW1 6680   2.483   3.829   0.762
 1927SOL    HW2 6681   2.371   3.936   0.712
 1928SOL     OW 6682   4.861   5.098   3.974
 1928SOL    HW1 6683   4.862   5.003   4.005
 1928SOL    HW2 6684   4.905   5.103   3.884
 1929SOL     OW 6685   2.603   1.041   2.080
 1929SOL    HW1 6686   2.702   1.034   2.098
 1929SOL    HW2 6687   2.588   1.049   1.981
 1930SOL     OW 6688   5.093   3.190   6.298
 1930SOL    HW1 6689   5.136   3.122   6.357
 1930SOL    HW2 6690   5.048   3.143   6.221
 1931SOL     OW 6691   0.966   1.779   6.604
 1931SOL    HW1 6692   0.962   1.694   6.655
 1931SOL    HW2 6693   0.962   1.759   6.506
 1932SOL     OW 6694   4.500   2.548   3.169
 1932SOL    HW1 6695   4.425   2.492   3.134
 1932SOL    HW2 6696   4.476   2.583   3.260
 1933SOL     OW 6697   0.425   1.689   0.179
 1933SOL    HW1 6698   0.367   1.697   0.260
 1933SOL    HW2 6699   0.484   1.769   0.171
 1934SOL     OW 6700   0.343   0.295   5.877
 1934SOL    HW1 6701   0.417   0.231   5.855
 1934SOL    HW2 6702   0.275   0.248   5.934
 1935SOL     OW 6703   4.668   4.302   3.939
 1935SOL    HW1 6704   4.666   4.313   3.839
 1935SOL    HW2 6705   4.614   4.374   3.981
 1936SOL     OW 6706   5.220   3.670   3.981
 1936SOL    HW1 6707   5.202   3.768   3.972
 1936SOL    HW2 6708   5.171   3.635   4.061
 1937SOL     OW 6709   4.636   6.073   6.805
 1937SOL    HW1 6710   4.618   6.019   6.724
 1937SOL    HW2 6711   4.727   6.114   6.798
 1938SOL     OW 6712   1.302   2.648   6.965
 1938SOL    HW1 6713   1.204   2.655   6.946
 1938SOL    HW2 6714   1.352   2.708   6.902
 1939SOL     OW 6715   0.680   5.563   4.615
 1939SOL    HW1 6716   0.616   5.510   4.670
 1939SOL    HW2 6717   0.755   5.505   4.585
 1940SOL     OW 6718   5.879   4.439   1.818
 1940SOL    HW1 6719   5.915   4.360   1.768
 1940SOL    HW2 6720   5.942   4.465   1.891
 1941SOL     OW 6721   0.206   2.625   3.534
 1941SOL    HW1 6722   0.285   2.685   3.523
 1941SOL    HW2 6723   0.235   2.540   3.579
 1942SOL     OW 6724   5.519   3.566   2.697
 1942SOL    HW1 6725   5.535   3.535   2.603
 1942SOL    HW2 6726   5.555   3.659   2.708
 1943SOL     OW 6727   1.219   1.615   2.045
 1943SOL    HW1 6728   1.151   1.655   2.107
 1943SOL    HW2 6729   1.190   1.630   1.951
 1944SOL     OW 6730   6.886   3.489   0.821
 1944SOL    HW1 6731   6.822   3.560   0.847
 1944SOL    HW2 6732   6.836   3.415   0.775
 1945SOL     OW 6733   4.173   6.481   1.031
 1945SOL    HW1 6734   4.162   6.398   0.977
 1945SOL    HW2 6735   4.083   6.522   1.048
 1946SOL     OW 6736   6.155   6.072   1.164
 1946SOL    HW1 6737   6.067   6.023   1.166
 1946SOL    HW2 6738   6.154   6.144   1.233
 1947SOL     OW 6739   6.199   4.799   3.641
 1947SOL    HW1 6740   6.297   4.796   3.656
 1947SOL    HW2 6741   6.155   4.722   3.687
 1948SOL     OW 6742   5.797   4.039   2.906
 1948SOL    HW1 6743   5.885   4.035   2.857
 1948SOL    HW2 6744   5.723   4.056   2.842
 1949SOL     OW 6745   3.935   4.138   0.483
 1949SOL    HW1 6746   3.974   4.150   0.392
 1949SOL    HW2 6747   4.007   4.148   0.552
 1950SOL     OW 6748   3.671   3.830   3.850
 1950SOL    HW1 6749   3.737   3.758   3.827
 1950SOL    HW2 6750   3.635   3.814   3.941
 1951SOL     OW 6751   6.608   4.429   5.656
 1951SOL    HW1 6752   6.615   4.523   5.623
 1951SOL    HW2 6753   6.681   4.412   5.722
 1952SOL     OW 6754   5.045   4.108   1.078
 1952SOL    HW1 6755   5.097   4.059   1.009
 1952SOL    HW2 6756   4.948   4.110   1.051
 1953SOL     OW 6757   0.229   1.168   6.295
 1953SOL    HW1 6758   0.140   1.178   6.251
 1953SOL    HW2 6759   0.231   1.084   6.348
 1954SOL     OW 6760   5.049   0.512   1.689
 1954SOL    HW1 6761   5.005   0.493   1.776
 1954SOL    HW2 6762   5.141   0.472   1.688
 1955SOL     OW 6763   0.731   1.541   1.897
 1955SOL    HW1 6764   0.787   1.623   1.909
 1955SOL    HW2 6765   0.775   1.479   1.832
 1956SOL     OW 6766   5.581   1.027   2.985
 1956SOL    HW1 6767   5.646   1.038   2.910
 1956SOL    HW2 6768   5.489   1.012   2.948
 1957SOL     OW 6769   5.038   2.861   3.813
 1957SOL    HW1 6770   5.050   2.900   3.721
 1957SOL    HW2 6771   5.120   2.809   3.838
 1958SOL     OW 6772   4.488   1.758   0.918
 1958SOL    HW1 6773   4.512   1.685   0.853
 1958SOL    HW2 6774   4.399   1.739   0.958
 1959SOL     OW 6775   6.890   6.753   3.936
 1959SOL    HW1 6776   6.898   6.787   3.843
 1959SOL    HW2 6777   6.953   6.677   3.949
 1960SOL     OW 6778   6.207   3.126   2.946
 1960SOL    HW1 6779   6.162   3.118   3.035
 1960SOL    HW2 6780   6.274   3.052   2.936
 1961SOL     OW 6781   6.396   4.529   4.935
 1961SOL    HW1 6782   6.396   4.430   4.939
 1961SOL    HW2 6783   6.490   4.562   4.926
 1962SOL     OW 6784   1.559   5.826   2.855
 1962SOL    HW1 6785   1.622   5.756   2.888
 1962SOL    HW2 6786   1.560   5.904   2.917
 1963SOL     OW 6787   1.063   1.257   1.545
 1963SOL    HW1 6788   0.966   1.254   1.521
 1963SOL    HW2 6789   1.089   1.172   1.591
 1964SOL     OW 6790   5.451   4.613   1.780
 1964SOL    HW1 6791   5.420   4.562   1.860
 1964SOL    HW2 6792   5.549   4.629   1.786
 1965SOL     OW 6793   0.727   3.901   3.961
 1965SOL    HW1 6794   0.766   3.992   3.967
 1965SOL    HW2 6795   0.749   3.849   4.044
 1966SOL     OW 6796   1.461   4.970   1.448
 1966SOL    HW1 6797   1.512   4.888   1.421
 1966SOL    HW2 6798   1.382   4.944   1.502
 1967SOL     OW 6799   6.833   2.164   3.727
 1967SOL    HW1 6800   6.925   2.131   3.706
 1967SOL    HW2 6801   6.775   2.158   3.646
 1968SOL     OW 6802   2.453   1.087   5.586
 1968SOL    HW1 6803   2.373   1.027   5.584
 1968SOL    HW2 6804   2.436   1.168   5.530
 1969SOL     OW 6805   3.205   0.793   1.501
 1969SOL    HW1 6806   3.234   0.699   1.520
 1969SOL    HW2 6807   3.283   0.855   1.509
 1970SOL     OW 6808   6.175   6.291   5.034
 1970SOL    HW1 6809   6.153   6.203   5.077
 1970SOL    HW2 6810   6.125   6.364   5.080
 1971SOL     OW 6811   1.458   6.898   5.645
 1971SOL    HW1 6812   1.536   6.955   5.673
 1971SOL    HW2 6813   1.414   6.939   5.565
 1972SOL     OW 6814   5.661   2.382   1.597
 1972SOL    HW1 6815   5.564   2.385   1.621
 1972SOL    HW2 6816   5.679   2.446   1.522
 1973SOL     OW 6817   2.686   3.657   1.250
 1973SOL    HW1 6818   2.667   3.645   1.153
 1973SOL    HW2 6819   2.687   3.755   1.271
 1974SOL     OW 6820   4.273   6.613   4.626
 1974SOL    HW1 6821   4.319   6.683   4.570
 1974SOL    HW2 6822   4.269   6.527   4.576
 1975SOL     OW 6823   2.082   3.170   3.246
 1975SOL    HW1 6824   2.174   3.161   3.284
 1975SOL    HW2 6825   2.028   3.090   3.270
 1976SOL     OW 6826   6.534   0.196   6.535
 1976SOL    HW1 6827   6.568   0.109   6.571
 1976SOL    HW2 6828   6.515   0.187   6.438
 1977SOL     OW 6829   2.403   3.782   6.601
 1977SOL    HW1 6830   2.481   3.832   6.638
 1977SOL    HW2 6831   2.367   3.830   6.521
 1978SOL     OW 6832   2.858   6.566   2.575
 1978SOL    HW1 6833   2.903   6.531   2.657
 1978SOL    HW2 6834   2.809   6.651   2.597
 1979SOL     OW 6835   5.876   5.258   6.754
 1979SOL    HW1 6836   5.900   5.205   6.672
 1979SOL    HW2 6837   5.788   5.226   6.790
 1980SOL     OW 6838   2.745   0.623   1.886
 1980SOL    HW1 6839   2.666   0.647   1.830
 1980SOL    HW2 6840   2.755   0.524   1.889
 1981SOL     OW 6841   4.961   2.548   3.041
 1981SOL    HW1 6842   4.882   2.491   3.019
 1981SOL    HW2 6843   4.937   2.645   3.030
 1982SOL     OW 6844   6.731   3.620   3.655
 1982SOL    HW1 6845   6.730   3.532   3.608
 1982SOL    HW2 6846   6.645   3.633   3.703
 1983SOL     OW 6847   0.635   0.405   0.791
 1983SOL    HW1 6848   0.569   0.333   0.770
 1983SOL    HW2 6849   0.725   0.365   0.809
 1984SOL     OW 6850   5.282   2.638   5.440
 1984SOL    HW1 6851   5.312   2.582   5.362
 1984SOL    HW2 6852   5.247   2.725   5.407
 1985SOL     OW 6853   6.584   4.940   1.473
 1985SOL    HW1 6854   6.513   4.882   1.432
 1985SOL    HW2 6855   6.591   5.026   1.423
 1986SOL     OW 6856   3.185   1.253   6.612
 1986SOL    HW1 6857   3.192   1.191   6.534
 1986SOL    HW2 6858   3.131   1.333   6.585
 1987SOL     OW 6859   1.220   1.002   4.082
 1987SOL    HW1 6860   1.282   1.079   4.067
 1987SOL    HW2 6861   1.222   0.941   4.003
 1988SOL     OW 6862   0.290   1.827   1.131
 1988SOL    HW1 6863   0.194   1.808   1.113
 1988SOL    HW2 6864   0.301   1.923   1.156
 1989SOL     OW 6865   2.907   5.648   5.368
 1989SOL    HW1 6866   2.816   5.687   5.352
 1989SOL    HW2 6867   2.915   5.619   5.463
 1990SOL     OW 6868   3.991   0.478   0.156
 1990SOL    HW1 6869   4.089   0.499   0.158
 1990SOL    HW2 6870   3.964   0.435   0.242
 1991SOL     OW 6871   3.077   5.737   0.388
 1991SOL    HW1 6872   3.118   5.666   0.330
 1991SOL    HW2 6873   2.979   5.718   0.398
 1992SOL     OW 6874   6.680   6.481   0.121
 1992SOL    HW1 6875   6.652   6.502   0.215
 1992SOL    HW2 6876   6.598   6.470   0.064
 1993SOL     OW 6877   1.992   2.902   4.980
 1993SOL    HW1 6878   2.039   2.815   4.963
 1993SOL    HW2 6879   2.050   2.977   4.948
 1994SOL     OW 6880   4.216   3.338   0.732
 1994SOL    HW1 6881   4.117   3.348   0.747
 1994SOL    HW2 6882   4.233   3.281   0.653
 1995SOL     OW 6883   5.275   1.830   5.080
 1995SOL    HW1 6884   5.228   1.918   5.070
 1995SOL    HW2 6885   5.216   1.766   5.129
 1996SOL     OW 6886   3.284   1.946   1.384
 1996SOL    HW1 6887   3.275   1.873   1.316
 1996SOL    HW2 6888   3.349   2.015   1.350
 1997SOL     OW 6889   3.319   1.296   3.806
 1997SOL    HW1 6890   3.273   1.372   3.852
 1997SOL    HW2 6891   3.288   1.210   3.846
 1998SOL     OW 6892   1.317   3.004   1.893
 1998SOL    HW1 6893   1.403   2.976   1.937
 1998SOL    HW2 6894   1.317   3.103   1.879
 1999SOL     OW 6895   0.722   0.393   5.633
 1999SOL    HW1 6896   0.734   0.477   5.685
 1999SOL    HW2 6897   0.656   0.408   5.560
 2000SOL     OW 6898   3.614   3.744   6.296
 2000SOL    HW1 6899   3.522   3.705   6.288
 2000SOL    HW2 6900   3.637   3.756   6.393
 2001SOL     OW 6901   1.702   1.736   6.660
 2001SOL    HW1 6902   1.693   1.683   6.575
 2001SOL    HW2 6903   1.797   1.733   6.691
 2002SOL     OW 6904   0.097   5.697   1.000
 2002SOL    HW1 6905   0.150   5.766   0.950
 2002SOL    HW2 6906   0.002   5.699   0.967
 2003SOL     OW 6907   6.383   4.910   1.947
 2003SOL    HW1 6908   6.453   4.973   1.980
 2003SOL    HW2 6909   6.301   4.919   2.003
 2004SOL     OW 6910   3.697   0.274   3.657
 2004SOL    HW1 6911   3.686   0.325   3.571
 2004SOL    HW2 6912   3.794   0.248   3.667
 2005SOL     OW 6913   0.325   6.011   0.389
 2005SOL    HW1 6914   0.379   6.095   0.393
 2005SOL    HW2 6915   0.240   6.028   0.339
 2006SOL     OW 6916   5.440   0.626   3.833
 2006SOL    HW1 6917   5.500   0.605   3.910
 2006SOL    HW2 6918   5.415   0.723   3.836
 2007SOL     OW 6919   4.789   4.205   1.021
 2007SOL    HW1 6920   4.790   4.263   1.102
 2007SOL    HW2 6921   4.783   4.109   1.049
 2008SOL     OW 6922   2.138   3.821   3.899
 2008SOL    HW1 6923   2.170   3.915   3.912
 2008SOL    HW2 6924   2.113   3.807   3.803
 2009SOL     OW 6925   6.409   6.275   2.042
 2009SOL    HW1 6926   6.310   6.283   2.049
 2009SOL    HW2 6927   6.434   6.248   1.949
 2010SOL     OW 6928   1.732   2.378   1.861
 2010SOL    HW1 6929   1.657   2.444   1.872
 2010SOL    HW2 6930   1.819   2.425   1.871
 2011SOL     OW 6931   0.013   6.654   5.622
 2011SOL    HW1 6932   7.008   6.639   5.717
 2011SOL    HW2 6933   0.108   6.687   5.622
 2012SOL     OW 6934   1.427   3.094   2.285
 2012SOL    HW1 6935   1.513   3.092   2.233
 2012SOL    HW2 6936   1.363   3.156   2.240
 2013SOL     OW 6937   0.458   2.819   3.000
 2013SOL    HW1 6938   0.417   2.896   3.050
 2013SOL    HW2 6939   0.417   2.813   2.909
 2014SOL     OW 6940   3.178   0.436   3.608
 2014SOL    HW1 6941   3.173   0.526   3.652
 2014SOL    HW2 6942   3.177   0.448   3.509
 2015SOL     OW 6943   3.851   1.034   1.914
 2015SOL    HW1 6944   3.796   1.117   1.903
 2015SOL    HW2 6945   3.795   0.962   1.955
 2016SOL     OW 6946   1.834   6.153   5.425
 2016SOL    HW1 6947   1.817   6.214   5.348
 2016SOL    HW2 6948   1.774   6.177   5.501
 2017SOL     OW 6949   4.030   6.843   3.072
 2017SOL    HW1 6950   4.049   6.903   3.150
 2017SOL    HW2 6951   3.969   6.890   3.008
 2018SOL     OW 6952   6.977   2.047   3.151
 2018SOL    HW1 6953   6.947   1.979   3.084
 2018SOL    HW2 6954   0.019   2.108   3.109
 2019SOL     OW 6955   6.325   4.842   6.131
 2019SOL    HW1 6956   6.278   4.762   6.168
 2019SOL    HW2 6957   6.366   4.818   6.043
 2020SOL     OW 6958   1.627   6.326   5.894
 2020SOL    HW1 6959   1.528   6.341   5.883
 2020SOL    HW2 6960   1.653   6.345   5.989
 2021SOL     OW 6961   6.174   6.489   3.405
 2021SOL    HW1 6962   6.148   6.398   3.437
 2021SOL    HW2 6963   6.217   6.539   3.480
 2022SOL     OW 6964   2.137   4.214   5.013
 2022SOL    HW1 6965   2.200   4.136   5.006
 2022SOL    HW2 6966   2.045   4.180   5.034
 2023SOL     OW 6967   0.269   0.471   6.830
 2023SOL    HW1 6968   0.322   0.524   6.763
 2023SOL    HW2 6969   0.232   0.390   6.786
 2024SOL     OW 6970   0.331   5.487   4.407
 2024SOL    HW1 6971   0.374   5.555   4.466
 2024SOL    HW2 6972   0.379   5.483   4.319
 2025SOL     OW 6973   2.433   1.089   4.564
 2025SOL    HW1 6974   2.403   1.009   4.512
 2025SOL    HW2 6975   2.353   1.140   4.595
 2026SOL     OW 6976   5.562   0.675   6.396
 2026SOL    HW1 6977   5.661   0.677   6.385
 2026SOL    HW2 6978   5.524   0.765   6.372
 2027SOL     OW 6979   0.699   5.521   1.591
 2027SOL    HW1 6980   0.762   5.497   1.664
 2027SOL    HW2 6981   0.620   5.459   1.594
 2028SOL     OW 6982   3.665   5.758   2.684
 2028SOL    HW1 6983   3.686   5.660   2.681
 2028SOL    HW2 6984   3.605   5.777   2.762
 2029SOL     OW 6985   6.951   2.030   6.415
 2029SOL    HW1 6986   6.856   2.041   6.445
 2029SOL    HW2 6987   6.968   2.089   6.336
 2030SOL     OW 6988   3.067   5.954   3.283
 2030SOL    HW1 6989   3.112   5.882   3.335
 2030SOL    HW2 6990   2.968   5.940   3.285
 2031SOL     OW 6991   6.903   5.573   3.083
 2031SOL    HW1 6992   6.823   5.536   3.131
 2031SOL    HW2 6993   6.880   5.663   3.045
 2032SOL     OW 6994   3.511   1.356   6.376
 2032SOL    HW1 6995   3.431   1.407   6.405
 2032SOL    HW2 6996   3.485   1.290   6.306
 2033SOL     OW 6997   1.830   0.943   0.903
 2033SOL    HW1 6998   1.862   0.918   0.811
 2033SOL    HW2 6999   1.742   0.991   0.895
 2034SOL     OW 7000   0.642   5.298   5.552
 2034SOL    HW1 7001   0.627   5.382   5.604
 2034SOL    HW2 7002   0.733   5.262   5.570
 2035SOL     OW 7003   6.233   6.810   2.214
 2035SOL    HW1 7004   6.224   6.715   2.183
 2035SOL    HW2 7005   6.183   6.870   2.152
 2036SOL     OW 7006   1.103   3.320   2.532
 2036SOL    HW1 7007   1.182   3.381   2.533
 2036SOL    HW2 7008   1.031   3.360   2.475
 2037SOL     OW 7009   0.184   2.778   6.130
 2037SOL    HW1 7010   0.229   2.698   6.089
 2037SOL    HW2 7011   0.249   2.853   6.136
 2038SOL     OW 7012   2.583   1.791   6.496
 2038SOL    HW1 7013   2.515   1.799   6.424
 2038SOL    HW2 7014   2.537   1.771   6.583
 2039SOL     OW 7015   6.968   6.061   2.562
 2039SOL    HW1 7016   6.916   6.137   2.522
 2039SOL    HW2 7017   6.915   5.977   2.557
 2040SOL     OW 7018   2.424   2.774   0.215
 2040SOL    HW1 7019   2.368   2.836   0.160
 2040SOL    HW2 7020   2.448   2.694   0.161
 2041SOL     OW 7021   1.714   6.863   6.075
 2041SOL    HW1 7022   1.798   6.912   6.096
 2041SOL    HW2 7023   1.671   6.903   5.993
 2042SOL     OW 7024   4.569   0.416   6.335
 2042SOL    HW1 7025   4.648   0.476   6.344
 2042SOL    HW2 7026   4.590   0.344   6.269
 2043SOL     OW 7027   7.009   3.010   1.149
 2043SOL    HW1 7028   6.994   2.958   1.234
 2043SOL    HW2 7029   6.992   2.950   1.071
 2044SOL     OW 7030   5.231   1.024   0.790
 2044SOL    HW1 7031   5.158   1.051   0.852
 2044SOL    HW2 7032   5.245   1.094   0.720
 2045SOL     OW 7033   1.841   5.907   6.169
 2045SOL    HW1 7034   1.931   5.943   6.194
 2045SOL    HW2 7035   1.849   5.810   6.148
 2046SOL     OW 7036   1.046   1.565   5.286
 2046SOL    HW1 7037   0.986   1.485   5.283
 2046SOL    HW2 7038   1.000   1.640   5.333
 2047SOL     OW 7039   6.414   2.277   0.256
 2047SOL    HW1 7040   6.477   2.311   0.326
 2047SOL    HW2 7041   6.396   2.180   0.272
 2048SOL     OW 7042   1.062   1.083   4.501
 2048SOL    HW1 7043   1.126   1.031   4.444
 2048SOL    HW2 7044   1.029   1.163   4.450
 2049SOL     OW 7045   4.576   1.372   5.069
 2049SOL    HW1 7046   4.554   1.289   5.017
 2049SOL    HW2 7047   4.495   1.406   5.115
 2050SOL     OW 7048   0.883   1.298   4.273
 2050SOL    HW1 7049   0.823   1.377   4.268
 2050SOL    HW2 7050   0.835   1.222   4.316
 2051SOL     OW 7051   3.117   6.564   0.970
 2051SOL    HW1 7052   3.172   6.550   1.052
 2051SOL    HW2 7053   3.130   6.657   0.937
 2052SOL     OW 7054   1.751   4.360   6.783
 2052SOL    HW1 7055   1.776   4.413   6.865
 2052SOL    HW2 7056   1.765   4.263   6.801
 2053SOL     OW 7057   0.859   5.488   3.890
 2053SOL    HW1 7058   0.819   5.400   3.914
 2053SOL    HW2 7059   0.954   5.491   3.921
 2054SOL     OW 7060   3.261   3.368   3.365
 2054SOL    HW1 7061   3.167   3.398   3.378
 2054SOL    HW2 7062   3.290   3.391   3.272
 2055SOL     OW 7063   1.729   2.500   5.026
 2055SOL    HW1 7064   1.741   2.591   5.065
 2055SOL    HW2 7065   1.759   2.500   4.930
 2056SOL     OW 7066   3.906   4.667   0.873
 2056SOL    HW1 7067   4.001   4.698   0.872
 2056SOL    HW2 7068   3.903   4.569   0.892
 2057SOL     OW 7069   5.279   2.276   4.627
 2057SOL    HW1 7070   5.217   2.204   4.656
 2057SOL    HW2 7071   5.347   2.292   4.698
 2058SOL     OW 7072   1.102   6.591   3.326
 2058SOL    HW1 7073   1.018   6.591   3.381
 2058SOL    HW2 7074   1.115   6.681   3.285
 2059SOL     OW 7075   2.634   0.105   5.751
 2059SOL    HW1 7076   2.541   0.119   5.785
 2059SOL    HW2 7077   2.654   0.172   5.680
 2060SOL     OW 7078   1.424   3.302   0.071
 2060SOL    HW1 7079   1.357   3.328   0.001
 2060SOL    HW2 7080   1.485   3.379   0.088
 2061SOL     OW 7081   1.915   1.979   2.202
 2061SOL    HW1 7082   1.891   2.072   2.228
 2061SOL    HW2 7083   1.975   1.939   2.272
 2062SOL     OW 7084   6.491   5.456   5.366
 2062SOL    HW1 7085   6.549   5.391   5.316
 2062SOL    HW2 7086   6.524   5.549   5.350
 2063SOL     OW 7087   1.392   0.531   5.481
 2063SOL    HW1 7088   1.300   0.521   5.443
 2063SOL    HW2 7089   1.459   0.495   5.416
 2064SOL     OW 7090   0.486   2.732   4.378
 2064SOL    HW1 7091   0.575   2.768   4.350
 2064SOL    HW2 7092   0.417   2.804   4.368
 2065SOL     OW 7093   4.607   2.784   5.676
 2065SOL    HW1 7094   4.594   2.880   5.703
 2065SOL    HW2 7095   4.560   2.769   5.589
 2066SOL     OW 7096   5.568   3.227   5.912
 2066SOL    HW1 7097   5.572   3.155   5.981
 2066SOL    HW2 7098   5.661   3.256   5.889
 2067SOL     OW 7099   6.733   4.613   1.464
 2067SOL    HW1 7100   6.681   4.598   1.548
 2067SOL    HW2 7101   6.672   4.643   1.391
 2068SOL     OW 7102   3.776   0.768   3.617
 2068SOL    HW1 7103   3.714   0.837   3.580
 2068SOL    HW2 7104   3.869   0.786   3.583
 2069SOL     OW 7105   6.918   1.786   4.110
 2069SOL    HW1 7106   6.882   1.707   4.060
 2069SOL    HW2 7107   7.013   1.769   4.134
 2070SOL     OW 7108   0.904   3.725   1.848
 2070SOL    HW1 7109   0.883   3.634   1.885
 2070SOL    HW2 7110   0.820   3.769   1.818
 2071SOL     OW 7111   6.160   1.529   6.202
 2071SOL    HW1 7112   6.119   1.564   6.118
 2071SOL    HW2 7113   6.258   1.515   6.189
 2072SOL     OW 7114   3.892   4.517   5.294
 2072SOL    HW1 7115   3.854   4.434   5.253
 2072SOL    HW2 7116   3.992   4.510   5.294
 2073SOL     OW 7117   3.520   6.036   0.256
 2073SOL    HW1 7118   3.585   5.974   0.211
 2073SOL    HW2 7119   3.500   6.002   0.348
 2074SOL     OW 7120   1.781   3.560   5.555
 2074SOL    HW1 7121   1.798   3.468   5.520
 2074SOL    HW2 7122   1.865   3.598   5.593
 2075SOL     OW 7123   6.987   2.271   1.821
 2075SOL    HW1 7124   6.899   2.265   1.870
 2075SOL    HW2 7125   0.037   2.248   1.884
 2076SOL     OW 7126   5.295   6.082   4.826
 2076SOL    HW1 7127   5.392   6.062   4.840
 2076SOL    HW2 7128   5.268   6.052   4.734
 2077SOL     OW 7129   0.143   3.453   1.194
 2077SOL    HW1 7130   0.198   3.423   1.116
 2077SOL    HW2 7131   0.080   3.380   1.220
 2078SOL     OW 7132   2.081   4.131   5.731
 2078SOL    HW1 7133   2.150   4.110   5.661
 2078SOL    HW2 7134   2.070   4.052   5.791
 2079SOL     OW 7135   5.402   1.614   1.560
 2079SOL    HW1 7136   5.303   1.611   1.574
 2079SOL    HW2 7137   5.432   1.530   1.515
 2080SOL     OW 7138   2.821   2.611   5.441
 2080SOL    HW1 7139   2.895   2.545   5.450
 2080SOL    HW2 7140   2.801   2.652   5.530
 2081SOL     OW 7141   0.010   6.963   3.227
 2081SOL    HW1 7142   6.941   6.999   3.231
 2081SOL    HW2 7143   0.014   6.877   3.278
 2082SOL     OW 7144   0.369   6.267   2.484
 2082SOL    HW1 7145   0.465   6.259   2.511
 2082SOL    HW2 7146   0.320   6.183   2.509
 2083SOL     OW 7147   6.737   5.866   4.333
 2083SOL    HW1 7148   6.676   5.932   4.375
 2083SOL    HW2 7149   6.788   5.818   4.404
 2084SOL     OW 7150   0.518   1.726   2.220
 2084SOL    HW1 7151   0.534   1.680   2.133
 2084SOL    HW2 7152   0.511   1.659   2.293
 2085SOL     OW 7153   5.132   5.420   0.378
 2085SOL    HW1 7154   5.167   5.371   0.299
 2085SOL    HW2 7155   5.198   5.489   0.407
 2086SOL     OW 7156   4.617   0.214   6.879
 2086SOL    HW1 7157   4.593   0.295   6.825
 2086SOL    HW2 7158   4.656   0.144   6.820
 2087SOL     OW 7159   4.033   2.127   7.015
 2087SOL    HW1 7160   4.001   2.077   6.934
 2087SOL    HW2 7161   4.015   2.225   7.001
 2088SOL     OW 7162   6.883   5.728   5.079
 2088SOL    HW1 7163   6.913   5.633   5.065
 2088SOL    HW2 7164   6.963   5.788   5.083
 2089SOL     OW 7165   2.677   3.301   5.918
 2089SOL    HW1 7166   2.734   3.221   5.937
 2089SOL    HW2 7167   2.735   3.378   5.892
 2090SOL     OW 7168   4.452   3.534   5.276
 2090SOL    HW1 7169   4.386   3.609   5.268
 2090SOL    HW2 7170   4.531   3.552   5.218
 2091SOL     OW 7171   6.175   5.951   1.881
 2091SOL    HW1 7172   6.228   5.880   1.928
 2091SOL    HW2 7173   6.077   5.935   1.896
 2092SOL     OW 7174   4.386   3.650   1.098
 2092SOL    HW1 7175   4.286   3.644   1.092
 2092SOL    HW2 7176   4.415   3.631   1.192
 2093SOL     OW 7177   3.929   2.177   2.688
 2093SOL    HW1 7178   3.999   2.183   2.759
 2093SOL    HW2 7179   3.846   2.224   2.719
 2094SOL     OW 7180   5.618   2.746   6.852
 2094SOL    HW1 7181   5.629   2.649   6.829
 2094SOL    HW2 7182   5.578   2.755   6.943
 2095SOL     OW 7183   5.646   6.369   3.955
 2095SOL    HW1 7184   5.681   6.410   3.870
 2095SOL    HW2 7185   5.672   6.273   3.959
 2096SOL     OW 7186   4.409   6.483   2.038
 2096SOL    HW1 7187   4.329   6.535   2.008
 2096SOL    HW2 7188   4.492   6.530   2.006
 2097SOL     OW 7189   1.807   4.870   6.520
 2097SOL    HW1 7190   1.751   4.846   6.441
 2097SOL    HW2 7191   1.761   4.841   6.604
 2098SOL     OW 7192   3.520   6.562   3.036
 2098SOL    HW1 7193   3.431   6.517   3.039
 2098SOL    HW2 7194   3.508   6.661   3.039
 2099SOL     OW 7195   5.348   1.114   0.133
 2099SOL    HW1 7196   5.382   1.193   0.082
 2099SOL    HW2 7197   5.257   1.089   0.100
 2100SOL     OW 7198   5.778   0.988   0.585
 2100SOL    HW1 7199   5.743   1.082   0.594
 2100SOL    HW2 7200   5.731   0.942   0.510
 2101SOL     OW 7201   0.423   6.588   1.924
 2101SOL    HW1 7202   0.498   6.611   1.863
 2101SOL    HW2 7203   0.351   6.657   1.918
 2102SOL     OW 7204   3.933   3.385   0.715
 2102SOL    HW1 7205   3.894   3.386   0.807
 2102SOL    HW2 7206   3.892   3.458   0.660
 2103SOL     OW 7207   3.073   5.814   0.037
 2103SOL    HW1 7208   3.150   5.823   0.101
 2103SOL    HW2 7209   3.031   5.904   0.023
 2104SOL     OW 7210   1.139   4.598   3.016
 2104SOL    HW1 7211   1.073   4.568   3.085
 2104SOL    HW2 7212   1.122   4.550   2.930
 2105SOL     OW 7213   5.556   4.556   6.889
 2105SOL    HW1 7214   5.648   4.533   6.855
 2105SOL    HW2 7215   5.550   4.534   6.986
 2106SOL     OW 7216   4.974   3.728   2.574
 2106SOL    HW1 7217   4.920   3.801   2.615
 2106SOL    HW2 7218   4.923   3.642   2.579
 2107SOL     OW 7219   5.472   3.785   5.046
 2107SOL    HW1 7220   5.461   3.880   5.077
 2107SOL    HW2 7221   5.382   3.743   5.036
 2108SOL     OW 7222   5.613   6.598   5.917
 2108SOL    HW1 7223   5.659   6.660   5.982
 2108SOL    HW2 7224   5.521   6.578   5.950
 2109SOL     OW 7225   3.007   5.438   3.131
 2109SOL    HW1 7226   3.025   5.365   3.065
 2109SOL    HW2 7227   2.919   5.422   3.175
 2110SOL     OW 7228   3.706   0.751   6.769
 2110SOL    HW1 7229   3.735   0.668   6.721
 2110SOL    HW2 7230   3.616   0.779   6.733
 2111SOL     OW 7231   1.016   3.119   5.816
 2111SOL    HW1 7232   1.115   3.124   5.828
 2111SOL    HW2 7233   0.977   3.056   5.884
 2112SOL     OW 7234   0.599   1.973   0.705
 2112SOL    HW1 7235   0.555   1.994   0.618
 2112SOL    HW2 7236   0.633   1.879   0.704
 2113SOL     OW 7237   1.812   0.214   4.628
 2113SOL    HW1 7238   1.815   0.114   4.624
 2113SOL    HW2 7239   1.755   0.249   4.553
 2114SOL     OW 7240   1.759   2.749   6.966
 2114SOL    HW1 7241   1.785   2.706   0.029
 2114SOL    HW2 7242   1.831   2.733   6.899
 2115SOL     OW 7243   0.046   5.524   3.433
 2115SOL    HW1 7244   0.076   5.541   3.527
 2115SOL    HW2 7245   7.000   5.453   3.433
 2116SOL     OW 7246   0.571   2.292   6.909
 2116SOL    HW1 7247   0.658   2.282   6.958
 2116SOL    HW2 7248   0.584   2.267   6.813
 2117SOL     OW 7249   5.690   1.331   2.126
 2117SOL    HW1 7250   5.732   1.417   2.154
 2117SOL    HW2 7251   5.632   1.346   2.046
 2118SOL     OW 7252   6.296   3.323   1.981
 2118SOL    HW1 7253   6.339   3.244   2.027
 2118SOL    HW2 7254   6.202   3.299   1.956
 2119SOL     OW 7255   2.898   0.450   6.968
 2119SOL    HW1 7256   2.858   0.360   6.955
 2119SOL    HW2 7257   2.950   0.475   6.886
 2120SOL     OW 7258   5.793   1.670   1.025
 2120SOL    HW1 7259   5.758   1.650   0.933
 2120SOL    HW2 7260   5.892   1.687   1.019
 2121SOL     OW 7261   1.930   0.989   6.529
 2121SOL    HW1 7262   1.920   1.043   6.445
 2121SOL    HW2 7263   1.973   0.902   6.506
 2122SOL     OW 7264   5.782   0.575   5.243
 2122SOL    HW1 7265   5.882   0.573   5.235
 2122SOL    HW2 7266   5.753   0.664   5.278
 2123SOL     OW 7267   1.283   5.998   3.059
 2123SOL    HW1 7268   1.269   5.923   2.995
 2123SOL    HW2 7269   1.304   6.082   3.007
 2124SOL     OW 7270   3.453   2.866   5.855
 2124SOL    HW1 7271   3.498   2.948   5.821
 2124SOL    HW2 7272   3.428   2.807   5.779
 2125SOL     OW 7273   1.794   6.012   2.787
 2125SOL    HW1 7274   1.754   6.064   2.711
 2125SOL    HW2 7275   1.726   6.001   2.859
 2126SOL     OW 7276   3.835   3.688   6.885
 2126SOL    HW1 7277   3.923   3.734   6.870
 2126SOL    HW2 7278   3.768   3.755   6.917
 2127SOL     OW 7279   0.475   2.545   5.822
 2127SOL    HW1 7280   0.445   2.564   5.728
 2127SOL    HW2 7281   0.552   2.606   5.845
 2128SOL     OW 7282   5.162   2.961   1.719
 2128SOL    HW1 7283   5.115   3.048   1.702
 2128SOL    HW2 7284   5.194   2.958   1.814
 2129SOL     OW 7285   5.239   4.291   4.052
 2129SOL    HW1 7286   5.332   4.295   4.017
 2129SOL    HW2 7287   5.176   4.267   3.978
 2130SOL     OW 7288   1.982   0.647   2.567
 2130SOL    HW1 7289   1.984   0.676   2.471
 2130SOL    HW2 7290   2.062   0.683   2.615
 2131SOL     OW 7291   5.829   1.903   5.752
 2131SOL    HW1 7292   5.825   1.817   5.701
 2131SOL    HW2 7293   5.921   1.916   5.788
 2132SOL     OW 7294   2.813   1.997   6.856
 2132SOL    HW1 7295   2.747   1.932   6.894
 2132SOL    HW2 7296   2.861   1.954   6.779
 2133SOL     OW 7297   2.595   2.366   1.742
 2133SOL    HW1 7298   2.534   2.388   1.665
 2133SOL    HW2 7299   2.540   2.341   1.821
 2134SOL     OW 7300   0.680   6.579   5.087
 2134SOL    HW1 7301   0.702   6.566   5.184
 2134SOL    HW2 7302   0.677   6.490   5.041
 2135SOL     OW 7303   0.459   1.154   3.637
 2135SOL    HW1 7304   0.550   1.149   3.596
 2135SOL    HW2 7305   0.390   1.156   3.565
 2136SOL     OW 7306   0.591   3.236   4.304
 2136SOL    HW1 7307   0.559   3.153   4.350
 2136SOL    HW2 7308   0.630   3.212   4.215
 2137SOL     OW 7309   1.670   0.029   5.330
 2137SOL    HW1 7310   1.682   0.036   5.231
 2137SOL    HW2 7311   1.760   0.020   5.374
 2138SOL     OW 7312   0.247   2.640   0.367
 2138SOL    HW1 7313   0.153   2.669   0.387
 2138SOL    HW2 7314   0.261   2.547   0.400
 2139SOL     OW 7315   3.257   0.478   4.841
 2139SOL    HW1 7316   3.252   0.480   4.741
 2139SOL    HW2 7317   3.179   0.427   4.878
 2140SOL     OW 7318   2.345   6.082   3.645
 2140SOL    HW1 7319   2.291   6.033   3.576
 2140SOL    HW2 7320   2.416   6.136   3.599
 2141SOL     OW 7321   5.839   2.167   0.663
 2141SOL    HW1 7322   5.889   2.160   0.749
 2141SOL    HW2 7323   5.877   2.242   0.608
 2142SOL     OW 7324   1.934   2.126   3.624
 2142SOL    HW1 7325   1.892   2.055   3.568
 2142SOL    HW2 7326   2.031   2.133   3.603
 2143SOL     OW 7327   3.474   6.895   1.569
 2143SOL    HW1 7328   3.549   6.879   1.504
 2143SOL    HW2 7329   3.472   6.991   1.596
 2144SOL     OW 7330   0.772   0.764   3.771
 2144SOL    HW1 7331   0.691   0.780   3.714
 2144SOL    HW2 7332   0.844   0.724   3.715
 2145SOL     OW 7333   3.230   5.148   3.275
 2145SOL    HW1 7334   3.262   5.238   3.301
 2145SOL    HW2 7335   3.130   5.150   3.262
 2146SOL     OW 7336   3.278   2.846   2.137
 2146SOL    HW1 7337   3.377   2.852   2.134
 2146SOL    HW2 7338   3.250   2.750   2.147
 2147SOL     OW 7339   0.709   1.666   5.989
 2147SOL    HW1 7340   0.674   1.586   6.038
 2147SOL    HW2 7341   0.771   1.636   5.917
 2148SOL     OW 7342   4.943   3.755   2.934
 2148SOL    HW1 7343   4.925   3.842   2.888
 2148SOL    HW2 7344   4.950   3.682   2.866
 2149SOL     OW 7345   4.112   1.196   2.390
 2149SOL    HW1 7346   4.099   1.286   2.349
 2149SOL    HW2 7347   4.073   1.126   2.330
 2150SOL     OW 7348   3.538   2.138   3.459
 2150SOL    HW1 7349   3.463   2.182   3.411
 2150SOL    HW2 7350   3.530   2.157   3.557
 2151SOL     OW 7351   3.760   2.844   5.730
 2151SOL    HW1 7352   3.820   2.846   5.810
 2151SOL    HW2 7353   3.705   2.928   5.728
 2152SOL     OW 7354   5.993   6.652   1.940
 2152SOL    HW1 7355   6.052   6.675   1.864
 2152SOL    HW2 7356   5.956   6.560   1.928
 2153SOL     OW 7357   4.392   1.927   3.738
 2153SOL    HW1 7358   4.396   1.963   3.831
 2153SOL    HW2 7359   4.409   2.000   3.673
 2154SOL     OW 7360   2.754   5.912   4.664
 2154SOL    HW1 7361   2.689   5.888   4.593
 2154SOL    HW2 7362   2.719   5.990   4.716
 2155SOL     OW 7363   0.784   4.255   0.465
 2155SOL    HW1 7364   0.799   4.158   0.445
 2155SOL    HW2 7365   0.868   4.307   0.448
 2156SOL     OW 7366   1.954   0.358   2.235
 2156SOL    HW1 7367   1.975   0.430   2.168
 2156SOL    HW2 7368   1.876   0.386   2.290
 2157SOL     OW 7369   0.327   1.114   4.873
 2157SOL    HW1 7370   0.340   1.015   4.868
 2157SOL    HW2 7371   0.229   1.134   4.869
 2158SOL     OW 7372   3.833   0.089   1.295
 2158SOL    HW1 7373   3.830   7.015   1.313
 2158SOL    HW2 7374   3.800   0.139   1.375
 2159SOL     OW 7375   1.253   6.933   4.788
 2159SOL    HW1 7376   1.335   6.990   4.798
 2159SOL    HW2 7377   1.254   6.860   4.856
 2160SOL     OW 7378   3.099   4.564   0.845
 2160SOL    HW1 7379   3.107   4.509   0.928
 2160SOL    HW2 7380   3.014   4.541   0.797
 2161SOL     OW 7381   5.221   3.091   3.141
 2161SOL    HW1 7382   5.165   3.025   3.091
 2161SOL    HW2 7383   5.191   3.094   3.236
 2162SOL     OW 7384   1.873   0.666   6.655
 2162SOL    HW1 7385   1.787   0.673   6.606
 2162SOL    HW2 7386   1.948   0.692   6.595
 2163SOL     OW 7387   1.708   1.275   0.583
 2163SOL    HW1 7388   1.772   1.231   0.520
 2163SOL    HW2 7389   1.616   1.273   0.545
 2164SOL     OW 7390   1.766   1.105   6.711
 2164SOL    HW1 7391   1.822   1.038   6.662
 2164SOL    HW2 7392   1.808   1.195   6.704
 2165SOL     OW 7393   1.890   0.029   3.018
 2165SOL    HW1 7394   1.897   6.998   3.101
 2165SOL    HW2 7395   1.797   0.026   2.983
 2166SOL     OW 7396   1.214   2.569   5.341
 2166SOL    HW1 7397   1.190   2.620   5.424
 2166SOL    HW2 7398   1.247   2.478   5.367
 2167SOL     OW 7399   3.926   1.046   2.224
 2167SOL    HW1 7400   3.831   1.076   2.234
 2167SOL    HW2 7401   3.948   1.037   2.127
 2168SOL     OW 7402   5.752   3.906   4.150
 2168SOL    HW1 7403   5.717   3.943   4.064
 2168SOL    HW2 7404   5.845   3.939   4.165
 2169SOL     OW 7405   4.889   2.218   6.309
 2169SOL    HW1 7406   4.907   2.315   6.290
 2169SOL    HW2 7407   4.968   2.163   6.282
 2170SOL     OW 7408   4.517   4.976   5.078
 2170SOL    HW1 7409   4.490   4.993   5.172
 2170SOL    HW2 7410   4.435   4.963   5.022
 2171SOL     OW 7411   0.015   2.960   0.314
 2171SOL    HW1 7412   6.980   2.952   0.233
 2171SOL    HW2 7413   0.004   2.880   0.372
 2172SOL     OW 7414   2.923   0.815   0.698
 2172SOL    HW1 7415   2.899   0.888   0.762
 2172SOL    HW2 7416   3.022   0.802   0.697
 2173SOL     OW 7417   5.596   1.682   5.722
 2173SOL    HW1 7418   5.588   1.634   5.810
 2173SOL    HW2 7419   5.691   1.678   5.690
 2174SOL     OW 7420   0.073   5.022   5.368
 2174SOL    HW1 7421   0.172   5.030   5.359
 2174SOL    HW2 7422   0.035   4.983   5.284
 2175SOL     OW 7423   2.478   0.609   4.197
 2175SOL    HW1 7424   2.510   0.588   4.289
 2175SOL    HW2 7425   2.492   0.529   4.138
 2176SOL     OW 7426   2.255   2.382   3.109
 2176SOL    HW1 7427   2.274   2.457   3.172
 2176SOL    HW2 7428   2.189   2.320   3.150
 2177SOL     OW 7429   0.476   2.503   0.685
 2177SOL    HW1 7430   0.417   2.499   0.766
 2177SOL    HW2 7431   0.425   2.469   0.606
 2178SOL     OW 7432   0.866   4.635   0.199
 2178SOL    HW1 7433   0.818   4.713   0.159
 2178SOL    HW2 7434   0.929   4.596   0.132
 2179SOL     OW 7435   1.777   5.443   4.251
 2179SOL    HW1 7436   1.734   5.532   4.269
 2179SOL    HW2 7437   1.868   5.459   4.211
 2180SOL     OW 7438   3.262   3.867   2.872
 2180SOL    HW1 7439   3.348   3.880   2.821
 2180SOL    HW2 7440   3.186   3.905   2.819
 2181SOL     OW 7441   5.603   5.595   5.802
 2181SOL    HW1 7442   5.540   5.585   5.725
 2181SOL    HW2 7443   5.561   5.557   5.884
 2182SOL     OW 7444   6.941   2.821   6.148
 2182SOL    HW1 7445   6.930   2.839   6.246
 2182SOL    HW2 7446   0.011   2.797   6.129
 2183SOL     OW 7447   3.739   3.008   0.805
 2183SOL    HW1 7448   3.836   3.002   0.784
 2183SOL    HW2 7449   3.702   2.916   0.818
 2184SOL     OW 7450   3.904   2.447   6.355
 2184SOL    HW1 7451   3.832   2.507   6.321
 2184SOL    HW2 7452   3.873   2.404   6.440
 2185SOL     OW 7453   1.788   0.983   1.536
 2185SOL    HW1 7454   1.801   1.045   1.614
 2185SOL    HW2 7455   1.877   0.952   1.504
 2186SOL     OW 7456   0.707   5.762   3.308
 2186SOL    HW1 7457   0.800   5.724   3.310
 2186SOL    HW2 7458   0.711   5.859   3.288
 2187SOL     OW 7459   6.959   1.812   7.008
 2187SOL    HW1 7460   6.888   1.760   0.032
 2187SOL    HW2 7461   0.007   1.750   6.979
 2188SOL     OW 7462   5.486   7.015   3.513
 2188SOL    HW1 7463   5.461   6.943   3.448
 2188SOL    HW2 7464   5.487   6.976   3.606
 2189SOL     OW 7465   1.982   6.390   6.539
 2189SOL    HW1 7466   1.950   6.485   6.541
 2189SOL    HW2 7467   2.039   6.372   6.619
 2190SOL     OW 7468   5.633   1.756   1.719
 2190SOL    HW1 7469   5.588   1.681   1.670
 2190SOL    HW2 7470   5.704   1.718   1.778
 2191SOL     OW 7471   3.040   2.963   6.193
 2191SOL    HW1 7472   3.024   2.922   6.283
 2191SOL    HW2 7473   3.106   2.908   6.142
 2192SOL     OW 7474   4.739   5.580   5.266
 2192SOL    HW1 7475   4.740   5.480   5.260
 2192SOL    HW2 7476   4.651   5.609   5.304
 2193SOL     OW 7477   0.602   5.085   5.283
 2193SOL    HW1 7478   0.570   5.098   5.190
 2193SOL    HW2 7479   0.688   5.033   5.282
 2194SOL     OW 7480   2.303   6.722   0.766
 2194SOL    HW1 7481   2.400   6.734   0.782
 2194SOL    HW2 7482   2.261   6.811   0.745
 2195SOL     OW 7483   1.081   5.425   2.743
 2195SOL    HW1 7484   1.085   5.327   2.723
 2195SOL    HW2 7485   0.993   5.447   2.786
 2196SOL     OW 7486   3.764   2.153   6.249
 2196SOL    HW1 7487   3.760   2.221   6.322
 2196SOL    HW2 7488   3.740   2.195   6.162
 2197SOL     OW 7489   5.261   4.896   1.068
 2197SOL    HW1 7490   5.327   4.934   1.133
 2197SOL    HW2 7491   5.209   4.823   1.113
 2198SOL     OW 7492   6.674   3.698   0.515
 2198SOL    HW1 7493   6.660   3.797   0.525
 2198SOL    HW2 7494   6.605   3.649   0.570
 2199SOL     OW 7495   4.481   0.220   1.267
 2199SOL    HW1 7496   4.385   0.220   1.236
 2199SOL    HW2 7497   4.541   0.233   1.188
 2200SOL     OW 7498   3.506   0.580   4.428
 2200SOL    HW1 7499   3.462   0.490   4.438
 2200SOL    HW2 7500   3.546   0.587   4.337
 2201SOL     OW 7501   5.717   3.554   2.110
 2201SOL    HW1 7502   5.767   3.613   2.046
 2201SOL    HW2 7503   5.662   3.489   2.059
 2202SOL     OW 7504   4.802   5.713   3.794
 2202SOL    HW1 7505   4.763   5.648   3.729
 2202SOL    HW2 7506   4.779   5.806   3.766
 2203SOL     OW 7507   3.573   1.873   3.320
 2203SOL    HW1 7508   3.562   1.965   3.358
 2203SOL    HW2 7509   3.638   1.876   3.245
 2204SOL     OW 7510   3.099   2.547   0.510
 2204SOL    HW1 7511   3.119   2.538   0.413
 2204SOL    HW2 7512   3.036   2.622   0.525
 2205SOL     OW 7513   2.994   6.974   0.795
 2205SOL    HW1 7514   3.012   0.037   0.840
 2205SOL    HW2 7515   3.075   6.916   0.801
 2206SOL     OW 7516   2.507   3.155   6.892
 2206SOL    HW1 7517   2.435   3.213   6.854
 2206SOL    HW2 7518   2.578   3.140   6.823
 2207SOL     OW 7519   1.176   4.489   6.272
 2207SOL    HW1 7520   1.172   4.404   6.219
 2207SOL    HW2 7521   1.270   4.510   6.295
 2208SOL     OW 7522   0.196   3.346   1.903
 2208SOL    HW1 7523   0.139   3.314   1.827
 2208SOL    HW2 7524   0.271   3.402   1.868
 2209SOL     OW 7525   0.707   5.917   6.533
 2209SOL    HW1 7526   0.777   5.846   6.542
 2209SOL    HW2 7527   0.715   5.960   6.444
 2210SOL     OW 7528   0.926   6.320   4.310
 2210SOL    HW1 7529   0.882   6.403   4.344
 2210SOL    HW2 7530   0.994   6.344   4.241
 2211SOL     OW 7531   5.927   1.407   5.648
 2211SOL    HW1 7532   5.990   1.354   5.704
 2211SOL    HW2 7533   5.839   1.360   5.643
 2212SOL     OW 7534   1.793   0.311   6.189
 2212SOL    HW1 7535   1.742   0.323   6.104
 2212SOL    HW2 7536   1.733   0.272   6.259
 2213SOL     OW 7537   3.648   1.647   3.544
 2213SOL    HW1 7538   3.681   1.687   3.459
 2213SOL    HW2 7539   3.669   1.550   3.546
 2214SOL     OW 7540   4.883   6.965   4.662
 2214SOL    HW1 7541   4.964   6.914   4.634
 2214SOL    HW2 7542   4.850   7.020   4.585
 2215SOL     OW 7543   6.274   2.351   5.259
 2215SOL    HW1 7544   6.244   2.424   5.197
 2215SOL    HW2 7545   6.338   2.389   5.326
 2216SOL     OW 7546   1.593   6.530   1.407
 2216SOL    HW1 7547   1.511   6.493   1.365
 2216SOL    HW2 7548   1.649   6.455   1.442
 2217SOL     OW 7549   4.111   0.371   0.937
 2217SOL    HW1 7550   4.170   0.418   0.872
 2217SOL    HW2 7551   4.155   0.370   1.027
 2218SOL     OW 7552   0.439   5.671   6.857
 2218SOL    HW1 7553   0.435   5.578   6.893
 2218SOL    HW2 7554   0.404   5.735   6.925
 2219SOL     OW 7555   1.913   3.932   2.979
 2219SOL    HW1 7556   1.849   3.952   3.054
 2219SOL    HW2 7557   1.898   3.839   2.946
 2220SOL     OW 7558   0.457   1.202   6.112
 2220SOL    HW1 7559   0.364   1.212   6.148
 2220SOL    HW2 7560   0.498   1.118   6.148
 2221SOL     OW 7561   6.532   2.472   1.610
 2221SOL    HW1 7562   6.497   2.490   1.702
 2221SOL    HW2 7563   6.553   2.559   1.565
 2222SOL     OW 7564   4.831   6.742   2.665
 2222SOL    HW1 7565   4.741   6.785   2.669
 2222SOL    HW2 7566   4.886   6.785   2.593
 2223SOL     OW 7567   5.772   5.475   3.115
 2223SOL    HW1 7568   5.782   5.566   3.075
 2223SOL    HW2 7569   5.861   5.429   3.115
 2224SOL     OW 7570   1.332   4.416   1.239
 2224SOL    HW1 7571   1.234   4.416   1.259
 2224SOL    HW2 7572   1.368   4.323   1.250
 2225SOL     OW 7573   6.302   5.013   2.305
 2225SOL    HW1 7574   6.378   4.948   2.296
 2225SOL    HW2 7575   6.215   4.963   2.303
 2226SOL     OW 7576   3.642   4.102   0.764
 2226SOL    HW1 7577   3.635   4.157   0.847
 2226SOL    HW2 7578   3.620   4.159   0.685
 2227SOL     OW 7579   6.730   4.127   5.135
 2227SOL    HW1 7580   6.662   4.200   5.122
 2227SOL    HW2 7581   6.786   4.147   5.216
 2228SOL     OW 7582   3.339   4.632   6.339
 2228SOL    HW1 7583   3.382   4.557   6.389
 2228SOL    HW2 7584   3.394   4.715   6.349
 2229SOL     OW 7585   4.651   1.011   3.425
 2229SOL    HW1 7586   4.681   1.096   3.381
 2229SOL    HW2 7587   4.565   1.027   3.473
 2230SOL     OW 7588   1.122   6.469   6.161
 2230SOL    HW1 7589   1.126   6.487   6.260
 2230SOL    HW2 7590   1.049   6.525   6.120
 2231SOL     OW 7591   2.226   7.005   1.561
 2231SOL    HW1 7592   2.161   7.007   1.637
 2231SOL    HW2 7593   2.318   6.988   1.596
 2232SOL     OW 7594   6.062   2.669   2.673
 2232SOL    HW1 7595   5.999   2.654   2.749
 2232SOL    HW2 7596   6.034   2.613   2.594
 2233SOL     OW 7597   4.132   0.128   6.991
 2233SOL    HW1 7598   4.137   0.043   0.019
 2233SOL    HW2 7599   4.037   0.148   6.967
 2234SOL     OW 7600   3.856   1.764   0.721
 2234SOL    HW1 7601   3.928   1.722   0.666
 2234SOL    HW2 7602   3.887   1.853   0.755
 2235SOL     OW 7603   1.459   6.545   0.583
 2235SOL    HW1 7604   1.466   6.642   0.606
 2235SOL    HW2 7605   1.388   6.502   0.638
 2236SOL     OW 7606   0.569   4.192   1.203
 2236SOL    HW1 7607   0.556   4.124   1.130
 2236SOL    HW2 7608   0.479   4.221   1.237
 2237SOL     OW 7609   6.381   2.744   4.512
 2237SOL    HW1 7610   6.300   2.691   4.488
 2237SOL    HW2 7611   6.462   2.700   4.475
 2238SOL     OW 7612   0.923   5.507   1.913
 2238SOL    HW1 7613   0.825   5.515   1.897
 2238SOL    HW2 7614   0.941   5.424   1.967
 2239SOL     OW 7615   4.362   4.962   3.222
 2239SOL    HW1 7616   4.297   4.887   3.212
 2239SOL    HW2 7617   4.422   4.944   3.301
 2240SOL     OW 7618   5.767   4.903   2.257
 2240SOL    HW1 7619   5.706   4.982   2.263
 2240SOL    HW2 7620   5.760   4.862   2.166
 2241SOL     OW 7621   0.485   0.085   2.165
 2241SOL    HW1 7622   0.424   0.160   2.142
 2241SOL    HW2 7623   0.486   0.018   2.091
 2242SOL     OW 7624   4.807   1.686   2.718
 2242SOL    HW1 7625   4.803   1.784   2.737
 2242SOL    HW2 7626   4.893   1.664   2.672
 2243SOL     OW 7627   2.401   6.222   5.413
 2243SOL    HW1 7628   2.331   6.158   5.441
 2243SOL    HW2 7629   2.489   6.175   5.405
 2244SOL     OW 7630   3.003   0.941   4.421
 2244SOL    HW1 7631   3.103   0.943   4.422
 2244SOL    HW2 7632   2.967   1.014   4.479
 2245SOL     OW 7633   1.410   1.420   2.085
 2245SOL    HW1 7634   1.436   1.375   1.999
 2245SOL    HW2 7635   1.334   1.483   2.068
 2246SOL     OW 7636   0.831   4.047   5.681
 2246SOL    HW1 7637   0.804   3.994   5.760
 2246SOL    HW2 7638   0.921   4.016   5.650
 2247SOL     OW 7639   1.993   2.202   6.007
 2247SOL    HW1 7640   1.913   2.190   6.066
 2247SOL    HW2 7641   1.990   2.135   5.933
 2248SOL     OW 7642   5.040   3.311   5.384
 2248SOL    HW1 7643   5.101   3.231   5.380
 2248SOL    HW2 7644   4.974   3.305   5.310
 2249SOL     OW 7645   5.042   5.419   3.692
 2249SOL    HW1 7646   5.026   5.413   3.790
 2249SOL    HW2 7647   5.067   5.328   3.657
 2250SOL     OW 7648   6.764   4.667   0.109
 2250SOL    HW1 7649   6.770   4.669   0.009
 2250SOL    HW2 7650   6.729   4.755   0.141
 2251SOL     OW 7651   5.925   0.787   6.840
 2251SOL    HW1 7652   6.023   0.800   6.854
 2251SOL    HW2 7653   5.910   0.732   6.758
 2252SOL     OW 7654   4.563   2.426   5.526
 2252SOL    HW1 7655   4.500   2.460   5.595
 2252SOL    HW2 7656   4.568   2.326   5.531
 2253SOL     OW 7657   2.424   3.422   6.902
 2253SOL    HW1 7658   2.365   3.456   6.975
 2253SOL    HW2 7659   2.387   3.451   6.813
 2254SOL     OW 7660   2.355   3.903   5.743
 2254SOL    HW1 7661   2.394   3.818   5.779
 2254SOL    HW2 7662   2.422   3.977   5.752
 2255SOL     OW 7663   5.946   2.695   1.500
 2255SOL    HW1 7664   5.977   2.623   1.562
 2255SOL    HW2 7665   5.851   2.719   1.522
 2256SOL     OW 7666   4.059   4.801   1.515
 2256SOL    HW1 7667   3.979   4.812   1.573
 2256SOL    HW2 7668   4.030   4.788   1.420
 2257SOL     OW 7669   1.968   4.183   3.864
 2257SOL    HW1 7670   1.929   4.218   3.948
 2257SOL    HW2 7671   1.915   4.104   3.833
 2258SOL     OW 7672   1.662   5.699   4.301
 2258SOL    HW1 7673   1.592   5.690   4.230
 2258SOL    HW2 7674   1.635   5.646   4.381
 2259SOL     OW 7675   5.167   3.603   6.889
 2259SOL    HW1 7676   5.248   3.628   6.836
 2259SOL    HW2 7677   5.134   3.514   6.859
 2260SOL     OW 7678   5.404   5.295   1.093
 2260SOL    HW1 7679   5.496   5.283   1.054
 2260SOL    HW2 7680   5.335   5.278   1.023
 2261SOL     OW 7681   5.144   6.202   6.818
 2261SOL    HW1 7682   5.159   6.196   6.720
 2261SOL    HW2 7683   5.189   6.284   6.854
 2262SOL     OW 7684   4.552   2.250   3.278
 2262SOL    HW1 7685   4.570   2.322   3.212
 2262SOL    HW2 7686   4.611   2.262   3.358
 2263SOL     OW 7687   0.814   4.848   6.011
 2263SOL    HW1 7688   0.837   4.945   6.011
 2263SOL    HW2 7689   0.897   4.794   6.024
 2264SOL     OW 7690   3.820   3.298   4.219
 2264SOL    HW1 7691   3.833   3.325   4.124
 2264SOL    HW2 7692   3.726   3.267   4.233
 2265SOL     OW 7693   0.063   0.056   1.896
 2265SOL    HW1 7694   0.036   6.998   1.847
 2265SOL    HW2 7695   0.035   0.049   1.992
 2266SOL     OW 7696   5.921   0.092   0.610
 2266SOL    HW1 7697   5.856   0.156   0.571
 2266SOL    HW2 7698   5.968   0.134   0.688
 2267SOL     OW 7699   6.082   2.755   5.814
 2267SOL    HW1 7700   5.985   2.774   5.803
 2267SOL    HW2 7701   6.095   2.658   5.833
 2268SOL     OW 7702   6.959   5.787   6.559
 2268SOL    HW1 7703   6.985   5.703   6.511
 2268SOL    HW2 7704   6.867   5.776   6.596
 2269SOL     OW 7705   6.634   5.218   5.830
 2269SOL    HW1 7706   6.596   5.129   5.805
 2269SOL    HW2 7707   6.663   5.266   5.748
 2270SOL     OW 7708   3.824   3.562   1.488
 2270SOL    HW1 7709   3.924   3.561   1.496
 2270SOL    HW2 7710   3.793   3.654   1.464
 2271SOL     OW 7711   6.674   4.393   2.185
 2271SOL    HW1 7712   6.756   4.446   2.206
 2271SOL    HW2 7713   6.637   4.353   2.269
 2272SOL     OW 7714   6.172   1.934   6.210
 2272SOL    HW1 7715   6.154   1.946   6.308
 2272SOL    HW2 7716   6.093   1.891   6.167
 2273SOL     OW 7717   0.817   1.587   2.821
 2273SOL    HW1 7718   0.727   1.586   2.865
 2273SOL    HW2 7719   0.822   1.514   2.754
 2274SOL     OW 7720   0.734   3.132   4.097
 2274SOL    HW1 7721   0.828   3.155   4.121
 2274SOL    HW2 7722   0.731   3.096   4.004
 2275SOL     OW 7723   5.144   6.872   3.892
 2275SOL    HW1 7724   5.211   6.840   3.958
 2275SOL    HW2 7725   5.052   6.860   3.929
 2276SOL     OW 7726   4.467   4.857   1.683
 2276SOL    HW1 7727   4.387   4.918   1.686
 2276SOL    HW2 7728   4.502   4.851   1.590
 2277SOL     OW 7729   3.385   3.314   7.022
 2277SOL    HW1 7730   3.436   3.247   0.052
 2277SOL    HW2 7731   3.324   3.367   0.057
 2278SOL     OW 7732   5.705   6.023   1.377
 2278SOL    HW1 7733   5.767   6.089   1.334
 2278SOL    HW2 7734   5.691   6.048   1.473
 2279SOL     OW 7735   5.814   3.620   4.642
 2279SOL    HW1 7736   5.876   3.585   4.572
 2279SOL    HW2 7737   5.814   3.720   4.641
 2280SOL     OW 7738   6.110   6.564   6.792
 2280SOL    HW1 7739   6.190   6.528   6.840
 2280SOL    HW2 7740   6.051   6.487   6.764
 2281SOL     OW 7741   3.595   2.794   0.815
 2281SOL    HW1 7742   3.569   2.813   0.720
 2281SOL    HW2 7743   3.596   2.695   0.830
 2282SOL     OW 7744   4.322   5.694   2.800
 2282SOL    HW1 7745   4.415   5.676   2.830
 2282SOL    HW2 7746   4.290   5.780   2.840
 2283SOL     OW 7747   6.843   2.848   3.133
 2283SOL    HW1 7748   6.863   2.916   3.203
 2283SOL    HW2 7749   6.929   2.817   3.090
 2284SOL     OW 7750   2.022   2.713   2.300
 2284SOL    HW1 7751   2.117   2.684   2.313
 2284SOL    HW2 7752   1.962   2.649   2.348
 2285SOL     OW 7753   1.662   4.375   0.190
 2285SOL    HW1 7754   1.715   4.290   0.185
 2285SOL    HW2 7755   1.583   4.361   0.250
 2286SOL     OW 7756   6.612   6.113   4.406
 2286SOL    HW1 7757   6.633   6.169   4.326
 2286SOL    HW2 7758   6.608   6.171   4.487
 2287SOL     OW 7759   2.412   2.591   2.011
 2287SOL    HW1 7760   2.374   2.502   1.988
 2287SOL    HW2 7761   2.383   2.618   2.103
 2288SOL     OW 7762   0.209   6.267   3.847
 2288SOL    HW1 7763   0.166   6.203   3.910
 2288SOL    HW2 7764   0.225   6.222   3.760
 2289SOL     OW 7765   5.378   2.173   2.223
 2289SOL    HW1 7766   5.383   2.095   2.160
 2289SOL    HW2 7767   5.383   2.258   2.170
 2290SOL     OW 7768   2.920   3.360   2.806
 2290SOL    HW1 7769   2.946   3.278   2.753
 2290SOL    HW2 7770   2.914   3.336   2.903
 2291SOL     OW 7771   1.960   2.959   0.537
 2291SOL    HW1 7772   2.047   2.918   0.565
 2291SOL    HW2 7773   1.977   3.052   0.504
 2292SOL     OW 7774   4.287   2.230   3.336
 2292SOL    HW1 7775   4.370   2.257   3.287
 2292SOL    HW2 7776   4.292   2.262   3.430
 2293SOL     OW 7777   6.171   1.042   7.017
 2293SOL    HW1 7778   6.101   1.092   6.967
 2293SOL    HW2 7779   6.193   1.093   0.077
 2294SOL     OW 7780   0.843   2.340   5.791
 2294SOL    HW1 7781   0.922   2.346   5.852
 2294SOL    HW2 7782   0.875   2.332   5.696
 2295SOL     OW 7783   6.092   6.515   1.511
 2295SOL    HW1 7784   6.096   6.503   1.412
 2295SOL    HW2 7785   6.089   6.613   1.533
 2296SOL     OW 7786   2.957   5.689   3.956
 2296SOL    HW1 7787   3.035   5.728   4.005
 2296SOL    HW2 7788   2.874   5.738   3.982
 2297SOL     OW 7789   4.173   4.437   5.316
 2297SOL    HW1 7790   4.235   4.453   5.239
 2297SOL    HW2 7791   4.211   4.481   5.398
 2298SOL     OW 7792   3.839   3.613   4.267
 2298SOL    HW1 7793   3.916   3.675   4.253
 2298SOL    HW2 7794   3.857   3.555   4.347
 2299SOL     OW 7795   5.392   2.814   4.726
 2299SOL    HW1 7796   5.425   2.785   4.636
 2299SOL    HW2 7797   5.293   2.800   4.732
 2300SOL     OW 7798   3.991   6.455   2.120
 2300SOL    HW1 7799   3.963   6.534   2.065
 2300SOL    HW2 7800   4.005   6.376   2.061
 2301SOL     OW 7801   3.613   3.276   4.480
 2301SOL    HW1 7802   3.572   3.297   4.391
 2301SOL    HW2 7803   3.585   3.343   4.548
 2302SOL     OW 7804   4.823   2.137   0.464
 2302SOL    HW1 7805   4.766   2.123   0.383
 2302SOL    HW2 7806   4.767   2.132   0.546
 2303SOL     OW 7807   3.798   2.486   0.718
 2303SOL    HW1 7808   3.710   2.533   0.715
 2303SOL    HW2 7809   3.787   2.397   0.762
 2304SOL     OW 7810   5.986   6.266   1.715
 2304SOL    HW1 7811   5.995   6.172   1.680
 2304SOL    HW2 7812   6.076   6.310   1.717
 2305SOL     OW 7813   1.894   1.095   5.146
 2305SOL    HW1 7814   1.963   1.148   5.095
 2305SOL    HW2 7815   1.904   1.112   5.244
 2306SOL     OW 7816   1.828   5.472   3.586
 2306SOL    HW1 7817   1.912   5.526   3.590
 2306SOL    HW2 7818   1.756   5.526   3.543
 2307SOL     OW 7819   0.206   2.233   5.396
 2307SOL    HW1 7820   0.108   2.222   5.415
 2307SOL    HW2 7821   0.248   2.289   5.468
 2308SOL     OW 7822   2.647   4.851   1.780
 2308SOL    HW1 7823   2.666   4.768   1.728
 2308SOL    HW2 7824   2.697   4.848   1.867
 2309SOL     OW 7825   1.485   6.174   5.228
 2309SOL    HW1 7826   1.494   6.238   5.152
 2309SOL    HW2 7827   1.559   6.107   5.224
 2310SOL     OW 7828   4.935   6.536   1.822
 2310SOL    HW1 7829   5.014   6.486   1.857
 2310SOL    HW2 7830   4.870   6.552   1.896
 2311SOL     OW 7831   2.498   6.264   0.791
 2311SOL    HW1 7832   2.455   6.335   0.846
 2311SOL    HW2 7833   2.592   6.250   0.822
 2312SOL     OW 7834   3.361   4.903   2.652
 2312SOL    HW1 7835   3.394   4.921   2.559
 2312SOL    HW2 7836   3.287   4.835   2.647
 2313SOL     OW 7837   4.880   5.125   2.347
 2313SOL    HW1 7838   4.940   5.142   2.269
 2313SOL    HW2 7839   4.913   5.175   2.427
 2314SOL     OW 7840   2.457   5.786   4.017
 2314SOL    HW1 7841   2.386   5.850   3.986
 2314SOL    HW2 7842   2.474   5.718   3.945
 2315SOL     OW 7843   4.187   3.320   6.647
 2315SOL    HW1 7844   4.126   3.247   6.677
 2315SOL    HW2 7845   4.244   3.287   6.572
 2316SOL     OW 7846   5.857   2.994   2.999
 2316SOL    HW1 7847   5.823   3.085   3.020
 2316SOL    HW2 7848   5.783   2.927   3.006
 2317SOL     OW 7849   1.355   5.051   3.773
 2317SOL    HW1 7850   1.296   5.132   3.772
 2317SOL    HW2 7851   1.451   5.080   3.769
 2318SOL     OW 7852   0.224   0.865   3.565
 2318SOL    HW1 7853   0.219   0.938   3.633
 2318SOL    HW2 7854   0.241   0.904   3.475
 2319SOL     OW 7855   1.396   3.902   4.138
 2319SOL    HW1 7856   1.390   3.884   4.040
 2319SOL    HW2 7857   1.311   3.946   4.169
 2320SOL     OW 7858   6.716   3.121   4.604
 2320SOL    HW1 7859   6.748   3.188   4.671
 2320SOL    HW2 7860   6.750   3.030   4.628
 2321SOL     OW 7861   3.323   6.589   5.528
 2321SOL    HW1 7862   3.365   6.499   5.535
 2321SOL    HW2 7863   3.235   6.588   5.576
 2322SOL     OW 7864   2.513   0.441   5.439
 2322SOL    HW1 7865   2.504   0.537   5.412
 2322SOL    HW2 7866   2.433   0.414   5.493
 2323SOL     OW 7867   4.925   5.414   1.764
 2323SOL    HW1 7868   4.919   5.326   1.810
 2323SOL    HW2 7869   4.984   5.475   1.816
 2324SOL     OW 7870   6.877   5.311   3.416
 2324SOL    HW1 7871   6.897   5.306   3.318
 2324SOL    HW2 7872   6.784   5.279   3.433
 2325SOL     OW 7873   0.149   3.736   0.529
 2325SOL    HW1 7874   0.103   3.825   0.537
 2325SOL    HW2 7875   0.083   3.663   0.544
 2326SOL     OW 7876   1.529   5.349   6.831
 2326SOL    HW1 7877   1.544   5.254   6.806
 2326SOL    HW2 7878   1.615   5.389   6.862
 2327SOL     OW 7879   4.780   2.570   4.445
 2327SOL    HW1 7880   4.717   2.620   4.386
 2327SOL    HW2 7881   4.870   2.614   4.443
 2328SOL     OW 7882   4.905   0.220   3.587
 2328SOL    HW1 7883   4.996   0.258   3.573
 2328SOL    HW2 7884   4.907   0.121   3.576
 2329SOL     OW 7885   0.558   6.140   3.951
 2329SOL    HW1 7886   0.571   6.150   3.853
 2329SOL    HW2 7887   0.647   6.131   3.996
 2330SOL     OW 7888   0.547   4.255   2.772
 2330SOL    HW1 7889   0.628   4.309   2.753
 2330SOL    HW2 7890   0.468   4.315   2.785
 2331SOL     OW 7891   0.943   4.528   5.057
 2331SOL    HW1 7892   0.865   4.504   5.000
 2331SOL    HW2 7893   1.025   4.535   5.000
 2332SOL     OW 7894   5.428   2.468   5.665
 2332SOL    HW1 7895   5.422   2.368   5.657
 2332SOL    HW2 7896   5.371   2.511   5.595
 2333SOL     OW 7897   0.758   5.749   3.921
 2333SOL    HW1 7898   0.815   5.786   3.994
 2333SOL    HW2 7899   0.806   5.672   3.877
 2334SOL     OW 7900   2.989   7.008   0.035
 2334SOL    HW1 7901   2.942   0.042   0.102
 2334SOL    HW2 7902   2.966   6.913   0.051
 2335SOL     OW 7903   5.327   6.765   4.078
 2335SOL    HW1 7904   5.280   6.685   4.117
 2335SOL    HW2 7905   5.302   6.847   4.130
 2336SOL     OW 7906   5.412   1.970   5.905
 2336SOL    HW1 7907   5.494   2.010   5.865
 2336SOL    HW2 7908   5.414   1.981   6.005
 2337SOL     OW 7909   5.225   6.941   3.222
 2337SOL    HW1 7910   5.189   0.005   3.252
 2337SOL    HW2 7911   5.278   6.900   3.296
 2338SOL     OW 7912   0.887   6.337   6.752
 2338SOL    HW1 7913   0.940   6.281   6.816
 2338SOL    HW2 7914   0.936   6.421   6.733
 2339SOL     OW 7915   3.652   4.161   0.401
 2339SOL    HW1 7916   3.737   4.169   0.452
 2339SOL    HW2 7917   3.667   4.103   0.320
 2340SOL     OW 7918   3.217   5.554   4.773
 2340SOL    HW1 7919   3.191   5.545   4.869
 2340SOL    HW2 7920   3.220   5.464   4.730
 2341SOL     OW 7921   5.682   4.964   0.491
 2341SOL    HW1 7922   5.601   4.920   0.452
 2341SOL    HW2 7923   5.659   5.056   0.522
 2342SOL     OW 7924   5.828   0.245   5.503
 2342SOL    HW1 7925   5.919   0.266   5.468
 2342SOL    HW2 7926   5.809   0.148   5.491
 2343SOL     OW 7927   1.076   6.593   1.309
 2343SOL    HW1 7928   1.157   6.540   1.287
 2343SOL    HW2 7929   1.048   6.574   1.403
 2344SOL     OW 7930   2.071   2.165   2.855
 2344SOL    HW1 7931   2.094   2.262   2.851
 2344SOL    HW2 7932   2.026   2.138   2.770
 2345SOL     OW 7933   2.055   1.365   4.524
 2345SOL    HW1 7934   2.053   1.451   4.473
 2345SOL    HW2 7935   1.997   1.298   4.476
 2346SOL     OW 7936   5.361   4.345   5.642
 2346SOL    HW1 7937   5.295   4.410   5.680
 2346SOL    HW2 7938   5.318   4.255   5.635
 2347SOL     OW 7939   1.790   3.113   1.942
 2347SOL    HW1 7940   1.731   3.179   1.989
 2347SOL    HW2 7941   1.837   3.056   2.009
 2348SOL     OW 7942   2.492   6.802   2.055
 2348SOL    HW1 7943   2.468   6.797   1.958
 2348SOL    HW2 7944   2.439   6.735   2.107
 2349SOL     OW 7945   5.452   5.652   5.573
 2349SOL    HW1 7946   5.427   5.561   5.539
 2349SOL    HW2 7947   5.370   5.707   5.585
 2350SOL     OW 7948   2.220   6.739   5.894
 2350SOL    HW1 7949   2.188   6.831   5.874
 2350SOL    HW2 7950   2.142   6.677   5.905
 2351SOL     OW 7951   2.258   5.429   4.488
 2351SOL    HW1 7952   2.334   5.474   4.536
 2351SOL    HW2 7953   2.290   5.394   4.400
 2352SOL     OW 7954   0.576   3.533   2.697
 2352SOL    HW1 7955   0.636   3.592   2.751
 2352SOL    HW2 7956   0.622   3.446   2.680
 2353SOL     OW 7957   2.977   3.927   5.880
 2353SOL    HW1 7958   2.945   4.020   5.894
 2353SOL    HW2 7959   3.051   3.907   5.945
 2354SOL     OW 7960   4.185   2.458   0.839
 2354SOL    HW1 7961   4.228   2.422   0.756
 2354SOL    HW2 7962   4.087   2.471   0.823
 2355SOL     OW 7963   0.565   6.194   0.681
 2355SOL    HW1 7964   0.639   6.209   0.747
 2355SOL    HW2 7965   0.597   6.134   0.608
 2356SOL     OW 7966   2.979   5.151   3.506
 2356SOL    HW1 7967   3.008   5.060   3.534
 2356SOL    HW2 7968   2.948   5.147   3.411
 2357SOL     OW 7969   6.591   4.248   1.754
 2357SOL    HW1 7970   6.563   4.281   1.844
 2357SOL    HW2 7971   6.525   4.278   1.686
 2358SOL     OW 7972   3.702   2.237   5.985
 2358SOL    HW1 7973   3.732   2.320   5.937
 2358SOL    HW2 7974   3.685   2.165   5.919
 2359SOL     OW 7975   1.459   1.501   5.787
 2359SOL    HW1 7976   1.387   1.462   5.844
 2359SOL    HW2 7977   1.478   1.440   5.710
 2360SOL     OW 7978   4.150   4.079   0.643
 2360SOL    HW1 7979   4.187   4.162   0.601
 2360SOL    HW2 7980   4.183   3.999   0.593
 2361SOL     OW 7981   3.903   6.287   1.734
 2361SOL    HW1 7982   3.943   6.212   1.681
 2361SOL    HW2 7983   3.932   6.280   1.829
 2362SOL     OW 7984   4.055   6.419   4.329
 2362SOL    HW1 7985   4.111   6.367   4.393
 2362SOL    HW2 7986   4.113   6.480   4.275
 2363SOL     OW 7987   3.171   3.990   0.403
 2363SOL    HW1 7988   3.089   4.047   0.400
 2363SOL    HW2 7989   3.252   4.047   0.391
 2364SOL     OW 7990   4.674   1.681   1.989
 2364SOL    HW1 7991   4.610   1.677   2.066
 2364SOL    HW2 7992   4.662   1.600   1.932
 2365SOL     OW 7993   4.930   3.615   3.514
 2365SOL    HW1 7994   4.908   3.607   3.417
 2365SOL    HW2 7995   4.892   3.537   3.563
 2366SOL     OW 7996   2.535   4.520   5.184
 2366SOL    HW1 7997   2.504   4.601   5.234
 2366SOL    HW2 7998   2.629   4.535   5.153
 2367SOL     OW 7999   0.737   4.610   5.646
 2367SOL    HW1 8000   0.705   4.682   5.584
 2367SOL    HW2 8001   0.709   4.631   5.739
 2368SOL     OW 8002   5.480   6.145   4.487
 2368SOL    HW1 8003   5.579   6.137   4.484
 2368SOL    HW2 8004   5.444   6.144   4.393
 2369SOL     OW 8005   3.064   1.962   3.987
 2369SOL    HW1 8006   3.157   1.971   4.024
 2369SOL    HW2 8007   3.015   1.892   4.039
 2370SOL     OW 8008   5.376   2.394   1.624
 2370SOL    HW1 8009   5.386   2.369   1.528
 2370SOL    HW2 8010   5.296   2.349   1.662
 2371SOL     OW 8011   0.972   0.078   3.042
 2371SOL    HW1 8012   0.898   0.145   3.049
 2371SOL    HW2 8013   0.933   7.010   3.031
 2372SOL     OW 8014   6.618   1.304   6.099
 2372SOL    HW1 8015   6.553   1.359   6.046
 2372SOL    HW2 8016   6.604   1.319   6.196
 2373SOL     OW 8017   5.899   6.483   6.325
 2373SOL    HW1 8018   5.865   6.438   6.242
 2373SOL    HW2 8019   5.837   6.557   6.350
 2374SOL     OW 8020   5.576   6.021   2.543
 2374SOL    HW1 8021   5.663   5.974   2.536
 2374SOL    HW2 8022   5.577   6.082   2.622
 2375SOL     OW 8023   1.043   0.586   3.998
 2375SOL    HW1 8024   0.977   0.653   4.031
 2375SOL    HW2 8025   1.084   0.538   4.075
 2376SOL     OW 8026   5.710   1.375   2.977
 2376SOL    HW1 8027   5.637   1.438   2.951
 2376SOL    HW2 8028   5.799   1.419   2.964
 2377SOL     OW 8029   3.928   4.938   5.780
 2377SOL    HW1 8030   3.834   4.906   5.794
 2377SOL    HW2 8031   3.930   5.001   5.702
 2378SOL     OW 8032   0.462   1.147   0.217
 2378SOL    HW1 8033   0.435   1.225   0.273
 2378SOL    HW2 8034   0.517   1.083   0.272
 2379SOL     OW 8035   6.903   5.309   1.269
 2379SOL    HW1 8036   6.981   5.264   1.225
 2379SOL    HW2 8037   6.929   5.402   1.296
 2380SOL     OW 8038   5.044   4.576   5.166
 2380SOL    HW1 8039   5.059   4.625   5.080
 2380SOL    HW2 8040   4.996   4.636   5.230
 2381SOL     OW 8041   2.846   5.495   4.554
 2381SOL    HW1 8042   2.870   5.421   4.491
 2381SOL    HW2 8043   2.793   5.459   4.630
 2382SOL     OW 8044   0.886   5.947   1.749
 2382SOL    HW1 8045   0.839   5.891   1.817
 2382SOL    HW2 8046   0.939   5.888   1.688
 2383SOL     OW 8047   4.951   5.444   5.486
 2383SOL    HW1 8048   4.904   5.492   5.413
 2383SOL    HW2 8049   5.032   5.399   5.449
 2384SOL     OW 8050   0.634   2.051   1.847
 2384SOL    HW1 8051   0.661   2.135   1.798
 2384SOL    HW2 8052   0.662   1.971   1.793
 2385SOL     OW 8053   0.929   2.163   1.103
 2385SOL    HW1 8054   0.881   2.186   1.187
 2385SOL    HW2 8055   0.896   2.075   1.069
 2386SOL     OW 8056   4.445   5.909   4.388
 2386SOL    HW1 8057   4.351   5.878   4.400
 2386SOL    HW2 8058   4.479   5.878   4.299
 2387SOL     OW 8059   1.752   1.513   4.124
 2387SOL    HW1 8060   1.672   1.487   4.070
 2387SOL    HW2 8061   1.727   1.588   4.186
 2388SOL     OW 8062   6.490   1.632   5.488
 2388SOL    HW1 8063   6.539   1.549   5.462
 2388SOL    HW2 8064   6.430   1.611   5.566
 2389SOL     OW 8065   6.132   4.599   4.435
 2389SOL    HW1 8066   6.080   4.565   4.356
 2389SOL    HW2 8067   6.070   4.628   4.507
 2390SOL     OW 8068   4.549   4.189   5.875
 2390SOL    HW1 8069   4.520   4.126   5.948
 2390SOL    HW2 8070   4.610   4.140   5.812
 2391SOL     OW 8071   3.667   3.934   6.120
 2391SOL    HW1 8072   3.699   4.015   6.169
 2391SOL    HW2 8073   3.649   3.860   6.186
 2392SOL     OW 8074   3.560   5.551   4.913
 2392SOL    HW1 8075   3.472   5.596   4.898
 2392SOL    HW2 8076   3.553   5.454   4.890
 2393SOL     OW 8077   3.278   5.415   1.411
 2393SOL    HW1 8078   3.244   5.369   1.493
 2393SOL    HW2 8079   3.320   5.349   1.350
 2394SOL     OW 8080   0.814   2.482   3.140
 2394SOL    HW1 8081   0.801   2.429   3.224
 2394SOL    HW2 8082   0.877   2.433   3.079
 2395SOL     OW 8083   0.213   2.179   5.121
 2395SOL    HW1 8084   0.190   2.276   5.118
 2395SOL    HW2 8085   0.231   2.152   5.216
 2396SOL     OW 8086   6.558   1.331   5.330
 2396SOL    HW1 8087   6.575   1.347   5.233
 2396SOL    HW2 8088   6.643   1.301   5.374
 2397SOL     OW 8089   0.238   5.204   5.118
 2397SOL    HW1 8090   0.308   5.135   5.103
 2397SOL    HW2 8091   0.208   5.242   5.030
 2398SOL     OW 8092   2.837   6.024   3.644
 2398SOL    HW1 8093   2.821   6.087   3.720
 2398SOL    HW2 8094   2.876   5.939   3.678
 2399SOL     OW 8095   2.735   2.379   4.023
 2399SOL    HW1 8096   2.788   2.401   4.105
 2399SOL    HW2 8097   2.755   2.285   3.995
 2400SOL     OW 8098   0.743   3.965   0.448
 2400SOL    HW1 8099   0.653   3.998   0.478
 2400SOL    HW2 8100   0.739   3.866   0.435
 2401SOL     OW 8101   3.596   0.123   5.717
 2401SOL    HW1 8102   3.498   0.117   5.702
 2401SOL    HW2 8103   3.619   0.212   5.755
 2402SOL     OW 8104   0.650   3.175   2.004
 2402SOL    HW1 8105   0.598   3.261   1.996
 2402SOL    HW2 8106   0.747   3.194   1.995
 2403SOL     OW 8107   3.613   3.741   3.054
 2403SOL    HW1 8108   3.536   3.804   3.067
 2403SOL    HW2 8109   3.583   3.664   2.998
 2404SOL     OW 8110   6.597   1.704   1.217
 2404SOL    HW1 8111   6.559   1.640   1.151
 2404SOL    HW2 8112   6.593   1.797   1.179
 2405SOL     OW 8113   2.303   3.962   0.329
 2405SOL    HW1 8114   2.280   3.865   0.334
 2405SOL    HW2 8115   2.287   3.995   0.236
 2406SOL     OW 8116   2.547   6.925   5.137
 2406SOL    HW1 8117   2.588   6.840   5.105
 2406SOL    HW2 8118   2.616   6.997   5.140
 2407SOL     OW 8119   3.574   1.271   3.966
 2407SOL    HW1 8120   3.485   1.311   3.945
 2407SOL    HW2 8121   3.575   1.175   3.939
 2408SOL     OW 8122   2.617   6.384   4.825
 2408SOL    HW1 8123   2.521   6.365   4.808
 2408SOL    HW2 8124   2.657   6.428   4.744
 2409SOL     OW 8125   2.241   2.609   1.299
 2409SOL    HW1 8126   2.241   2.702   1.336
 2409SOL    HW2 8127   2.165   2.558   1.340
 2410SOL     OW 8128   6.789   3.847   5.841
 2410SOL    HW1 8129   6.787   3.892   5.752
 2410SOL    HW2 8130   6.714   3.781   5.847
 2411SOL     OW 8131   2.527   3.776   6.998
 2411SOL    HW1 8132   2.428   3.761   6.994
 2411SOL    HW2 8133   2.564   3.779   6.905
 2412SOL     OW 8134   3.428   1.805   6.493
 2412SOL    HW1 8135   3.391   1.896   6.511
 2412SOL    HW2 8136   3.475   1.772   6.575
 2413SOL     OW 8137   7.001   2.866   6.443
 2413SOL    HW1 8138   0.021   2.953   6.463
 2413SOL    HW2 8139   0.040   2.791   6.462
 2414SOL     OW 8140   6.131   2.380   4.628
 2414SOL    HW1 8141   6.178   2.389   4.716
 2414SOL    HW2 8142   6.154   2.292   4.586
 2415SOL     OW 8143   2.774   6.222   0.852
 2415SOL    HW1 8144   2.772   6.123   0.845
 2415SOL    HW2 8145   2.839   6.250   0.922
 2416SOL     OW 8146   6.774   3.572   2.865
 2416SOL    HW1 8147   6.790   3.478   2.835
 2416SOL    HW2 8148   6.860   3.610   2.901
 2417SOL     OW 8149   3.619   3.905   1.044
 2417SOL    HW1 8150   3.575   3.937   0.960
 2417SOL    HW2 8151   3.626   3.981   1.109
 2418SOL     OW 8152   4.988   4.273   5.768
 2418SOL    HW1 8153   5.066   4.318   5.811
 2418SOL    HW2 8154   4.996   4.174   5.780
 2419SOL     OW 8155   2.020   6.351   4.246
 2419SOL    HW1 8156   1.986   6.258   4.233
 2419SOL    HW2 8157   1.980   6.390   4.329
 2420SOL     OW 8158   2.254   4.502   2.666
 2420SOL    HW1 8159   2.228   4.549   2.750
 2420SOL    HW2 8160   2.353   4.501   2.657
 2421SOL     OW 8161   3.070   0.033   4.601
 2421SOL    HW1 8162   3.042   6.971   4.642
 2421SOL    HW2 8163   3.087   0.020   4.504
 2422SOL     OW 8164   4.384   6.365   1.134
 2422SOL    HW1 8165   4.301   6.414   1.106
 2422SOL    HW2 8166   4.464   6.409   1.094
 2423SOL     OW 8167   2.013   4.673   1.966
 2423SOL    HW1 8168   1.971   4.665   1.876
 2423SOL    HW2 8169   2.105   4.709   1.958
 2424SOL     OW 8170   5.369   1.484   6.144
 2424SOL    HW1 8171   5.303   1.557   6.163
 2424SOL    HW2 8172   5.331   1.396   6.175
 2425SOL     OW 8173   4.477   5.244   5.707
 2425SOL    HW1 8174   4.441   5.279   5.620
 2425SOL    HW2 8175   4.545   5.173   5.688
 2426SOL     OW 8176   1.359   5.243   5.434
 2426SOL    HW1 8177   1.316   5.333   5.433
 2426SOL    HW2 8178   1.449   5.249   5.391
 2427SOL     OW 8179   4.969   0.819   6.349
 2427SOL    HW1 8180   4.998   0.841   6.256
 2427SOL    HW2 8181   5.039   0.764   6.395
 2428SOL     OW 8182   0.274   0.634   3.424
 2428SOL    HW1 8183   0.296   0.707   3.359
 2428SOL    HW2 8184   0.248   0.675   3.511
 2429SOL     OW 8185   5.474   5.746   2.158
 2429SOL    HW1 8186   5.455   5.773   2.252
 2429SOL    HW2 8187   5.423   5.805   2.095
 2430SOL     OW 8188   5.996   2.750   6.853
 2430SOL    HW1 8189   6.022   2.654   6.864
 2430SOL    HW2 8190   5.947   2.781   6.935
 2431SOL     OW 8191   6.737   2.023   1.417
 2431SOL    HW1 8192   6.706   2.113   1.385
 2431SOL    HW2 8193   6.816   2.035   1.477
 2432SOL     OW 8194   3.526   5.264   2.039
 2432SOL    HW1 8195   3.552   5.189   2.100
 2432SOL    HW2 8196   3.516   5.348   2.091
 2433SOL     OW 8197   6.559   3.879   0.165
 2433SOL    HW1 8198   6.568   3.903   0.261
 2433SOL    HW2 8199   6.496   3.802   0.155
 2434SOL     OW 8200   3.985   1.849   3.085
 2434SOL    HW1 8201   3.929   1.917   3.133
 2434SOL    HW2 8202   3.958   1.845   2.989
 2435SOL     OW 8203   5.220   6.637   6.742
 2435SOL    HW1 8204   5.261   6.707   6.800
 2435SOL    HW2 8205   5.216   6.670   6.647
 2436SOL     OW 8206   2.378   1.738   1.263
 2436SOL    HW1 8207   2.289   1.708   1.230
 2436SOL    HW2 8208   2.432   1.772   1.186
 2437SOL     OW 8209   6.657   5.523   1.976
 2437SOL    HW1 8210   6.641   5.574   1.892
 2437SOL    HW2 8211   6.747   5.548   2.013
 2438SOL     OW 8212   2.810   1.742   4.850
 2438SOL    HW1 8213   2.828   1.823   4.795
 2438SOL    HW2 8214   2.781   1.667   4.791
 2439SOL     OW 8215   0.569   5.637   0.463
 2439SOL    HW1 8216   0.625   5.715   0.435
 2439SOL    HW2 8217   0.606   5.553   0.422
 2440SOL     OW 8218   4.640   1.026   5.183
 2440SOL    HW1 8219   4.723   0.971   5.189
 2440SOL    HW2 8220   4.623   1.049   5.087
 2441SOL     OW 8221   6.063   0.514   6.916
 2441SOL    HW1 8222   6.110   0.495   6.830
 2441SOL    HW2 8223   5.964   0.502   6.904
 2442SOL     OW 8224   4.882   3.990   2.210
 2442SOL    HW1 8225   4.972   4.030   2.190
 2442SOL    HW2 8226   4.894   3.899   2.249
 2443SOL     OW 8227   2.145   2.268   0.682
 2443SOL    HW1 8228   2.127   2.228   0.592
 2443SOL    HW2 8229   2.072   2.242   0.745
 2444SOL     OW 8230   3.474   5.574   0.836
 2444SOL    HW1 8231   3.387   5.553   0.880
 2444SOL    HW2 8232   3.473   5.543   0.741
 2445SOL     OW 8233   0.786   2.189   0.794
 2445SOL    HW1 8234   0.724   2.114   0.773
 2445SOL    HW2 8235   0.870   2.178   0.740
 2446SOL     OW 8236   1.678   3.805   1.684
 2446SOL    HW1 8237   1.647   3.790   1.778
 2446SOL    HW2 8238   1.624   3.877   1.642
 2447SOL     OW 8239   2.975   0.403   0.709
 2447SOL    HW1 8240   2.964   0.422   0.611
 2447SOL    HW2 8241   2.928   0.473   0.762
 2448SOL     OW 8242   6.140   1.711   4.222
 2448SOL    HW1 8243   6.114   1.639   4.157
 2448SOL    HW2 8244   6.231   1.745   4.198
 2449SOL     OW 8245   1.633   4.131   1.989
 2449SOL    HW1 8246   1.537   4.136   2.017
 2449SOL    HW2 8247   1.655   4.209   1.931
 2450SOL     OW 8248   2.120   5.585   6.423
 2450SOL    HW1 8249   2.165   5.500   6.396
 2450SOL    HW2 8250   2.153   5.659   6.365
 2451SOL     OW 8251   0.968   7.023   4.862
 2451SOL    HW1 8252   1.068   7.012   4.858
 2451SOL    HW2 8253   0.933   0.021   4.770
 2452SOL     OW 8254   2.437   2.612   3.611
 2452SOL    HW1 8255   2.482   2.603   3.522
 2452SOL    HW2 8256   2.496   2.574   3.682
 2453SOL     OW 8257   0.312   1.442   0.040
 2453SOL    HW1 8258   0.361   1.402   6.987
 2453SOL    HW2 8259   0.373   1.503   0.091
 2454SOL     OW 8260   4.039   5.347   0.957
 2454SOL    HW1 8261   3.950   5.302   0.946
 2454SOL    HW2 8262   4.042   5.429   0.900
 2455SOL     OW 8263   3.784   0.955   0.295
 2455SOL    HW1 8264   3.871   0.922   0.333
 2455SOL    HW2 8265   3.708   0.903   0.336
 2456SOL     OW 8266   1.197   4.838   6.976
 2456SOL    HW1 8267   1.256   4.889   0.014
 2456SOL    HW2 8268   1.201   4.879   6.885
 2457SOL     OW 8269   5.501   1.681   5.300
 2457SOL    HW1 8270   5.598   1.659   5.289
 2457SOL    HW2 8271   5.476   1.751   5.234
 2458SOL     OW 8272   0.705   0.409   2.854
 2458SOL    HW1 8273   0.691   0.330   2.914
 2458SOL    HW2 8274   0.766   0.383   2.779
 2459SOL     OW 8275   2.628   6.255   0.462
 2459SOL    HW1 8276   2.541   6.215   0.489
 2459SOL    HW2 8277   2.636   6.347   0.501
 2460SOL     OW 8278   1.523   1.256   6.934
 2460SOL    HW1 8279   1.519   1.333   6.871
 2460SOL    HW2 8280   1.492   1.173   6.888
 2461SOL     OW 8281   4.039   0.807   4.063
 2461SOL    HW1 8282   4.064   0.754   3.982
 2461SOL    HW2 8283   4.122   0.840   4.108
 2462SOL     OW 8284   0.484   4.869   0.944
 2462SOL    HW1 8285   0.475   4.789   1.003
 2462SOL    HW2 8286   0.471   4.842   0.848
 2463SOL     OW 8287   6.863   1.100   6.905
 2463SOL    HW1 8288   6.914   1.151   6.975
 2463SOL    HW2 8289   6.807   1.163   6.852
 2464SOL     OW 8290   0.012   2.171   2.693
 2464SOL    HW1 8291   0.095   2.211   2.653
 2464SOL    HW2 8292   6.992   2.238   2.752
 2465SOL     OW 8293   0.280   5.013   5.925
 2465SOL    HW1 8294   0.205   4.949   5.911
 2465SOL    HW2 8295   0.284   5.078   5.849
 2466SOL     OW 8296   1.804   1.721   1.628
 2466SOL    HW1 8297   1.900   1.736   1.605
 2466SOL    HW2 8298   1.746   1.781   1.574
 2467SOL     OW 8299   4.922   1.445   5.960
 2467SOL    HW1 8300   4.948   1.385   6.036
 2467SOL    HW2 8301   4.824   1.464   5.963
 2468SOL     OW 8302   3.907   0.479   6.030
 2468SOL    HW1 8303   3.957   0.547   6.082
 2468SOL    HW2 8304   3.834   0.523   5.977
 2469SOL     OW 8305   4.132   2.455   5.570
 2469SOL    HW1 8306   4.037   2.427   5.587
 2469SOL    HW2 8307   4.189   2.373   5.559
 2470SOL     OW 8308   4.032   4.594   0.003
 2470SOL    HW1 8309   4.108   4.652   0.032
 2470SOL    HW2 8310   3.987   4.635   6.947
 2471SOL     OW 8311   3.946   6.640   1.116
 2471SOL    HW1 8312   3.976   6.735   1.122
 2471SOL    HW2 8313   3.848   6.636   1.101
 2472SOL     OW 8314   4.926   2.648   4.157
 2472SOL    HW1 8315   4.974   2.628   4.243
 2472SOL    HW2 8316   4.975   2.605   4.081
 2473SOL     OW 8317   0.961   4.424   4.669
 2473SOL    HW1 8318   1.053   4.461   4.657
 2473SOL    HW2 8319   0.966   4.333   4.710
 2474SOL     OW 8320   1.008   5.370   0.786
 2474SOL    HW1 8321   1.040   5.280   0.814
 2474SOL    HW2 8322   0.956   5.412   0.860
 2475SOL     OW 8323   5.350   0.284   0.863
 2475SOL    HW1 8324   5.421   0.271   0.794
 2475SOL    HW2 8325   5.266   0.315   0.819
 2476SOL     OW 8326   5.610   0.617   2.265
 2476SOL    HW1 8327   5.666   0.559   2.206
 2476SOL    HW2 8328   5.654   0.626   2.354
 2477SOL     OW 8329   3.913   0.481   3.469
 2477SOL    HW1 8330   3.940   0.454   3.561
 2477SOL    HW2 8331   3.814   0.473   3.459
 2478SOL     OW 8332   4.531   1.360   2.924
 2478SOL    HW1 8333   4.582   1.443   2.902
 2478SOL    HW2 8334   4.467   1.379   2.998
 2479SOL     OW 8335   0.762   2.697   1.342
 2479SOL    HW1 8336   0.740   2.625   1.409
 2479SOL    HW2 8337   0.695   2.694   1.268
 2480SOL     OW 8338   3.659   2.760   1.099
 2480SOL    HW1 8339   3.611   2.805   1.023
 2480SOL    HW2 8340   3.702   2.829   1.157
 2481SOL     OW 8341   3.477   0.386   1.792
 2481SOL    HW1 8342   3.523   0.297   1.802
 2481SOL    HW2 8343   3.470   0.431   1.881
 2482SOL     OW 8344   5.199   3.760   0.105
 2482SOL    HW1 8345   5.214   3.696   0.180
 2482SOL    HW2 8346   5.227   3.718   0.019
 2483SOL     OW 8347   0.855   2.574   0.107
 2483SOL    HW1 8348   0.787   2.631   0.153
 2483SOL    HW2 8349   0.936   2.564   0.165
 2484SOL     OW 8350   4.049   0.797   1.503
 2484SOL    HW1 8351   4.034   0.854   1.584
 2484SOL    HW2 8352   4.086   0.709   1.531
 2485SOL     OW 8353   6.013   2.214   6.899
 2485SOL    HW1 8354   6.089   2.157   6.931
 2485SOL    HW2 8355   5.994   2.193   6.803
 2486SOL     OW 8356   0.364   4.948   5.385
 2486SOL    HW1 8357   0.378   4.850   5.374
 2486SOL    HW2 8358   0.448   4.997   5.359
 2487SOL     OW 8359   4.413   6.059   0.853
 2487SOL    HW1 8360   4.507   6.073   0.821
 2487SOL    HW2 8361   4.414   6.035   0.950
 2488SOL     OW 8362   0.100   4.173   1.860
 2488SOL    HW1 8363   0.084   4.104   1.931
 2488SOL    HW2 8364   0.013   4.212   1.832
 2489SOL     OW 8365   0.695   6.435   4.067
 2489SOL    HW1 8366   0.598   6.446   4.089
 2489SOL    HW2 8367   0.750   6.478   4.138
 2490SOL     OW 8368   0.753   6.012   1.103
 2490SOL    HW1 8369   0.689   6.084   1.128
 2490SOL    HW2 8370   0.753   5.999   1.004
 2491SOL     OW 8371   3.940   4.390   1.627
 2491SOL    HW1 8372   3.852   4.437   1.625
 2491SOL    HW2 8373   4.012   4.454   1.654
 2492SOL     OW 8374   5.088   3.662   1.352
 2492SOL    HW1 8375   5.132   3.619   1.430
 2492SOL    HW2 8376   5.156   3.709   1.296
 2493SOL     OW 8377   0.233   0.249   0.850
 2493SOL    HW1 8378   0.172   0.186   0.897
 2493SOL    HW2 8379   0.295   0.291   0.917
 2494SOL     OW 8380   5.848   3.710   1.940
 2494SOL    HW1 8381   5.909   3.742   2.013
 2494SOL    HW2 8382   5.809   3.788   1.891
 2495SOL     OW 8383   5.161   5.853   3.180
 2495SOL    HW1 8384   5.199   5.811   3.262
 2495SOL    HW2 8385   5.148   5.783   3.110
 2496SOL     OW 8386   0.459   3.575   6.910
 2496SOL    HW1 8387   0.387   3.576   6.979
 2496SOL    HW2 8388   0.547   3.594   6.953
 2497SOL     OW 8389   0.813   0.347   0.508
 2497SOL    HW1 8390   0.744   0.282   0.478
 2497SOL    HW2 8391   0.792   0.438   0.471
 2498SOL     OW 8392   3.399   2.785   5.592
 2498SOL    HW1 8393   3.305   2.813   5.574
 2498SOL    HW2 8394   3.408   2.686   5.578
 2499SOL     OW 8395   5.984   2.971   1.765
 2499SOL    HW1 8396   6.033   2.917   1.834
 2499SOL    HW2 8397   6.049   3.008   1.699
 2500SOL     OW 8398   3.526   3.440   6.475
 2500SOL    HW1 8399   3.431   3.435   6.444
 2500SOL    HW2 8400   3.530   3.485   6.564
 2501SOL     OW 8401   5.336   5.566   0.115
 2501SOL    HW1 8402   5.361   5.661   0.135
 2501SOL    HW2 8403   5.396   5.530   0.044
 2502SOL     OW 8404   2.139   6.741   4.821
 2502SOL    HW1 8405   2.234   6.744   4.852
 2502SOL    HW2 8406   2.129   6.799   4.740
 2503SOL     OW 8407   3.394   6.851   5.181
 2503SOL    HW1 8408   3.450   6.775   5.148
 2503SOL    HW2 8409   3.416   6.934   5.129
 2504SOL     OW 8410   3.758   5.523   2.385
 2504SOL    HW1 8411   3.676   5.489   2.339
 2504SOL    HW2 8412   3.732   5.564   2.473
 2505SOL     OW 8413   0.424   5.779   3.253
 2505SOL    HW1 8414   0.523   5.780   3.239
 2505SOL    HW2 8415   0.398   5.696   3.302
 2506SOL     OW 8416   6.370   3.784   6.350
 2506SOL    HW1 8417   6.278   3.754   6.374
 2506SOL    HW2 8418   6.430   3.704   6.341
 2507SOL     OW 8419   0.442   3.477   0.299
 2507SOL    HW1 8420   0.351   3.515   0.317
 2507SOL    HW2 8421   0.433   3.381   0.275
 2508SOL     OW 8422   2.718   1.938   4.616
 2508SOL    HW1 8423   2.817   1.925   4.616
 2508SOL    HW2 8424   2.693   2.007   4.684
 2509SOL     OW 8425   6.686   4.219   0.444
 2509SOL    HW1 8426   6.708   4.301   0.390
 2509SOL    HW2 8427   6.742   4.217   0.526
 2510SOL     OW 8428   3.607   4.435   0.842
 2510SOL    HW1 8429   3.648   4.427   0.751
 2510SOL    HW2 8430   3.515   4.475   0.833
 2511SOL     OW 8431   2.222   1.195   4.717
 2511SOL    HW1 8432   2.239   1.261   4.790
 2511SOL    HW2 8433   2.149   1.230   4.657
 2512SOL     OW 8434   4.092   4.130   5.466
 2512SOL    HW1 8435   3.995   4.112   5.480
 2512SOL    HW2 8436   4.107   4.229   5.461
 2513SOL     OW 8437   1.948   5.584   5.202
 2513SOL    HW1 8438   1.930   5.628   5.113
 2513SOL    HW2 8439   2.027   5.523   5.193
 2514SOL     OW 8440   0.756   3.424   4.416
 2514SOL    HW1 8441   0.852   3.414   4.392
 2514SOL    HW2 8442   0.701   3.360   4.361
 2515SOL     OW 8443   1.724   0.036   1.342
 2515SOL    HW1 8444   1.646   6.998   1.349
 2515SOL    HW2 8445   1.804   7.020   1.386
 2516SOL     OW 8446   4.867   1.145   2.295
 2516SOL    HW1 8447   4.916   1.170   2.378
 2516SOL    HW2 8448   4.874   1.219   2.228
 2517SOL     OW 8449   1.638   0.288   5.949
 2517SOL    HW1 8450   1.730   0.302   5.911
 2517SOL    HW2 8451   1.571   0.338   5.894
 2518SOL     OW 8452   1.659   4.980   1.084
 2518SOL    HW1 8453   1.690   4.928   1.163
 2518SOL    HW2 8454   1.690   5.074   1.092
 2519SOL     OW 8455   3.570   1.244   1.416
 2519SOL    HW1 8456   3.637   1.171   1.431
 2519SOL    HW2 8457   3.586   1.318   1.482
 2520SOL     OW 8458   3.333   1.573   6.817
 2520SOL    HW1 8459   3.427   1.594   6.789
 2520SOL    HW2 8460   3.335   1.509   6.893
 2521SOL     OW 8461   3.284   1.755   5.636
 2521SOL    HW1 8462   3.374   1.713   5.649
 2521SOL    HW2 8463   3.265   1.817   5.712
 2522SOL     OW 8464   1.781   1.547   5.631
 2522SOL    HW1 8465   1.867   1.497   5.633
 2522SOL    HW2 8466   1.705   1.482   5.627
 2523SOL     OW 8467   1.885   3.544   1.175
 2523SOL    HW1 8468   1.967   3.529   1.230
 2523SOL    HW2 8469   1.874   3.642   1.159
 2524SOL     OW 8470   6.913   6.429   4.466
 2524SOL    HW1 8471   6.840   6.388   4.521
 2524SOL    HW2 8472   6.914   6.528   4.483
 2525SOL     OW 8473   1.458   3.260   4.750
 2525SOL    HW1 8474   1.466   3.233   4.654
 2525SOL    HW2 8475   1.399   3.341   4.756
 2526SOL     OW 8476   1.772   4.576   6.296
 2526SOL    HW1 8477   1.723   4.513   6.235
 2526SOL    HW2 8478   1.765   4.544   6.390
 2527SOL     OW 8479   5.250   5.851   5.604
 2527SOL    HW1 8480   5.209   5.868   5.694
 2527SOL    HW2 8481   5.236   5.931   5.546
 2528SOL     OW 8482   5.603   4.348   5.868
 2528SOL    HW1 8483   5.507   4.332   5.844
 2528SOL    HW2 8484   5.655   4.368   5.786
 2529SOL     OW 8485   0.562   6.669   6.951
 2529SOL    HW1 8486   0.554   6.604   6.876
 2529SOL    HW2 8487   0.648   6.655   6.999
 2530SOL     OW 8488   2.619   6.037   5.385
 2530SOL    HW1 8489   2.691   6.059   5.319
 2530SOL    HW2 8490   2.660   6.006   5.471
 2531SOL     OW 8491   6.110   6.267   5.846
 2531SOL    HW1 8492   6.048   6.345   5.838
 2531SOL    HW2 8493   6.150   6.247   5.756
 2532SOL     OW 8494   0.244   6.207   0.722
 2532SOL    HW1 8495   0.189   6.135   0.681
 2532SOL    HW2 8496   0.341   6.180   0.722
 2533SOL     OW 8497   4.633   0.573   3.752
 2533SOL    HW1 8498   4.683   0.564   3.838
 2533SOL    HW2 8499   4.636   0.668   3.722
 2534SOL     OW 8500   3.990   1.219   1.529
 2534SOL    HW1 8501   3.957   1.313   1.531
 2534SOL    HW2 8502   3.936   1.165   1.464
 2535SOL     OW 8503   3.485   2.567   6.800
 2535SOL    HW1 8504   3.557   2.545   6.866
 2535SOL    HW2 8505   3.395   2.549   6.842
 2536SOL     OW 8506   2.011   0.407   6.332
 2536SOL    HW1 8507   2.013   0.366   6.423
 2536SOL    HW2 8508   1.936   0.368   6.279
 2537SOL     OW 8509   3.193   0.073   6.447
 2537SOL    HW1 8510   3.249   0.020   6.383
 2537SOL    HW2 8511   3.126   0.127   6.397
 2538SOL     OW 8512   0.376   3.682   4.122
 2538SOL    HW1 8513   0.374   3.594   4.170
 2538SOL    HW2 8514   0.429   3.673   4.038
 2539SOL     OW 8515   5.077   1.075   4.695
 2539SOL    HW1 8516   5.014   1.092   4.619
 2539SOL    HW2 8517   5.097   0.977   4.700
 2540SOL     OW 8518   4.160   1.882   2.771
 2540SOL    HW1 8519   4.227   1.835   2.714
 2540SOL    HW2 8520   4.085   1.820   2.794
 2541SOL     OW 8521   3.091   7.021   5.233
 2541SOL    HW1 8522   3.081   6.985   5.326
 2541SOL    HW2 8523   3.046   6.960   5.168
 2542SOL     OW 8524   3.272   3.409   6.367
 2542SOL    HW1 8525   3.233   3.333   6.315
 2542SOL    HW2 8526   3.284   3.488   6.307
 2543SOL     OW 8527   0.396   0.628   4.428
 2543SOL    HW1 8528   0.304   0.605   4.460
 2543SOL    HW2 8529   0.457   0.550   4.444
 2544SOL     OW 8530   0.253   5.734   0.399
 2544SOL    HW1 8531   0.295   5.820   0.370
 2544SOL    HW2 8532   0.217   5.686   0.318
 2545SOL     OW 8533   1.571   6.659   2.291
 2545SOL    HW1 8534   1.521   6.704   2.365
 2545SOL    HW2 8535   1.667   6.649   2.317
 2546SOL     OW 8536   6.837   1.785   1.341
 2546SOL    HW1 8537   6.760   1.737   1.299
 2546SOL    HW2 8538   6.805   1.872   1.379
 2547SOL     OW 8539   0.558   3.759   0.300
 2547SOL    HW1 8540   0.498   3.680   0.308
 2547SOL    HW2 8541   0.503   3.841   0.281
 2548SOL     OW 8542   0.545   6.741   4.549
 2548SOL    HW1 8543   0.589   6.758   4.638
 2548SOL    HW2 8544   0.551   6.643   4.527
 2549SOL     OW 8545   1.134   0.442   1.700
 2549SOL    HW1 8546   1.087   0.453   1.788
 2549SOL    HW2 8547   1.232   0.435   1.716
 2550SOL     OW 8548   6.416   6.950   0.311
 2550SOL    HW1 8549   6.494   7.007   0.336
 2550SOL    HW2 8550   6.411   6.942   0.211
 2551SOL     OW 8551   3.156   4.636   0.328
 2551SOL    HW1 8552   3.174   4.638   0.230
 2551SOL    HW2 8553   3.100   4.716   0.353
 2552SOL     OW 8554   2.111   5.951   4.346
 2552SOL    HW1 8555   2.057   5.995   4.274
 2552SOL    HW2 8556   2.100   6.001   4.432
 2553SOL     OW 8557   4.113   3.412   5.967
 2553SOL    HW1 8558   4.039   3.463   5.922
 2553SOL    HW2 8559   4.085   3.317   5.978
 2554SOL     OW 8560   2.436   0.906   0.234
 2554SOL    HW1 8561   2.370   0.960   0.182
 2554SOL    HW2 8562   2.450   0.818   0.190
 2555SOL     OW 8563   5.840   1.608   4.302
 2555SOL    HW1 8564   5.883   1.566   4.223
 2555SOL    HW2 8565   5.901   1.677   4.341
 2556SOL     OW 8566   4.442   5.928   0.298
 2556SOL    HW1 8567   4.346   5.950   0.316
 2556SOL    HW2 8568   4.495   5.939   0.382
 2557SOL     OW 8569   1.565   3.489   0.559
 2557SOL    HW1 8570   1.517   3.458   0.477
 2557SOL    HW2 8571   1.543   3.585   0.576
 2558SOL     OW 8572   4.990   1.270   5.359
 2558SOL    HW1 8573   4.908   1.288   5.413
 2558SOL    HW2 8574   5.002   1.171   5.351
 2559SOL     OW 8575   1.199   4.297   5.434
 2559SOL    HW1 8576   1.132   4.305   5.360
 2559SOL    HW2 8577   1.259   4.377   5.434
 2560SOL     OW 8578   6.214   2.482   5.584
 2560SOL    HW1 8579   6.203   2.579   5.564
 2560SOL    HW2 8580   6.129   2.447   5.624
 2561SOL     OW 8581   2.539   5.005   4.975
 2561SOL    HW1 8582   2.600   5.046   5.043
 2561SOL    HW2 8583   2.577   4.919   4.943
 2562SOL     OW 8584   2.394   4.838   1.002
 2562SOL    HW1 8585   2.340   4.761   0.968
 2562SOL    HW2 8586   2.478   4.805   1.044
 2563SOL     OW 8587   3.792   1.372   1.057
 2563SOL    HW1 8588   3.739   1.290   1.033
 2563SOL    HW2 8589   3.734   1.453   1.048
 2564SOL     OW 8590   1.691   5.569   0.059
 2564SOL    HW1 8591   1.676   5.475   0.088
 2564SOL    HW2 8592   1.717   5.571   6.986
 2565SOL     OW 8593   1.424   0.716   6.944
 2565SOL    HW1 8594   1.516   0.749   6.963
 2565SOL    HW2 8595   1.426   0.652   6.867
 2566SOL     OW 8596   2.460   6.762   1.784
 2566SOL    HW1 8597   2.477   6.772   1.686
 2566SOL    HW2 8598   2.361   6.758   1.799
 2567SOL     OW 8599   1.039   0.592   1.004
 2567SOL    HW1 8600   0.988   0.675   0.981
 2567SOL    HW2 8601   0.985   0.511   0.980
 2568SOL     OW 8602   4.561   2.168   7.023
 2568SOL    HW1 8603   4.600   2.131   6.939
 2568SOL    HW2 8604   4.467   2.196   7.006
 2569SOL     OW 8605   3.116   0.607   2.928
 2569SOL    HW1 8606   3.030   0.658   2.918
 2569SOL    HW2 8607   3.186   0.650   2.872
 2570SOL     OW 8608   5.836   0.746   5.484
 2570SOL    HW1 8609   5.924   0.774   5.446
 2570SOL    HW2 8610   5.817   0.799   5.567
 2571SOL     OW 8611   1.535   4.828   3.908
 2571SOL    HW1 8612   1.550   4.891   3.985
 2571SOL    HW2 8613   1.471   4.870   3.843
 2572SOL     OW 8614   2.913   5.449   2.347
 2572SOL    HW1 8615   2.889   5.473   2.441
 2572SOL    HW2 8616   2.985   5.380   2.347
 2573SOL     OW 8617   0.764   1.761   1.155
 2573SOL    HW1 8618   0.773   1.818   1.237
 2573SOL    HW2 8619   0.677   1.782   1.110
 2574SOL     OW 8620   4.995   3.510   1.090
 2574SOL    HW1 8621   5.035   3.433   1.040
 2574SOL    HW2 8622   5.031   3.510   1.183
 2575SOL     OW 8623   5.758   5.436   6.451
 2575SOL    HW1 8624   5.747   5.337   6.443
 2575SOL    HW2 8625   5.846   5.456   6.494
 2576SOL     OW 8626   4.287   6.356   4.546
 2576SOL    HW1 8627   4.372   6.355   4.600
 2576SOL    HW2 8628   4.255   6.262   4.535
 2577SOL     OW 8629   2.912   5.350   2.072
 2577SOL    HW1 8630   3.001   5.353   2.027
 2577SOL    HW2 8631   2.916   5.403   2.156
 2578SOL     OW 8632   3.633   1.555   3.861
 2578SOL    HW1 8633   3.660   1.461   3.880
 2578SOL    HW2 8634   3.600   1.562   3.767
 2579SOL     OW 8635   1.121   6.327   4.081
 2579SOL    HW1 8636   1.186   6.393   4.117
 2579SOL    HW2 8637   1.170   6.248   4.044
 2580SOL     OW 8638   2.483   4.494   7.010
 2580SOL    HW1 8639   2.412   4.457   0.045
 2580SOL    HW2 8640   2.573   4.474   0.025
 2581SOL     OW 8641   1.897   5.481   0.699
 2581SOL    HW1 8642   1.799   5.477   0.722
 2581SOL    HW2 8643   1.909   5.532   0.614
 2582SOL     OW 8644   6.830   3.912   1.677
 2582SOL    HW1 8645   6.857   4.000   1.637
 2582SOL    HW2 8646   6.837   3.918   1.777
 2583SOL     OW 8647   0.747   0.837   6.456
 2583SOL    HW1 8648   0.723   0.787   6.373
 2583SOL    HW2 8649   0.710   0.790   6.536
 2584SOL     OW 8650   4.237   5.003   5.550
 2584SOL    HW1 8651   4.152   4.951   5.552
 2584SOL    HW2 8652   4.221   5.095   5.587
 2585SOL     OW 8653   2.490   4.335   6.797
 2585SOL    HW1 8654   2.574   4.295   6.762
 2585SOL    HW2 8655   2.511   4.407   6.863
 2586SOL     OW 8656   2.867   1.171   5.805
 2586SOL    HW1 8657   2.847   1.234   5.731
 2586SOL    HW2 8658   2.966   1.153   5.808
 2587SOL     OW 8659   6.576   1.189   3.392
 2587SOL    HW1 8660   6.660   1.242   3.404
 2587SOL    HW2 8661   6.497   1.251   3.387
 2588SOL     OW 8662   3.989   2.246   5.316
 2588SOL    HW1 8663   3.896   2.218   5.342
 2588SOL    HW2 8664   4.002   2.342   5.340
 2589SOL     OW 8665   0.881   6.762   6.752
 2589SOL    HW1 8666   0.863   6.837   6.688
 2589SOL    HW2 8667   0.794   6.719   6.777
 2590SOL     OW 8668   2.822   4.971   0.035
 2590SOL    HW1 8669   2.798   4.889   0.088
 2590SOL    HW2 8670   2.918   4.993   0.049
 2591SOL     OW 8671   6.880   5.068   3.228
 2591SOL    HW1 8672   6.977   5.071   3.250
 2591SOL    HW2 8673   6.827   5.103   3.305
 2592SOL     OW 8674   2.727   4.134   6.470
 2592SOL    HW1 8675   2.706   4.193   6.392
 2592SOL    HW2 8676   2.648   4.131   6.532
 2593SOL     OW 8677   3.303   5.740   0.581
 2593SOL    HW1 8678   3.255   5.667   0.532
 2593SOL    HW2 8679   3.247   5.772   0.657
 2594SOL     OW 8680   2.464   4.088   6.253
 2594SOL    HW1 8681   2.378   4.138   6.266
 2594SOL    HW2 8682   2.515   4.129   6.177
 2595SOL     OW 8683   0.502   1.779   4.360
 2595SOL    HW1 8684   0.537   1.815   4.446
 2595SOL    HW2 8685   0.466   1.687   4.374
 2596SOL     OW 8686   2.009   2.855   1.112
 2596SOL    HW1 8687   2.102   2.842   1.076
 2596SOL    HW2 8688   1.970   2.766   1.137
 2597SOL     OW 8689   6.838   5.088   6.866
 2597SOL    HW1 8690   6.859   5.165   6.927
 2597SOL    HW2 8691   6.890   5.097   6.782
 2598SOL     OW 8692   6.752   1.485   1.912
 2598SOL    HW1 8693   6.704   1.538   1.982
 2598SOL    HW2 8694   6.819   1.543   1.865
 2599SOL     OW 8695   1.534   6.223   1.011
 2599SOL    HW1 8696   1.572   6.247   1.100
 2599SOL    HW2 8697   1.450   6.169   1.023
 2600SOL     OW 8698   5.818   3.068   4.058
 2600SOL    HW1 8699   5.814   3.162   4.093
 2600SOL    HW2 8700   5.746   3.013   4.101
 2601SOL     OW 8701   1.635   2.171   2.031
 2601SOL    HW1 8702   1.690   2.090   2.051
 2601SOL    HW2 8703   1.690   2.236   1.978
 2602SOL     OW 8704   1.873   5.256   4.513
 2602SOL    HW1 8705   1.888   5.310   4.430
 2602SOL    HW2 8706   1.886   5.159   4.493
 2603SOL     OW 8707   2.384   0.848   2.449
 2603SOL    HW1 8708   2.425   0.921   2.394
 2603SOL    HW2 8709   2.289   0.872   2.471
 2604SOL     OW 8710   5.417   1.927   2.141
 2604SOL    HW1 8711   5.390   1.863   2.070
 2604SOL    HW2 8712   5.390   1.892   2.230
 2605SOL     OW 8713   1.534   3.781   2.541
 2605SOL    HW1 8714   1.502   3.852   2.478
 2605SOL    HW2 8715   1.524   3.691   2.499
 2606SOL     OW 8716   5.542   5.300   1.364
 2606SOL    HW1 8717   5.591   5.388   1.363
 2606SOL    HW2 8718   5.519   5.274   1.270
 2607SOL     OW 8719   1.888   1.998   1.178
 2607SOL    HW1 8720   1.948   2.021   1.102
 2607SOL    HW2 8721   1.797   1.976   1.143
 2608SOL     OW 8722   2.623   5.733   6.684
 2608SOL    HW1 8723   2.693   5.664   6.698
 2608SOL    HW2 8724   2.556   5.729   6.759
 2609SOL     OW 8725   0.465   1.296   1.180
 2609SOL    HW1 8726   0.439   1.207   1.143
 2609SOL    HW2 8727   0.396   1.327   1.245
 2610SOL     OW 8728   1.298   4.759   4.071
 2610SOL    HW1 8729   1.265   4.781   3.979
 2610SOL    HW2 8730   1.250   4.815   4.138
 2611SOL     OW 8731   4.345   6.359   0.036
 2611SOL    HW1 8732   4.330   6.440   0.092
 2611SOL    HW2 8733   4.313   6.278   0.085
 2612SOL     OW 8734   5.093   6.775   4.575
 2612SOL    HW1 8735   5.160   6.702   4.558
 2612SOL    HW2 8736   5.123   6.859   4.531
 2613SOL     OW 8737   1.649   5.242   6.364
 2613SOL    HW1 8738   1.706   5.323   6.382
 2613SOL    HW2 8739   1.692   5.187   6.292
 2614SOL     OW 8740   5.843   0.657   6.317
 2614SOL    HW1 8741   5.841   0.724   6.242
 2614SOL    HW2 8742   5.920   0.594   6.303
 2615SOL     OW 8743   1.262   3.310   1.759
 2615SOL    HW1 8744   1.267   3.343   1.854
 2615SOL    HW2 8745   1.273   3.388   1.697
 2616SOL     OW 8746   1.071   0.990   5.045
 2616SOL    HW1 8747   1.154   1.004   5.099
 2616SOL    HW2 8748   1.096   0.978   4.949
 2617SOL     OW 8749   5.363   0.466   1.133
 2617SOL    HW1 8750   5.354   0.484   1.035
 2617SOL    HW2 8751   5.384   0.369   1.147
 2618SOL     OW 8752   1.023   5.667   4.768
 2618SOL    HW1 8753   1.086   5.719   4.826
 2618SOL    HW2 8754   0.931   5.707   4.776
 2619SOL     OW 8755   4.303   1.623   1.936
 2619SOL    HW1 8756   4.350   1.642   1.850
 2619SOL    HW2 8757   4.318   1.528   1.962
 2620SOL     OW 8758   6.153   6.223   1.968
 2620SOL    HW1 8759   6.170   6.134   1.927
 2620SOL    HW2 8760   6.068   6.261   1.932
 2621SOL     OW 8761   0.485   5.563   2.612
 2621SOL    HW1 8762   0.566   5.515   2.579
 2621SOL    HW2 8763   0.513   5.647   2.660
 2622SOL     OW 8764   2.798   3.081   6.079
 2622SOL    HW1 8765   2.718   3.025   6.097
 2622SOL    HW2 8766   2.880   3.033   6.112
 2623SOL     OW 8767   0.205   6.774   4.021
 2623SOL    HW1 8768   0.303   6.796   4.016
 2623SOL    HW2 8769   0.175   6.739   3.933
 2624SOL     OW 8770   6.664   2.171   4.964
 2624SOL    HW1 8771   6.573   2.194   4.996
 2624SOL    HW2 8772   6.695   2.088   5.009
 2625SOL     OW 8773   2.228   4.964   5.389
 2625SOL    HW1 8774   2.273   4.956   5.300
 2625SOL    HW2 8775   2.296   4.981   5.459
 2626SOL     OW 8776   6.645   6.839   5.181
 2626SOL    HW1 8777   6.673   6.889   5.263
 2626SOL    HW2 8778   6.589   6.760   5.206
 2627SOL     OW 8779   0.919   0.193   6.463
 2627SOL    HW1 8780   0.996   0.201   6.400
 2627SOL    HW2 8781   0.946   0.139   6.542
 2628SOL     OW 8782   1.744   3.295   3.782
 2628SOL    HW1 8783   1.656   3.340   3.768
 2628SOL    HW2 8784   1.784   3.269   3.694
 2629SOL     OW 8785   3.296   4.034   3.293
 2629SOL    HW1 8786   3.329   4.079   3.376
 2629SOL    HW2 8787   3.201   4.006   3.305
 2630SOL     OW 8788   3.357   0.968   3.123
 2630SOL    HW1 8789   3.456   0.973   3.137
 2630SOL    HW2 8790   3.323   1.057   3.092
 2631SOL     OW 8791   5.386   0.512   6.266
 2631SOL    HW1 8792   5.453   0.548   6.330
 2631SOL    HW2 8793   5.407   0.416   6.247
 2632SOL     OW 8794   5.680   4.802   1.441
 2632SOL    HW1 8795   5.763   4.800   1.387
 2632SOL    HW2 8796   5.685   4.733   1.513
 2633SOL     OW 8797   6.708   2.662   5.295
 2633SOL    HW1 8798   6.726   2.756   5.323
 2633SOL    HW2 8799   6.767   2.600   5.345
 2634SOL     OW 8800   6.941   6.087   4.633
 2634SOL    HW1 8801   7.018   6.144   4.661
 2634SOL    HW2 8802   6.974   6.010   4.579
 2635SOL     OW 8803   5.519   5.283   3.893
 2635SOL    HW1 8804   5.527   5.215   3.965
 2635SOL    HW2 8805   5.499   5.372   3.933
 2636SOL     OW 8806   3.775   0.831   5.869
 2636SOL    HW1 8807   3.786   0.848   5.771
 2636SOL    HW2 8808   3.763   0.918   5.916
 2637SOL     OW 8809   7.017   1.941   3.448
 2637SOL    HW1 8810   6.984   2.019   3.394
 2637SOL    HW2 8811   0.014   1.972   3.541
 2638SOL     OW 8812   0.832   0.100   4.601
 2638SOL    HW1 8813   0.841   0.199   4.593
 2638SOL    HW2 8814   0.736   0.075   4.605
 2639SOL     OW 8815   4.681   5.115   4.904
 2639SOL    HW1 8816   4.632   5.076   4.982
 2639SOL    HW2 8817   4.779   5.118   4.924
 2640SOL     OW 8818   0.508   0.301   5.172
 2640SOL    HW1 8819   0.545   0.348   5.092
 2640SOL    HW2 8820   0.495   0.368   5.246
 2641SOL     OW 8821   5.611   2.447   0.164
 2641SOL    HW1 8822   5.595   2.380   0.092
 2641SOL    HW2 8823   5.704   2.483   0.156
 2642SOL     OW 8824   6.896   1.172   4.522
 2642SOL    HW1 8825   6.909   1.168   4.423
 2642SOL    HW2 8826   6.840   1.095   4.552
 2643SOL     OW 8827   0.642   2.884   3.947
 2643SOL    HW1 8828   0.572   2.924   4.005
 2643SOL    HW2 8829   0.700   2.823   4.002
 2644SOL     OW 8830   4.441   5.590   4.745
 2644SOL    HW1 8831   4.398   5.675   4.777
 2644SOL    HW2 8832   4.464   5.599   4.648
 2645SOL     OW 8833   4.804   5.052   3.503
 2645SOL    HW1 8834   4.786   5.143   3.541
 2645SOL    HW2 8835   4.836   5.061   3.408
 2646SOL     OW 8836   0.507   3.855   6.161
 2646SOL    HW1 8837   0.571   3.798   6.110
 2646SOL    HW2 8838   0.547   3.880   6.249
 2647SOL     OW 8839   5.256   0.275   1.705
 2647SOL    HW1 8840   5.282   0.325   1.622
 2647SOL    HW2 8841   5.334   0.221   1.737
 2648SOL     OW 8842   0.744   0.186   4.137
 2648SOL    HW1 8843   0.715   0.127   4.212
 2648SOL    HW2 8844   0.844   0.194   4.138
 2649SOL     OW 8845   5.047   2.709   1.686
 2649SOL    HW1 8846   4.998   2.731   1.770
 2649SOL    HW2 8847   5.085   2.793   1.647
 2650SOL     OW 8848   3.109   6.278   4.920
 2650SOL    HW1 8849   3.055   6.320   4.993
 2650SOL    HW2 8850   3.115   6.180   4.936
 2651SOL     OW 8851   3.981   1.890   5.837
 2651SOL    HW1 8852   3.974   1.848   5.927
 2651SOL    HW2 8853   3.890   1.921   5.808
 2652SOL     OW 8854   4.685   3.680   5.559
 2652SOL    HW1 8855   4.721   3.705   5.469
 2652SOL    HW2 8856   4.683   3.580   5.568
 2653SOL     OW 8857   3.457   5.782   6.421
 2653SOL    HW1 8858   3.475   5.871   6.379
 2653SOL    HW2 8859   3.375   5.788   6.478
 2654SOL     OW 8860   5.196   6.821   0.629
 2654SOL    HW1 8861   5.173   6.770   0.547
 2654SOL    HW2 8862   5.145   6.784   0.707
 2655SOL     OW 8863   4.847   5.934   3.354
 2655SOL    HW1 8864   4.875   5.850   3.309
 2655SOL    HW2 8865   4.917   5.962   3.420
 2656SOL     OW 8866   3.885   5.820   3.797
 2656SOL    HW1 8867   3.928   5.800   3.708
 2656SOL    HW2 8868   3.903   5.744   3.860
 2657SOL     OW 8869   2.082   3.823   0.585
 2657SOL    HW1 8870   2.138   3.894   0.628
 2657SOL    HW2 8871   2.091   3.738   0.638
 2658SOL     OW 8872   4.295   4.093   6.398
 2658SOL    HW1 8873   4.365   4.049   6.454
 2658SOL    HW2 8874   4.220   4.030   6.382
 2659SOL     OW 8875   5.082   2.013   5.114
 2659SOL    HW1 8876   5.050   2.103   5.084
 2659SOL    HW2 8877   5.029   1.983   5.193
 2660SOL     OW 8878   0.915   1.555   1.028
 2660SOL    HW1 8879   0.987   1.521   1.089
 2660SOL    HW2 8880   0.856   1.619   1.078
 2661SOL     OW 8881   1.580   0.459   1.531
 2661SOL    HW1 8882   1.617   0.552   1.527
 2661SOL    HW2 8883   1.489   0.458   1.490
 2662SOL     OW 8884   3.342   0.952   3.414
 2662SOL    HW1 8885   3.326   0.935   3.317
 2662SOL    HW2 8886   3.424   1.008   3.426
 2663SOL     OW 8887   3.223   6.976   5.935
 2663SOL    HW1 8888   3.202   0.047   5.911
 2663SOL    HW2 8889   3.322   6.962   5.927
 2664SOL     OW 8890   3.773   2.583   5.342
 2664SOL    HW1 8891   3.871   2.595   5.330
 2664SOL    HW2 8892   3.734   2.665   5.383
 2665SOL     OW 8893   2.363   3.476   5.344
 2665SOL    HW1 8894   2.420   3.394   5.344
 2665SOL    HW2 8895   2.420   3.557   5.327
 2666SOL     OW 8896   1.783   3.864   2.596
 2666SOL    HW1 8897   1.856   3.805   2.563
 2666SOL    HW2 8898   1.695   3.816   2.586
 2667SOL     OW 8899   6.404   4.149   3.874
 2667SOL    HW1 8900   6.445   4.085   3.809
 2667SOL    HW2 8901   6.361   4.098   3.949
 2668SOL     OW 8902   5.593   1.421   4.947
 2668SOL    HW1 8903   5.670   1.452   5.003
 2668SOL    HW2 8904   5.520   1.490   4.952
 2669SOL     OW 8905   2.323   6.574   0.373
 2669SOL    HW1 8906   2.412   6.575   0.327
 2669SOL    HW2 8907   2.257   6.627   0.320
 2670SOL     OW 8908   0.012   1.615   5.941
 2670SOL    HW1 8909   6.952   1.668   5.934
 2670SOL    HW2 8910   0.084   1.673   5.978
 2671SOL     OW 8911   3.768   5.758   5.982
 2671SOL    HW1 8912   3.781   5.857   5.982
 2671SOL    HW2 8913   3.839   5.716   5.926
 2672SOL     OW 8914   3.737   1.280   1.842
 2672SOL    HW1 8915   3.774   1.349   1.904
 2672SOL    HW2 8916   3.691   1.326   1.766
 2673SOL     OW 8917   4.952   0.113   2.624
 2673SOL    HW1 8918   4.944   0.202   2.668
 2673SOL    HW2 8919   4.863   0.067   2.625
 2674SOL     OW 8920   1.273   5.578   3.280
 2674SOL    HW1 8921   1.301   5.611   3.371
 2674SOL    HW2 8922   1.338   5.610   3.212
 2675SOL     OW 8923   0.009   6.052   3.696
 2675SOL    HW1 8924   0.031   5.971   3.641
 2675SOL    HW2 8925   0.015   6.029   3.793
 2676SOL     OW 8926   3.041   3.930   2.717
 2676SOL    HW1 8927   2.947   3.943   2.686
 2676SOL    HW2 8928   3.091   3.876   2.649
 2677SOL     OW 8929   2.151   4.576   1.258
 2677SOL    HW1 8930   2.103   4.645   1.205
 2677SOL    HW2 8931   2.240   4.557   1.216
 2678SOL     OW 8932   6.056   2.571   2.381
 2678SOL    HW1 8933   6.131   2.580   2.315
 2678SOL    HW2 8934   6.024   2.476   2.383
 2679SOL     OW 8935   1.562   5.489   1.776
 2679SOL    HW1 8936   1.481   5.516   1.829
 2679SOL    HW2 8937   1.641   5.541   1.807
 2680SOL     OW 8938   0.898   2.159   6.843
 2680SOL    HW1 8939   0.996   2.155   6.859
 2680SOL    HW2 8940   0.853   2.199   6.923
 2681SOL     OW 8941   1.234   3.026   5.361
 2681SOL    HW1 8942   1.157   2.972   5.394
 2681SOL    HW2 8943   1.285   3.062   5.439
 2682SOL     OW 8944   4.771   4.247   2.179
 2682SOL    HW1 8945   4.803   4.153   2.191
 2682SOL    HW2 8946   4.681   4.246   2.135
 2683SOL     OW 8947   2.310   4.279   3.319
 2683SOL    HW1 8948   2.251   4.220   3.375
 2683SOL    HW2 8949   2.394   4.299   3.370
 2684SOL     OW 8950   5.638   6.172   2.316
 2684SOL    HW1 8951   5.596   6.261   2.330
 2684SOL    HW2 8952   5.610   6.110   2.390
 2685SOL     OW 8953   6.931   5.438   5.027
 2685SOL    HW1 8954   6.859   5.438   4.957
 2685SOL    HW2 8955   7.010   5.387   4.993
 2686SOL     OW 8956   1.690   1.217   4.570
 2686SOL    HW1 8957   1.754   1.192   4.642
 2686SOL    HW2 8958   1.737   1.221   4.482
 2687SOL     OW 8959   4.021   1.415   1.935
 2687SOL    HW1 8960   4.076   1.450   1.859
 2687SOL    HW2 8961   4.045   1.319   1.951
 2688SOL     OW 8962   3.420   2.455   0.120
 2688SOL    HW1 8963   3.482   2.493   0.051
 2688SOL    HW2 8964   3.467   2.382   0.170
 2689SOL     OW 8965   0.686   3.997   2.696
 2689SOL    HW1 8966   0.630   4.079   2.684
 2689SOL    HW2 8967   0.777   4.023   2.726
 2690SOL     OW 8968   3.420   2.117   6.320
 2690SOL    HW1 8969   3.372   2.204   6.310
 2690SOL    HW2 8970   3.501   2.130   6.377
 2691SOL     OW 8971   0.056   4.400   4.629
 2691SOL    HW1 8972   0.119   4.337   4.583
 2691SOL    HW2 8973   7.001   4.348   4.663
 2692SOL     OW 8974   2.774   5.768   2.692
 2692SOL    HW1 8975   2.833   5.728   2.762
 2692SOL    HW2 8976   2.728   5.848   2.730
 2693SOL     OW 8977   1.644   5.716   3.735
 2693SOL    HW1 8978   1.680   5.808   3.719
 2693SOL    HW2 8979   1.717   5.657   3.769
 2694SOL     OW 8980   3.753   6.454   3.001
 2694SOL    HW1 8981   3.664   6.499   3.013
 2694SOL    HW2 8982   3.819   6.520   2.964
 2695SOL     OW 8983   6.495   6.819   2.678
 2695SOL    HW1 8984   6.499   6.723   2.705
 2695SOL    HW2 8985   6.441   6.827   2.594
 2696SOL     OW 8986   4.847   4.178   6.256
 2696SOL    HW1 8987   4.920   4.246   6.262
 2696SOL    HW2 8988   4.783   4.191   6.332
 2697SOL     OW 8989   4.182   1.252   0.942
 2697SOL    HW1 8990   4.246   1.233   1.016
 2697SOL    HW2 8991   4.116   1.321   0.971
 2698SOL     OW 8992   1.475   4.616   5.936
 2698SOL    HW1 8993   1.376   4.627   5.942
 2698SOL    HW2 8994   1.496   4.529   5.891
 2699SOL     OW 8995   3.061   5.941   2.238
 2699SOL    HW1 8996   3.037   5.843   2.233
 2699SOL    HW2 8997   3.140   5.953   2.298
 2700SOL     OW 8998   2.928   1.954   1.327
 2700SOL    HW1 8999   2.909   1.898   1.407
 2700SOL    HW2 9000   2.936   1.895   1.246
 2701SOL     OW 9001   5.244   3.071   4.594
 2701SOL    HW1 9002   5.263   3.168   4.609
 2701SOL    HW2 9003   5.184   3.036   4.666
 2702SOL     OW 9004   2.477   1.858   4.474
 2702SOL    HW1 9005   2.541   1.908   4.532
 2702SOL    HW2 9006   2.394   1.837   4.526
 2703SOL     OW 9007   1.892   5.565   1.540
 2703SOL    HW1 9008   1.828   5.619   1.484
 2703SOL    HW2 9009   1.855   5.473   1.552
 2704SOL     OW 9010   6.306   5.367   3.536
 2704SOL    HW1 9011   6.330   5.458   3.504
 2704SOL    HW2 9012   6.284   5.309   3.457
 2705SOL     OW 9013   0.294   0.803   5.130
 2705SOL    HW1 9014   0.335   0.883   5.174
 2705SOL    HW2 9015   0.328   0.720   5.174
 2706SOL     OW 9016   6.342   4.485   4.319
 2706SOL    HW1 9017   6.435   4.498   4.353
 2706SOL    HW2 9018   6.276   4.518   4.387
 2707SOL     OW 9019   3.834   6.965   2.932
 2707SOL    HW1 9020   3.875   0.016   2.983
 2707SOL    HW2 9021   3.793   7.001   2.848
 2708SOL     OW 9022   5.983   2.614   0.376
 2708SOL    HW1 9023   6.065   2.669   0.390
 2708SOL    HW2 9024   5.902   2.670   0.393
 2709SOL     OW 9025   4.961   6.995   6.224
 2709SOL    HW1 9026   4.930   0.005   6.135
 2709SOL    HW2 9027   4.883   6.986   6.285
 2710SOL     OW 9028   1.276   3.345   4.056
 2710SOL    HW1 9029   1.293   3.269   3.994
 2710SOL    HW2 9030   1.351   3.352   4.122
 2711SOL     OW 9031   3.744   1.856   3.728
 2711SOL    HW1 9032   3.694   1.784   3.679
 2711SOL    HW2 9033   3.819   1.815   3.780
 2712SOL     OW 9034   3.935   5.643   2.219
 2712SOL    HW1 9035   4.024   5.672   2.255
 2712SOL    HW2 9036   3.882   5.599   2.292
 2713SOL     OW 9037   4.626   4.469   6.219
 2713SOL    HW1 9038   4.623   4.404   6.294
 2713SOL    HW2 9039   4.696   4.441   6.153
 2714SOL     OW 9040   3.039   3.639   6.335
 2714SOL    HW1 9041   2.999   3.558   6.291
 2714SOL    HW2 9042   3.036   3.628   6.434
 2715SOL     OW 9043   5.149   1.419   1.320
 2715SOL    HW1 9044   5.139   1.505   1.269
 2715SOL    HW2 9045   5.245   1.392   1.320
 2716SOL     OW 9046   4.144   2.169   2.852
 2716SOL    HW1 9047   4.193   2.220   2.781
 2716SOL    HW2 9048   4.138   2.073   2.826
 2717SOL     OW 9049   0.876   1.273   2.339
 2717SOL    HW1 9050   0.973   1.296   2.346
 2717SOL    HW2 9051   0.841   1.305   2.251
 2718SOL     OW 9052   0.570   0.574   6.412
 2718SOL    HW1 9053   0.573   0.643   6.340
 2718SOL    HW2 9054   0.575   0.483   6.372
 2719SOL     OW 9055   1.852   4.595   2.700
 2719SOL    HW1 9056   1.904   4.510   2.706
 2719SOL    HW2 9057   1.783   4.588   2.628
 2720SOL     OW 9058   1.145   0.500   5.364
 2720SOL    HW1 9059   1.084   0.424   5.341
 2720SOL    HW2 9060   1.152   0.562   5.286
 2721SOL     OW 9061   2.989   6.258   1.531
 2721SOL    HW1 9062   3.073   6.287   1.578
 2721SOL    HW2 9063   2.970   6.163   1.551
 2722SOL     OW 9064   4.586   5.769   6.739
 2722SOL    HW1 9065   4.609   5.672   6.745
 2722SOL    HW2 9066   4.577   5.808   6.830
 2723SOL     OW 9067   3.570   6.697   0.292
 2723SOL    HW1 9068   3.643   6.666   0.231
 2723SOL    HW2 9069   3.519   6.771   0.247
 2724SOL     OW 9070   1.057   6.022   0.127
 2724SOL    HW1 9071   1.080   5.947   0.065
 2724SOL    HW2 9072   0.971   6.000   0.174
 2725SOL     OW 9073   5.042   3.892   4.218
 2725SOL    HW1 9074   5.084   3.924   4.133
 2725SOL    HW2 9075   4.960   3.945   4.237
 2726SOL     OW 9076   0.728   1.835   1.745
 2726SOL    HW1 9077   0.789   1.838   1.665
 2726SOL    HW2 9078   0.783   1.831   1.828
 2727SOL     OW 9079   2.291   4.194   4.183
 2727SOL    HW1 9080   2.233   4.123   4.142
 2727SOL    HW2 9081   2.285   4.188   4.282
 2728SOL     OW 9082   5.366   5.623   6.318
 2728SOL    HW1 9083   5.466   5.620   6.314
 2728SOL    HW2 9084   5.333   5.550   6.379
 2729SOL     OW 9085   5.313   6.257   6.012
 2729SOL    HW1 9086   5.399   6.241   5.966
 2729SOL    HW2 9087   5.270   6.170   6.035
 2730SOL     OW 9088   0.401   5.595   2.192
 2730SOL    HW1 9089   0.424   5.629   2.101
 2730SOL    HW2 9090   0.477   5.613   2.254
 2731SOL     OW 9091   3.249   3.106   3.497
 2731SOL    HW1 9092   3.198   3.112   3.583
 2731SOL    HW2 9093   3.254   3.197   3.455
 2732SOL     OW 9094   4.519   1.511   0.795
 2732SOL    HW1 9095   4.612   1.477   0.809
 2732SOL    HW2 9096   4.476   1.460   0.721
 2733SOL     OW 9097   6.785   1.057   5.651
 2733SOL    HW1 9098   6.837   1.075   5.735
 2733SOL    HW2 9099   6.811   0.968   5.613
 2734SOL     OW 9100   3.596   6.192   1.799
 2734SOL    HW1 9101   3.501   6.163   1.802
 2734SOL    HW2 9102   3.655   6.118   1.830
 2735SOL     OW 9103   1.503   2.128   0.483
 2735SOL    HW1 9104   1.601   2.140   0.501
 2735SOL    HW2 9105   1.484   2.146   0.387
 2736SOL     OW 9106   5.456   6.258   3.596
 2736SOL    HW1 9107   5.450   6.160   3.613
 2736SOL    HW2 9108   5.551   6.288   3.604
 2737SOL     OW 9109   3.192   1.971   6.348
 2737SOL    HW1 9110   3.276   2.025   6.344
 2737SOL    HW2 9111   3.189   1.921   6.435
 2738SOL     OW 9112   5.864   0.646   1.537
 2738SOL    HW1 9113   5.862   0.697   1.623
 2738SOL    HW2 9114   5.857   0.548   1.557
 2739SOL     OW 9115   1.000   5.347   1.419
 2739SOL    HW1 9116   0.985   5.347   1.518
 2739SOL    HW2 9117   0.956   5.426   1.378
 2740SOL     OW 9118   0.237   6.047   2.591
 2740SOL    HW1 9119   0.137   6.051   2.585
 2740SOL    HW2 9120   0.263   6.015   2.683
 2741SOL     OW 9121   0.816   2.425   4.611
 2741SOL    HW1 9122   0.879   2.379   4.673
 2741SOL    HW2 9123   0.784   2.359   4.543
 2742SOL     OW 9124   3.399   4.700   1.659
 2742SOL    HW1 9125   3.365   4.610   1.633
 2742SOL    HW2 9126   3.482   4.690   1.714
 2743SOL     OW 9127   6.693   4.726   2.079
 2743SOL    HW1 9128   6.607   4.712   2.030
 2743SOL    HW2 9129   6.733   4.638   2.102
 2744SOL     OW 9130   3.276   3.350   2.380
 2744SOL    HW1 9131   3.228   3.312   2.301
 2744SOL    HW2 9132   3.336   3.280   2.420
 2745SOL     OW 9133   6.841   1.350   5.913
 2745SOL    HW1 9134   6.884   1.438   5.893
 2745SOL    HW2 9135   6.745   1.365   5.939
 2746SOL     OW 9136   0.864   0.798   4.013
 2746SOL    HW1 9137   0.847   0.796   3.914
 2746SOL    HW2 9138   0.914   0.881   4.036
 2747SOL     OW 9139   3.536   5.567   0.365
 2747SOL    HW1 9140   3.491   5.585   0.277
 2747SOL    HW2 9141   3.628   5.605   0.364
 2748SOL     OW 9142   4.677   0.576   1.303
 2748SOL    HW1 9143   4.699   0.595   1.207
 2748SOL    HW2 9144   4.724   0.493   1.332
 2749SOL     OW 9145   1.187   3.479   0.417
 2749SOL    HW1 9146   1.108   3.418   0.408
 2749SOL    HW2 9147   1.266   3.439   0.369
 2750SOL     OW 9148   2.675   5.287   2.407
 2750SOL    HW1 9149   2.655   5.249   2.317
 2750SOL    HW2 9150   2.742   5.360   2.398
 2751SOL     OW 9151   2.034   2.262   1.617
 2751SOL    HW1 9152   2.062   2.169   1.639
 2751SOL    HW2 9153   1.936   2.265   1.598
 2752SOL     OW 9154   3.867   4.628   5.522
 2752SOL    HW1 9155   3.862   4.589   5.430
 2752SOL    HW2 9156   3.923   4.711   5.520
 2753SOL     OW 9157   6.141   6.234   4.759
 2753SOL    HW1 9158   6.189   6.242   4.846
 2753SOL    HW2 9159   6.045   6.260   4.772
 2754SOL     OW 9160   0.102   6.309   6.715
 2754SOL    HW1 9161   0.107   6.290   6.813
 2754SOL    HW2 9162   0.194   6.311   6.676
 2755SOL     OW 9163   2.803   0.064   2.720
 2755SOL    HW1 9164   2.818   7.006   2.665
 2755SOL    HW2 9165   2.882   0.124   2.713
 2756SOL     OW 9166   4.935   6.508   0.533
 2756SOL    HW1 9167   5.000   6.574   0.494
 2756SOL    HW2 9168   4.900   6.544   0.619
 2757SOL     OW 9169   1.275   5.114   0.596
 2757SOL    HW1 9170   1.277   5.037   0.532
 2757SOL    HW2 9171   1.293   5.081   0.688
 2758SOL     OW 9172   5.445   6.973   5.254
 2758SOL    HW1 9173   5.490   0.019   5.309
 2758SOL    HW2 9174   5.467   6.883   5.292
 2759SOL     OW 9175   5.282   6.528   4.191
 2759SOL    HW1 9176   5.195   6.492   4.224
 2759SOL    HW2 9177   5.357   6.490   4.246
 2760SOL     OW 9178   2.062   5.626   2.198
 2760SOL    HW1 9179   2.112   5.631   2.284
 2760SOL    HW2 9180   1.999   5.548   2.201
 2761SOL     OW 9181   1.224   5.297   3.817
 2761SOL    HW1 9182   1.312   5.339   3.836
 2761SOL    HW2 9183   1.155   5.332   3.881
 2762SOL     OW 9184   0.996   0.248   5.606
 2762SOL    HW1 9185   0.927   0.317   5.632
 2762SOL    HW2 9186   1.078   0.262   5.661
 2763SOL     OW 9187   5.512   2.134   3.615
 2763SOL    HW1 9188   5.438   2.158   3.551
 2763SOL    HW2 9189   5.519   2.205   3.685
 2764SOL     OW 9190   5.471   0.114   1.383
 2764SOL    HW1 9191   5.499   0.044   1.448
 2764SOL    HW2 9192   5.383   0.152   1.410
 2765SOL     OW 9193   5.018   1.180   1.831
 2765SOL    HW1 9194   4.989   1.089   1.802
 2765SOL    HW2 9195   5.056   1.175   1.924
 2766SOL     OW 9196   6.084   1.428   0.499
 2766SOL    HW1 9197   6.151   1.501   0.483
 2766SOL    HW2 9198   6.045   1.438   0.590
 2767SOL     OW 9199   6.583   4.567   6.501
 2767SOL    HW1 9200   6.653   4.499   6.526
 2767SOL    HW2 9201   6.516   4.525   6.440
 2768SOL     OW 9202   5.774   1.004   0.159
 2768SOL    HW1 9203   5.798   1.090   0.203
 2768SOL    HW2 9204   5.699   0.961   0.210
 2769SOL     OW 9205   6.387   4.273   3.057
 2769SOL    HW1 9206   6.359   4.353   3.109
 2769SOL    HW2 9207   6.435   4.209   3.117
 2770SOL     OW 9208   1.273   5.383   0.465
 2770SOL    HW1 9209   1.271   5.284   0.474
 2770SOL    HW2 9210   1.269   5.425   0.555
 2771SOL     OW 9211   5.030   1.375   0.943
 2771SOL    HW1 9212   5.122   1.401   0.972
 2771SOL    HW2 9213   5.012   1.280   0.969
 2772SOL     OW 9214   4.416   2.491   0.148
 2772SOL    HW1 9215   4.464   2.407   0.177
 2772SOL    HW2 9216   4.429   2.561   0.218
 2773SOL     OW 9217   4.351   3.531   5.916
 2773SOL    HW1 9218   4.325   3.627   5.906
 2773SOL    HW2 9219   4.269   3.476   5.933
 2774SOL     OW 9220   5.811   2.711   2.411
 2774SOL    HW1 9221   5.742   2.640   2.393
 2774SOL    HW2 9222   5.901   2.676   2.384
 2775SOL     OW 9223   6.977   6.225   1.069
 2775SOL    HW1 9224   6.932   6.153   1.017
 2775SOL    HW2 9225   6.910   6.272   1.126
 2776SOL     OW 9226   4.181   5.215   5.705
 2776SOL    HW1 9227   4.113   5.283   5.730
 2776SOL    HW2 9228   4.270   5.241   5.742
 2777SOL     OW 9229   3.298   1.012   2.586
 2777SOL    HW1 9230   3.354   1.061   2.653
 2777SOL    HW2 9231   3.255   0.933   2.630
 2778SOL     OW 9232   1.680   1.339   5.306
 2778SOL    HW1 9233   1.756   1.402   5.287
 2778SOL    HW2 9234   1.646   1.301   5.221
 2779SOL     OW 9235   4.871   0.011   0.708
 2779SOL    HW1 9236   4.910   6.954   0.750
 2779SOL    HW2 9237   4.938   0.053   0.646
 2780SOL     OW 9238   5.975   5.399   5.867
 2780SOL    HW1 9239   5.986   5.409   5.966
 2780SOL    HW2 9240   5.909   5.327   5.848
 2781SOL     OW 9241   6.137   5.370   1.739
 2781SOL    HW1 9242   6.161   5.427   1.818
 2781SOL    HW2 9243   6.218   5.318   1.710
 2782SOL     OW 9244   2.930   2.854   6.446
 2782SOL    HW1 9245   2.937   2.941   6.494
 2782SOL    HW2 9246   2.959   2.780   6.507
 2783SOL     OW 9247   6.054   3.361   4.683
 2783SOL    HW1 9248   6.110   3.289   4.642
 2783SOL    HW2 9249   5.991   3.320   4.749
 2784SOL     OW 9250   2.299   2.573   0.995
 2784SOL    HW1 9251   2.281   2.586   1.092
 2784SOL    HW2 9252   2.308   2.475   0.975
 2785SOL     OW 9253   6.627   1.141   0.067
 2785SOL    HW1 9254   6.541   1.176   0.029
 2785SOL    HW2 9255   6.692   1.125   7.017
 2786SOL     OW 9256   3.736   0.174   0.991
 2786SOL    HW1 9257   3.649   0.193   1.037
 2786SOL    HW2 9258   3.736   0.079   0.959
 2787SOL     OW 9259   2.209   4.214   6.613
 2787SOL    HW1 9260   2.137   4.145   6.625
 2787SOL    HW2 9261   2.225   4.260   6.701
 2788SOL     OW 9262   2.690   4.267   0.461
 2788SOL    HW1 9263   2.630   4.347   0.459
 2788SOL    HW2 9264   2.634   4.184   0.463
 2789SOL     OW 9265   1.362   1.830   3.935
 2789SOL    HW1 9266   1.383   1.873   4.023
 2789SOL    HW2 9267   1.276   1.780   3.943
 2790SOL     OW 9268   3.988   5.286   2.740
 2790SOL    HW1 9269   3.959   5.380   2.724
 2790SOL    HW2 9270   3.924   5.241   2.802
 2791SOL     OW 9271   1.848   4.634   4.793
 2791SOL    HW1 9272   1.844   4.582   4.879
 2791SOL    HW2 9273   1.921   4.599   4.736
 2792SOL     OW 9274   1.522   0.796   5.512
 2792SOL    HW1 9275   1.440   0.743   5.535
 2792SOL    HW2 9276   1.593   0.735   5.477
 2793SOL     OW 9277   5.076   1.597   2.585
 2793SOL    HW1 9278   5.111   1.680   2.630
 2793SOL    HW2 9279   5.116   1.590   2.494
 2794SOL     OW 9280   0.311   2.392   0.507
 2794SOL    HW1 9281   0.256   2.311   0.525
 2794SOL    HW2 9282   0.361   2.381   0.421
 2795SOL     OW 9283   2.971   4.192   1.128
 2795SOL    HW1 9284   2.894   4.240   1.169
 2795SOL    HW2 9285   3.006   4.123   1.191
 2796SOL     OW 9286   6.508   4.223   2.395
 2796SOL    HW1 9287   6.597   4.182   2.417
 2796SOL    HW2 9288   6.493   4.303   2.453
 2797SOL     OW 9289   5.007   5.572   4.665
 2797SOL    HW1 9290   5.038   5.653   4.614
 2797SOL    HW2 9291   4.950   5.516   4.605
 2798SOL     OW 9292   0.678   4.149   2.998
 2798SOL    HW1 9293   0.631   4.110   3.078
 2798SOL    HW2 9294   0.614   4.156   2.922
 2799SOL     OW 9295   0.229   5.474   6.338
 2799SOL    HW1 9296   0.316   5.511   6.371
 2799SOL    HW2 9297   0.245   5.410   6.264
 2800SOL     OW 9298   4.408   4.354   6.447
 2800SOL    HW1 9299   4.386   4.258   6.432
 2800SOL    HW2 9300   4.412   4.373   6.545
 2801SOL     OW 9301   4.359   5.965   2.971
 2801SOL    HW1 9302   4.352   6.021   2.888
 2801SOL    HW2 9303   4.455   5.944   2.989
 2802SOL     OW 9304   4.157   2.360   6.419
 2802SOL    HW1 9305   4.072   2.408   6.397
 2802SOL    HW2 9306   4.136   2.274   6.466
 2803SOL     OW 9307   2.122   6.113   5.913
 2803SOL    HW1 9308   2.188   6.187   5.907
 2803SOL    HW2 9309   2.037   6.139   5.867
 2804SOL     OW 9310   0.301   4.456   3.388
 2804SOL    HW1 9311   0.258   4.539   3.423
 2804SOL    HW2 9312   0.370   4.424   3.453
 2805SOL     OW 9313   4.400   3.519   1.661
 2805SOL    HW1 9314   4.387   3.616   1.678
 2805SOL    HW2 9315   4.495   3.494   1.680
 2806SOL     OW 9316   5.697   5.439   3.380
 2806SOL    HW1 9317   5.788   5.399   3.383
 2806SOL    HW2 9318   5.675   5.465   3.286
 2807SOL     OW 9319   5.447   4.549   3.656
 2807SOL    HW1 9320   5.360   4.586   3.690
 2807SOL    HW2 9321   5.464   4.460   3.697
 2808SOL     OW 9322   4.628   1.142   3.091
 2808SOL    HW1 9323   4.609   1.209   3.019
 2808SOL    HW2 9324   4.618   1.186   3.180
 2809SOL     OW 9325   6.532   2.772   1.459
 2809SOL    HW1 9326   6.497   2.771   1.365
 2809SOL    HW2 9327   6.462   2.808   1.520
 2810SOL     OW 9328   3.650   6.727   4.769
 2810SOL    HW1 9329   3.742   6.764   4.762
 2810SOL    HW2 9330   3.650   6.646   4.828
 2811SOL     OW 9331   0.817   1.124   2.585
 2811SOL    HW1 9332   0.723   1.109   2.616
 2811SOL    HW2 9333   0.816   1.145   2.487
 2812SOL     OW 9334   4.884   3.504   2.109
 2812SOL    HW1 9335   4.898   3.569   2.034
 2812SOL    HW2 9336   4.878   3.411   2.072
 2813SOL     OW 9337   5.748   6.788   6.082
 2813SOL    HW1 9338   5.778   6.836   6.165
 2813SOL    HW2 9339   5.818   6.798   6.011
 2814SOL     OW 9340   4.352   3.264   6.413
 2814SOL    HW1 9341   4.423   3.325   6.448
 2814SOL    HW2 9342   4.282   3.318   6.366
 2815SOL     OW 9343   6.732   0.993   4.687
 2815SOL    HW1 9344   6.692   1.003   4.596
 2815SOL    HW2 9345   6.755   0.898   4.703
 2816SOL     OW 9346   6.282   6.675   3.872
 2816SOL    HW1 9347   6.261   6.769   3.900
 2816SOL    HW2 9348   6.251   6.612   3.943
 2817SOL     OW 9349   1.667   0.383   1.129
 2817SOL    HW1 9350   1.716   0.346   1.207
 2817SOL    HW2 9351   1.654   0.311   1.060
 2818SOL     OW 9352   6.985   4.915   6.667
 2818SOL    HW1 9353   6.921   4.900   6.592
 2818SOL    HW2 9354   7.005   4.828   6.712
 2819SOL     OW 9355   0.377   2.013   0.843
 2819SOL    HW1 9356   0.455   2.019   0.781
 2819SOL    HW2 9357   0.408   2.025   0.937
 2820SOL     OW 9358   0.294   2.417   2.838
 2820SOL    HW1 9359   0.262   2.446   2.747
 2820SOL    HW2 9360   0.385   2.376   2.831
 2821SOL     OW 9361   2.672   4.237   6.055
 2821SOL    HW1 9362   2.667   4.299   6.133
 2821SOL    HW2 9363   2.765   4.238   6.018
 2822SOL     OW 9364   4.205   2.866   0.316
 2822SOL    HW1 9365   4.157   2.912   0.241
 2822SOL    HW2 9366   4.303   2.885   0.309
 2823SOL     OW 9367   2.205   6.843   1.344
 2823SOL    HW1 9368   2.241   6.915   1.404
 2823SOL    HW2 9369   2.192   6.880   1.252
 2824SOL     OW 9370   2.120   1.124   4.985
 2824SOL    HW1 9371   2.168   1.102   5.069
 2824SOL    HW2 9372   2.079   1.041   4.947
 2825SOL     OW 9373   6.515   6.850   0.731
 2825SOL    HW1 9374   6.505   6.771   0.792
 2825SOL    HW2 9375   6.491   6.823   0.638
 2826SOL     OW 9376   5.649   1.838   6.250
 2826SOL    HW1 9377   5.553   1.865   6.248
 2826SOL    HW2 9378   5.670   1.797   6.339
 2827SOL     OW 9379   6.623   1.409   5.005
 2827SOL    HW1 9380   6.669   1.458   4.931
 2827SOL    HW2 9381   6.624   1.311   4.986
 2828SOL     OW 9382   3.504   0.990   5.966
 2828SOL    HW1 9383   3.602   1.003   5.985
 2828SOL    HW2 9384   3.469   1.071   5.919
 2829SOL     OW 9385   4.081   4.601   6.223
 2829SOL    HW1 9386   4.168   4.612   6.269
 2829SOL    HW2 9387   4.007   4.627   6.285
 2830SOL     OW 9388   6.446   4.277   6.293
 2830SOL    HW1 9389   6.406   4.193   6.255
 2830SOL    HW2 9390   6.544   4.263   6.307
 2831SOL     OW 9391   6.661   5.954   4.713
 2831SOL    HW1 9392   6.743   5.900   4.733
 2831SOL    HW2 9393   6.686   6.029   4.651
 2832SOL     OW 9394   0.598   1.734   1.474
 2832SOL    HW1 9395   0.652   1.660   1.435
 2832SOL    HW2 9396   0.629   1.752   1.568
 2833SOL     OW 9397   5.472   1.465   2.379
 2833SOL    HW1 9398   5.563   1.502   2.358
 2833SOL    HW2 9399   5.451   1.390   2.317
 2834SOL     OW 9400   3.048   1.451   6.529
 2834SOL    HW1 9401   2.988   1.420   6.455
 2834SOL    HW2 9402   3.005   1.527   6.578
 2835SOL     OW 9403   0.404   6.916   1.952
 2835SOL    HW1 9404   0.344   6.946   1.877
 2835SOL    HW2 9405   0.499   6.927   1.925
 2836SOL     OW 9406   0.123   6.793   1.583
 2836SOL    HW1 9407   0.040   6.847   1.568
 2836SOL    HW2 9408   0.132   6.725   1.511
 2837SOL     OW 9409   5.554   3.423   3.153
 2837SOL    HW1 9410   5.607   3.499   3.191
 2837SOL    HW2 9411   5.466   3.417   3.198
 2838SOL     OW 9412   2.192   4.563   1.751
 2838SOL    HW1 9413   2.235   4.577   1.841
 2838SOL    HW2 9414   2.251   4.506   1.694
 2839SOL     OW 9415   5.876   1.126   2.002
 2839SOL    HW1 9416   5.905   1.073   2.082
 2839SOL    HW2 9417   5.823   1.205   2.033
 2840SOL     OW 9418   0.137   0.841   4.653
 2840SOL    HW1 9419   0.182   0.845   4.742
 2840SOL    HW2 9420   0.181   0.905   4.590
 2841SOL     OW 9421   0.421   6.933   6.711
 2841SOL    HW1 9422   0.424   6.850   6.767
 2841SOL    HW2 9423   0.478   7.003   6.753
 2842SOL     OW 9424   6.714   2.401   3.708
 2842SOL    HW1 9425   6.619   2.393   3.736
 2842SOL    HW2 9426   6.762   2.316   3.727
 2843SOL     OW 9427   3.243   1.722   4.366
 2843SOL    HW1 9428   3.242   1.629   4.329
 2843SOL    HW2 9429   3.162   1.737   4.422
 2844SOL     OW 9430   1.147   3.772   0.492
 2844SOL    HW1 9431   1.161   3.682   0.451
 2844SOL    HW2 9432   1.052   3.800   0.479
 2845SOL     OW 9433   1.039   3.672   1.112
 2845SOL    HW1 9434   1.022   3.632   1.023
 2845SOL    HW2 9435   1.083   3.605   1.172
 2846SOL     OW 9436   4.775   1.308   0.141
 2846SOL    HW1 9437   4.739   1.220   0.172
 2846SOL    HW2 9438   4.728   1.336   0.057
 2847SOL     OW 9439   5.414   3.202   3.544
 2847SOL    HW1 9440   5.386   3.296   3.562
 2847SOL    HW2 9441   5.485   3.201   3.474
 2848SOL     OW 9442   0.429   4.627   5.625
 2848SOL    HW1 9443   0.457   4.621   5.720
 2848SOL    HW2 9444   0.374   4.709   5.611
 2849SOL     OW 9445   3.361   0.890   0.975
 2849SOL    HW1 9446   3.330   0.834   1.051
 2849SOL    HW2 9447   3.325   0.982   0.984
 2850SOL     OW 9448   3.338   0.794   1.822
 2850SOL    HW1 9449   3.400   0.873   1.823
 2850SOL    HW2 9450   3.350   0.744   1.736
 2851SOL     OW 9451   1.053   4.343   5.220
 2851SOL    HW1 9452   0.963   4.301   5.232
 2851SOL    HW2 9453   1.042   4.430   5.171
 2852SOL     OW 9454   5.736   4.102   6.602
 2852SOL    HW1 9455   5.716   4.047   6.683
 2852SOL    HW2 9456   5.822   4.151   6.615
 2853SOL     OW 9457   2.781   2.563   0.053
 2853SOL    HW1 9458   2.802   2.586   6.982
 2853SOL    HW2 9459   2.832   2.624   0.114
 2854SOL     OW 9460   2.933   1.210   4.209
 2854SOL    HW1 9461   3.030   1.236   4.215
 2854SOL    HW2 9462   2.925   1.111   4.207
 2855SOL     OW 9463   2.080   0.441   5.835
 2855SOL    HW1 9464   2.097   0.377   5.909
 2855SOL    HW2 9465   1.991   0.421   5.793
 2856SOL     OW 9466   2.303   2.997   5.989
 2856SOL    HW1 9467   2.293   2.952   6.077
 2856SOL    HW2 9468   2.219   3.046   5.966
 2857SOL     OW 9469   2.886   1.486   1.635
 2857SOL    HW1 9470   2.960   1.535   1.682
 2857SOL    HW2 9471   2.818   1.551   1.603
 2858SOL     OW 9472   5.997   3.298   1.955
 2858SOL    HW1 9473   5.912   3.273   1.908
 2858SOL    HW2 9474   6.035   3.381   1.913
 2859SOL     OW 9475   5.535   1.394   0.383
 2859SOL    HW1 9476   5.498   1.401   0.291
 2859SOL    HW2 9477   5.520   1.480   0.432
 2860SOL     OW 9478   4.263   1.816   1.123
 2860SOL    HW1 9479   4.191   1.870   1.165
 2860SOL    HW2 9480   4.286   1.739   1.184
 2861SOL     OW 9481   4.532   5.525   5.672
 2861SOL    HW1 9482   4.502   5.544   5.766
 2861SOL    HW2 9483   4.596   5.448   5.672
 2862SOL     OW 9484   5.709   1.461   3.369
 2862SOL    HW1 9485   5.706   1.558   3.344
 2862SOL    HW2 9486   5.772   1.449   3.447
 2863SOL     OW 9487   5.878   1.045   6.922
 2863SOL    HW1 9488   5.825   1.039   7.006
 2863SOL    HW2 9489   5.913   0.955   6.897
 2864SOL     OW 9490   3.892   6.922   1.071
 2864SOL    HW1 9491   3.958   6.934   0.997
 2864SOL    HW2 9492   3.876   7.010   1.115
 2865SOL     OW 9493   4.987   4.314   5.145
 2865SOL    HW1 9494   5.031   4.403   5.152
 2865SOL    HW2 9495   5.047   4.251   5.094
 2866SOL     OW 9496   6.959   0.041   0.268
 2866SOL    HW1 9497   6.945   6.997   0.197
 2866SOL    HW2 9498   0.024   0.026   0.311
 2867SOL     OW 9499   6.084   4.350   2.477
 2867SOL    HW1 9500   6.011   4.404   2.436
 2867SOL    HW2 9501   6.045   4.274   2.528
 2868SOL     OW 9502   0.662   3.639   5.241
 2868SOL    HW1 9503   0.696   3.694   5.317
 2868SOL    HW2 9504   0.723   3.561   5.226
 2869SOL     OW 9505   6.123   1.123   2.926
 2869SOL    HW1 9506   6.089   1.096   3.016
 2869SOL    HW2 9507   6.206   1.177   2.936
 2870SOL     OW 9508   6.644   1.529   4.317
 2870SOL    HW1 9509   6.643   1.432   4.342
 2870SOL    HW2 9510   6.578   1.578   4.374
 2871SOL     OW 9511   2.315   1.913   6.370
 2871SOL    HW1 9512   2.215   1.910   6.365
 2871SOL    HW2 9513   2.346   2.006   6.390
 2872SOL     OW 9514   2.944   1.439   3.883
 2872SOL    HW1 9515   2.853   1.463   3.918
 2872SOL    HW2 9516   2.957   1.340   3.890
 2873SOL     OW 9517   0.627   5.507   3.332
 2873SOL    HW1 9518   0.553   5.489   3.268
 2873SOL    HW2 9519   0.669   5.595   3.311
 2874SOL     OW 9520   5.054   5.170   2.105
 2874SOL    HW1 9521   5.102   5.083   2.120
 2874SOL    HW2 9522   4.999   5.163   2.022
 2875SOL     OW 9523   4.217   6.594   6.366
 2875SOL    HW1 9524   4.282   6.577   6.292
 2875SOL    HW2 9525   4.262   6.581   6.454
 2876SOL     OW 9526   0.720   0.710   2.246
 2876SOL    HW1 9527   0.641   0.687   2.189
 2876SOL    HW2 9528   0.791   0.752   2.189
 2877SOL     OW 9529   3.627   2.810   5.464
 2877SOL    HW1 9530   3.529   2.809   5.484
 2877SOL    HW2 9531   3.678   2.816   5.550
 2878SOL     OW 9532   3.191   5.285   4.671
 2878SOL    HW1 9533   3.154   5.214   4.611
 2878SOL    HW2 9534   3.179   5.257   4.767
 2879SOL     OW 9535   4.851   5.316   0.329
 2879SOL    HW1 9536   4.941   5.359   0.328
 2879SOL    HW2 9537   4.855   5.231   0.276
 2880SOL     OW 9538   6.412   6.738   0.501
 2880SOL    HW1 9539   6.408   6.805   0.427
 2880SOL    HW2 9540   6.328   6.684   0.501
 2881SOL     OW 9541   6.043   6.439   0.981
 2881SOL    HW1 9542   5.946   6.464   0.978
 2881SOL    HW2 9543   6.064   6.379   0.904
 2882SOL     OW 9544   0.757   3.329   2.649
 2882SOL    HW1 9545   0.754   3.240   2.694
 2882SOL    HW2 9546   0.852   3.358   2.638
 2883SOL     OW 9547   4.031   6.865   3.501
 2883SOL    HW1 9548   3.950   6.808   3.489
 2883SOL    HW2 9549   4.073   6.847   3.590
 2884SOL     OW 9550   0.458   6.204   3.225
 2884SOL    HW1 9551   0.557   6.208   3.239
 2884SOL    HW2 9552   0.427   6.287   3.178
 2885SOL     OW 9553   0.300   2.579   3.064
 2885SOL    HW1 9554   0.287   2.509   2.994
 2885SOL    HW2 9555   0.371   2.643   3.036
 2886SOL     OW 9556   2.267   2.839   6.546
 2886SOL    HW1 9557   2.275   2.809   6.641
 2886SOL    HW2 9558   2.325   2.919   6.532
 2887SOL     OW 9559   2.305   0.008   5.243
 2887SOL    HW1 9560   2.399   7.024   5.210
 2887SOL    HW2 9561   2.261   6.943   5.242
 2888SOL     OW 9562   0.127   4.812   6.269
 2888SOL    HW1 9563   0.222   4.837   6.251
 2888SOL    HW2 9564   0.111   4.718   6.238
 2889SOL     OW 9565   1.568   0.957   2.311
 2889SOL    HW1 9566   1.553   0.904   2.394
 2889SOL    HW2 9567   1.663   0.988   2.308
 2890SOL     OW 9568   2.843   0.350   1.110
 2890SOL    HW1 9569   2.765   0.324   1.053
 2890SOL    HW2 9570   2.850   0.450   1.111
 2891SOL     OW 9571   2.581   4.604   3.506
 2891SOL    HW1 9572   2.563   4.572   3.599
 2891SOL    HW2 9573   2.675   4.637   3.500
 2892SOL     OW 9574   5.067   4.001   0.071
 2892SOL    HW1 9575   5.067   4.033   7.001
 2892SOL    HW2 9576   5.118   3.915   0.078
 2893SOL     OW 9577   2.345   6.099   6.050
 2893SOL    HW1 9578   2.354   6.185   6.100
 2893SOL    HW2 9579   2.250   6.085   6.023
 2894SOL     OW 9580   2.884   2.710   6.844
 2894SOL    HW1 9581   2.941   2.789   6.864
 2894SOL    HW2 9582   2.925   2.658   6.769
 2895SOL     OW 9583   3.711   2.987   6.582
 2895SOL    HW1 9584   3.701   3.064   6.519
 2895SOL    HW2 9585   3.808   2.971   6.599
 2896SOL     OW 9586   2.867   5.629   6.499
 2896SOL    HW1 9587   2.823   5.616   6.588
 2896SOL    HW2 9588   2.797   5.625   6.427
 2897SOL     OW 9589   2.562   6.371   3.770
 2897SOL    HW1 9590   2.630   6.436   3.805
 2897SOL    HW2 9591   2.498   6.348   3.843
 2898SOL     OW 9592   4.748   4.722   2.701
 2898SOL    HW1 9593   4.699   4.809   2.699
 2898SOL    HW2 9594   4.846   4.739   2.709
 2899SOL     OW 9595   0.222   0.899   6.353
 2899SOL    HW1 9596   0.160   0.864   6.423
 2899SOL    HW2 9597   0.177   0.896   6.264
 2900SOL     OW 9598   1.186   4.651   5.543
 2900SOL    HW1 9599   1.126   4.575   5.567
 2900SOL    HW2 9600   1.251   4.622   5.473
 2901SOL     OW 9601   1.672   0.254   2.907
 2901SOL    HW1 9602   1.670   0.337   2.851
 2901SOL    HW2 9603   1.686   0.174   2.849
 2902SOL     OW 9604   5.782   6.460   0.413
 2902SOL    HW1 9605   5.705   6.496   0.465
 2902SOL    HW2 9606   5.805   6.524   0.339
 2903SOL     OW 9607   3.172   0.273   2.079
 2903SOL    HW1 9608   3.131   0.335   2.012
 2903SOL    HW2 9609   3.194   0.186   2.034
 2904SOL     OW 9610   2.496   3.257   5.364
 2904SOL    HW1 9611   2.484   3.170   5.316
 2904SOL    HW2 9612   2.513   3.239   5.461
 2905SOL     OW 9613   1.545   1.391   2.587
 2905SOL    HW1 9614   1.499   1.394   2.498
 2905SOL    HW2 9615   1.492   1.331   2.648
 2906SOL     OW 9616   5.300   4.867   1.804
 2906SOL    HW1 9617   5.229   4.837   1.867
 2906SOL    HW2 9618   5.370   4.795   1.796
 2907SOL     OW 9619   6.422   1.312   5.648
 2907SOL    HW1 9620   6.417   1.316   5.549
 2907SOL    HW2 9621   6.444   1.218   5.677
 2908SOL     OW 9622   4.218   6.618   4.202
 2908SOL    HW1 9623   4.293   6.628   4.266
 2908SOL    HW2 9624   4.231   6.680   4.124
 2909SOL     OW 9625   0.587   4.766   4.336
 2909SOL    HW1 9626   0.644   4.689   4.366
 2909SOL    HW2 9627   0.642   4.849   4.332
 2910SOL     OW 9628   3.589   6.474   4.883
 2910SOL    HW1 9629   3.503   6.427   4.863
 2910SOL    HW2 9630   3.663   6.407   4.892
 2911SOL     OW 9631   2.487   5.354   3.619
 2911SOL    HW1 9632   2.400   5.316   3.589
 2911SOL    HW2 9633   2.560   5.286   3.607
 2912SOL     OW 9634   2.806   5.631   0.472
 2912SOL    HW1 9635   2.806   5.714   0.527
 2912SOL    HW2 9636   2.868   5.563   0.512
 2913SOL     OW 9637   1.674   4.458   2.273
 2913SOL    HW1 9638   1.705   4.504   2.356
 2913SOL    HW2 9639   1.751   4.450   2.209
 2914SOL     OW 9640   6.204   5.061   6.043
 2914SOL    HW1 9641   6.225   4.972   6.083
 2914SOL    HW2 9642   6.199   5.052   5.943
 2915SOL     OW 9643   4.610   1.583   4.162
 2915SOL    HW1 9644   4.551   1.661   4.181
 2915SOL    HW2 9645   4.705   1.608   4.181
 2916SOL     OW 9646   6.414   4.838   5.833
 2916SOL    HW1 9647   6.512   4.853   5.821
 2916SOL    HW2 9648   6.364   4.922   5.812
 2917SOL     OW 9649   3.689   0.633   1.071
 2917SOL    HW1 9650   3.742   0.617   1.154
 2917SOL    HW2 9651   3.701   0.556   1.008
 2918SOL     OW 9652   6.859   3.302   3.142
 2918SOL    HW1 9653   6.856   3.324   3.240
 2918SOL    HW2 9654   6.766   3.292   3.107
 2919SOL     OW 9655   6.325   0.234   0.428
 2919SOL    HW1 9656   6.310   0.149   0.479
 2919SOL    HW2 9657   6.362   0.303   0.489
 2920SOL     OW 9658   3.618   2.089   2.551
 2920SOL    HW1 9659   3.529   2.090   2.505
 2920SOL    HW2 9660   3.690   2.075   2.483
 2921SOL     OW 9661   0.165   1.135   2.838
 2921SOL    HW1 9662   0.223   1.118   2.758
 2921SOL    HW2 9663   0.074   1.096   2.822
 2922SOL     OW 9664   5.902   6.397   6.971
 2922SOL    HW1 9665   5.803   6.384   6.979
 2922SOL    HW2 9666   5.939   6.423   0.035
 2923SOL     OW 9667   6.692   5.520   2.797
 2923SOL    HW1 9668   6.752   5.443   2.815
 2923SOL    HW2 9669   6.748   5.602   2.779
 2924SOL     OW 9670   0.570   1.462   6.128
 2924SOL    HW1 9671   0.538   1.369   6.109
 2924SOL    HW2 9672   0.504   1.508   6.187
 2925SOL     OW 9673   5.797   1.172   2.812
 2925SOL    HW1 9674   5.779   1.247   2.875
 2925SOL    HW2 9675   5.893   1.144   2.821
 2926SOL     OW 9676   0.015   1.601   4.998
 2926SOL    HW1 9677   7.009   1.543   5.074
 2926SOL    HW2 9678   6.999   1.691   5.007
 2927SOL     OW 9679   1.211   2.211   2.053
 2927SOL    HW1 9680   1.298   2.204   2.101
 2927SOL    HW2 9681   1.228   2.207   1.954
 2928SOL     OW 9682   6.468   1.617   6.646
 2928SOL    HW1 9683   6.560   1.577   6.648
 2928SOL    HW2 9684   6.400   1.544   6.638
 2929SOL     OW 9685   0.836   0.939   6.017
 2929SOL    HW1 9686   0.841   0.854   6.070
 2929SOL    HW2 9687   0.812   0.918   5.922
 2930SOL     OW 9688   4.913   6.704   4.791
 2930SOL    HW1 9689   4.986   6.722   4.725
 2930SOL    HW2 9690   4.844   6.776   4.784
 2931SOL     OW 9691   5.078   6.072   6.522
 2931SOL    HW1 9692   5.102   5.997   6.583
 2931SOL    HW2 9693   5.137   6.070   6.441
 2932SOL     OW 9694   1.685   4.680   1.563
 2932SOL    HW1 9695   1.629   4.717   1.638
 2932SOL    HW2 9696   1.781   4.683   1.589
 2933SOL     OW 9697   5.286   2.541   4.081
 2933SOL    HW1 9698   5.314   2.598   4.158
 2933SOL    HW2 9699   5.352   2.466   4.069
 2934SOL     OW 9700   3.481   0.709   1.229
 2934SOL    HW1 9701   3.549   0.719   1.157
 2934SOL    HW2 9702   3.412   0.642   1.201
 2935SOL     OW 9703   6.600   3.018   1.242
 2935SOL    HW1 9704   6.665   3.077   1.291
 2935SOL    HW2 9705   6.515   3.068   1.225
 2936SOL     OW 9706   4.876   5.775   1.285
 2936SOL    HW1 9707   4.876   5.875   1.281
 2936SOL    HW2 9708   4.942   5.745   1.354
 2937SOL     OW 9709   2.869   5.089   0.382
 2937SOL    HW1 9710   2.860   5.187   0.369
 2937SOL    HW2 9711   2.780   5.045   0.372
 2938SOL     OW 9712   4.674   4.926   5.338
 2938SOL    HW1 9713   4.601   4.879   5.387
 2938SOL    HW2 9714   4.668   4.906   5.240
 2939SOL     OW 9715   6.969   6.629   4.835
 2939SOL    HW1 9716   7.002   6.673   4.752
 2939SOL    HW2 9717   6.873   6.654   4.850
 2940SOL     OW 9718   5.488   6.703   5.358
 2940SOL    HW1 9719   5.443   6.616   5.377
 2940SOL    HW2 9720   5.497   6.756   5.442
 2941SOL     OW 9721   1.863   2.634   5.638
 2941SOL    HW1 9722   1.934   2.704   5.642
 2941SOL    HW2 9723   1.832   2.624   5.544
 2942SOL     OW 9724   2.755   0.615   2.254
 2942SOL    HW1 9725   2.799   0.671   2.183
 2942SOL    HW2 9726   2.656   0.629   2.251
 2943SOL     OW 9727   5.177   3.484   2.319
 2943SOL    HW1 9728   5.245   3.557   2.323
 2943SOL    HW2 9729   5.216   3.400   2.358
 2944SOL     OW 9730   3.440   5.233   5.718
 2944SOL    HW1 9731   3.436   5.161   5.648
 2944SOL    HW2 9732   3.418   5.193   5.807
 2945SOL     OW 9733   4.050   3.697   2.816
 2945SOL    HW1 9734   3.975   3.756   2.785
 2945SOL    HW2 9735   4.026   3.601   2.803
 2946SOL     OW 9736   6.736   5.890   5.747
 2946SOL    HW1 9737   6.689   5.820   5.692
 2946SOL    HW2 9738   6.689   5.898   5.836
 2947SOL     OW 9739   0.297   3.787   6.764
 2947SOL    HW1 9740   0.302   3.786   6.664
 2947SOL    HW2 9741   0.350   3.710   6.800
 2948SOL     OW 9742   6.074   3.598   5.592
 2948SOL    HW1 9743   6.024   3.683   5.607
 2948SOL    HW2 9744   6.013   3.530   5.551
 2949SOL     OW 9745   1.692   6.232   1.219
 2949SOL    HW1 9746   1.691   6.288   1.301
 2949SOL    HW2 9747   1.786   6.207   1.196
 2950SOL     OW 9748   5.551   3.394   4.464
 2950SOL    HW1 9749   5.513   3.369   4.375
 2950SOL    HW2 9750   5.593   3.314   4.507
 2951SOL     OW 9751   6.957   2.566   6.912
 2951SOL    HW1 9752   6.987   2.658   6.887
 2951SOL    HW2 9753   6.950   2.560   7.012
 2952SOL     OW 9754   0.902   4.809   3.320
 2952SOL    HW1 9755   0.944   4.723   3.293
 2952SOL    HW2 9756   0.880   4.807   3.418
 2953SOL     OW 9757   5.258   2.623   2.210
 2953SOL    HW1 9758   5.267   2.543   2.152
 2953SOL    HW2 9759   5.167   2.623   2.253
 2954SOL     OW 9760   1.344   6.129   2.002
 2954SOL    HW1 9761   1.410   6.201   1.981
 2954SOL    HW2 9762   1.306   6.092   1.918
 2955SOL     OW 9763   0.445   2.991   0.551
 2955SOL    HW1 9764   0.362   3.035   0.588
 2955SOL    HW2 9765   0.521   3.055   0.557
 2956SOL     OW 9766   0.073   5.764   2.867
 2956SOL    HW1 9767   0.003   5.792   2.933
 2956SOL    HW2 9768   0.088   5.665   2.874
 2957SOL     OW 9769   0.254   3.799   0.926
 2957SOL    HW1 9770   0.234   3.897   0.923
 2957SOL    HW2 9771   0.168   3.748   0.934
 2958SOL     OW 9772   2.136   4.597   5.169
 2958SOL    HW1 9773   2.058   4.659   5.179
 2958SOL    HW2 9774   2.196   4.606   5.248
 2959SOL     OW 9775   5.641   4.593   6.584
 2959SOL    HW1 9776   5.629   4.693   6.588
 2959SOL    HW2 9777   5.702   4.565   6.658
 2960SOL     OW 9778   3.053   1.335   0.079
 2960SOL    HW1 9779   3.054   1.420   0.131
 2960SOL    HW2 9780   2.960   1.298   0.077
 2961SOL     OW 9781   5.577   3.014   4.805
 2961SOL    HW1 9782   5.545   3.099   4.846
 2961SOL    HW2 9783   5.511   2.942   4.821
 2962SOL     OW 9784   4.678   0.609   3.385
 2962SOL    HW1 9785   4.769   0.603   3.345
 2962SOL    HW2 9786   4.669   0.540   3.457
 2963SOL     OW 9787   1.576   1.838   5.692
 2963SOL    HW1 9788   1.634   1.830   5.611
 2963SOL    HW2 9789   1.492   1.787   5.678
 2964SOL     OW 9790   1.909   6.964   2.271
 2964SOL    HW1 9791   1.950   6.905   2.202
 2964SOL    HW2 9792   1.978   0.004   2.306
 2965SOL     OW 9793   0.173   0.798   5.396
 2965SOL    HW1 9794   0.225   0.879   5.423
 2965SOL    HW2 9795   0.110   0.773   5.469
 2966SOL     OW 9796   5.899   4.079   3.567
 2966SOL    HW1 9797   5.838   4.096   3.644
 2966SOL    HW2 9798   5.882   3.987   3.531
 2967SOL     OW 9799   5.623   2.889   4.153
 2967SOL    HW1 9800   5.596   2.954   4.225
 2967SOL    HW2 9801   5.560   2.897   4.076
 2968SOL     OW 9802   0.515   3.867   5.607
 2968SOL    HW1 9803   0.491   3.770   5.602
 2968SOL    HW2 9804   0.500   3.900   5.700
 2969SOL     OW 9805   5.527   2.011   5.336
 2969SOL    HW1 9806   5.495   1.952   5.409
 2969SOL    HW2 9807   5.609   1.971   5.294
 2970SOL     OW 9808   1.398   4.249   6.485
 2970SOL    HW1 9809   1.300   4.232   6.479
 2970SOL    HW2 9810   1.417   4.306   6.565
 2971SOL     OW 9811   5.642   3.022   4.407
 2971SOL    HW1 9812   5.733   3.022   4.367
 2971SOL    HW2 9813   5.641   3.083   4.486
 2972SOL     OW 9814   6.400   4.157   0.152
 2972SOL    HW1 9815   6.430   4.062   0.162
 2972SOL    HW2 9816   6.386   4.196   0.243
 2973SOL     OW 9817   5.674   0.655   4.035
 2973SOL    HW1 9818   5.737   0.580   4.056
 2973SOL    HW2 9819   5.655   0.707   4.118
 2974SOL     OW 9820   5.596   3.850   3.599
 2974SOL    HW1 9821   5.572   3.852   3.503
 2974SOL    HW2 9822   5.515   3.868   3.655
 2975SOL     OW 9823   0.216   1.913   5.016
 2975SOL    HW1 9824   0.228   1.991   5.078
 2975SOL    HW2 9825   0.268   1.928   4.932
 2976SOL     OW 9826   4.112   1.429   2.958
 2976SOL    HW1 9827   4.021   1.468   2.944
 2976SOL    HW2 9828   4.166   1.491   3.015
 2977SOL     OW 9829   2.836   6.928   4.365
 2977SOL    HW1 9830   2.794   6.983   4.437
 2977SOL    HW2 9831   2.930   6.960   4.349
 2978SOL     OW 9832   4.579   4.972   0.066
 2978SOL    HW1 9833   4.576   5.048   0.131
 2978SOL    HW2 9834   4.574   4.886   0.116
 2979SOL     OW 9835   3.619   0.547   4.025
 2979SOL    HW1 9836   3.698   0.582   4.077
 2979SOL    HW2 9837   3.646   0.531   3.930
 2980SOL     OW 9838   1.447   6.215   4.480
 2980SOL    HW1 9839   1.360   6.220   4.530
 2980SOL    HW2 9840   1.507   6.148   4.523
 2981SOL     OW 9841   0.630   0.040   6.072
 2981SOL    HW1 9842   0.606   0.051   5.975
 2981SOL    HW2 9843   0.708   7.003   6.080
 2982SOL     OW 9844   4.325   6.601   3.119
 2982SOL    HW1 9845   4.226   6.597   3.135
 2982SOL    HW2 9846   4.374   6.583   3.204
 2983SOL     OW 9847   0.299   0.382   4.175
 2983SOL    HW1 9848   0.255   0.472   4.180
 2983SOL    HW2 9849   0.268   0.325   4.252
 2984SOL     OW 9850   5.849   6.089   1.009
 2984SOL    HW1 9851   5.901   6.137   1.080
 2984SOL    HW2 9852   5.755   6.123   1.008
 2985SOL     OW 9853   0.879   1.974   4.540
 2985SOL    HW1 9854   0.839   2.025   4.464
 2985SOL    HW2 9855   0.844   2.009   4.627
 2986SOL     OW 9856   2.385   4.327   5.529
 2986SOL    HW1 9857   2.483   4.327   5.547
 2986SOL    HW2 9858   2.368   4.306   5.433
 2987SOL     OW 9859   4.905   1.239   4.502
 2987SOL    HW1 9860   4.826   1.283   4.544
 2987SOL    HW2 9861   4.925   1.282   4.414
 2988SOL     OW 9862   0.920   0.153   2.177
 2988SOL    HW1 9863   0.988   0.131   2.108
 2988SOL    HW2 9864   0.853   0.217   2.140
 2989SOL     OW 9865   6.097   5.491   1.106
 2989SOL    HW1 9866   6.063   5.399   1.090
 2989SOL    HW2 9867   6.024   5.548   1.145
 2990SOL     OW 9868   3.907   1.097   3.349
 2990SOL    HW1 9869   3.940   1.063   3.260
 2990SOL    HW2 9870   3.827   1.156   3.334
 2991SOL     OW 9871   0.214   4.188   0.660
 2991SOL    HW1 9872   0.239   4.275   0.617
 2991SOL    HW2 9873   0.142   4.144   0.606
 2992SOL     OW 9874   2.742   5.470   5.887
 2992SOL    HW1 9875   2.824   5.477   5.944
 2992SOL    HW2 9876   2.768   5.468   5.791
 2993SOL     OW 9877   1.232   4.657   1.840
 2993SOL    HW1 9878   1.282   4.572   1.828
 2993SOL    HW2 9879   1.139   4.646   1.805
 2994SOL     OW 9880   4.681   0.741   0.058
 2994SOL    HW1 9881   4.769   0.729   0.105
 2994SOL    HW2 9882   4.665   0.663   7.022
 2995SOL     OW 9883   1.036   2.684   6.944
 2995SOL    HW1 9884   0.960   2.635   6.985
 2995SOL    HW2 9885   1.028   2.681   6.844
 2996SOL     OW 9886   3.080   6.355   5.184
 2996SOL    HW1 9887   3.013   6.412   5.230
 2996SOL    HW2 9888   3.167   6.403   5.178
 2997SOL     OW 9889   4.952   5.950   1.927
 2997SOL    HW1 9890   4.865   5.969   1.972
 2997SOL    HW2 9891   5.014   6.028   1.939
 2998SOL     OW 9892   4.809   5.654   4.314
 2998SOL    HW1 9893   4.839   5.712   4.238
 2998SOL    HW2 9894   4.722   5.610   4.290
 2999SOL     OW 9895   3.686   6.097   3.657
 2999SOL    HW1 9896   3.682   6.197   3.665
 2999SOL    HW2 9897   3.764   6.071   3.601
 3000SOL     OW 9898   1.381   3.475   5.748
 3000SOL    HW1 9899   1.434   3.552   5.712
 3000SOL    HW2 9900   1.439   3.393   5.749
 3001SOL     OW 9901   5.036   0.024   6.859
 3001SOL    HW1 9902   5.086   0.099   6.816
 3001SOL    HW2 9903   5.025   6.974   6.793
 3002SOL     OW 9904   3.657   0.337   5.164
 3002SOL    HW1 9905   3.588   0.347   5.093
 3002SOL    HW2 9906   3.615   0.298   5.246
 3003SOL     OW 9907   2.896   6.402   6.467
 3003SOL    HW1 9908   2.812   6.394   6.414
 3003SOL    HW2 9909   2.945   6.485   6.439
 3004SOL     OW 9910   6.546   4.011   3.704
 3004SOL    HW1 9911   6.614   3.950   3.744
 3004SOL    HW2 9912   6.560   4.018   3.605
 3005SOL     OW 9913   3.282   3.311   1.369
 3005SOL    HW1 9914   3.232   3.377   1.424
 3005SOL    HW2 9915   3.321   3.241   1.430
 3006SOL     OW 9916   6.605   1.469   0.640
 3006SOL    HW1 9917   6.669   1.530   0.594
 3006SOL    HW2 9918   6.653   1.416   0.710
 3007SOL     OW 9919   5.921   5.312   2.155
 3007SOL    HW1 9920   5.834   5.295   2.201
 3007SOL    HW2 9921   5.957   5.226   2.118
 3008SOL     OW 9922   3.659   0.610   6.231
 3008SOL    HW1 9923   3.611   0.529   6.264
 3008SOL    HW2 9924   3.693   0.594   6.138
 3009SOL     OW 9925   0.588   6.951   2.698
 3009SOL    HW1 9926   0.512   7.016   2.709
 3009SOL    HW2 9927   0.553   6.867   2.657
 3010SOL     OW 9928   4.143   5.955   3.107
 3010SOL    HW1 9929   4.223   5.945   3.049
 3010SOL    HW2 9930   4.107   6.049   3.099
 3011SOL     OW 9931   5.945   0.650   6.597
 3011SOL    HW1 9932   5.893   0.574   6.637
 3011SOL    HW2 9933   5.930   0.651   6.498
 3012SOL     OW 9934   0.393   3.267   4.032
 3012SOL    HW1 9935   0.401   3.168   4.041
 3012SOL    HW2 9936   0.394   3.309   4.123
 3013SOL     OW 9937   5.348   6.073   3.293
 3013SOL    HW1 9938   5.334   5.977   3.269
 3013SOL    HW2 9939   5.264   6.112   3.328
 3014SOL     OW 9940   5.511   1.989   4.344
 3014SOL    HW1 9941   5.519   2.061   4.275
 3014SOL    HW2 9942   5.435   2.009   4.405
 3015SOL     OW 9943   3.223   2.572   6.874
 3015SOL    HW1 9944   3.190   2.657   6.913
 3015SOL    HW2 9945   3.148   2.507   6.866
 3016SOL     OW 9946   2.961   5.943   4.466
 3016SOL    HW1 9947   2.907   5.969   4.546
 3016SOL    HW2 9948   2.933   5.853   4.433
 3017SOL     OW 9949   1.253   5.725   0.994
 3017SOL    HW1 9950   1.167   5.707   0.948
 3017SOL    HW2 9951   1.298   5.803   0.951
 3018SOL     OW 9952   3.342   0.628   6.308
 3018SOL    HW1 9953   3.433   0.656   6.279
 3018SOL    HW2 9954   3.291   0.709   6.338
 3019SOL     OW 9955   3.662   6.372   1.129
 3019SOL    HW1 9956   3.580   6.371   1.187
 3019SOL    HW2 9957   3.646   6.316   1.048
 3020SOL     OW 9958   3.666   3.743   1.274
 3020SOL    HW1 9959   3.716   3.659   1.248
 3020SOL    HW2 9960   3.661   3.804   1.195
 3021SOL     OW 9961   2.160   2.062   6.866
 3021SOL    HW1 9962   2.093   2.079   6.792
 3021SOL    HW2 9963   2.178   2.148   6.914
 3022SOL     OW 9964   4.122   6.195   2.333
 3022SOL    HW1 9965   4.162   6.279   2.298
 3022SOL    HW2 9966   4.033   6.180   2.290
 3023SOL     OW 9967   3.446   6.172   3.134
 3023SOL    HW1 9968   3.475   6.118   3.055
 3023SOL    HW2 9969   3.347   6.187   3.129
 3024SOL     OW 9970   3.055   0.854   6.323
 3024SOL    HW1 9971   2.962   0.819   6.334
 3024SOL    HW2 9972   3.066   0.890   6.230
 3025SOL     OW 9973   3.512   2.841   0.539
 3025SOL    HW1 9974   3.537   2.900   0.462
 3025SOL    HW2 9975   3.522   2.745   0.512
 3026SOL     OW 9976   1.074   3.558   0.867
 3026SOL    HW1 9977   1.059   3.490   0.795
 3026SOL    HW2 9978   1.114   3.640   0.827
 3027SOL     OW 9979   4.190   0.937   2.094
 3027SOL    HW1 9980   4.180   0.886   2.180
 3027SOL    HW2 9981   4.218   0.875   2.022
 3028SOL     OW 9982   1.229   4.834   6.669
 3028SOL    HW1 9983   1.300   4.872   6.610
 3028SOL    HW2 9984   1.206   4.742   6.637
 3029SOL     OW 9985   6.742   5.115   5.090
 3029SOL    HW1 9986   6.666   5.058   5.058
 3029SOL    HW2 9987   6.827   5.086   5.046
 3030SOL     OW 9988   0.665   1.484   5.374
 3030SOL    HW1 9989   0.574   1.445   5.362
 3030SOL    HW2 9990   0.674   1.565   5.315
 3031SOL     OW 9991   0.585   3.553   0.723
 3031SOL    HW1 9992   0.502   3.606   0.705
 3031SOL    HW2 9993   0.562   3.474   0.781
 3032SOL     OW 9994   5.443   0.362   0.210
 3032SOL    HW1 9995   5.373   0.426   0.240
 3032SOL    HW2 9996   5.531   0.409   0.202
 3033SOL     OW 9997   0.561   2.702   7.002
 3033SOL    HW1 9998   0.480   2.667   6.954
 3033SOL    HW2 9999   0.550   2.689   0.076
 3034SOL     OW10000   1.966   6.174   3.454
 3034SOL    HW110001   1.880   6.192   3.406
 3034SOL    HW210002   1.971   6.234   3.535
 3035SOL     OW10003   6.772   1.893   0.636
 3035SOL    HW110004   6.740   1.907   0.543
 3035SOL    HW210005   6.852   1.832   0.635
 3036SOL     OW10006   1.896   3.693   6.834
 3036SOL    HW110007   1.993   3.715   6.820
 3036SOL    HW210008   1.841   3.776   6.826
 3037SOL     OW10009   5.701   5.604   4.886
 3037SOL    HW110010   5.612   5.574   4.850
 3037SOL    HW210011   5.773   5.570   4.826
 3038SOL     OW10012   5.863   6.943   6.308
 3038SOL    HW110013   5.953   6.908   6.335
 3038SOL    HW210014   5.828   7.004   6.379
 3039SOL     OW10015   6.722   4.790   2.365
 3039SOL    HW110016   6.742   4.888   2.368
 3039SOL    HW210017   6.722   4.759   2.270
 3040SOL     OW10018   4.550   3.842   6.364
 3040SOL    HW110019   4.633   3.829   6.311
 3040SOL    HW210020   4.476   3.872   6.304
 3041SOL     OW10021   1.847   2.456   5.857
 3041SOL    HW110022   1.920   2.392   5.833
 3041SOL    HW210023   1.836   2.523   5.783
 3042SOL     OW10024   5.197   0.361   1.965
 3042SOL    HW110025   5.203   0.276   2.017
 3042SOL    HW210026   5.227   0.345   1.871
 3043SOL     OW10027   0.421   5.327   0.420
 3043SOL    HW110028   0.364   5.355   0.343
 3043SOL    HW210029   0.415   5.396   0.493
 3044SOL     OW10030   3.485   4.162   5.297
 3044SOL    HW110031   3.550   4.235   5.314
 3044SOL    HW210032   3.443   4.134   5.383
 3045SOL     OW10033   4.770   0.626   2.829
 3045SOL    HW110034   4.859   0.618   2.874
 3045SOL    HW210035   4.698   0.633   2.899
 3046SOL     OW10036   1.115   3.386   5.297
 3046SOL    HW110037   1.185   3.448   5.332
 3046SOL    HW210038   1.061   3.350   5.373
 3047SOL     OW10039   5.445   5.282   2.075
 3047SOL    HW110040   5.498   5.367   2.084
 3047SOL    HW210041   5.447   5.253   1.979
 3048SOL     OW10042   4.261   3.443   1.343
 3048SOL    HW110043   4.261   3.461   1.244
 3048SOL    HW210044   4.185   3.491   1.386
 3049SOL     OW10045   0.603   6.290   1.168
 3049SOL    HW110046   0.574   6.355   1.098
 3049SOL    HW210047   0.644   6.340   1.245
 3050SOL     OW10048   3.476   0.134   3.463
 3050SOL    HW110049   3.486   0.147   3.562
 3050SOL    HW210050   3.431   0.047   3.446
 3051SOL     OW10051   2.221   4.337   6.860
 3051SOL    HW110052   2.311   4.343   6.904
 3051SOL    HW210053   2.153   4.308   6.926
 3052SOL     OW10054   3.831   0.384   2.995
 3052SOL    HW110055   3.762   0.407   2.926
 3052SOL    HW210056   3.786   0.364   3.082
 3053SOL     OW10057   6.429   0.478   6.748
 3053SOL    HW110058   6.376   0.531   6.682
 3053SOL    HW210059   6.506   0.435   6.702
 3054SOL     OW10060   0.099   2.587   6.608
 3054SOL    HW110061   0.134   2.607   6.516
 3054SOL    HW210062   0.161   2.523   6.654
 3055SOL     OW10063   5.497   0.395   3.692
 3055SOL    HW110064   5.482   0.490   3.721
 3055SOL    HW210065   5.458   0.382   3.601
 3056SOL     OW10066   6.713   0.398   0.032
 3056SOL    HW110067   6.750   0.381   0.123
 3056SOL    HW210068   6.730   0.319   6.997
 3057SOL     OW10069   4.202   5.522   2.622
 3057SOL    HW110070   4.261   5.443   2.603
 3057SOL    HW210071   4.247   5.580   2.690
 3058SOL     OW10072   6.429   5.716   1.495
 3058SOL    HW110073   6.440   5.616   1.494
 3058SOL    HW210074   6.456   5.753   1.406
 3059SOL     OW10075   1.762   3.414   5.121
 3059SOL    HW110076   1.689   3.357   5.084
 3059SOL    HW210077   1.820   3.359   5.182
 3060SOL     OW10078   0.211   6.395   0.369
 3060SOL    HW110079   0.284   6.404   0.437
 3060SOL    HW210080   0.185   6.485   0.336
 3061SOL     OW10081   6.983   0.844   5.212
 3061SOL    HW110082   6.960   0.783   5.136
 3061SOL    HW210083   0.046   0.816   5.252
 3062SOL     OW10084   1.525   0.100   1.158
 3062SOL    HW110085   1.595   0.122   1.226
 3062SOL    HW210086   1.463   0.031   1.195
 3063SOL     OW10087   2.475   5.164   2.556
 3063SOL    HW110088   2.439   5.235   2.617
 3063SOL    HW210089   2.554   5.201   2.507
 3064SOL     OW10090   5.833   3.368   3.775
 3064SOL    HW110091   5.766   3.294   3.780
 3064SOL    HW210092   5.810   3.429   3.699
 3065SOL     OW10093   2.236   0.212   6.431
 3065SOL    HW110094   2.294   0.261   6.495
 3065SOL    HW210095   2.141   0.216   6.462
 3066SOL     OW10096   6.021   4.011   0.327
 3066SOL    HW110097   6.058   4.065   0.251
 3066SOL    HW210098   5.999   4.071   0.403
 3067SOL     OW10099   3.009   1.245   4.857
 3067SOL    HW110100   2.952   1.266   4.936
 3067SOL    HW210101   3.101   1.218   4.887
 3068SOL     OW10102   6.050   6.251   0.789
 3068SOL    HW110103   5.968   6.204   0.758
 3068SOL    HW210104   6.121   6.184   0.811
 3069SOL     OW10105   6.929   5.493   1.494
 3069SOL    HW110106   6.887   5.409   1.527
 3069SOL    HW210107   6.915   5.566   1.562
 3070SOL     OW10108   2.106   1.498   2.434
 3070SOL    HW110109   2.037   1.512   2.362
 3070SOL    HW210110   2.060   1.471   2.519
 3071SOL     OW10111   6.679   6.849   3.436
 3071SOL    HW110112   6.777   6.831   3.424
 3071SOL    HW210113   6.633   6.764   3.463
 3072SOL     OW10114   0.735   6.406   1.388
 3072SOL    HW110115   0.669   6.425   1.461
 3072SOL    HW210116   0.811   6.353   1.424
 3073SOL     OW10117   0.610   3.654   4.943
 3073SOL    HW110118   0.593   3.730   4.880
 3073SOL    HW210119   0.607   3.687   5.037
 3074SOL     OW10120   5.452   2.948   0.505
 3074SOL    HW110121   5.352   2.946   0.503
 3074SOL    HW210122   5.484   2.927   0.597
 3075SOL     OW10123   1.767   6.307   1.467
 3075SOL    HW110124   1.783   6.311   1.565
 3075SOL    HW210125   1.829   6.240   1.425
 3076SOL     OW10126   6.390   0.715   4.663
 3076SOL    HW110127   6.388   0.791   4.599
 3076SOL    HW210128   6.469   0.656   4.642
 3077SOL     OW10129   5.366   4.499   2.849
 3077SOL    HW110130   5.421   4.582   2.856
 3077SOL    HW210131   5.338   4.486   2.753
 3078SOL     OW10132   2.275   3.779   1.764
 3078SOL    HW110133   2.336   3.851   1.729
 3078SOL    HW210134   2.330   3.699   1.789
 3079SOL     OW10135   1.762   2.756   5.117
 3079SOL    HW110136   1.680   2.812   5.125
 3079SOL    HW210137   1.813   2.782   5.035
 3080SOL     OW10138   5.798   4.983   1.615
 3080SOL    HW110139   5.799   4.899   1.561
 3080SOL    HW210140   5.704   5.017   1.623
 3081SOL     OW10141   0.785   4.322   5.881
 3081SOL    HW110142   0.884   4.313   5.891
 3081SOL    HW210143   0.764   4.375   5.799
 3082SOL     OW10144   3.964   6.591   3.694
 3082SOL    HW110145   4.019   6.661   3.740
 3082SOL    HW210146   3.940   6.624   3.602
 3083SOL     OW10147   3.866   6.901   2.494
 3083SOL    HW110148   3.920   6.933   2.416
 3083SOL    HW210149   3.926   6.888   2.573
 3084SOL     OW10150   4.833   4.300   4.343
 3084SOL    HW110151   4.881   4.323   4.259
 3084SOL    HW210152   4.895   4.311   4.421
 3085SOL     OW10153   0.242   4.292   3.169
 3085SOL    HW110154   0.227   4.347   3.087
 3085SOL    HW210155   0.245   4.351   3.249
 3086SOL     OW10156   4.463   1.473   2.212
 3086SOL    HW110157   4.452   1.571   2.199
 3086SOL    HW210158   4.408   1.424   2.144
 3087SOL     OW10159   6.915   4.420   4.249
 3087SOL    HW110160   7.015   4.425   4.243
 3087SOL    HW210161   6.883   4.495   4.308
 3088SOL     OW10162   2.873   5.053   5.278
 3088SOL    HW110163   2.959   5.096   5.251
 3088SOL    HW210164   2.877   4.955   5.256
 3089SOL     OW10165   1.086   3.226   0.015
 3089SOL    HW110166   1.175   3.203   7.000
 3089SOL    HW210167   1.043   3.142   0.050
 3090SOL     OW10168   2.105   1.720   1.233
 3090SOL    HW110169   2.052   1.643   1.196
 3090SOL    HW210170   2.058   1.806   1.211
 3091SOL     OW10171   3.028   6.549   0.273
 3091SOL    HW110172   3.026   6.560   0.372
 3091SOL    HW210173   3.087   6.472   0.249
 3092SOL     OW10174   5.313   6.814   0.175
 3092SOL    HW110175   5.284   6.907   0.201
 3092SOL    HW210176   5.401   6.794   0.218
 3093SOL     OW10177   5.720   5.278   5.929
 3093SOL    HW110178   5.724   5.332   6.013
 3093SOL    HW210179   5.634   5.295   5.881
 3094SOL     OW10180   2.964   6.859   5.021
 3094SOL    HW110181   3.044   6.800   5.019
 3094SOL    HW210182   2.883   6.805   5.046
 3095SOL     OW10183   2.502   4.515   4.450
 3095SOL    HW110184   2.466   4.470   4.368
 3095SOL    HW210185   2.450   4.486   4.530
 3096SOL     OW10186   6.675   0.618   4.548
 3096SOL    HW110187   6.771   0.640   4.571
 3096SOL    HW210188   6.659   0.638   4.452
 3097SOL     OW10189   0.874   2.496   0.439
 3097SOL    HW110190   0.807   2.473   0.510
 3097SOL    HW210191   0.869   2.593   0.419
 3098SOL     OW10192   2.461   3.478   1.321
 3098SOL    HW110193   2.384   3.494   1.384
 3098SOL    HW210194   2.521   3.558   1.320
 3099SOL     OW10195   6.876   5.787   4.811
 3099SOL    HW110196   6.848   5.789   4.907
 3099SOL    HW210197   6.951   5.722   4.800
 3100SOL     OW10198   6.861   6.938   4.668
 3100SOL    HW110199   6.888   7.012   4.606
 3100SOL    HW210200   6.761   6.938   4.676
 3101SOL     OW10201   4.217   6.096   5.363
 3101SOL    HW110202   4.125   6.129   5.341
 3101SOL    HW210203   4.277   6.111   5.284
 3102SOL     OW10204   0.883   4.589   1.439
 3102SOL    HW110205   0.883   4.548   1.531
 3102SOL    HW210206   0.798   4.563   1.392
 3103SOL     OW10207   3.573   1.436   0.795
 3103SOL    HW110208   3.653   1.381   0.770
 3103SOL    HW210209   3.604   1.524   0.833
 3104SOL     OW10210   5.735   6.027   4.541
 3104SOL    HW110211   5.828   6.060   4.557
 3104SOL    HW210212   5.737   5.931   4.516
 3105SOL     OW10213   5.932   5.758   3.767
 3105SOL    HW110214   5.953   5.778   3.862
 3105SOL    HW210215   5.860   5.688   3.763
 3106SOL     OW10216   6.564   2.157   2.370
 3106SOL    HW110217   6.610   2.110   2.445
 3106SOL    HW210218   6.631   2.179   2.299
 3107SOL     OW10219   3.962   0.572   4.353
 3107SOL    HW110220   3.968   0.650   4.415
 3107SOL    HW210221   3.933   0.491   4.403
 3108SOL     OW10222   1.880   1.183   4.379
 3108SOL    HW110223   1.863   1.085   4.387
 3108SOL    HW210224   1.913   1.204   4.286
 3109SOL     OW10225   5.408   5.845   2.411
 3109SOL    HW110226   5.382   5.784   2.486
 3109SOL    HW210227   5.446   5.929   2.449
 3110SOL     OW10228   6.957   2.245   3.418
 3110SOL    HW110229   6.943   2.230   3.320
 3110SOL    HW210230   7.013   2.327   3.432
 3111SOL     OW10231   5.941   5.785   4.024
 3111SOL    HW110232   5.858   5.757   4.072
 3111SOL    HW210233   6.020   5.740   4.065
 3112SOL     OW10234   4.615   2.597   5.891
 3112SOL    HW110235   4.583   2.636   5.978
 3112SOL    HW210236   4.606   2.665   5.818
 3113SOL     OW10237   2.594   0.123   3.994
 3113SOL    HW110238   2.657   0.184   4.043
 3113SOL    HW210239   2.625   0.028   4.004
 3114SOL     OW10240   5.519   4.187   7.023
 3114SOL    HW110241   5.509   4.160   0.094
 3114SOL    HW210242   5.431   4.219   6.987
 3115SOL     OW10243   4.193   3.666   0.205
 3115SOL    HW110244   4.101   3.694   0.176
 3115SOL    HW210245   4.214   3.707   0.293
 3116SOL     OW10246   6.927   2.950   0.051
 3116SOL    HW110247   6.837   2.993   0.038
 3116SOL    HW210248   6.939   2.876   7.009
 3117SOL     OW10249   4.514   3.887   5.292
 3117SOL    HW110250   4.445   3.821   5.264
 3117SOL    HW210251   4.474   3.953   5.356
 3118SOL     OW10252   6.787   4.401   6.491
 3118SOL    HW110253   6.827   4.384   6.581
 3118SOL    HW210254   6.777   4.315   6.442
 3119SOL     OW10255   1.799   4.491   4.994
 3119SOL    HW110256   1.703   4.460   4.997
 3119SOL    HW210257   1.849   4.450   5.071
 3120SOL     OW10258   2.372   6.240   4.704
 3120SOL    HW110259   2.283   6.242   4.658
 3120SOL    HW210260   2.442   6.211   4.639
 3121SOL     OW10261   0.296   1.353   2.375
 3121SOL    HW110262   0.230   1.300   2.322
 3121SOL    HW210263   0.373   1.378   2.317
 3122SOL     OW10264   3.552   5.161   5.981
 3122SOL    HW110265   3.605   5.244   5.996
 3122SOL    HW210266   3.564   5.099   6.059
 3123SOL     OW10267   3.150   6.750   3.464
 3123SOL    HW110268   3.082   6.819   3.441
 3123SOL    HW210269   3.147   6.676   3.396
 3124SOL     OW10270   3.963   0.831   5.254
 3124SOL    HW110271   3.927   0.772   5.182
 3124SOL    HW210272   3.900   0.908   5.268
 3125SOL     OW10273   6.308   2.200   5.603
 3125SOL    HW110274   6.287   2.297   5.605
 3125SOL    HW210275   6.267   2.158   5.522
 3126SOL     OW10276   4.776   4.433   6.644
 3126SOL    HW110277   4.864   4.474   6.669
 3126SOL    HW210278   4.781   4.334   6.654
 3127SOL     OW10279   0.736   2.020   3.504
 3127SOL    HW110280   0.711   2.059   3.415
 3127SOL    HW210281   0.805   2.077   3.547
 3128SOL     OW10282   1.517   0.710   0.702
 3128SOL    HW110283   1.489   0.657   0.622
 3128SOL    HW210284   1.548   0.800   0.672
 3129SOL     OW10285   0.679   4.337   6.183
 3129SOL    HW110286   0.735   4.294   6.113
 3129SOL    HW210287   0.583   4.332   6.158
 3130SOL     OW10288   2.279   4.697   2.299
 3130SOL    HW110289   2.300   4.778   2.244
 3130SOL    HW210290   2.261   4.726   2.393
 3131SOL     OW10291   1.082   2.673   3.457
 3131SOL    HW110292   1.078   2.772   3.474
 3131SOL    HW210293   1.075   2.657   3.358
 3132SOL     OW10294   5.260   6.133   5.414
 3132SOL    HW110295   5.246   6.097   5.322
 3132SOL    HW210296   5.174   6.131   5.464
 3133SOL     OW10297   2.386   2.330   4.119
 3133SOL    HW110298   2.453   2.403   4.129
 3133SOL    HW210299   2.304   2.366   4.075
 3134SOL     OW10300   5.083   3.426   1.653
 3134SOL    HW110301   5.163   3.392   1.603
 3134SOL    HW210302   5.101   3.519   1.685
 3135SOL     OW10303   3.884   1.865   4.773
 3135SOL    HW110304   3.969   1.876   4.823
 3135SOL    HW210305   3.831   1.950   4.777
 3136SOL     OW10306   6.231   6.322   6.089
 3136SOL    HW110307   6.312   6.264   6.092
 3136SOL    HW210308   6.189   6.317   5.999
 3137SOL     OW10309   4.783   1.532   3.699
 3137SOL    HW110310   4.815   1.609   3.755
 3137SOL    HW210311   4.777   1.560   3.604
 3138SOL     OW10312   6.183   2.104   4.571
 3138SOL    HW110313   6.100   2.049   4.567
 3138SOL    HW210314   6.242   2.070   4.644
 3139SOL     OW10315   5.177   6.664   6.231
 3139SOL    HW110316   5.236   6.671   6.151
 3139SOL    HW210317   5.082   6.654   6.201
 3140SOL     OW10318   6.430   6.431   6.523
 3140SOL    HW110319   6.452   6.520   6.562
 3140SOL    HW210320   6.466   6.426   6.430
 3141SOL     OW10321   0.599   6.484   6.753
 3141SOL    HW110322   0.608   6.537   6.668
 3141SOL    HW210323   0.678   6.424   6.763
 3142SOL     OW10324   4.783   6.086   0.349
 3142SOL    HW110325   4.684   6.083   0.360
 3142SOL    HW210326   4.820   6.164   0.401
 3143SOL     OW10327   0.165   2.175   6.533
 3143SOL    HW110328   0.109   2.257   6.537
 3143SOL    HW210329   0.113   2.100   6.493
 3144SOL     OW10330   2.288   3.885   1.019
 3144SOL    HW110331   2.339   3.807   0.984
 3144SOL    HW210332   2.198   3.854   1.051
 3145SOL     OW10333   3.069   6.053   2.779
 3145SOL    HW110334   3.014   6.047   2.696
 3145SOL    HW210335   3.166   6.054   2.755
 3146SOL     OW10336   1.352   6.588   3.138
 3146SOL    HW110337   1.329   6.552   3.229
 3146SOL    HW210338   1.392   6.679   3.148
 3147SOL     OW10339   4.136   5.291   0.459
 3147SOL    HW110340   4.192   5.293   0.377
 3147SOL    HW210341   4.056   5.232   0.443
 3148SOL     OW10342   4.032   5.266   4.059
 3148SOL    HW110343   4.121   5.222   4.046
 3148SOL    HW210344   4.044   5.352   4.109
 3149SOL     OW10345   3.426   0.667   5.371
 3149SOL    HW110346   3.422   0.759   5.331
 3149SOL    HW210347   3.368   0.606   5.317
 3150SOL     OW10348   5.083   6.046   4.275
 3150SOL    HW110349   4.985   6.059   4.289
 3150SOL    HW210350   5.099   5.957   4.232
 3151SOL     OW10351   4.603   1.657   6.461
 3151SOL    HW110352   4.635   1.579   6.514
 3151SOL    HW210353   4.631   1.646   6.365
 3152SOL     OW10354   0.372   5.210   1.701
 3152SOL    HW110355   0.423   5.244   1.622
 3152SOL    HW210356   0.392   5.113   1.715
 3153SOL     OW10357   5.937   3.884   1.363
 3153SOL    HW110358   5.949   3.924   1.454
 3153SOL    HW210359   5.869   3.937   1.312
 3154SOL     OW10360   6.638   2.167   6.916
 3154SOL    HW110361   6.711   2.226   6.882
 3154SOL    HW210362   6.561   2.167   6.852
 3155SOL     OW10363   6.938   4.649   1.264
 3155SOL    HW110364   6.867   4.647   1.335
 3155SOL    HW210365   6.965   4.744   1.248
 3156SOL     OW10366   4.030   3.421   3.348
 3156SOL    HW110367   3.932   3.404   3.338
 3156SOL    HW210368   4.062   3.384   3.436
 3157SOL     OW10369   2.140   3.502   4.706
 3157SOL    HW110370   2.192   3.587   4.714
 3157SOL    HW210371   2.080   3.507   4.626
 3158SOL     OW10372   5.009   0.118   1.705
 3158SOL    HW110373   4.944   0.145   1.634
 3158SOL    HW210374   5.098   0.160   1.688
 3159SOL     OW10375   4.758   5.938   6.147
 3159SOL    HW110376   4.798   5.882   6.220
 3159SOL    HW210377   4.737   5.880   6.068
 3160SOL     OW10378   6.067   4.003   6.293
 3160SOL    HW110379   6.045   3.912   6.258
 3160SOL    HW210380   5.992   4.066   6.270
 3161SOL     OW10381   1.624   1.010   2.835
 3161SOL    HW110382   1.699   1.030   2.897
 3161SOL    HW210383   1.650   0.937   2.772
 3162SOL     OW10384   6.973   5.323   6.967
 3162SOL    HW110385   0.007   5.272   0.006
 3162SOL    HW210386   6.971   5.419   6.993
 3163SOL     OW10387   3.976   2.943   6.718
 3163SOL    HW110388   4.021   2.925   6.631
 3163SOL    HW210389   4.024   2.895   6.791
 3164SOL     OW10390   5.632   4.361   1.332
 3164SOL    HW110391   5.533   4.345   1.331
 3164SOL    HW210392   5.669   4.331   1.420
 3165SOL     OW10393   1.017   0.171   1.891
 3165SOL    HW110394   1.055   0.263   1.905
 3165SOL    HW210395   0.944   0.175   1.823
 3166SOL     OW10396   4.887   2.652   6.247
 3166SOL    HW110397   4.857   2.613   6.160
 3166SOL    HW210398   4.815   2.640   6.316
 3167SOL     OW10399   0.077   4.462   1.996
 3167SOL    HW110400   0.117   4.518   1.924
 3167SOL    HW210401   0.065   4.368   1.963
 3168SOL     OW10402   5.666   3.285   0.643
 3168SOL    HW110403   5.700   3.226   0.569
 3168SOL    HW210404   5.603   3.233   0.700
 3169SOL     OW10405   0.850   3.603   5.735
 3169SOL    HW110406   0.774   3.562   5.785
 3169SOL    HW210407   0.907   3.530   5.696
 3170SOL     OW10408   4.289   0.319   6.842
 3170SOL    HW110409   4.228   0.265   6.900
 3170SOL    HW210410   4.322   0.399   6.892
 3171SOL     OW10411   6.638   7.003   1.993
 3171SOL    HW110412   6.653   0.077   1.999
 3171SOL    HW210413   6.679   6.958   2.072
 3172SOL     OW10414   6.725   6.255   4.619
 3172SOL    HW110415   6.803   6.199   4.592
 3172SOL    HW210416   6.741   6.293   4.710
 3173SOL     OW10417   2.076   0.140   2.329
 3173SOL    HW110418   2.035   0.208   2.269
 3173SOL    HW210419   2.128   0.186   2.401
 3174SOL     OW10420   3.101   2.791   5.634
 3174SOL    HW110421   3.062   2.853   5.701
 3174SOL    HW210422   3.074   2.820   5.542
 3175SOL     OW10423   1.144   6.274   6.791
 3175SOL    HW110424   1.185   6.365   6.797
 3175SOL    HW210425   1.207   6.207   6.832
 3176SOL     OW10426   1.651   4.419   6.127
 3176SOL    HW110427   1.685   4.427   6.033
 3176SOL    HW210428   1.589   4.341   6.133
 3177SOL     OW10429   5.622   4.825   5.341
 3177SOL    HW110430   5.648   4.729   5.330
 3177SOL    HW210431   5.559   4.834   5.418
 3178SOL     OW10432   0.708   4.262   2.064
 3178SOL    HW110433   0.665   4.246   1.975
 3178SOL    HW210434   0.712   4.176   2.115
 3179SOL     OW10435   2.003   2.337   2.386
 3179SOL    HW110436   1.965   2.396   2.457
 3179SOL    HW210437   2.101   2.356   2.375
 3180SOL     OW10438   4.939   0.664   5.427
 3180SOL    HW110439   5.001   0.654   5.506
 3180SOL    HW210440   4.990   0.699   5.349
 3181SOL     OW10441   0.532   0.820   3.615
 3181SOL    HW110442   0.527   0.905   3.667
 3181SOL    HW210443   0.511   0.838   3.519
 3182SOL     OW10444   0.075   7.019   5.847
 3182SOL    HW110445   0.171   7.010   5.872
 3182SOL    HW210446   0.027   6.934   5.866
 3183SOL     OW10447   4.445   5.197   1.464
 3183SOL    HW110448   4.371   5.196   1.396
 3183SOL    HW210449   4.521   5.142   1.431
 3184SOL     OW10450   2.648   1.807   2.437
 3184SOL    HW110451   2.589   1.776   2.362
 3184SOL    HW210452   2.593   1.828   2.517
 3185SOL     OW10453   0.436   6.810   5.381
 3185SOL    HW110454   0.526   6.789   5.342
 3185SOL    HW210455   0.398   6.890   5.336
 3186SOL     OW10456   3.776   1.286   2.717
 3186SOL    HW110457   3.791   1.202   2.769
 3186SOL    HW210458   3.802   1.364   2.773
 3187SOL     OW10459   3.521   4.201   6.920
 3187SOL    HW110460   3.607   4.167   6.958
 3187SOL    HW210461   3.527   4.300   6.906
 3188SOL     OW10462   3.621   5.542   2.911
 3188SOL    HW110463   3.635   5.572   3.005
 3188SOL    HW210464   3.690   5.473   2.887
 3189SOL     OW10465   1.074   0.520   3.432
 3189SOL    HW110466   1.028   0.608   3.419
 3189SOL    HW210467   1.046   0.480   3.519
 3190SOL     OW10468   1.583   5.951   1.673
 3190SOL    HW110469   1.652   5.984   1.607
 3190SOL    HW210470   1.561   6.024   1.737
 3191SOL     OW10471   3.963   0.781   1.232
 3191SOL    HW110472   4.036   0.770   1.164
 3191SOL    HW210473   4.003   0.788   1.323
 3192SOL     OW10474   0.690   2.487   1.518
 3192SOL    HW110475   0.768   2.512   1.575
 3192SOL    HW210476   0.610   2.473   1.576
 3193SOL     OW10477   4.355   1.777   6.513
 3193SOL    HW110478   4.432   1.725   6.475
 3193SOL    HW210479   4.389   1.861   6.555
 3194SOL     OW10480   1.572   3.782   6.220
 3194SOL    HW110481   1.606   3.843   6.293
 3194SOL    HW210482   1.516   3.835   6.156
 3195SOL     OW10483   1.323   3.128   3.880
 3195SOL    HW110484   1.276   3.040   3.889
 3195SOL    HW210485   1.422   3.114   3.889
 3196SOL     OW10486   0.213   0.473   5.025
 3196SOL    HW110487   0.150   0.397   5.038
 3196SOL    HW210488   0.249   0.503   5.113
 3197SOL     OW10489   1.503   5.863   3.191
 3197SOL    HW110490   1.426   5.920   3.163
 3197SOL    HW210491   1.500   5.776   3.141
 3198SOL     OW10492   0.344   1.549   6.276
 3198SOL    HW110493   0.269   1.551   6.343
 3198SOL    HW210494   0.354   1.640   6.236
 3199SOL     OW10495   4.630   1.501   1.771
 3199SOL    HW110496   4.543   1.464   1.738
 3199SOL    HW210497   4.697   1.428   1.778
 3200SOL     OW10498   0.418   2.028   0.477
 3200SOL    HW110499   0.493   2.076   0.430
 3200SOL    HW210500   0.352   1.995   0.410
 3201SOL     OW10501   5.749   3.897   3.824
 3201SOL    HW110502   5.702   3.903   3.736
 3201SOL    HW210503   5.808   3.817   3.825
 3202SOL     OW10504   1.588   4.874   1.746
 3202SOL    HW110505   1.601   4.819   1.829
 3202SOL    HW210506   1.672   4.923   1.724
 3203SOL     OW10507   7.006   1.074   1.250
 3203SOL    HW110508   7.014   1.036   1.157
 3203SOL    HW210509   6.931   1.029   1.298
 3204SOL     OW10510   6.476   6.150   1.740
 3204SOL    HW110511   6.477   6.056   1.706
 3204SOL    HW210512   6.562   6.168   1.789
 3205SOL     OW10513   6.615   3.703   5.539
 3205SOL    HW110514   6.529   3.656   5.520
 3205SOL    HW210515   6.677   3.692   5.461
 3206SOL     OW10516   0.773   6.373   5.438
 3206SOL    HW110517   0.826   6.457   5.446
 3206SOL    HW210518   0.691   6.390   5.384
 3207SOL     OW10519   0.850   0.764   5.077
 3207SOL    HW110520   0.805   0.805   4.998
 3207SOL    HW210521   0.869   0.834   5.145
 3208SOL     OW10522   4.259   5.688   5.097
 3208SOL    HW110523   4.260   5.726   5.189
 3208SOL    HW210524   4.222   5.595   5.099
 3209SOL     OW10525   2.742   0.075   3.714
 3209SOL    HW110526   2.824   0.122   3.745
 3209SOL    HW210527   2.669   0.141   3.697
 3210SOL     OW10528   0.145   4.245   2.637
 3210SOL    HW110529   0.230   4.223   2.591
 3210SOL    HW210530   0.157   4.234   2.736
 3211SOL     OW10531   1.999   4.467   1.466
 3211SOL    HW110532   2.028   4.519   1.385
 3211SOL    HW210533   2.080   4.429   1.511
 3212SOL     OW10534   4.420   2.307   6.734
 3212SOL    HW110535   4.381   2.375   6.671
 3212SOL    HW210536   4.362   2.299   6.815
 3213SOL     OW10537   5.791   5.878   3.285
 3213SOL    HW110538   5.796   5.806   3.354
 3213SOL    HW210539   5.697   5.912   3.278
 3214SOL     OW10540   4.291   6.129   6.776
 3214SOL    HW110541   4.318   6.058   6.711
 3214SOL    HW210542   4.196   6.155   6.760
 3215SOL     OW10543   6.260   2.803   6.746
 3215SOL    HW110544   6.201   2.801   6.827
 3215SOL    HW210545   6.253   2.716   6.698
 3216SOL     OW10546   5.533   6.723   3.913
 3216SOL    HW110547   5.450   6.719   3.968
 3216SOL    HW210548   5.530   6.652   3.842
 3217SOL     OW10549   0.105   4.529   2.636
 3217SOL    HW110550   0.164   4.451   2.617
 3217SOL    HW210551   0.031   4.501   2.698
 3218SOL     OW10552   3.966   0.153   3.029
 3218SOL    HW110553   4.063   0.136   3.013
 3218SOL    HW210554   3.943   0.247   3.001
 3219SOL     OW10555   0.218   0.106   3.340
 3219SOL    HW110556   0.191   0.202   3.339
 3219SOL    HW210557   0.152   0.053   3.285
 3220SOL     OW10558   0.006   4.887   5.144
 3220SOL    HW110559   0.093   4.840   5.128
 3220SOL    HW210560   7.003   4.937   5.061
 3221SOL     OW10561   2.696   6.870   3.547
 3221SOL    HW110562   2.737   6.909   3.630
 3221SOL    HW210563   2.709   6.771   3.546
 3222SOL     OW10564   5.197   1.828   2.691
 3222SOL    HW110565   5.184   1.923   2.719
 3222SOL    HW210566   5.278   1.791   2.737
 3223SOL     OW10567   2.510   4.733   5.984
 3223SOL    HW110568   2.600   4.708   6.020
 3223SOL    HW210569   2.494   4.831   5.996
 3224SOL     OW10570   3.838   5.456   0.096
 3224SOL    HW110571   3.879   5.484   0.009
 3224SOL    HW210572   3.893   5.491   0.172
 3225SOL     OW10573   3.159   3.516   0.073
 3225SOL    HW110574   3.194   3.570   0.150
 3225SOL    HW210575   3.108   3.576   0.011
 3226SOL     OW10576   1.755   0.797   4.170
 3226SOL    HW110577   1.701   0.718   4.141
 3226SOL    HW210578   1.826   0.815   4.102
 3227SOL     OW10579   3.879   1.471   5.781
 3227SOL    HW110580   3.840   1.526   5.707
 3227SOL    HW210581   3.977   1.493   5.790
 3228SOL     OW10582   5.227   3.556   4.247
 3228SOL    HW110583   5.144   3.543   4.300
 3228SOL    HW210584   5.271   3.468   4.230
 3229SOL     OW10585   4.331   1.788   5.826
 3229SOL    HW110586   4.367   1.702   5.863
 3229SOL    HW210587   4.318   1.853   5.900
 3230SOL     OW10588   0.438   0.378   3.020
 3230SOL    HW110589   0.506   0.388   2.947
 3230SOL    HW210590   0.484   0.367   3.108
 3231SOL     OW10591   6.118   5.944   0.833
 3231SOL    HW110592   6.137   5.878   0.907
 3231SOL    HW210593   6.077   5.896   0.756
 3232SOL     OW10594   2.835   5.109   4.662
 3232SOL    HW110595   2.789   5.022   4.681
 3232SOL    HW210596   2.794   5.150   4.580
 3233SOL     OW10597   0.386   3.905   1.572
 3233SOL    HW110598   0.461   3.893   1.508
 3233SOL    HW210599   0.299   3.885   1.526
 3234SOL     OW10600   0.287   1.858   6.479
 3234SOL    HW110601   0.325   1.816   6.396
 3234SOL    HW210602   0.361   1.874   6.545
 3235SOL     OW10603   5.510   6.744   3.062
 3235SOL    HW110604   5.453   6.788   3.132
 3235SOL    HW210605   5.605   6.741   3.093
 3236SOL     OW10606   1.026   2.765   2.784
 3236SOL    HW110607   1.064   2.820   2.710
 3236SOL    HW210608   1.022   2.669   2.756
 3237SOL     OW10609   3.906   6.797   4.772
 3237SOL    HW110610   3.914   6.705   4.810
 3237SOL    HW210611   3.921   6.865   4.844
 3238SOL     OW10612   6.994   6.362   6.343
 3238SOL    HW110613   0.041   6.427   6.371
 3238SOL    HW210614   0.008   6.270   6.342
 3239SOL     OW10615   6.458   0.065   5.686
 3239SOL    HW110616   6.546   0.037   5.647
 3239SOL    HW210617   6.414   7.010   5.728
 3240SOL     OW10618   1.350   0.301   4.564
 3240SOL    HW110619   1.368   0.379   4.505
 3240SOL    HW210620   1.324   0.333   4.655
 3241SOL     OW10621   5.010   0.972   4.255
 3241SOL    HW110622   4.977   1.053   4.303
 3241SOL    HW210623   5.042   0.999   4.163
 3242SOL     OW10624   3.966   6.501   6.600
 3242SOL    HW110625   3.892   6.439   6.573
 3242SOL    HW210626   3.993   6.557   6.522
 3243SOL     OW10627   4.359   5.391   0.276
 3243SOL    HW110628   4.453   5.423   0.262
 3243SOL    HW210629   4.302   5.422   0.200
 3244SOL     OW10630   3.778   6.028   6.180
 3244SOL    HW110631   3.811   6.063   6.093
 3244SOL    HW210632   3.811   6.087   6.254
 3245SOL     OW10633   3.704   2.609   6.629
 3245SOL    HW110634   3.654   2.583   6.712
 3245SOL    HW210635   3.798   2.631   6.652
 3246SOL     OW10636   5.019   6.375   2.843
 3246SOL    HW110637   5.112   6.342   2.831
 3246SOL    HW210638   4.967   6.362   2.758
 3247SOL     OW10639   6.657   2.865   3.734
 3247SOL    HW110640   6.653   2.890   3.637
 3247SOL    HW210641   6.733   2.802   3.749
 3248SOL     OW10642   6.184   3.012   1.583
 3248SOL    HW110643   6.256   2.963   1.632
 3248SOL    HW210644   6.225   3.092   1.538
 3249SOL     OW10645   2.937   4.836   4.859
 3249SOL    HW110646   2.892   4.792   4.936
 3249SOL    HW210647   2.885   4.819   4.775
 3250SOL     OW10648   4.469   6.730   2.337
 3250SOL    HW110649   4.521   6.675   2.403
 3250SOL    HW210650   4.527   6.748   2.257
 3251SOL     OW10651   3.598   2.116   2.831
 3251SOL    HW110652   3.620   2.122   2.734
 3251SOL    HW210653   3.499   2.118   2.844
 3252SOL     OW10654   2.814   0.956   2.693
 3252SOL    HW110655   2.844   0.909   2.610
 3252SOL    HW210656   2.718   0.979   2.686
 3253SOL     OW10657   5.435   2.960   1.354
 3253SOL    HW110658   5.495   2.940   1.431
 3253SOL    HW210659   5.371   2.885   1.340
 3254SOL     OW10660   4.221   4.697   3.420
 3254SOL    HW110661   4.156   4.724   3.491
 3254SOL    HW210662   4.182   4.717   3.330
 3255SOL     OW10663   4.260   5.713   0.279
 3255SOL    HW110664   4.269   5.681   0.373
 3255SOL    HW210665   4.336   5.775   0.258
 3256SOL     OW10666   5.157   0.078   5.825
 3256SOL    HW110667   5.253   0.102   5.809
 3256SOL    HW210668   5.151   0.014   5.903
 3257SOL     OW10669   1.425   2.275   1.209
 3257SOL    HW110670   1.394   2.370   1.199
 3257SOL    HW210671   1.404   2.224   1.125
 3258SOL     OW10672   5.295   6.598   1.881
 3258SOL    HW110673   5.251   6.679   1.922
 3258SOL    HW210674   5.244   6.516   1.907
 3259SOL     OW10675   4.507   6.200   3.984
 3259SOL    HW110676   4.508   6.300   3.980
 3259SOL    HW210677   4.456   6.171   4.065
 3260SOL     OW10678   2.142   1.850   7.009
 3260SOL    HW110679   2.078   1.791   6.960
 3260SOL    HW210680   2.153   1.936   6.959
 3261SOL     OW10681   4.910   6.830   1.232
 3261SOL    HW110682   4.911   6.916   1.181
 3261SOL    HW210683   5.003   6.808   1.263
 3262SOL     OW10684   3.903   1.736   2.818
 3262SOL    HW110685   3.848   1.666   2.865
 3262SOL    HW210686   3.843   1.793   2.762
 3263SOL     OW10687   4.783   6.856   1.871
 3263SOL    HW110688   4.871   6.900   1.889
 3263SOL    HW210689   4.727   6.915   1.812
 3264SOL     OW10690   6.348   4.699   6.841
 3264SOL    HW110691   6.278   4.750   6.790
 3264SOL    HW210692   6.432   4.753   6.843
 3265SOL     OW10693   5.250   0.999   6.217
 3265SOL    HW110694   5.239   1.078   6.156
 3265SOL    HW210695   5.213   0.917   6.174
 3266SOL     OW10696   0.640   1.718   6.415
 3266SOL    HW110697   0.644   1.774   6.333
 3266SOL    HW210698   0.693   1.634   6.401
 3267SOL     OW10699   3.131   1.983   0.953
 3267SOL    HW110700   3.189   1.907   0.982
 3267SOL    HW210701   3.096   2.032   1.033
 3268SOL     OW10702   1.092   4.198   6.570
 3268SOL    HW110703   1.106   4.280   6.626
 3268SOL    HW210704   0.995   4.190   6.548
 3269SOL     OW10705   4.135   4.279   1.106
 3269SOL    HW110706   4.099   4.212   1.042
 3269SOL    HW210707   4.088   4.269   1.194
 3270SOL     OW10708   0.550   5.672   4.401
 3270SOL    HW110709   0.600   5.647   4.484
 3270SOL    HW210710   0.583   5.617   4.325
 3271SOL     OW10711   6.319   2.175   1.126
 3271SOL    HW110712   6.371   2.162   1.211
 3271SOL    HW210713   6.310   2.273   1.107
 3272SOL     OW10714   3.872   0.558   0.731
 3272SOL    HW110715   3.943   0.603   0.785
 3272SOL    HW210716   3.871   0.460   0.752
 3273SOL     OW10717   0.370   6.846   2.570
 3273SOL    HW110718   0.397   6.751   2.554
 3273SOL    HW210719   0.273   6.850   2.593
 3274SOL     OW10720   2.916   2.257   5.973
 3274SOL    HW110721   2.998   2.233   6.026
 3274SOL    HW210722   2.936   2.337   5.917
 3275SOL     OW10723   1.899   0.641   6.928
 3275SOL    HW110724   1.925   0.720   6.984
 3275SOL    HW210725   1.914   0.662   6.832
 3276SOL     OW10726   3.303   6.213   6.511
 3276SOL    HW110727   3.383   6.267   6.486
 3276SOL    HW210728   3.313   6.179   6.604
 3277SOL     OW10729   0.057   5.884   5.078
 3277SOL    HW110730   0.154   5.860   5.081
 3277SOL    HW210731   0.047   5.982   5.097
 3278SOL     OW10732   1.328   0.895   6.042
 3278SOL    HW110733   1.258   0.949   6.088
 3278SOL    HW210734   1.411   0.949   6.033
 3279SOL     OW10735   0.715   6.895   1.018
 3279SOL    HW110736   0.749   6.818   1.071
 3279SOL    HW210737   0.637   6.937   1.065
 3280SOL     OW10738   2.173   4.789   6.106
 3280SOL    HW110739   2.118   4.869   6.133
 3280SOL    HW210740   2.262   4.793   6.152
 3281SOL     OW10741   2.588   5.565   0.151
 3281SOL    HW110742   2.525   5.608   0.087
 3281SOL    HW210743   2.678   5.608   0.144
 3282SOL     OW10744   2.693   5.177   3.582
 3282SOL    HW110745   2.791   5.172   3.561
 3282SOL    HW210746   2.643   5.113   3.524
 3283SOL     OW10747   2.763   0.983   3.531
 3283SOL    HW110748   2.804   0.975   3.440
 3283SOL    HW210749   2.818   1.046   3.587
 3284SOL     OW10750   6.606   4.917   6.859
 3284SOL    HW110751   6.678   4.987   6.848
 3284SOL    HW210752   6.517   4.962   6.867
 3285SOL     OW10753   0.625   1.697   3.413
 3285SOL    HW110754   0.638   1.769   3.482
 3285SOL    HW210755   0.713   1.661   3.386
 3286SOL     OW10756   3.523   3.473   4.669
 3286SOL    HW110757   3.560   3.535   4.739
 3286SOL    HW210758   3.500   3.526   4.587
 3287SOL     OW10759   1.965   5.264   0.313
 3287SOL    HW110760   1.895   5.237   0.378
 3287SOL    HW210761   2.002   5.183   0.267
 3288SOL     OW10762   0.854   5.953   6.242
 3288SOL    HW110763   0.953   5.958   6.234
 3288SOL    HW210764   0.813   5.971   6.152
 3289SOL     OW10765   0.923   6.587   5.294
 3289SOL    HW110766   0.960   6.500   5.262
 3289SOL    HW210767   0.997   6.644   5.329
 3290SOL     OW10768   6.279   5.218   1.360
 3290SOL    HW110769   6.307   5.236   1.454
 3290SOL    HW210770   6.256   5.305   1.315
 3291SOL     OW10771   1.287   6.055   0.264
 3291SOL    HW110772   1.347   5.976   0.260
 3291SOL    HW210773   1.202   6.035   0.215
 3292SOL     OW10774   6.625   6.827   5.874
 3292SOL    HW110775   6.716   6.867   5.869
 3292SOL    HW210776   6.601   6.812   5.970
 3293SOL     OW10777   6.908   1.095   2.809
 3293SOL    HW110778   6.833   1.110   2.745
 3293SOL    HW210779   6.892   1.149   2.892
 3294SOL     OW10780   0.050   0.414   6.448
 3294SOL    HW110781   0.062   0.388   6.544
 3294SOL    HW210782   7.006   0.354   6.406
 3295SOL     OW10783   1.826   3.413   0.719
 3295SOL    HW110784   1.878   3.347   0.664
 3295SOL    HW210785   1.728   3.393   0.710
 3296SOL     OW10786   2.401   6.525   2.652
 3296SOL    HW110787   2.482   6.468   2.638
 3296SOL    HW210788   2.390   6.542   2.750
 3297SOL     OW10789   3.346   2.586   6.338
 3297SOL    HW110790   3.330   2.653   6.410
 3297SOL    HW210791   3.286   2.604   6.260
 3298SOL     OW10792   6.808   3.350   2.407
 3298SOL    HW110793   6.710   3.342   2.389
 3298SOL    HW210794   6.831   3.446   2.428
 3299SOL     OW10795   1.664   0.279   4.881
 3299SOL    HW110796   1.701   0.186   4.874
 3299SOL    HW210797   1.699   0.322   4.964
 3300SOL     OW10798   6.445   6.310   4.700
 3300SOL    HW110799   6.537   6.293   4.664
 3300SOL    HW210800   6.452   6.354   4.789
 3301SOL     OW10801   0.466   3.290   3.290
 3301SOL    HW110802   0.405   3.359   3.250
 3301SOL    HW210803   0.536   3.265   3.224
 3302SOL     OW10804   1.345   4.629   3.540
 3302SOL    HW110805   1.386   4.632   3.449
 3302SOL    HW210806   1.272   4.697   3.546
 3303SOL     OW10807   4.017   3.879   3.723
 3303SOL    HW110808   4.022   3.924   3.812
 3303SOL    HW210809   4.077   3.798   3.724
 3304SOL     OW10810   0.782   6.523   4.342
 3304SOL    HW110811   0.821   6.615   4.349
 3304SOL    HW210812   0.705   6.514   4.406
 3305SOL     OW10813   2.157   0.954   2.546
 3305SOL    HW110814   2.193   1.035   2.592
 3305SOL    HW210815   2.057   0.953   2.554
 3306SOL     OW10816   2.172   4.118   3.481
 3306SOL    HW110817   2.092   4.142   3.537
 3306SOL    HW210818   2.186   4.019   3.485
 3307SOL     OW10819   6.627   5.885   0.639
 3307SOL    HW110820   6.663   5.801   0.678
 3307SOL    HW210821   6.527   5.883   0.639
 3308SOL     OW10822   4.989   6.161   0.750
 3308SOL    HW110823   5.016   6.065   0.745
 3308SOL    HW210824   5.023   6.201   0.835
 3309SOL     OW10825   0.426   5.254   3.033
 3309SOL    HW110826   0.423   5.157   3.007
 3309SOL    HW210827   0.418   5.311   2.952
 3310SOL     OW10828   0.457   5.200   2.549
 3310SOL    HW110829   0.402   5.127   2.509
 3310SOL    HW210830   0.514   5.241   2.478
 3311SOL     OW10831   4.553   6.768   1.401
 3311SOL    HW110832   4.519   6.739   1.491
 3311SOL    HW210833   4.481   6.756   1.333
 3312SOL     OW10834   3.315   3.676   6.245
 3312SOL    HW110835   3.291   3.698   6.151
 3312SOL    HW210836   3.233   3.677   6.302
 3313SOL     OW10837   0.246   4.912   3.902
 3313SOL    HW110838   0.270   4.847   3.974
 3313SOL    HW210839   0.170   4.969   3.933
 3314SOL     OW10840   1.579   3.563   5.251
 3314SOL    HW110841   1.602   3.659   5.267
 3314SOL    HW210842   1.659   3.514   5.217
 3315SOL     OW10843   6.903   1.598   3.908
 3315SOL    HW110844   6.992   1.628   3.876
 3315SOL    HW210845   6.839   1.594   3.831
 3316SOL     OW10846   4.902   2.034   6.698
 3316SOL    HW110847   4.886   1.943   6.660
 3316SOL    HW210848   4.987   2.071   6.661
 3317SOL     OW10849   4.481   2.425   1.059
 3317SOL    HW110850   4.416   2.362   1.102
 3317SOL    HW210851   4.438   2.516   1.051
 3318SOL     OW10852   2.665   5.747   5.345
 3318SOL    HW110853   2.644   5.837   5.383
 3318SOL    HW210854   2.586   5.712   5.296
 3319SOL     OW10855   0.663   6.076   4.658
 3319SOL    HW110856   0.621   6.045   4.573
 3319SOL    HW210857   0.642   6.011   4.731
 3320SOL     OW10858   6.133   1.249   5.747
 3320SOL    HW110859   6.211   1.312   5.749
 3320SOL    HW210860   6.130   1.198   5.834
 3321SOL     OW10861   3.305   3.448   3.116
 3321SOL    HW110862   3.213   3.485   3.128
 3321SOL    HW210863   3.299   3.360   3.070
 3322SOL     OW10864   4.134   1.854   0.650
 3322SOL    HW110865   4.165   1.913   0.725
 3322SOL    HW210866   4.200   1.780   0.636
 3323SOL     OW10867   2.492   5.017   0.224
 3323SOL    HW110868   2.400   5.001   0.260
 3323SOL    HW210869   2.559   4.969   0.282
 3324SOL     OW10870   0.796   3.394   0.235
 3324SOL    HW110871   0.890   3.360   0.236
 3324SOL    HW210872   0.764   3.410   0.328
 3325SOL     OW10873   1.499   2.635   1.005
 3325SOL    HW110874   1.501   2.536   0.999
 3325SOL    HW210875   1.405   2.668   0.995
 3326SOL     OW10876   6.488   1.621   0.848
 3326SOL    HW110877   6.461   1.576   0.933
 3326SOL    HW210878   6.537   1.556   0.789
 3327SOL     OW10879   2.957   6.922   2.474
 3327SOL    HW110880   2.886   6.884   2.416
 3327SOL    HW210881   3.044   6.925   2.424
 3328SOL     OW10882   4.930   0.858   1.974
 3328SOL    HW110883   4.933   0.773   2.026
 3328SOL    HW210884   5.016   0.908   1.988
 3329SOL     OW10885   4.897   0.386   5.364
 3329SOL    HW110886   4.894   0.482   5.390
 3329SOL    HW210887   4.988   0.349   5.385
 3330SOL     OW10888   6.258   6.184   2.488
 3330SOL    HW110889   6.237   6.177   2.391
 3330SOL    HW210890   6.181   6.227   2.536
 3331SOL     OW10891   1.972   3.502   2.424
 3331SOL    HW110892   2.019   3.587   2.400
 3331SOL    HW210893   1.873   3.519   2.429
 3332SOL     OW10894   4.250   5.471   0.620
 3332SOL    HW110895   4.222   5.405   0.551
 3332SOL    HW210896   4.328   5.524   0.587
 3333SOL     OW10897   4.088   3.611   1.449
 3333SOL    HW110898   4.081   3.629   1.547
 3333SOL    HW210899   4.077   3.696   1.397
 3334SOL     OW10900   1.672   2.093   2.752
 3334SOL    HW110901   1.741   2.020   2.748
 3334SOL    HW210902   1.616   2.081   2.834
 3335SOL     OW10903   3.735   4.216   5.020
 3335SOL    HW110904   3.824   4.170   5.016
 3335SOL    HW210905   3.730   4.285   4.948
 3336SOL     OW10906   4.032   6.323   3.295
 3336SOL    HW110907   3.937   6.346   3.314
 3336SOL    HW210908   4.072   6.392   3.235
 3337SOL     OW10909   3.294   3.798   3.155
 3337SOL    HW110910   3.273   3.829   3.062
 3337SOL    HW210911   3.315   3.878   3.212
 3338SOL     OW10912   2.337   1.369   1.614
 3338SOL    HW110913   2.322   1.409   1.704
 3338SOL    HW210914   2.352   1.442   1.547
 3339SOL     OW10915   2.581   0.480   5.794
 3339SOL    HW110916   2.601   0.449   5.701
 3339SOL    HW210917   2.506   0.425   5.831
 3340SOL     OW10918   4.215   1.075   4.556
 3340SOL    HW110919   4.157   1.144   4.512
 3340SOL    HW210920   4.213   0.990   4.503
 3341SOL     OW10921   2.591   4.621   3.036
 3341SOL    HW110922   2.552   4.668   3.116
 3341SOL    HW210923   2.624   4.689   2.970
 3342SOL     OW10924   6.394   0.317   3.109
 3342SOL    HW110925   6.390   0.306   3.209
 3342SOL    HW210926   6.310   0.281   3.068
 3343SOL     OW10927   4.818   5.382   6.600
 3343SOL    HW110928   4.795   5.443   6.524
 3343SOL    HW210929   4.845   5.292   6.564
 3344SOL     OW10930   6.744   2.897   2.186
 3344SOL    HW110931   6.783   2.987   2.203
 3344SOL    HW210932   6.782   2.831   2.251
 3345SOL     OW10933   0.118   5.185   0.094
 3345SOL    HW110934   0.183   5.154   0.164
 3345SOL    HW210935   0.054   5.111   0.074
 3346SOL     OW10936   1.775   1.044   6.985
 3346SOL    HW110937   1.745   1.095   6.904
 3346SOL    HW210938   1.778   1.106   0.040
 3347SOL     OW10939   0.342   3.248   6.108
 3347SOL    HW110940   0.380   3.157   6.092
 3347SOL    HW210941   0.409   3.305   6.154
 3348SOL     OW10942   3.913   3.830   5.998
 3348SOL    HW110943   3.822   3.868   6.007
 3348SOL    HW210944   3.981   3.902   6.013
 3349SOL     OW10945   2.872   4.762   3.548
 3349SOL    HW110946   2.875   4.778   3.646
 3349SOL    HW210947   2.954   4.801   3.505
 3350SOL     OW10948   6.940   3.909   5.409
 3350SOL    HW110949   6.862   3.916   5.472
 3350SOL    HW210950   6.915   3.850   5.333
 3351SOL     OW10951   5.409   1.296   1.332
 3351SOL    HW110952   5.429   1.199   1.319
 3351SOL    HW210953   5.473   1.351   1.278
 3352SOL     OW10954   4.905   2.677   6.569
 3352SOL    HW110955   4.969   2.615   6.613
 3352SOL    HW210956   4.907   2.766   6.616
 3353SOL     OW10957   3.083   0.924   1.718
 3353SOL    HW110958   3.137   0.912   1.635
 3353SOL    HW210959   3.145   0.936   1.796
 3354SOL     OW10960   3.843   3.325   6.104
 3354SOL    HW110961   3.919   3.278   6.150
 3354SOL    HW210962   3.809   3.399   6.163
 3355SOL     OW10963   2.189   0.360   4.884
 3355SOL    HW110964   2.130   0.394   4.811
 3355SOL    HW210965   2.151   0.385   4.973
 3356SOL     OW10966   1.630   6.727   5.434
 3356SOL    HW110967   1.559   6.718   5.365
 3356SOL    HW210968   1.591   6.761   5.519
 3357SOL     OW10969   3.250   3.643   1.561
 3357SOL    HW110970   3.277   3.706   1.634
 3357SOL    HW210971   3.330   3.591   1.531
 3358SOL     OW10972   6.601   0.645   2.524
 3358SOL    HW110973   6.527   0.691   2.477
 3358SOL    HW210974   6.638   0.572   2.466
 3359SOL     OW10975   6.495   6.025   4.003
 3359SOL    HW110976   6.511   6.124   4.011
 3359SOL    HW210977   6.572   5.982   3.956
 3360SOL     OW10978   0.036   2.915   5.601
 3360SOL    HW110979   0.070   2.857   5.675
 3360SOL    HW210980   0.041   3.011   5.629
 3361SOL     OW10981   0.286   0.561   4.772
 3361SOL    HW110982   0.241   0.537   4.858
 3361SOL    HW210983   0.217   0.570   4.699
 3362SOL     OW10984   3.494   1.699   4.025
 3362SOL    HW110985   3.560   1.761   4.068
 3362SOL    HW210986   3.541   1.641   3.959
 3363SOL     OW10987   5.783   3.303   1.413
 3363SOL    HW110988   5.813   3.377   1.353
 3363SOL    HW210989   5.699   3.262   1.376
 3364SOL     OW10990   1.844   4.639   3.502
 3364SOL    HW110991   1.910   4.564   3.500
 3364SOL    HW210992   1.793   4.636   3.588
 3365SOL     OW10993   1.986   3.554   3.941
 3365SOL    HW110994   2.050   3.478   3.935
 3365SOL    HW210995   2.008   3.622   3.871
 3366SOL     OW10996   6.259   3.640   4.040
 3366SOL    HW110997   6.318   3.721   4.049
 3366SOL    HW210998   6.288   3.587   3.960
 3367SOL     OW10999   4.069   3.152   4.489
 3367SOL    HW111000   3.991   3.119   4.543
 3367SOL    HW211001   4.068   3.108   4.399
 3368SOL     OW11002   1.394   5.897   0.522
 3368SOL    HW111003   1.435   5.887   0.432
 3368SOL    HW211004   1.465   5.892   0.592
 3369SOL     OW11005   4.129   2.790   1.139
 3369SOL    HW111006   4.040   2.755   1.114
 3369SOL    HW211007   4.120   2.854   1.216
 3370SOL     OW11008   0.678   5.648   2.324
 3370SOL    HW111009   0.746   5.589   2.366
 3370SOL    HW211010   0.652   5.721   2.388
 3371SOL     OW11011   2.272   2.564   3.344
 3371SOL    HW111012   2.196   2.606   3.294
 3371SOL    HW211013   2.278   2.604   3.435
 3372SOL     OW11014   6.932   3.585   1.260
 3372SOL    HW111015   7.012   3.532   1.231
 3372SOL    HW211016   6.963   3.671   1.301
 3373SOL     OW11017   0.389   2.409   1.071
 3373SOL    HW111018   0.312   2.374   1.125
 3373SOL    HW211019   0.360   2.492   1.023
 3374SOL     OW11020   0.642   0.203   3.864
 3374SOL    HW111021   0.558   0.150   3.847
 3374SOL    HW211022   0.681   0.174   3.952
 3375SOL     OW11023   6.826   4.828   6.484
 3375SOL    HW111024   6.743   4.801   6.531
 3375SOL    HW211025   6.853   4.756   6.419
 3376SOL     OW11026   2.654   3.641   5.469
 3376SOL    HW111027   2.744   3.679   5.446
 3376SOL    HW211028   2.583   3.697   5.426
 3377SOL     OW11029   6.000   4.830   3.141
 3377SOL    HW111030   6.017   4.899   3.071
 3377SOL    HW211031   6.079   4.770   3.149
 3378SOL     OW11032   1.060   6.431   0.138
 3378SOL    HW111033   1.119   6.349   0.133
 3378SOL    HW211034   1.071   6.474   0.227
 3379SOL     OW11035   0.185   3.964   3.481
 3379SOL    HW111036   0.151   3.920   3.565
 3379SOL    HW211037   0.283   3.979   3.489
 3380SOL     OW11038   3.886   4.404   5.903
 3380SOL    HW111039   3.862   4.493   5.942
 3380SOL    HW211040   3.806   4.344   5.904
 3381SOL     OW11041   1.775   3.922   0.999
 3381SOL    HW111042   1.719   3.969   1.068
 3381SOL    HW211043   1.833   3.855   1.045
 3382SOL     OW11044   0.186   2.216   0.891
 3382SOL    HW111045   0.210   2.262   0.976
 3382SOL    HW211046   0.212   2.119   0.897
 3383SOL     OW11047   5.096   5.189   0.139
 3383SOL    HW111048   5.049   5.177   0.052
 3383SOL    HW211049   5.160   5.114   0.153
 3384SOL     OW11050   2.292   4.380   0.179
 3384SOL    HW111051   2.194   4.392   0.162
 3384SOL    HW211052   2.318   4.431   0.261
 3385SOL     OW11053   0.610   1.685   3.721
 3385SOL    HW111054   0.530   1.655   3.670
 3385SOL    HW211055   0.588   1.768   3.772
 3386SOL     OW11056   6.376   4.960   6.417
 3386SOL    HW111057   6.328   4.921   6.338
 3386SOL    HW211058   6.426   4.887   6.464
 3387SOL     OW11059   6.447   0.165   3.823
 3387SOL    HW111060   6.451   0.076   3.869
 3387SOL    HW211061   6.368   0.169   3.763
 3388SOL     OW11062   6.390   3.221   1.195
 3388SOL    HW111063   6.471   3.276   1.177
 3388SOL    HW211064   6.309   3.269   1.160
 3389SOL     OW11065   6.484   6.167   0.819
 3389SOL    HW111066   6.577   6.135   0.802
 3389SOL    HW211067   6.438   6.181   0.731
 3390SOL     OW11068   3.831   6.606   6.136
 3390SOL    HW111069   3.810   6.691   6.088
 3390SOL    HW211070   3.898   6.554   6.084
 3391SOL     OW11071   5.494   3.006   3.921
 3391SOL    HW111072   5.499   3.017   3.822
 3391SOL    HW211073   5.398   3.015   3.950
 3392SOL     OW11074   4.227   0.159   5.793
 3392SOL    HW111075   4.256   0.122   5.705
 3392SOL    HW211076   4.190   0.251   5.780
 3393SOL     OW11077   5.659   6.430   1.254
 3393SOL    HW111078   5.620   6.519   1.230
 3393SOL    HW211079   5.690   6.431   1.349
 3394SOL     OW11080   3.127   5.806   1.609
 3394SOL    HW111081   3.156   5.749   1.685
 3394SOL    HW211082   3.203   5.865   1.581
 3395SOL     OW11083   3.419   0.357   3.072
 3395SOL    HW111084   3.408   0.269   3.025
 3395SOL    HW211085   3.499   0.353   3.131
 3396SOL     OW11086   4.061   1.654   4.262
 3396SOL    HW111087   4.112   1.598   4.327
 3396SOL    HW211088   3.989   1.599   4.219
 3397SOL     OW11089   2.411   5.754   6.858
 3397SOL    HW111090   2.367   5.711   6.937
 3397SOL    HW211091   2.342   5.807   6.807
 3398SOL     OW11092   6.997   1.575   4.559
 3398SOL    HW111093   6.976   1.637   4.634
 3398SOL    HW211094   0.006   1.488   4.596
 3399SOL     OW11095   6.809   5.197   2.410
 3399SOL    HW111096   6.896   5.205   2.459
 3399SOL    HW211097   6.823   5.221   2.314
 3400SOL     OW11098   5.611   2.270   6.018
 3400SOL    HW111099   5.522   2.282   5.974
 3400SOL    HW211100   5.676   2.336   5.981
 3401SOL     OW11101   6.930   3.406   5.449
 3401SOL    HW111102   0.006   3.402   5.444
 3401SOL    HW211103   6.900   3.501   5.442
 3402SOL     OW11104   6.401   4.282   1.559
 3402SOL    HW111105   6.313   4.263   1.515
 3402SOL    HW211106   6.474   4.280   1.490
 3403SOL     OW11107   4.192   6.706   7.023
 3403SOL    HW111108   4.237   6.652   0.070
 3403SOL    HW211109   4.128   6.648   6.973
 3404SOL     OW11110   5.220   3.680   4.981
 3404SOL    HW111111   5.189   3.726   5.064
 3404SOL    HW211112   5.150   3.688   4.911
 3405SOL     OW11113   5.601   6.022   6.151
 3405SOL    HW111114   5.597   6.116   6.186
 3405SOL    HW211115   5.509   5.985   6.143
 3406SOL     OW11116   1.939   4.206   2.075
 3406SOL    HW111117   1.944   4.174   1.980
 3406SOL    HW211118   1.854   4.172   2.116
 3407SOL     OW11119   1.760   4.119   0.414
 3407SOL    HW111120   1.673   4.091   0.374
 3407SOL    HW211121   1.820   4.039   0.422
 3408SOL     OW11122   4.816   2.544   3.791
 3408SOL    HW111123   4.848   2.577   3.703
 3408SOL    HW211124   4.893   2.540   3.855
 3409SOL     OW11125   5.200   0.754   0.700
 3409SOL    HW111126   5.178   0.670   0.749
 3409SOL    HW211127   5.218   0.827   0.766
 3410SOL     OW11128   5.038   0.357   2.207
 3410SOL    HW111129   5.121   0.389   2.161
 3410SOL    HW211130   5.022   0.412   2.289
 3411SOL     OW11131   7.010   2.269   0.453
 3411SOL    HW111132   0.035   2.209   0.516
 3411SOL    HW211133   0.051   2.313   0.391
 3412SOL     OW11134   5.327   3.319   1.560
 3412SOL    HW111135   5.317   3.303   1.462
 3412SOL    HW211136   5.377   3.244   1.602
 3413SOL     OW11137   0.322   2.107   5.858
 3413SOL    HW111138   0.410   2.127   5.901
 3413SOL    HW211139   0.254   2.088   5.929
 3414SOL     OW11140   3.553   3.562   0.637
 3414SOL    HW111141   3.513   3.653   0.651
 3414SOL    HW211142   3.512   3.498   0.701
 3415SOL     OW11143   2.209   2.615   5.177
 3415SOL    HW111144   2.154   2.646   5.254
 3415SOL    HW211145   2.161   2.634   5.091
 3416SOL     OW11146   5.820   0.060   6.561
 3416SOL    HW111147   5.918   0.041   6.565
 3416SOL    HW211148   5.782   0.054   6.654
 3417SOL     OW11149   6.368   6.457   2.952
 3417SOL    HW111150   6.395   6.466   2.857
 3417SOL    HW211151   6.415   6.526   3.007
 3418SOL     OW11152   5.131   4.671   1.139
 3418SOL    HW111153   5.089   4.650   1.228
 3418SOL    HW211154   5.087   4.615   1.069
 3419SOL     OW11155   3.479   6.030   6.249
 3419SOL    HW111156   3.425   6.111   6.222
 3419SOL    HW211157   3.557   6.021   6.188
 3420SOL     OW11158   4.261   2.291   3.599
 3420SOL    HW111159   4.278   2.272   3.695
 3420SOL    HW211160   4.176   2.247   3.570
 3421SOL     OW11161   5.810   2.361   3.615
 3421SOL    HW111162   5.751   2.437   3.585
 3421SOL    HW211163   5.850   2.383   3.704
 3422SOL     OW11164   1.930   0.044   1.090
 3422SOL    HW111165   1.937   0.106   1.012
 3422SOL    HW211166   1.862   6.998   1.071
 3423SOL     OW11167   1.012   4.800   5.755
 3423SOL    HW111168   0.932   4.852   5.725
 3423SOL    HW211169   1.055   4.757   5.676
 3424SOL     OW11170   4.755   0.356   1.720
 3424SOL    HW111171   4.851   0.365   1.744
 3424SOL    HW211172   4.714   0.447   1.708
 3425SOL     OW11173   5.695   3.702   1.281
 3425SOL    HW111174   5.751   3.785   1.278
 3425SOL    HW211175   5.739   3.631   1.225
 3426SOL     OW11176   5.525   2.963   6.715
 3426SOL    HW111177   5.582   2.976   6.634
 3426SOL    HW211178   5.560   2.886   6.768
 3427SOL     OW11179   1.151   2.797   0.612
 3427SOL    HW111180   1.208   2.724   0.651
 3427SOL    HW211181   1.170   2.805   0.514
 3428SOL     OW11182   5.141   5.901   5.841
 3428SOL    HW111183   5.143   5.933   5.936
 3428SOL    HW211184   5.047   5.909   5.806
 3429SOL     OW11185   6.913   0.312   0.975
 3429SOL    HW111186   6.948   0.359   0.893
 3429SOL    HW211187   6.881   0.380   1.041
 3430SOL     OW11188   1.681   4.463   5.550
 3430SOL    HW111189   1.624   4.545   5.562
 3430SOL    HW211190   1.776   4.490   5.540
 3431SOL     OW11191   2.301   6.092   2.996
 3431SOL    HW111192   2.211   6.112   2.959
 3431SOL    HW211193   2.305   5.996   3.025
 3432SOL     OW11194   2.042   4.341   1.172
 3432SOL    HW111195   2.101   4.411   1.211
 3432SOL    HW211196   1.954   4.382   1.146
 3433SOL     OW11197   2.516   1.126   6.322
 3433SOL    HW111198   2.571   1.146   6.403
 3433SOL    HW211199   2.454   1.202   6.305
 3434SOL     OW11200   2.753   2.243   1.393
 3434SOL    HW111201   2.804   2.273   1.474
 3434SOL    HW211202   2.817   2.216   1.321
 3435SOL     OW11203   2.132   0.796   6.829
 3435SOL    HW111204   2.201   0.804   6.757
 3435SOL    HW211205   2.177   0.782   6.917
 3436SOL     OW11206   3.295   5.769   6.876
 3436SOL    HW111207   3.275   5.811   6.788
 3436SOL    HW211208   3.217   5.779   6.937
 3437SOL     OW11209   1.290   6.645   6.668
 3437SOL    HW111210   1.310   6.743   6.671
 3437SOL    HW211211   1.330   6.606   6.585
 3438SOL     OW11212   1.345   3.935   1.145
 3438SOL    HW111213   1.389   4.020   1.174
 3438SOL    HW211214   1.374   3.911   1.053
 3439SOL     OW11215   2.128   5.745   1.903
 3439SOL    HW111216   2.128   5.701   1.814
 3439SOL    HW211217   2.128   5.675   1.975
 3440SOL     OW11218   4.079   3.766   4.383
 3440SOL    HW111219   4.067   3.680   4.433
 3440SOL    HW211220   4.157   3.816   4.421
 3441SOL     OW11221   5.411   5.374   5.827
 3441SOL    HW111222   5.320   5.357   5.790
 3441SOL    HW211223   5.478   5.376   5.752
 3442SOL     OW11224   3.695   3.196   0.978
 3442SOL    HW111225   3.713   3.284   0.933
 3442SOL    HW211226   3.705   3.122   0.912
 3443SOL     OW11227   1.960   6.478   2.106
 3443SOL    HW111228   1.918   6.485   2.015
 3443SOL    HW211229   1.898   6.520   2.173
 3444SOL     OW11230   5.727   3.633   0.868
 3444SOL    HW111231   5.733   3.665   0.963
 3444SOL    HW211232   5.658   3.560   0.863
 3445SOL     OW11233   5.790   4.330   3.116
 3445SOL    HW111234   5.834   4.304   3.030
 3445SOL    HW211235   5.845   4.298   3.193
 3446SOL     OW11236   5.025   1.220   1.167
 3446SOL    HW111237   4.926   1.220   1.176
 3446SOL    HW211238   5.063   1.299   1.215
 3447SOL     OW11239   5.345   0.846   0.017
 3447SOL    HW111240   5.381   0.939   0.031
 3447SOL    HW211241   5.312   0.837   6.947
 3448SOL     OW11242   1.523   6.033   4.652
 3448SOL    HW111243   1.589   6.051   4.726
 3448SOL    HW211244   1.561   5.966   4.588
 3449SOL     OW11245   6.073   3.965   5.357
 3449SOL    HW111246   6.097   3.934   5.449
 3449SOL    HW211247   6.025   3.892   5.309
 3450SOL     OW11248   1.469   5.881   0.880
 3450SOL    HW111249   1.546   5.899   0.941
 3450SOL    HW211250   1.483   5.794   0.833
 3451SOL     OW11251   2.440   0.202   1.144
 3451SOL    HW111252   2.424   0.179   1.240
 3451SOL    HW211253   2.380   0.277   1.117
 3452SOL     OW11254   4.632   0.606   5.050
 3452SOL    HW111255   4.657   0.556   5.133
 3452SOL    HW211256   4.610   0.701   5.074
 3453SOL     OW11257   4.690   6.401   5.835
 3453SOL    HW111258   4.789   6.402   5.823
 3453SOL    HW211259   4.666   6.452   5.917
 3454SOL     OW11260   1.205   2.779   1.787
 3454SOL    HW111261   1.244   2.861   1.829
 3454SOL    HW211262   1.133   2.742   1.846
 3455SOL     OW11263   0.522   3.454   6.146
 3455SOL    HW111264   0.600   3.506   6.113
 3455SOL    HW211265   0.438   3.502   6.123
 3456SOL     OW11266   5.137   4.172   2.139
 3456SOL    HW111267   5.182   4.211   2.218
 3456SOL    HW211268   5.170   4.079   2.123
 3457SOL     OW11269   3.684   5.439   5.258
 3457SOL    HW111270   3.754   5.492   5.209
 3457SOL    HW211271   3.608   5.419   5.197
 3458SOL     OW11272   4.379   1.709   2.918
 3458SOL    HW111273   4.333   1.708   2.829
 3458SOL    HW211274   4.455   1.644   2.917
 3459SOL     OW11275   4.484   0.001   3.530
 3459SOL    HW111276   4.476   6.968   3.448
 3459SOL    HW211277   4.449   0.093   3.510
 3460SOL     OW11278   4.375   1.444   5.227
 3460SOL    HW111279   4.388   1.534   5.269
 3460SOL    HW211280   4.401   1.373   5.294
 3461SOL     OW11281   5.829   5.058   6.005
 3461SOL    HW111282   5.765   5.128   5.975
 3461SOL    HW211283   5.879   5.022   5.926
 3462SOL     OW11284   1.817   4.101   6.850
 3462SOL    HW111285   1.858   4.090   6.941
 3462SOL    HW211286   1.765   4.019   6.827
 3463SOL     OW11287   6.134   4.049   1.192
 3463SOL    HW111288   6.080   4.070   1.110
 3463SOL    HW211289   6.081   3.988   1.251
 3464SOL     OW11290   0.090   4.546   6.196
 3464SOL    HW111291   0.177   4.545   6.245
 3464SOL    HW211292   0.079   4.461   6.146
 3465SOL     OW11293   2.168   0.394   1.097
 3465SOL    HW111294   2.091   0.422   1.040
 3465SOL    HW211295   2.141   0.393   1.193
 3466SOL     OW11296   6.416   3.838   5.133
 3466SOL    HW111297   6.501   3.823   5.084
 3466SOL    HW211298   6.345   3.868   5.069
 3467SOL     OW11299   2.006   1.837   6.560
 3467SOL    HW111300   1.995   1.936   6.550
 3467SOL    HW211301   1.922   1.791   6.531
 3468SOL     OW11302   3.139   0.314   4.258
 3468SOL    HW111303   3.215   0.334   4.319
 3468SOL    HW211304   3.089   0.398   4.238
 3469SOL     OW11305   6.208   2.476   3.262
 3469SOL    HW111306   6.304   2.451   3.272
 3469SOL    HW211307   6.182   2.469   3.166
 3470SOL     OW11308   6.865   5.773   0.846
 3470SOL    HW111309   6.821   5.685   0.864
 3470SOL    HW211310   6.872   5.787   0.747
 3471SOL     OW11311   3.935   6.521   4.848
 3471SOL    HW111312   3.908   6.445   4.789
 3471SOL    HW211313   4.034   6.533   4.844
 3472SOL     OW11314   3.010   1.316   5.528
 3472SOL    HW111315   3.034   1.220   5.548
 3472SOL    HW211316   3.047   1.342   5.439
 3473SOL     OW11317   5.041   0.876   6.078
 3473SOL    HW111318   5.092   0.841   6.000
 3473SOL    HW211319   4.952   0.909   6.048
 3474SOL     OW11320   4.857   5.417   1.016
 3474SOL    HW111321   4.778   5.477   1.027
 3474SOL    HW211322   4.884   5.381   1.105
 3475SOL     OW11323   1.747   5.992   4.320
 3475SOL    HW111324   1.777   5.998   4.415
 3475SOL    HW211325   1.699   5.906   4.305
 3476SOL     OW11326   4.664   1.123   4.308
 3476SOL    HW111327   4.686   1.221   4.317
 3476SOL    HW211328   4.685   1.077   4.394
 3477SOL     OW11329   3.981   6.279   1.190
 3477SOL    HW111330   3.887   6.273   1.223
 3477SOL    HW211331   3.981   6.302   1.092
 3478SOL     OW11332   3.774   5.221   0.619
 3478SOL    HW111333   3.840   5.145   0.619
 3478SOL    HW211334   3.681   5.183   0.623
 3479SOL     OW11335   0.829   0.455   1.796
 3479SOL    HW111336   0.840   0.554   1.792
 3479SOL    HW211337   0.738   0.433   1.831
 3480SOL     OW11338   0.686   1.221   3.502
 3480SOL    HW111339   0.629   1.277   3.442
 3480SOL    HW211340   0.782   1.231   3.474
 3481SOL     OW11341   2.438   6.787   7.000
 3481SOL    HW111342   2.522   6.736   6.981
 3481SOL    HW211343   2.418   6.783   0.074
 3482SOL     OW11344   0.406   2.375   0.107
 3482SOL    HW111345   0.465   2.346   0.183
 3482SOL    HW211346   0.455   2.362   0.021
 3483SOL     OW11347   3.273   0.055   1.282
 3483SOL    HW111348   3.211   0.131   1.263
 3483SOL    HW211349   3.249   0.014   1.371
 3484SOL     OW11350   4.048   3.717   3.349
 3484SOL    HW111351   4.043   3.735   3.251
 3484SOL    HW211352   4.043   3.618   3.365
 3485SOL     OW11353   1.123   2.296   4.948
 3485SOL    HW111354   1.143   2.388   4.983
 3485SOL    HW211355   1.186   2.230   4.989
 3486SOL     OW11356   4.241   1.868   1.767
 3486SOL    HW111357   4.170   1.938   1.773
 3486SOL    HW211358   4.224   1.796   1.835
 3487SOL     OW11359   6.420   1.118   6.884
 3487SOL    HW111360   6.324   1.091   6.886
 3487SOL    HW211361   6.478   1.036   6.888
 3488SOL     OW11362   5.164   3.334   3.681
 3488SOL    HW111363   5.179   3.235   3.676
 3488SOL    HW211364   5.241   3.377   3.726
 3489SOL     OW11365   3.562   0.774   1.490
 3489SOL    HW111366   3.562   0.865   1.531
 3489SOL    HW211367   3.542   0.782   1.392
 3490SOL     OW11368   4.113   3.943   0.037
 3490SOL    HW111369   4.038   3.893   0.082
 3490SOL    HW211370   4.194   3.941   0.096
 3491SOL     OW11371   0.090   2.865   4.673
 3491SOL    HW111372   0.019   2.870   4.743
 3491SOL    HW211373   0.056   2.906   4.588
 3492SOL     OW11374   6.710   4.429   6.824
 3492SOL    HW111375   6.681   4.364   6.754
 3492SOL    HW211376   6.694   4.389   6.915
 3493SOL     OW11377   6.658   4.613   0.993
 3493SOL    HW111378   6.604   4.678   0.940
 3493SOL    HW211379   6.752   4.611   0.957
 3494SOL     OW11380   3.319   0.496   0.663
 3494SOL    HW111381   3.411   0.532   0.679
 3494SOL    HW211382   3.252   0.570   0.674
 3495SOL     OW11383   4.802   4.797   1.067
 3495SOL    HW111384   4.786   4.730   0.995
 3495SOL    HW211385   4.796   4.889   1.029
 3496SOL     OW11386   2.241   2.921   0.975
 3496SOL    HW111387   2.273   3.012   0.951
 3496SOL    HW211388   2.319   2.864   1.002
 3497SOL     OW11389   4.366   0.548   3.718
 3497SOL    HW111390   4.358   0.618   3.647
 3497SOL    HW211391   4.463   0.533   3.739
 3498SOL     OW11392   2.528   1.580   2.013
 3498SOL    HW111393   2.565   1.491   1.985
 3498SOL    HW211394   2.602   1.648   2.011
 3499SOL     OW11395   6.612   3.000   4.068
 3499SOL    HW111396   6.604   3.016   4.166
 3499SOL    HW211397   6.707   3.017   4.040
 3500SOL     OW11398   6.063   3.903   6.768
 3500SOL    HW111399   6.114   3.964   6.707
 3500SOL    HW211400   6.122   3.827   6.796
 3501SOL     OW11401   1.977   4.295   4.153
 3501SOL    HW111402   1.970   4.267   4.249
 3501SOL    HW211403   1.998   4.393   4.149
 3502SOL     OW11404   1.170   2.992   1.471
 3502SOL    HW111405   1.261   3.013   1.437
 3502SOL    HW211406   1.140   3.063   1.535
 3503SOL     OW11407   4.938   6.252   4.708
 3503SOL    HW111408   4.932   6.153   4.716
 3503SOL    HW211409   5.006   6.275   4.638
 3504SOL     OW11410   2.453   3.286   1.666
 3504SOL    HW111411   2.436   3.355   1.736
 3504SOL    HW211412   2.552   3.271   1.659
 3505SOL     OW11413   5.144   5.326   5.358
 3505SOL    HW111414   5.138   5.234   5.318
 3505SOL    HW211415   5.234   5.339   5.399
 3506SOL     OW11416   4.728   5.545   3.294
 3506SOL    HW111417   4.787   5.615   3.335
 3506SOL    HW211418   4.633   5.577   3.294
 3507SOL     OW11419   0.794   6.998   6.637
 3507SOL    HW111420   0.728   6.927   6.663
 3507SOL    HW211421   0.766   0.015   6.551
 3508SOL     OW11422   5.512   3.965   6.881
 3508SOL    HW111423   5.498   4.055   6.923
 3508SOL    HW211424   5.611   3.947   6.874
 3509SOL     OW11425   6.586   6.549   0.412
 3509SOL    HW111426   6.529   6.617   0.458
 3509SOL    HW211427   6.559   6.458   0.443
 3510SOL     OW11428   2.294   2.628   2.262
 3510SOL    HW111429   2.360   2.678   2.318
 3510SOL    HW211430   2.286   2.534   2.294
 3511SOL     OW11431   0.542   1.897   6.599
 3511SOL    HW111432   0.565   1.828   6.531
 3511SOL    HW211433   0.592   1.879   6.683
 3512SOL     OW11434   2.388   3.113   0.855
 3512SOL    HW111435   2.456   3.058   0.806
 3512SOL    HW211436   2.414   3.120   0.951
 3513SOL     OW11437   6.583   4.633   1.258
 3513SOL    HW111438   6.514   4.704   1.245
 3513SOL    HW211439   6.629   4.616   1.171
 3514SOL     OW11440   0.609   5.794   1.594
 3514SOL    HW111441   0.663   5.853   1.654
 3514SOL    HW211442   0.640   5.699   1.604
 3515SOL     OW11443   3.201   6.336   3.620
 3515SOL    HW111444   3.102   6.333   3.604
 3515SOL    HW211445   3.249   6.320   3.534
 3516SOL     OW11446   3.258   1.348   1.120
 3516SOL    HW111447   3.222   1.293   1.044
 3516SOL    HW211448   3.181   1.380   1.176
 3517SOL     OW11449   1.374   1.283   6.395
 3517SOL    HW111450   1.419   1.195   6.415
 3517SOL    HW211451   1.422   1.356   6.444
 3518SOL     OW11452   4.136   3.046   5.817
 3518SOL    HW111453   4.136   2.961   5.766
 3518SOL    HW211454   4.105   3.121   5.758
 3519SOL     OW11455   2.104   6.551   0.166
 3519SOL    HW111456   2.084   6.464   0.212
 3519SOL    HW211457   2.113   6.535   0.068
 3520SOL     OW11458   3.717   5.613   1.007
 3520SOL    HW111459   3.723   5.712   1.002
 3520SOL    HW211460   3.644   5.581   0.947
 3521SOL     OW11461   6.278   2.434   1.055
 3521SOL    HW111462   6.347   2.405   0.989
 3521SOL    HW211463   6.201   2.476   1.008
 3522SOL     OW11464   3.403   4.881   2.367
 3522SOL    HW111465   3.322   4.904   2.313
 3522SOL    HW211466   3.413   4.782   2.373
 3523SOL     OW11467   2.462   4.518   4.917
 3523SOL    HW111468   2.367   4.493   4.901
 3523SOL    HW211469   2.482   4.511   5.015
 3524SOL     OW11470   2.496   0.398   0.717
 3524SOL    HW111471   2.553   0.315   0.723
 3524SOL    HW211472   2.450   0.413   0.805
 3525SOL     OW11473   0.632   2.729   2.535
 3525SOL    HW111474   0.618   2.635   2.564
 3525SOL    HW211475   0.579   2.747   2.452
 3526SOL     OW11476   1.989   0.786   2.321
 3526SOL    HW111477   1.921   0.772   2.250
 3526SOL    HW211478   1.984   0.880   2.355
 3527SOL     OW11479   5.346   3.201   5.740
 3527SOL    HW111480   5.265   3.200   5.799
 3527SOL    HW211481   5.428   3.218   5.795
 3528SOL     OW11482   0.308   6.558   4.491
 3528SOL    HW111483   0.279   6.593   4.402
 3528SOL    HW211484   0.244   6.488   4.523
 3529SOL     OW11485   4.011   6.437   6.039
 3529SOL    HW111486   4.031   6.410   6.133
 3529SOL    HW211487   4.095   6.466   5.995
 3530SOL     OW11488   2.180   5.360   3.113
 3530SOL    HW111489   2.248   5.420   3.154
 3530SOL    HW211490   2.198   5.265   3.140
 3531SOL     OW11491   5.766   4.231   6.928
 3531SOL    HW111492   5.671   4.234   6.960
 3531SOL    HW211493   5.807   4.143   6.953
 3532SOL     OW11494   1.773   6.885   6.831
 3532SOL    HW111495   1.856   6.935   6.807
 3532SOL    HW211496   1.704   6.949   6.864
 3533SOL     OW11497   1.173   1.222   2.804
 3533SOL    HW111498   1.123   1.144   2.841
 3533SOL    HW211499   1.156   1.303   2.860
 3534SOL     OW11500   4.996   1.099   4.944
 3534SOL    HW111501   4.945   1.184   4.958
 3534SOL    HW211502   4.973   1.061   4.854
 3535SOL     OW11503   5.221   4.841   6.047
 3535SOL    HW111504   5.253   4.751   6.077
 3535SOL    HW211505   5.253   4.859   5.954
 3536SOL     OW11506   1.330   4.213   3.271
 3536SOL    HW111507   1.356   4.224   3.175
 3536SOL    HW211508   1.261   4.141   3.279
 3537SOL     OW11509   2.561   5.205   1.005
 3537SOL    HW111510   2.653   5.241   1.017
 3537SOL    HW211511   2.495   5.280   1.002
 3538SOL     OW11512   2.342   0.569   3.871
 3538SOL    HW111513   2.408   0.626   3.919
 3538SOL    HW211514   2.382   0.480   3.850
 3539SOL     OW11515   4.647   5.254   6.001
 3539SOL    HW111516   4.715   5.180   6.000
 3539SOL    HW211517   4.573   5.231   5.939
 3540SOL     OW11518   2.870   3.274   6.900
 3540SOL    HW111519   2.801   3.341   6.925
 3540SOL    HW211520   2.952   3.287   6.957
 3541SOL     OW11521   3.548   2.528   0.834
 3541SOL    HW111522   3.545   2.505   0.931
 3541SOL    HW211523   3.455   2.527   0.797
 3542SOL     OW11524   5.291   2.636   6.153
 3542SOL    HW111525   5.226   2.700   6.194
 3542SOL    HW211526   5.258   2.608   6.063
 3543SOL     OW11527   1.047   2.499   3.629
 3543SOL    HW111528   0.972   2.530   3.688
 3543SOL    HW211529   1.051   2.558   3.549
 3544SOL     OW11530   2.692   4.501   6.197
 3544SOL    HW111531   2.721   4.586   6.155
 3544SOL    HW211532   2.597   4.510   6.229
 3545SOL     OW11533   3.748   6.898   1.431
 3545SOL    HW111534   3.778   6.969   1.495
 3545SOL    HW211535   3.780   6.809   1.463
 3546SOL     OW11536   0.088   3.246   3.080
 3546SOL    HW111537   7.013   3.244   3.085
 3546SOL    HW211538   0.122   3.332   3.119
 3547SOL     OW11539   0.237   3.601   5.635
 3547SOL    HW111540   0.182   3.647   5.705
 3547SOL    HW211541   0.323   3.570   5.676
 3548SOL     OW11542   5.815   0.364   5.039
 3548SOL    HW111543   5.755   0.351   4.960
 3548SOL    HW211544   5.766   0.411   5.111
 3549SOL     OW11545   2.593   6.005   6.560
 3549SOL    HW111546   2.556   5.916   6.584
 3549SOL    HW211547   2.567   6.027   6.465
 3550SOL     OW11548   5.533   1.111   5.572
 3550SOL    HW111549   5.577   1.186   5.621
 3550SOL    HW211550   5.554   1.118   5.474
 3551SOL     OW11551   4.039   1.838   4.513
 3551SOL    HW111552   3.956   1.791   4.542
 3551SOL    HW211553   4.097   1.775   4.461
 3552SOL     OW11554   0.494   6.164   2.828
 3552SOL    HW111555   0.561   6.099   2.866
 3552SOL    HW211556   0.420   6.113   2.784
 3553SOL     OW11557   4.372   5.598   0.002
 3553SOL    HW111558   4.428   5.516   7.015
 3553SOL    HW211559   4.276   5.575   7.011
 3554SOL     OW11560   4.838   3.372   1.536
 3554SOL    HW111561   4.824   3.273   1.530
 3554SOL    HW211562   4.910   3.392   1.602
 3555SOL     OW11563   2.443   2.032   4.945
 3555SOL    HW111564   2.419   2.124   4.975
 3555SOL    HW211565   2.497   1.987   5.016
 3556SOL     OW11566   4.868   0.644   5.767
 3556SOL    HW111567   4.851   0.589   5.848
 3556SOL    HW211568   4.927   0.593   5.704
 3557SOL     OW11569   6.564   0.995   1.512
 3557SOL    HW111570   6.501   0.968   1.440
 3557SOL    HW211571   6.564   1.095   1.521
 3558SOL     OW11572   3.448   6.445   1.625
 3558SOL    HW111573   3.371   6.381   1.625
 3558SOL    HW211574   3.488   6.450   1.716
 3559SOL     OW11575   4.159   6.089   4.566
 3559SOL    HW111576   4.067   6.074   4.529
 3559SOL    HW211577   4.162   6.062   4.662
 3560SOL     OW11578   2.371   5.873   4.404
 3560SOL    HW111579   2.277   5.889   4.372
 3560SOL    HW211580   2.391   5.775   4.402
 3561SOL     OW11581   4.887   4.063   5.298
 3561SOL    HW111582   4.918   4.122   5.223
 3561SOL    HW211583   4.818   4.111   5.352
 3562SOL     OW11584   2.025   1.433   5.656
 3562SOL    HW111585   2.110   1.486   5.655
 3562SOL    HW211586   2.046   1.337   5.641
 3563SOL     OW11587   5.724   2.274   5.150
 3563SOL    HW111588   5.805   2.253   5.096
 3563SOL    HW211589   5.748   2.336   5.225
 3564SOL     OW11590   6.504   4.289   2.010
 3564SOL    HW111591   6.564   4.347   2.066
 3564SOL    HW211592   6.499   4.198   2.050
 3565SOL     OW11593   3.779   5.570   3.220
 3565SOL    HW111594   3.877   5.556   3.207
 3565SOL    HW211595   3.746   5.513   3.295
 3566SOL     OW11596   1.142   0.815   5.488
 3566SOL    HW111597   1.134   0.718   5.510
 3566SOL    HW211598   1.146   0.869   5.572
 3567SOL     OW11599   0.822   4.185   6.436
 3567SOL    HW111600   0.804   4.244   6.357
 3567SOL    HW211601   0.789   4.093   6.417
 3568SOL     OW11602   6.143   3.782   5.837
 3568SOL    HW111603   6.121   3.845   5.911
 3568SOL    HW211604   6.076   3.792   5.763
 3569SOL     OW11605   1.810   2.307   5.314
 3569SOL    HW111606   1.719   2.341   5.289
 3569SOL    HW211607   1.830   2.224   5.261
 3570SOL     OW11608   6.232   1.370   4.231
 3570SOL    HW111609   6.257   1.441   4.296
 3570SOL    HW211610   6.142   1.391   4.192
 3571SOL     OW11611   6.036   5.787   6.407
 3571SOL    HW111612   6.025   5.802   6.505
 3571SOL    HW211613   6.127   5.748   6.389
 3572SOL     OW11614   5.664   4.251   4.658
 3572SOL    HW111615   5.703   4.168   4.697
 3572SOL    HW211616   5.706   4.268   4.569
 3573SOL     OW11617   1.166   3.157   3.353
 3573SOL    HW111618   1.092   3.218   3.380
 3573SOL    HW211619   1.243   3.168   3.415
 3574SOL     OW11620   0.519   4.033   0.573
 3574SOL    HW111621   0.422   4.058   0.564
 3574SOL    HW211622   0.549   4.049   0.667
 3575SOL     OW11623   6.055   4.934   2.248
 3575SOL    HW111624   5.959   4.942   2.275
 3575SOL    HW211625   6.065   4.966   2.154
 3576SOL     OW11626   0.674   1.166   5.914
 3576SOL    HW111627   0.729   1.136   5.992
 3576SOL    HW211628   0.578   1.142   5.930
 3577SOL     OW11629   0.229   2.884   6.612
 3577SOL    HW111630   0.271   2.793   6.616
 3577SOL    HW211631   0.301   2.953   6.604
 3578SOL     OW11632   2.982   4.834   0.433
 3578SOL    HW111633   2.951   4.927   0.414
 3578SOL    HW211634   3.020   4.830   0.526
 3579SOL     OW11635   6.615   3.751   4.944
 3579SOL    HW111636   6.651   3.806   4.869
 3579SOL    HW211637   6.586   3.662   4.909
 3580SOL     OW11638   6.643   1.620   2.123
 3580SOL    HW111639   6.735   1.621   2.163
 3580SOL    HW211640   6.599   1.708   2.141
 3581SOL     OW11641   0.336   0.470   2.137
 3581SOL    HW111642   0.275   0.530   2.085
 3581SOL    HW211643   0.310   0.472   2.233
 3582SOL     OW11644   1.332   0.349   6.214
 3582SOL    HW111645   1.341   0.285   6.290
 3582SOL    HW211646   1.235   0.373   6.202
 3583SOL     OW11647   0.915   5.540   6.736
 3583SOL    HW111648   0.873   5.532   6.645
 3583SOL    HW211649   0.936   5.448   6.771
 3584SOL     OW11650   5.184   6.359   6.463
 3584SOL    HW111651   5.138   6.273   6.488
 3584SOL    HW211652   5.195   6.416   6.544
 3585SOL     OW11653   3.327   4.918   4.528
 3585SOL    HW111654   3.234   4.954   4.534
 3585SOL    HW211655   3.350   4.902   4.432
 3586SOL     OW11656   6.243   3.544   5.921
 3586SOL    HW111657   6.188   3.615   5.878
 3586SOL    HW211658   6.301   3.500   5.853
 3587SOL     OW11659   3.767   6.745   0.513
 3587SOL    HW111660   3.736   6.650   0.502
 3587SOL    HW211661   3.696   6.798   0.558
 3588SOL     OW11662   1.352   2.522   6.220
 3588SOL    HW111663   1.362   2.542   6.123
 3588SOL    HW211664   1.431   2.468   6.252
 3589SOL     OW11665   3.041   0.681   5.360
 3589SOL    HW111666   3.064   0.743   5.435
 3589SOL    HW211667   2.947   0.698   5.330
 3590SOL     OW11668   1.476   5.397   5.966
 3590SOL    HW111669   1.532   5.410   5.884
 3590SOL    HW211670   1.506   5.316   6.015
 3591SOL     OW11671   5.276   2.391   5.924
 3591SOL    HW111672   5.207   2.374   5.853
 3591SOL    HW211673   5.355   2.437   5.882
 3592SOL     OW11674   5.656   2.815   3.039
 3592SOL    HW111675   5.706   2.733   3.070
 3592SOL    HW211676   5.596   2.790   2.963
 3593SOL     OW11677   1.561   6.603   3.952
 3593SOL    HW111678   1.492   6.540   3.917
 3593SOL    HW211679   1.525   6.696   3.949
 3594SOL     OW11680   2.707   1.275   3.793
 3594SOL    HW111681   2.697   1.337   3.870
 3594SOL    HW211682   2.794   1.226   3.800
 3595SOL     OW11683   2.673   6.355   6.323
 3595SOL    HW111684   2.618   6.280   6.360
 3595SOL    HW211685   2.615   6.434   6.304
 3596SOL     OW11686   6.491   1.127   2.082
 3596SOL    HW111687   6.527   1.183   2.007
 3596SOL    HW211688   6.401   1.091   2.056
 3597SOL     OW11689   3.886   6.006   4.517
 3597SOL    HW111690   3.876   6.033   4.421
 3597SOL    HW211691   3.796   5.979   4.553
 3598SOL     OW11692   1.219   6.947   5.810
 3598SOL    HW111693   1.249   6.938   5.905
 3598SOL    HW211694   1.298   6.948   5.750
 3599SOL     OW11695   0.029   1.997   5.302
 3599SOL    HW111696   7.008   1.908   5.309
 3599SOL    HW211697   0.128   1.985   5.304
 3600SOL     OW11698   6.091   2.551   0.921
 3600SOL    HW111699   6.049   2.513   0.839
 3600SOL    HW211700   6.035   2.529   1.001
 3601SOL     OW11701   0.229   3.786   0.268
 3601SOL    HW111702   0.176   3.761   0.349
 3601SOL    HW211703   0.284   3.867   0.288
 3602SOL     OW11704   2.229   1.098   6.695
 3602SOL    HW111705   2.194   1.027   6.757
 3602SOL    HW211706   2.204   1.075   6.601
 3603SOL     OW11707   4.077   4.766   3.916
 3603SOL    HW111708   4.175   4.779   3.937
 3603SOL    HW211709   4.035   4.711   3.988
 3604SOL     OW11710   0.316   2.123   3.007
 3604SOL    HW111711   0.239   2.186   3.013
 3604SOL    HW211712   0.308   2.053   3.079
 3605SOL     OW11713   5.616   3.710   6.434
 3605SOL    HW111714   5.707   3.739   6.465
 3605SOL    HW211715   5.551   3.785   6.445
 3606SOL     OW11716   6.677   4.563   5.307
 3606SOL    HW111717   6.762   4.518   5.282
 3606SOL    HW211718   6.682   4.595   5.402
 3607SOL     OW11719   5.237   7.009   0.888
 3607SOL    HW111720   5.307   6.973   0.826
 3607SOL    HW211721   5.185   0.055   0.840
 3608SOL     OW11722   0.708   2.236   1.668
 3608SOL    HW111723   0.745   2.265   1.580
 3608SOL    HW211724   0.638   2.302   1.698
 3609SOL     OW11725   6.364   1.084   5.326
 3609SOL    HW111726   6.410   1.170   5.345
 3609SOL    HW211727   6.429   1.008   5.331
 3610SOL     OW11728   1.103   6.362   5.730
 3610SOL    HW111729   1.066   6.273   5.703
 3610SOL    HW211730   1.030   6.420   5.766
 3611SOL     OW11731   3.344   5.323   5.209
 3611SOL    HW111732   3.365   5.372   5.293
 3611SOL    HW211733   3.326   5.389   5.136
 3612SOL     OW11734   0.952   6.175   0.461
 3612SOL    HW111735   0.943   6.170   0.361
 3612SOL    HW211736   1.038   6.132   0.488
 3613SOL     OW11737   5.455   4.872   0.407
 3613SOL    HW111738   5.419   4.790   0.364
 3613SOL    HW211739   5.405   4.891   0.491
 3614SOL     OW11740   3.832   3.493   2.966
 3614SOL    HW111741   3.733   3.480   2.966
 3614SOL    HW211742   3.861   3.529   3.055
 3615SOL     OW11743   5.738   5.669   5.464
 3615SOL    HW111744   5.642   5.683   5.490
 3615SOL    HW211745   5.796   5.731   5.517
 3616SOL     OW11746   6.674   2.442   5.787
 3616SOL    HW111747   6.696   2.472   5.880
 3616SOL    HW211748   6.689   2.517   5.723
 3617SOL     OW11749   6.630   2.188   6.247
 3617SOL    HW111750   6.576   2.113   6.283
 3617SOL    HW211751   6.580   2.233   6.173
 3618SOL     OW11752   1.872   1.862   5.801
 3618SOL    HW111753   1.825   1.863   5.713
 3618SOL    HW211754   1.942   1.934   5.802
 3619SOL     OW11755   5.760   2.090   3.969
 3619SOL    HW111756   5.851   2.131   3.958
 3619SOL    HW211757   5.765   1.992   3.951
 3620SOL     OW11758   5.652   0.506   5.537
 3620SOL    HW111759   5.682   0.429   5.482
 3620SOL    HW211760   5.702   0.589   5.510
 3621SOL     OW11761   2.726   2.727   5.677
 3621SOL    HW111762   2.653   2.754   5.614
 3621SOL    HW211763   2.693   2.655   5.738
 3622SOL     OW11764   0.818   1.430   2.581
 3622SOL    HW111765   0.846   1.346   2.534
 3622SOL    HW211766   0.851   1.509   2.530
 3623SOL     OW11767   5.328   5.114   3.763
 3623SOL    HW111768   5.387   5.169   3.822
 3623SOL    HW211769   5.359   5.019   3.765
 3624SOL     OW11770   2.388   0.085   3.244
 3624SOL    HW111771   2.381   0.181   3.218
 3624SOL    HW211772   2.341   0.029   3.175
 3625SOL     OW11773   6.013   3.277   5.920
 3625SOL    HW111774   5.939   3.321   5.868
 3625SOL    HW211775   5.987   3.271   6.016
 3626SOL     OW11776   1.888   3.580   4.936
 3626SOL    HW111777   1.843   3.544   5.018
 3626SOL    HW211778   1.967   3.636   4.963
 3627SOL     OW11779   3.774   4.098   3.514
 3627SOL    HW111780   3.831   4.018   3.498
 3627SOL    HW211781   3.832   4.177   3.536
 3628SOL     OW11782   2.248   5.831   2.165
 3628SOL    HW111783   2.190   5.750   2.160
 3628SOL    HW211784   2.328   5.811   2.222
 3629SOL     OW11785   6.021   2.090   5.552
 3629SOL    HW111786   5.921   2.092   5.545
 3629SOL    HW211787   6.061   2.139   5.474
 3630SOL     OW11788   5.943   2.213   4.992
 3630SOL    HW111789   5.895   2.160   4.922
 3630SOL    HW211790   5.994   2.150   5.052
 3631SOL     OW11791   2.621   0.070   4.492
 3631SOL    HW111792   2.553   0.013   4.447
 3631SOL    HW211793   2.590   0.091   4.585
 3632SOL     OW11794   5.175   1.052   1.364
 3632SOL    HW111795   5.123   1.070   1.280
 3632SOL    HW211796   5.272   1.042   1.341
 3633SOL     OW11797   3.042   2.619   6.175
 3633SOL    HW111798   2.947   2.619   6.207
 3633SOL    HW211799   3.050   2.682   6.098
 3634SOL     OW11800   1.638   6.574   4.926
 3634SOL    HW111801   1.607   6.568   4.831
 3634SOL    HW211802   1.701   6.651   4.936
 3635SOL     OW11803   2.641   1.739   5.308
 3635SOL    HW111804   2.651   1.746   5.407
 3635SOL    HW211805   2.552   1.776   5.281
 3636SOL     OW11806   7.011   5.922   6.167
 3636SOL    HW111807   0.030   5.942   6.080
 3636SOL    HW211808   0.033   5.973   6.240
 3637SOL     OW11809   5.824   1.601   1.882
 3637SOL    HW111810   5.818   1.558   1.792
 3637SOL    HW211811   5.907   1.568   1.928
 3638SOL     OW11812   6.477   4.153   4.303
 3638SOL    HW111813   6.571   4.176   4.278
 3638SOL    HW211814   6.418   4.232   4.288
 3639SOL     OW11815   3.155   4.447   1.085
 3639SOL    HW111816   3.212   4.442   1.167
 3639SOL    HW211817   3.111   4.359   1.069
 3640SOL     OW11818   3.303   6.103   0.572
 3640SOL    HW111819   3.233   6.036   0.594
 3640SOL    HW211820   3.394   6.064   0.588
 3641SOL     OW11821   3.407   1.508   4.584
 3641SOL    HW111822   3.502   1.538   4.582
 3641SOL    HW211823   3.383   1.469   4.495
 3642SOL     OW11824   4.690   0.795   5.405
 3642SOL    HW111825   4.713   0.824   5.312
 3642SOL    HW211826   4.758   0.729   5.437
 3643SOL     OW11827   2.895   5.548   4.876
 3643SOL    HW111828   2.900   5.456   4.913
 3643SOL    HW211829   2.941   5.551   4.787
 3644SOL     OW11830   6.583   2.394   1.199
 3644SOL    HW111831   6.511   2.453   1.236
 3644SOL    HW211832   6.635   2.354   1.275
 3645SOL     OW11833   5.167   1.787   3.787
 3645SOL    HW111834   5.123   1.698   3.792
 3645SOL    HW211835   5.135   1.837   3.707
 3646SOL     OW11836   0.269   5.164   5.684
 3646SOL    HW111837   0.345   5.136   5.625
 3646SOL    HW211838   0.222   5.243   5.643
 3647SOL     OW11839   0.818   3.025   0.359
 3647SOL    HW111840   0.836   2.951   0.424
 3647SOL    HW211841   0.876   3.013   0.278
 3648SOL     OW11842   4.337   5.302   2.179
 3648SOL    HW111843   4.429   5.271   2.203
 3648SOL    HW211844   4.270   5.237   2.212
 3649SOL     OW11845   4.443   3.813   0.737
 3649SOL    HW111846   4.438   3.750   0.660
 3649SOL    HW211847   4.355   3.814   0.784
 3650SOL     OW11848   6.715   6.645   1.282
 3650SOL    HW111849   6.732   6.546   1.276
 3650SOL    HW211850   6.623   6.664   1.249
 3651SOL     OW11851   0.982   6.186   2.414
 3651SOL    HW111852   1.047   6.187   2.489
 3651SOL    HW211853   1.018   6.131   2.339
 3652SOL     OW11854   4.660   6.422   3.572
 3652SOL    HW111855   4.740   6.437   3.514
 3652SOL    HW211856   4.615   6.509   3.590
 3653SOL     OW11857   6.041   1.167   3.270
 3653SOL    HW111858   5.949   1.189   3.236
 3653SOL    HW211859   6.082   1.248   3.310
 3654SOL     OW11860   2.639   6.516   0.562
 3654SOL    HW111861   2.711   6.497   0.628
 3654SOL    HW211862   2.550   6.512   0.608
 3655SOL     OW11863   1.468   0.164   4.121
 3655SOL    HW111864   1.436   0.069   4.121
 3655SOL    HW211865   1.565   0.167   4.148
 3656SOL     OW11866   1.911   2.410   2.144
 3656SOL    HW111867   1.929   2.388   2.240
 3656SOL    HW211868   1.975   2.358   2.086
 3657SOL     OW11869   3.988   5.774   6.769
 3657SOL    HW111870   3.967   5.807   6.861
 3657SOL    HW211871   4.088   5.775   6.756
 3658SOL     OW11872   1.076   5.669   5.156
 3658SOL    HW111873   0.992   5.689   5.105
 3658SOL    HW211874   1.060   5.592   5.218
 3659SOL     OW11875   3.148   4.551   0.078
 3659SOL    HW111876   3.215   4.601   0.024
 3659SOL    HW211877   3.058   4.557   0.033
 3660SOL     OW11878   4.734   6.198   1.940
 3660SOL    HW111879   4.749   6.288   1.983
 3660SOL    HW211880   4.730   6.128   2.011
 3661SOL     OW11881   5.083   2.165   0.367
 3661SOL    HW111882   4.989   2.144   0.395
 3661SOL    HW211883   5.094   2.264   0.359
 3662SOL     OW11884   3.735   0.118   5.004
 3662SOL    HW111885   3.806   0.054   5.034
 3662SOL    HW211886   3.729   0.193   5.069
 3663SOL     OW11887   1.669   1.740   0.694
 3663SOL    HW111888   1.609   1.702   0.623
 3663SOL    HW211889   1.749   1.683   0.705
 3664SOL     OW11890   4.763   1.556   0.272
 3664SOL    HW111891   4.838   1.595   0.218
 3664SOL    HW211892   4.747   1.461   0.245
 3665SOL     OW11893   0.707   6.742   5.341
 3665SOL    HW111894   0.714   6.820   5.279
 3665SOL    HW211895   0.787   6.683   5.330
 3666SOL     OW11896   1.730   4.674   4.053
 3666SOL    HW111897   1.699   4.579   4.046
 3666SOL    HW211898   1.658   4.735   4.018
 3667SOL     OW11899   5.883   0.937   6.556
 3667SOL    HW111900   5.877   0.838   6.567
 3667SOL    HW211901   5.925   0.959   6.468
 3668SOL     OW11902   1.174   0.135   2.780
 3668SOL    HW111903   1.080   0.119   2.751
 3668SOL    HW211904   1.175   0.207   2.850
 3669SOL     OW11905   5.879   1.938   4.519
 3669SOL    HW111906   5.898   1.931   4.421
 3669SOL    HW211907   5.792   1.893   4.540
 3670SOL     OW11908   2.608   5.125   0.010
 3670SOL    HW111909   2.552   5.106   0.091
 3670SOL    HW211910   2.686   5.063   0.008
 3671SOL     OW11911   6.635   0.444   3.133
 3671SOL    HW111912   6.546   0.403   3.114
 3671SOL    HW211913   6.624   0.543   3.143
 3672SOL     OW11914   6.478   1.691   0.223
 3672SOL    HW111915   6.466   1.748   0.142
 3672SOL    HW211916   6.501   1.598   0.196
 3673SOL     OW11917   4.039   1.105   6.254
 3673SOL    HW111918   4.091   1.189   6.269
 3673SOL    HW211919   4.097   1.037   6.210
 3674SOL     OW11920   0.373   6.315   6.895
 3674SOL    HW111921   0.469   6.330   6.920
 3674SOL    HW211922   0.314   6.341   6.970
 3675SOL     OW11923   1.521   2.559   5.472
 3675SOL    HW111924   1.445   2.495   5.458
 3675SOL    HW211925   1.492   2.631   5.535
 3676SOL     OW11926   3.438   5.217   3.854
 3676SOL    HW111927   3.453   5.309   3.891
 3676SOL    HW211928   3.344   5.189   3.871
 3677SOL     OW11929   0.370   6.439   3.121
 3677SOL    HW111930   0.273   6.430   3.145
 3677SOL    HW211931   0.383   6.416   3.025
 3678SOL     OW11932   1.348   2.253   3.788
 3678SOL    HW111933   1.315   2.330   3.732
 3678SOL    HW211934   1.448   2.258   3.795
 3679SOL     OW11935   0.280   1.008   2.618
 3679SOL    HW111936   0.299   0.978   2.525
 3679SOL    HW211937   0.228   0.937   2.666
 3680SOL     OW11938   6.027   2.537   3.986
 3680SOL    HW111939   6.060   2.464   3.926
 3680SOL    HW211940   5.958   2.590   3.938
 3681SOL     OW11941   1.120   0.776   5.911
 3681SOL    HW111942   1.184   0.834   5.962
 3681SOL    HW211943   1.059   0.728   5.974
 3682SOL     OW11944   6.618   1.906   5.507
 3682SOL    HW111945   6.599   1.959   5.590
 3682SOL    HW211946   6.548   1.836   5.496
 3683SOL     OW11947   6.188   6.728   4.511
 3683SOL    HW111948   6.158   6.633   4.524
 3683SOL    HW211949   6.264   6.748   4.573
 3684SOL     OW11950   2.028   2.955   1.786
 3684SOL    HW111951   2.117   2.998   1.773
 3684SOL    HW211952   2.031   2.896   1.867
 3685SOL     OW11953   6.279   5.674   6.379
 3685SOL    HW111954   6.320   5.608   6.316
 3685SOL    HW211955   6.346   5.745   6.402
 3686SOL     OW11956   6.331   4.499   2.169
 3686SOL    HW111957   6.337   4.404   2.138
 3686SOL    HW211958   6.302   4.501   2.265
 3687SOL     OW11959   3.140   6.407   6.664
 3687SOL    HW111960   3.047   6.375   6.682
 3687SOL    HW211961   3.171   6.373   6.576
 3688SOL     OW11962   0.712   3.580   0.021
 3688SOL    HW111963   0.786   3.548   6.987
 3688SOL    HW211964   0.722   3.542   0.112
 3689SOL     OW11965   1.518   1.076   5.408
 3689SOL    HW111966   1.574   1.086   5.326
 3689SOL    HW211967   1.509   0.979   5.431
 3690SOL     OW11968   4.649   0.885   6.068
 3690SOL    HW111969   4.679   0.895   5.973
 3690SOL    HW211970   4.677   0.796   6.103
 3691SOL     OW11971   2.643   3.570   6.533
 3691SOL    HW111972   2.557   3.533   6.499
 3691SOL    HW211973   2.719   3.512   6.502
 3692SOL     OW11974   0.893   6.085   4.460
 3692SOL    HW111975   0.836   6.097   4.542
 3692SOL    HW211976   0.910   6.173   4.418
 3693SOL     OW11977   2.021   2.235   3.162
 3693SOL    HW111978   1.945   2.294   3.190
 3693SOL    HW211979   2.006   2.204   3.069
 3694SOL     OW11980   1.044   5.544   3.569
 3694SOL    HW111981   1.087   5.465   3.525
 3694SOL    HW211982   0.959   5.515   3.614
 3695SOL     OW11983   0.840   2.303   2.758
 3695SOL    HW111984   0.856   2.284   2.855
 3695SOL    HW211985   0.911   2.364   2.723
 3696SOL     OW11986   4.481   5.875   5.584
 3696SOL    HW111987   4.504   5.861   5.680
 3696SOL    HW211988   4.541   5.944   5.545
 3697SOL     OW11989   6.955   6.734   3.405
 3697SOL    HW111990   0.009   6.725   3.466
 3697SOL    HW211991   6.944   6.649   3.353
 3698SOL     OW11992   3.566   0.435   5.494
 3698SOL    HW111993   3.598   0.364   5.431
 3698SOL    HW211994   3.555   0.521   5.445
 3699SOL     OW11995   0.036   3.674   2.888
 3699SOL    HW111996   0.012   3.697   2.793
 3699SOL    HW211997   0.018   3.752   2.947
 3700SOL     OW11998   6.069   0.108   4.332
 3700SOL    HW111999   6.085   0.016   4.296
 3700SOL    HW212000   6.153   0.141   4.375
 3701SOL     OW12001   0.499   0.873   4.258
 3701SOL    HW112002   0.485   0.805   4.186
 3701SOL    HW212003   0.432   0.859   4.331
 3702SOL     OW12004   4.400   0.382   1.619
 3702SOL    HW112005   4.453   0.314   1.569
 3702SOL    HW212006   4.372   0.345   1.708
 3703SOL     OW12007   4.144   4.129   5.744
 3703SOL    HW112008   4.105   4.085   5.664
 3703SOL    HW212009   4.114   4.224   5.749
 3704SOL     OW12010   2.845   1.059   2.291
 3704SOL    HW112011   2.882   1.012   2.371
 3704SOL    HW212012   2.917   1.073   2.223
 3705SOL     OW12013   4.563   0.299   3.985
 3705SOL    HW112014   4.540   0.226   3.920
 3705SOL    HW212015   4.635   0.356   3.945
 3706SOL     OW12016   1.684   2.903   4.735
 3706SOL    HW112017   1.652   2.923   4.827
 3706SOL    HW212018   1.667   2.983   4.676
 3707SOL     OW12019   5.168   2.677   5.870
 3707SOL    HW112020   5.108   2.640   5.941
 3707SOL    HW212021   5.114   2.694   5.787
 3708SOL     OW12022   6.228   0.659   6.642
 3708SOL    HW112023   6.236   0.722   6.719
 3708SOL    HW212024   6.132   0.650   6.616
 3709SOL     OW12025   3.349   0.973   5.707
 3709SOL    HW112026   3.345   1.044   5.637
 3709SOL    HW212027   3.437   0.978   5.755
 3710SOL     OW12028   6.652   5.660   6.956
 3710SOL    HW112029   6.649   5.733   6.887
 3710SOL    HW212030   6.647   5.701   0.023
 3711SOL     OW12031   0.299   5.950   2.843
 3711SOL    HW112032   0.214   5.896   2.840
 3711SOL    HW212033   0.317   5.979   2.936
 3712SOL     OW12034   0.335   6.575   6.712
 3712SOL    HW112035   0.422   6.539   6.747
 3712SOL    HW212036   0.308   6.523   6.631
 3713SOL     OW12037   2.114   5.951   5.120
 3713SOL    HW112038   2.144   5.963   5.215
 3713SOL    HW212039   2.178   5.998   5.059
 3714SOL     OW12040   4.907   6.746   4.343
 3714SOL    HW112041   4.986   6.765   4.402
 3714SOL    HW212042   4.938   6.706   4.257
 3715SOL     OW12043   5.942   4.712   4.616
 3715SOL    HW112044   5.864   4.655   4.642
 3715SOL    HW212045   5.964   4.774   4.691
 3716SOL     OW12046   6.481   0.226   4.335
 3716SOL    HW112047   6.578   0.251   4.324
 3716SOL    HW212048   6.424   0.308   4.323
 3717SOL     OW12049   6.163   5.764   1.031
 3717SOL    HW112050   6.262   5.779   1.023
 3717SOL    HW212051   6.144   5.666   1.027
 3718SOL     OW12052   1.049   6.557   6.713
 3718SOL    HW112053   1.003   6.644   6.734
 3718SOL    HW212054   1.148   6.570   6.714
 3719SOL     OW12055   5.014   4.793   0.676
 3719SOL    HW112056   4.931   4.807   0.729
 3719SOL    HW212057   5.044   4.698   0.685
 3720SOL     OW12058   6.454   1.996   6.330
 3720SOL    HW112059   6.358   2.005   6.301
 3720SOL    HW212060   6.471   1.903   6.361
 3721SOL     OW12061   5.959   5.054   6.551
 3721SOL    HW112062   5.966   5.008   6.463
 3721SOL    HW212063   6.051   5.075   6.585
 3722SOL     OW12064   6.790   5.810   2.502
 3722SOL    HW112065   6.780   5.851   2.411
 3722SOL    HW212066   6.765   5.714   2.499
 3723SOL     OW12067   5.585   6.794   1.929
 3723SOL    HW112068   5.558   6.724   1.863
 3723SOL    HW212069   5.546   6.773   2.019
 3724SOL     OW12070   1.550   4.801   6.812
 3724SOL    HW112071   1.535   4.748   6.728
 3724SOL    HW212072   1.486   4.877   6.815
 3725SOL     OW12073   6.466   6.354   0.007
 3725SOL    HW112074   6.541   6.294   0.036
 3725SOL    HW212075   6.392   6.349   0.074
 3726SOL     OW12076   6.497   3.745   1.897
 3726SOL    HW112077   6.519   3.834   1.857
 3726SOL    HW212078   6.432   3.697   1.838
 3727SOL     OW12079   0.414   3.257   5.735
 3727SOL    HW112080   0.478   3.206   5.793
 3727SOL    HW212081   0.376   3.195   5.666
 3728SOL     OW12082   2.319   3.420   0.744
 3728SOL    HW112083   2.269   3.335   0.763
 3728SOL    HW212084   2.404   3.398   0.697
 3729SOL     OW12085   0.864   2.005   2.909
 3729SOL    HW112086   0.785   1.943   2.916
 3729SOL    HW212087   0.844   2.089   2.959
 3730SOL     OW12088   2.567   0.661   0.188
 3730SOL    HW112089   2.516   0.593   0.241
 3730SOL    HW212090   2.546   0.650   0.091
 3731SOL     OW12091   5.144   1.900   0.621
 3731SOL    HW112092   5.089   1.980   0.645
 3731SOL    HW212093   5.231   1.929   0.583
 3732SOL     OW12094   2.275   3.355   5.729
 3732SOL    HW112095   2.181   3.367   5.761
 3732SOL    HW212096   2.275   3.296   5.648
 3733SOL     OW12097   2.630   4.001   1.597
 3733SOL    HW112098   2.722   4.008   1.637
 3733SOL    HW212099   2.562   4.005   1.670
 3734SOL     OW12100   4.596   1.156   2.441
 3734SOL    HW112101   4.573   1.252   2.458
 3734SOL    HW212102   4.671   1.151   2.376
 3735SOL     OW12103   1.424   2.017   2.417
 3735SOL    HW112104   1.449   1.931   2.461
 3735SOL    HW212105   1.349   2.060   2.468
 3736SOL     OW12106   0.246   2.884   1.042
 3736SOL    HW112107   0.335   2.930   1.039
 3736SOL    HW212108   0.202   2.891   0.953
 3737SOL     OW12109   5.273   0.196   3.344
 3737SOL    HW112110   5.266   0.228   3.439
 3737SOL    HW212111   5.369   0.184   3.320
 3738SOL     OW12112   6.176   5.837   3.039
 3738SOL    HW112113   6.200   5.923   3.083
 3738SOL    HW212114   6.235   5.822   2.960
 3739SOL     OW12115   1.576   3.975   2.340
 3739SOL    HW112116   1.547   4.053   2.284
 3739SOL    HW212117   1.675   3.966   2.336
 3740SOL     OW12118   4.491   1.257   6.491
 3740SOL    HW112119   4.520   1.293   6.402
 3740SOL    HW212120   4.437   1.174   6.477
 3741SOL     OW12121   4.114   3.593   1.067
 3741SOL    HW112122   4.124   3.495   1.052
 3741SOL    HW212123   4.066   3.633   0.989
 3742SOL     OW12124   3.151   2.208   6.103
 3742SOL    HW112125   3.186   2.197   6.196
 3742SOL    HW212126   3.220   2.254   6.047
 3743SOL     OW12127   6.242   5.168   0.204
 3743SOL    HW112128   6.241   5.071   0.182
 3743SOL    HW212129   6.334   5.195   0.232
 3744SOL     OW12130   0.855   4.990   4.008
 3744SOL    HW112131   0.825   4.962   3.917
 3744SOL    HW212132   0.780   4.976   4.073
 3745SOL     OW12133   3.630   5.486   2.647
 3745SOL    HW112134   3.574   5.507   2.727
 3745SOL    HW212135   3.590   5.408   2.598
 3746SOL     OW12136   4.365   1.612   1.313
 3746SOL    HW112137   4.386   1.676   1.387
 3746SOL    HW212138   4.436   1.541   1.309
 3747SOL     OW12139   3.251   6.495   6.341
 3747SOL    HW112140   3.192   6.546   6.404
 3747SOL    HW212141   3.205   6.411   6.312
 3748SOL     OW12142   5.851   1.022   1.227
 3748SOL    HW112143   5.926   1.021   1.294
 3748SOL    HW212144   5.786   0.950   1.249
 3749SOL     OW12145   1.693   6.926   4.340
 3749SOL    HW112146   1.705   6.868   4.260
 3749SOL    HW212147   1.621   6.888   4.398
 3750SOL     OW12148   0.843   4.036   0.181
 3750SOL    HW112149   0.775   4.041   0.108
 3750SOL    HW212150   0.814   3.970   0.250
 3751SOL     OW12151   0.214   4.017   3.216
 3751SOL    HW112152   0.199   4.001   3.313
 3751SOL    HW212153   0.206   4.115   3.196
 3752SOL     OW12154   5.778   1.054   5.781
 3752SOL    HW112155   5.804   1.035   5.686
 3752SOL    HW212156   5.842   1.009   5.843
 3753SOL     OW12157   6.578   1.285   4.432
 3753SOL    HW112158   6.627   1.214   4.482
 3753SOL    HW212159   6.570   1.259   4.336
 3754SOL     OW12160   2.325   1.331   2.358
 3754SOL    HW112161   2.353   1.334   2.262
 3754SOL    HW212162   2.273   1.413   2.380
 3755SOL     OW12163   3.091   5.081   4.539
 3755SOL    HW112164   3.009   5.052   4.588
 3755SOL    HW212165   3.066   5.109   4.446
 3756SOL     OW12166   2.509   6.030   0.169
 3756SOL    HW112167   2.477   6.003   0.260
 3756SOL    HW212168   2.542   5.950   0.120
 3757SOL     OW12169   6.583   4.585   1.691
 3757SOL    HW112170   6.543   4.613   1.778
 3757SOL    HW212171   6.519   4.526   1.642
 3758SOL     OW12172   1.797   0.705   3.574
 3758SOL    HW112173   1.727   0.656   3.522
 3758SOL    HW212174   1.770   0.712   3.670
 3759SOL     OW12175   5.578   1.078   4.488
 3759SOL    HW112176   5.517   1.049   4.562
 3759SOL    HW212177   5.648   1.008   4.474
 3760SOL     OW12178   6.954   0.386   4.153
 3760SOL    HW112179   6.987   0.325   4.082
 3760SOL    HW212180   0.004   0.446   4.183
 3761SOL     OW12181   5.441   1.322   4.604
 3761SOL    HW112182   5.453   1.416   4.571
 3761SOL    HW212183   5.528   1.287   4.639
 3762SOL     OW12184   1.225   4.253   2.679
 3762SOL    HW112185   1.175   4.262   2.593
 3762SOL    HW212186   1.191   4.174   2.730
 3763SOL     OW12187   0.007   3.980   0.574
 3763SOL    HW112188   6.971   3.939   0.642
 3763SOL    HW212189   6.982   3.991   0.487
 3764SOL     OW12190   2.076   0.311   3.396
 3764SOL    HW112191   2.092   0.265   3.309
 3764SOL    HW212192   2.042   0.404   3.378
 3765SOL     OW12193   6.439   2.038   1.336
 3765SOL    HW112194   6.473   2.001   1.422
 3765SOL    HW212195   6.467   1.978   1.260
 3766SOL     OW12196   1.965   2.939   3.349
 3766SOL    HW112197   1.959   2.840   3.351
 3766SOL    HW212198   1.891   2.979   3.403
 3767SOL     OW12199   3.379   4.320   6.032
 3767SOL    HW112200   3.447   4.392   6.020
 3767SOL    HW212201   3.294   4.346   5.987
 3768SOL     OW12202   1.412   0.873   4.715
 3768SOL    HW112203   1.345   0.802   4.694
 3768SOL    HW212204   1.386   0.920   4.800
 3769SOL     OW12205   4.927   5.967   4.729
 3769SOL    HW112206   4.836   5.926   4.732
 3769SOL    HW212207   4.988   5.909   4.674
 3770SOL     OW12208   1.099   1.517   0.814
 3770SOL    HW112209   1.192   1.556   0.818
 3770SOL    HW212210   1.041   1.563   0.882
 3771SOL     OW12211   6.701   5.138   0.613
 3771SOL    HW112212   6.755   5.054   0.608
 3771SOL    HW212213   6.760   5.217   0.603
 3772SOL     OW12214   1.273   6.057   0.792
 3772SOL    HW112215   1.359   6.005   0.795
 3772SOL    HW212216   1.256   6.089   0.699
 3773SOL     OW12217   5.532   3.469   6.107
 3773SOL    HW112218   5.601   3.498   6.041
 3773SOL    HW212219   5.535   3.370   6.118
 3774SOL     OW12220   5.525   5.786   1.360
 3774SOL    HW112221   5.446   5.789   1.422
 3774SOL    HW212222   5.587   5.861   1.381
 3775SOL     OW12223   4.122   4.819   3.205
 3775SOL    HW112224   4.028   4.853   3.196
 3775SOL    HW212225   4.139   4.748   3.137
 3776SOL     OW12226   3.645   2.775   6.434
 3776SOL    HW112227   3.647   2.708   6.507
 3776SOL    HW212228   3.650   2.867   6.473
 3777SOL     OW12229   2.772   6.421   4.325
 3777SOL    HW112230   2.811   6.504   4.286
 3777SOL    HW212231   2.759   6.433   4.424
 3778SOL     OW12232   2.803   5.998   5.158
 3778SOL    HW112233   2.777   5.903   5.143
 3778SOL    HW212234   2.834   6.038   5.071
 3779SOL     OW12235   6.643   5.498   0.282
 3779SOL    HW112236   6.649   5.589   0.241
 3779SOL    HW212237   6.733   5.456   0.286
 3780SOL     OW12238   6.792   2.580   1.820
 3780SOL    HW112239   6.726   2.621   1.883
 3780SOL    HW212240   6.796   2.633   1.736
 3781SOL     OW12241   1.877   6.766   5.238
 3781SOL    HW112242   1.904   6.687   5.293
 3781SOL    HW212243   1.788   6.799   5.269
 3782SOL     OW12244   4.649   6.128   1.459
 3782SOL    HW112245   4.746   6.113   1.444
 3782SOL    HW212246   4.621   6.086   1.546
 3783SOL     OW12247   5.595   5.242   5.591
 3783SOL    HW112248   5.638   5.172   5.648
 3783SOL    HW212249   5.666   5.299   5.549
 3784SOL     OW12250   5.153   2.850   2.966
 3784SOL    HW112251   5.213   2.773   2.989
 3784SOL    HW212252   5.068   2.843   3.017
 3785SOL     OW12253   0.702   2.918   4.321
 3785SOL    HW112254   0.722   2.969   4.237
 3785SOL    HW212255   0.695   2.981   4.398
 3786SOL     OW12256   2.583   2.461   4.470
 3786SOL    HW112257   2.525   2.535   4.504
 3786SOL    HW212258   2.534   2.375   4.473
 3787SOL     OW12259   4.342   0.244   3.220
 3787SOL    HW112260   4.383   0.240   3.311
 3787SOL    HW212261   4.332   0.340   3.193
 3788SOL     OW12262   0.372   3.464   4.955
 3788SOL    HW112263   0.281   3.441   4.991
 3788SOL    HW212264   0.395   3.558   4.980
 3789SOL     OW12265   1.323   2.234   3.048
 3789SOL    HW112266   1.388   2.303   3.081
 3789SOL    HW212267   1.262   2.208   3.123
 3790SOL     OW12268   0.725   6.035   0.504
 3790SOL    HW112269   0.755   5.941   0.517
 3790SOL    HW212270   0.805   6.096   0.506
 3791SOL     OW12271   5.610   1.168   5.969
 3791SOL    HW112272   5.675   1.142   5.898
 3791SOL    HW212273   5.519   1.134   5.946
 3792SOL     OW12274   0.612   0.684   4.018
 3792SOL    HW112275   0.708   0.707   4.029
 3792SOL    HW212276   0.594   0.594   4.058
 3793SOL     OW12277   6.372   6.185   0.575
 3793SOL    HW112278   6.343   6.271   0.534
 3793SOL    HW212279   6.316   6.110   0.539
 3794SOL     OW12280   2.094   4.213   0.926
 3794SOL    HW112281   2.101   4.264   1.012
 3794SOL    HW212282   2.156   4.252   0.859
 3795SOL     OW12283   2.772   5.981   1.002
 3795SOL    HW112284   2.717   5.955   1.082
 3795SOL    HW212285   2.860   6.016   1.033
 3796SOL     OW12286   4.192   1.978   0.904
 3796SOL    HW112287   4.171   2.062   0.953
 3796SOL    HW212288   4.243   1.916   0.964
 3797SOL     OW12289   0.930   4.315   2.900
 3797SOL    HW112290   0.851   4.360   2.943
 3797SOL    HW212291   0.971   4.250   2.963
 3798SOL     OW12292   2.737   6.673   2.974
 3798SOL    HW112293   2.788   6.615   2.910
 3798SOL    HW212294   2.796   6.747   3.006
 3799SOL     OW12295   6.597   2.455   3.315
 3799SOL    HW112296   6.515   2.433   3.369
 3799SOL    HW212297   6.674   2.469   3.377
 3800SOL     OW12298   5.642   1.740   3.296
 3800SOL    HW112299   5.622   1.726   3.393
 3800SOL    HW212300   5.560   1.717   3.242
 3801SOL     OW12301   5.591   6.848   2.215
 3801SOL    HW112302   5.667   6.783   2.214
 3801SOL    HW212303   5.517   6.812   2.272
 3802SOL     OW12304   6.805   1.913   2.184
 3802SOL    HW112305   6.707   1.905   2.169
 3802SOL    HW212306   6.845   1.970   2.113
 3803SOL     OW12307   3.018   3.619   4.018
 3803SOL    HW112308   3.031   3.573   3.930
 3803SOL    HW212309   2.976   3.709   4.002
 3804SOL     OW12310   3.790   0.422   4.707
 3804SOL    HW112311   3.840   0.452   4.788
 3804SOL    HW212312   3.704   0.473   4.700
 3805SOL     OW12313   2.434   3.093   0.407
 3805SOL    HW112314   2.516   3.149   0.400
 3805SOL    HW212315   2.453   3.013   0.464
 3806SOL     OW12316   4.617   4.278   6.877
 3806SOL    HW112317   4.566   4.362   6.854
 3806SOL    HW212318   4.689   4.265   6.810
 3807SOL     OW12319   1.564   5.251   4.135
 3807SOL    HW112320   1.613   5.308   4.202
 3807SOL    HW212321   1.535   5.308   4.058
 3808SOL     OW12322   4.858   0.411   5.936
 3808SOL    HW112323   4.948   0.434   5.972
 3808SOL    HW212324   4.856   0.315   5.910
 3809SOL     OW12325   5.764   1.940   1.028
 3809SOL    HW112326   5.666   1.942   1.047
 3809SOL    HW212327   5.794   1.846   1.015
 3810SOL     OW12328   6.719   2.298   2.785
 3810SOL    HW112329   6.690   2.345   2.868
 3810SOL    HW212330   6.690   2.350   2.705
 3811SOL     OW12331   0.094   5.271   4.852
 3811SOL    HW112332   0.062   5.362   4.826
 3811SOL    HW212333   0.154   5.236   4.780
 3812SOL     OW12334   3.932   5.798   0.039
 3812SOL    HW112335   3.845   5.758   0.070
 3812SOL    HW212336   3.944   5.887   0.083
 3813SOL     OW12337   6.481   3.535   1.004
 3813SOL    HW112338   6.487   3.593   0.923
 3813SOL    HW212339   6.421   3.577   1.071
 3814SOL     OW12340   6.789   6.741   4.342
 3814SOL    HW112341   6.802   6.664   4.281
 3814SOL    HW212342   6.847   6.730   4.423
 3815SOL     OW12343   5.111   3.136   0.231
 3815SOL    HW112344   5.127   3.223   0.185
 3815SOL    HW212345   5.025   3.140   0.281
 3816SOL     OW12346   1.110   6.408   5.239
 3816SOL    HW112347   1.171   6.440   5.166
 3816SOL    HW212348   1.146   6.323   5.278
 3817SOL     OW12349   4.844   3.961   2.727
 3817SOL    HW112350   4.930   4.001   2.758
 3817SOL    HW212351   4.787   4.033   2.687
 3818SOL     OW12352   0.758   0.366   1.535
 3818SOL    HW112353   0.800   0.387   1.623
 3818SOL    HW212354   0.782   0.437   1.468
 3819SOL     OW12355   6.350   4.466   3.245
 3819SOL    HW112356   6.338   4.482   3.343
 3819SOL    HW212357   6.448   4.463   3.224
 3820SOL     OW12358   5.741   6.936   4.284
 3820SOL    HW112359   5.717   6.873   4.358
 3820SOL    HW212360   5.753   6.885   4.199
 3821SOL     OW12361   0.665   6.916   6.873
 3821SOL    HW112362   0.624   6.839   6.923
 3821SOL    HW212363   0.615   7.000   6.894
 3822SOL     OW12364   3.729   0.525   0.176
 3822SOL    HW112365   3.822   0.499   0.150
 3822SOL    HW212366   3.733   0.590   0.252
 3823SOL     OW12367   4.864   4.750   6.095
 3823SOL    HW112368   4.945   4.779   6.146
 3823SOL    HW212369   4.788   4.737   6.158
 3824SOL     OW12370   1.128   3.135   0.520
 3824SOL    HW112371   1.215   3.106   0.480
 3824SOL    HW212372   1.109   3.080   0.601
 3825SOL     OW12373   1.122   4.209   0.586
 3825SOL    HW112374   1.081   4.138   0.644
 3825SOL    HW212375   1.215   4.182   0.562
 3826SOL     OW12376   6.266   4.543   2.439
 3826SOL    HW112377   6.201   4.471   2.464
 3826SOL    HW212378   6.354   4.526   2.484
 3827SOL     OW12379   0.758   0.819   1.173
 3827SOL    HW112380   0.813   0.771   1.241
 3827SOL    HW212381   0.759   0.917   1.193
 3828SOL     OW12382   3.529   4.171   4.393
 3828SOL    HW112383   3.452   4.123   4.351
 3828SOL    HW212384   3.504   4.198   4.486
 3829SOL     OW12385   0.690   5.165   2.337
 3829SOL    HW112386   0.747   5.232   2.290
 3829SOL    HW212387   0.742   5.081   2.352
 3830SOL     OW12388   0.802   0.519   5.225
 3830SOL    HW112389   0.840   0.580   5.155
 3830SOL    HW212390   0.847   0.430   5.219
 3831SOL     OW12391   4.191   1.943   3.320
 3831SOL    HW112392   4.218   2.038   3.340
 3831SOL    HW212393   4.136   1.942   3.237
 3832SOL     OW12394   0.553   0.314   1.926
 3832SOL    HW112395   0.533   0.241   1.861
 3832SOL    HW212396   0.487   0.389   1.913
 3833SOL     OW12397   1.335   6.717   6.303
 3833SOL    HW112398   1.305   6.625   6.278
 3833SOL    HW212399   1.286   6.747   6.385
 3834SOL     OW12400   4.375   4.387   1.240
 3834SOL    HW112401   4.282   4.361   1.214
 3834SOL    HW212402   4.405   4.464   1.184
 3835SOL     OW12403   3.663   6.042   5.438
 3835SOL    HW112404   3.621   5.973   5.498
 3835SOL    HW212405   3.666   6.007   5.344
 3836SOL     OW12406   0.563   5.080   6.322
 3836SOL    HW112407   0.621   5.001   6.301
 3836SOL    HW212408   0.479   5.050   6.366
 3837SOL     OW12409   3.879   5.155   5.253
 3837SOL    HW112410   3.852   5.188   5.163
 3837SOL    HW212411   3.802   5.162   5.316
 3838SOL     OW12412   1.980   0.964   3.267
 3838SOL    HW112413   2.009   1.055   3.299
 3838SOL    HW212414   1.895   0.939   3.312
 3839SOL     OW12415   4.698   0.150   3.081
 3839SOL    HW112416   4.619   0.092   3.059
 3839SOL    HW212417   4.745   0.114   3.161
 3840SOL     OW12418   2.431   0.687   6.412
 3840SOL    HW112419   2.442   0.747   6.332
 3840SOL    HW212420   2.415   0.593   6.380
 3841SOL     OW12421   0.349   4.460   4.065
 3841SOL    HW112422   0.290   4.443   4.144
 3841SOL    HW212423   0.312   4.536   4.011
 3842SOL     OW12424   2.247   2.868   4.565
 3842SOL    HW112425   2.258   2.905   4.473
 3842SOL    HW212426   2.165   2.907   4.608
 3843SOL     OW12427   5.223   3.028   1.044
 3843SOL    HW112428   5.128   2.999   1.034
 3843SOL    HW212429   5.255   3.005   1.136
 3844SOL     OW12430   1.339   5.041   0.126
 3844SOL    HW112431   1.277   5.118   0.114
 3844SOL    HW212432   1.430   5.067   0.093
 3845SOL     OW12433   1.809   6.180   0.099
 3845SOL    HW112434   1.813   6.109   0.169
 3845SOL    HW212435   1.896   6.182   0.049
 3846SOL     OW12436   0.355   2.924   4.593
 3846SOL    HW112437   0.379   2.848   4.654
 3846SOL    HW212438   0.257   2.922   4.575
 3847SOL     OW12439   5.371   1.962   4.603
 3847SOL    HW112440   5.291   2.004   4.647
 3847SOL    HW212441   5.369   1.863   4.616
 3848SOL     OW12442   4.825   2.844   2.770
 3848SOL    HW112443   4.821   2.941   2.794
 3848SOL    HW212444   4.750   2.796   2.814
 3849SOL     OW12445   0.633   6.715   6.590
 3849SOL    HW112446   0.534   6.718   6.576
 3849SOL    HW212447   0.678   6.691   6.504
 3850SOL     OW12448   3.223   2.832   1.300
 3850SOL    HW112449   3.316   2.865   1.320
 3850SOL    HW212450   3.198   2.858   1.207
 3851SOL     OW12451   0.161   4.953   3.655
 3851SOL    HW112452   0.196   4.951   3.749
 3851SOL    HW212453   0.133   5.046   3.632
 3852SOL     OW12454   3.559   6.799   4.109
 3852SOL    HW112455   3.570   6.813   4.010
 3852SOL    HW212456   3.519   6.709   4.126
 3853SOL     OW12457   2.015   1.610   3.588
 3853SOL    HW112458   2.007   1.543   3.663
 3853SOL    HW212459   2.000   1.702   3.624
 3854SOL     OW12460   1.479   2.986   2.926
 3854SOL    HW112461   1.443   2.959   2.837
 3854SOL    HW212462   1.531   2.910   2.966
 3855SOL     OW12463   4.251   6.247   0.743
 3855SOL    HW112464   4.300   6.313   0.686
 3855SOL    HW212465   4.316   6.178   0.776
 3856SOL     OW12466   0.991   1.986   6.322
 3856SOL    HW112467   0.996   1.892   6.357
 3856SOL    HW212468   0.906   2.028   6.354
 3857SOL     OW12469   2.278   6.328   5.868
 3857SOL    HW112470   2.346   6.341   5.796
 3857SOL    HW212471   2.302   6.384   5.947
 3858SOL     OW12472   3.526   1.809   5.887
 3858SOL    HW112473   3.521   1.900   5.928
 3858SOL    HW212474   3.501   1.740   5.955
 3859SOL     OW12475   5.950   1.102   0.947
 3859SOL    HW112476   6.049   1.099   0.958
 3859SOL    HW212477   5.906   1.071   1.031
 3860SOL     OW12478   2.066   0.597   4.497
 3860SOL    HW112479   2.100   0.555   4.413
 3860SOL    HW212480   2.065   0.697   4.487
 3861SOL     OW12481   4.137   6.015   2.531
 3861SOL    HW112482   4.236   6.015   2.514
 3861SOL    HW212483   4.094   6.088   2.478
 3862SOL     OW12484   0.542   0.425   4.073
 3862SOL    HW112485   0.455   0.401   4.116
 3862SOL    HW212486   0.605   0.347   4.079
 3863SOL     OW12487   5.651   0.835   0.367
 3863SOL    HW112488   5.552   0.823   0.368
 3863SOL    HW212489   5.692   0.768   0.305
 3864SOL     OW12490   2.502   0.592   4.899
 3864SOL    HW112491   2.407   0.605   4.871
 3864SOL    HW212492   2.562   0.642   4.837
 3865SOL     OW12493   4.584   0.903   0.554
 3865SOL    HW112494   4.518   0.957   0.502
 3865SOL    HW212495   4.535   0.836   0.610
 3866SOL     OW12496   3.994   1.239   0.109
 3866SOL    HW112497   4.093   1.243   0.095
 3866SOL    HW212498   3.955   1.167   0.052
 3867SOL     OW12499   1.340   4.631   3.234
 3867SOL    HW112500   1.440   4.635   3.237
 3867SOL    HW212501   1.311   4.599   3.144
 3868SOL     OW12502   4.075   0.419   6.558
 3868SOL    HW112503   4.150   0.353   6.549
 3868SOL    HW212504   4.044   0.446   6.467
 3869SOL     OW12505   6.772   3.293   4.141
 3869SOL    HW112506   6.673   3.310   4.141
 3869SOL    HW212507   6.819   3.375   4.173
 3870SOL     OW12508   6.772   6.647   2.361
 3870SOL    HW112509   6.681   6.632   2.323
 3870SOL    HW212510   6.836   6.579   2.325
 3871SOL     OW12511   3.565   6.776   3.519
 3871SOL    HW112512   3.578   6.774   3.618
 3871SOL    HW212513   3.484   6.831   3.497
 3872SOL     OW12514   3.227   2.950   3.927
 3872SOL    HW112515   3.311   2.994   3.896
 3872SOL    HW212516   3.249   2.860   3.967
 3873SOL     OW12517   5.002   3.794   1.085
 3873SOL    HW112518   5.026   3.791   0.988
 3873SOL    HW212519   4.978   3.703   1.117
 3874SOL     OW12520   4.168   0.628   0.461
 3874SOL    HW112521   4.075   0.592   0.469
 3874SOL    HW212522   4.215   0.581   0.386
 3875SOL     OW12523   1.841   3.289   4.023
 3875SOL    HW112524   1.818   3.269   3.928
 3875SOL    HW212525   1.930   3.335   4.027
 3876SOL     OW12526   3.241   5.519   0.938
 3876SOL    HW112527   3.193   5.508   1.025
 3876SOL    HW212528   3.202   5.456   0.871
 3877SOL     OW12529   6.499   2.334   0.938
 3877SOL    HW112530   6.554   2.357   1.018
 3877SOL    HW212531   6.520   2.241   0.908
 3878SOL     OW12532   4.778   6.480   4.706
 3878SOL    HW112533   4.822   6.548   4.765
 3878SOL    HW212534   4.835   6.398   4.702
 3879SOL     OW12535   5.963   5.167   0.376
 3879SOL    HW112536   5.952   5.264   0.398
 3879SOL    HW212537   6.047   5.153   0.324
 3880SOL     OW12538   4.908   3.966   4.751
 3880SOL    HW112539   4.828   4.023   4.768
 3880SOL    HW212540   4.983   4.022   4.717
 3881SOL     OW12541   1.905   3.727   1.573
 3881SOL    HW112542   1.943   3.647   1.619
 3881SOL    HW212543   1.820   3.754   1.619
 3882SOL     OW12544   1.118   1.500   0.320
 3882SOL    HW112545   1.134   1.598   0.335
 3882SOL    HW212546   1.092   1.457   0.406
 3883SOL     OW12547   4.556   0.981   2.643
 3883SOL    HW112548   4.489   1.036   2.692
 3883SOL    HW212549   4.571   1.020   2.552
 3884SOL     OW12550   0.246   5.640   2.455
 3884SOL    HW112551   0.277   5.670   2.365
 3884SOL    HW212552   0.323   5.644   2.520
 3885SOL     OW12553   6.275   6.260   3.858
 3885SOL    HW112554   6.279   6.189   3.927
 3885SOL    HW212555   6.201   6.324   3.879
 3886SOL     OW12556   4.499   5.650   5.401
 3886SOL    HW112557   4.429   5.722   5.395
 3886SOL    HW212558   4.508   5.619   5.495
 3887SOL     OW12559   0.841   6.735   0.428
 3887SOL    HW112560   0.846   6.636   0.411
 3887SOL    HW212561   0.921   6.763   0.481
 3888SOL     OW12562   6.398   6.461   4.926
 3888SOL    HW112563   6.416   6.478   5.023
 3888SOL    HW212564   6.300   6.442   4.913
 3889SOL     OW12565   6.958   2.540   0.168
 3889SOL    HW112566   6.863   2.508   0.162
 3889SOL    HW212567   6.972   2.588   0.255
 3890SOL     OW12568   6.082   4.985   3.420
 3890SOL    HW112569   6.107   4.928   3.499
 3890SOL    HW212570   5.983   4.986   3.410
 3891SOL     OW12571   4.882   3.786   3.747
 3891SOL    HW112572   4.871   3.746   3.656
 3891SOL    HW212573   4.861   3.884   3.743
 3892SOL     OW12574   1.028   3.095   0.802
 3892SOL    HW112575   1.017   2.999   0.776
 3892SOL    HW212576   1.112   3.106   0.855
 3893SOL     OW12577   4.218   3.952   0.912
 3893SOL    HW112578   4.187   4.018   0.843
 3893SOL    HW212579   4.232   3.999   0.999
 3894SOL     OW12580   5.217   0.774   6.790
 3894SOL    HW112581   5.149   0.841   6.759
 3894SOL    HW212582   5.218   0.696   6.728
 3895SOL     OW12583   1.092   6.758   5.397
 3895SOL    HW112584   1.181   6.721   5.368
 3895SOL    HW212585   1.089   6.760   5.497
 3896SOL     OW12586   0.942   1.279   6.497
 3896SOL    HW112587   0.953   1.186   6.463
 3896SOL    HW212588   0.902   1.277   6.588
 3897SOL     OW12589   3.927   5.819   2.552
 3897SOL    HW112590   3.837   5.838   2.590
 3897SOL    HW212591   3.990   5.893   2.575
 3898SOL     OW12592   2.856   2.259   6.949
 3898SOL    HW112593   2.781   2.319   6.922
 3898SOL    HW212594   2.846   2.170   6.904
 3899SOL     OW12595   4.604   6.591   6.038
 3899SOL    HW112596   4.658   6.623   6.115
 3899SOL    HW212597   4.541   6.520   6.069
 3900SOL     OW12598   4.544   2.606   3.805
 3900SOL    HW112599   4.518   2.657   3.887
 3900SOL    HW212600   4.643   2.595   3.803
 3901SOL     OW12601   3.341   0.766   6.052
 3901SOL    HW112602   3.398   0.841   6.018
 3901SOL    HW212603   3.349   0.687   5.991
 3902SOL     OW12604   6.332   3.073   2.465
 3902SOL    HW112605   6.362   3.023   2.384
 3902SOL    HW212606   6.286   3.011   2.528
 3903SOL     OW12607   3.726   6.976   0.196
 3903SOL    HW112608   3.667   6.982   0.277
 3903SOL    HW212609   3.802   6.913   0.215
 3904SOL     OW12610   2.016   0.757   6.383
 3904SOL    HW112611   1.920   0.755   6.353
 3904SOL    HW212612   2.069   0.815   6.321
 3905SOL     OW12613   6.330   6.564   6.121
 3905SOL    HW112614   6.293   6.643   6.072
 3905SOL    HW212615   6.264   6.488   6.118
 3906SOL     OW12616   6.002   6.303   5.458
 3906SOL    HW112617   5.914   6.298   5.411
 3906SOL    HW212618   6.046   6.213   5.456
 3907SOL     OW12619   6.001   0.934   4.205
 3907SOL    HW112620   6.074   0.993   4.237
 3907SOL    HW212621   5.921   0.989   4.180
 3908SOL     OW12622   0.396   2.633   6.554
 3908SOL    HW112623   0.376   2.622   6.652
 3908SOL    HW212624   0.485   2.591   6.533
 3909SOL     OW12625   6.002   6.049   4.583
 3909SOL    HW112626   6.053   6.120   4.631
 3909SOL    HW212627   6.033   6.045   4.488
 3910SOL     OW12628   3.531   3.741   2.465
 3910SOL    HW112629   3.520   3.772   2.370
 3910SOL    HW212630   3.461   3.672   2.486
 3911SOL     OW12631   5.857   1.662   5.622
 3911SOL    HW112632   5.877   1.677   5.525
 3911SOL    HW212633   5.875   1.567   5.646
 3912SOL     OW12634   5.377   0.475   5.244
 3912SOL    HW112635   5.374   0.574   5.252
 3912SOL    HW212636   5.405   0.450   5.151
 3913SOL     OW12637   2.445   6.572   5.968
 3913SOL    HW112638   2.514   6.599   5.900
 3913SOL    HW212639   2.358   6.616   5.947
 3914SOL     OW12640   2.785   0.781   1.572
 3914SOL    HW112641   2.850   0.785   1.496
 3914SOL    HW212642   2.760   0.686   1.589
 3915SOL     OW12643   5.342   6.306   0.992
 3915SOL    HW112644   5.307   6.310   0.898
 3915SOL    HW212645   5.274   6.345   1.054
 3916SOL     OW12646   1.047   6.932   3.644
 3916SOL    HW112647   0.980   6.970   3.708
 3916SOL    HW212648   1.128   6.990   3.643
 3917SOL     OW12649   6.479   5.977   6.968
 3917SOL    HW112650   6.446   6.005   0.033
 3917SOL    HW212651   6.417   5.909   6.929
 3918SOL     OW12652   5.699   5.560   1.345
 3918SOL    HW112653   5.629   5.632   1.346
 3918SOL    HW212654   5.789   5.602   1.359
 3919SOL     OW12655   4.582   6.814   0.470
 3919SOL    HW112656   4.599   6.736   0.410
 3919SOL    HW212657   4.619   6.897   0.428
 3920SOL     OW12658   3.069   3.431   0.647
 3920SOL    HW112659   3.119   3.488   0.713
 3920SOL    HW212660   3.053   3.483   0.564
 3921SOL     OW12661   0.134   3.283   1.571
 3921SOL    HW112662   0.088   3.303   1.485
 3921SOL    HW212663   0.140   3.183   1.583
 3922SOL     OW12664   6.715   3.674   2.082
 3922SOL    HW112665   6.651   3.686   2.006
 3922SOL    HW212666   6.666   3.676   2.169
 3923SOL     OW12667   0.362   1.382   0.352
 3923SOL    HW112668   0.446   1.427   0.323
 3923SOL    HW212669   0.299   1.451   0.389
 3924SOL     OW12670   5.812   4.728   3.745
 3924SOL    HW112671   5.736   4.757   3.687
 3924SOL    HW212672   5.858   4.808   3.784
 3925SOL     OW12673   2.378   5.394   0.889
 3925SOL    HW112674   2.412   5.442   0.807
 3925SOL    HW212675   2.369   5.459   0.964
 3926SOL     OW12676   6.041   5.096   2.546
 3926SOL    HW112677   5.991   5.057   2.469
 3926SOL    HW212678   6.065   5.191   2.526
 3927SOL     OW12679   6.152   2.385   4.918
 3927SOL    HW112680   6.083   2.317   4.942
 3927SOL    HW212681   6.121   2.476   4.947
 3928SOL     OW12682   4.146   6.056   6.528
 3928SOL    HW112683   4.087   5.988   6.483
 3928SOL    HW212684   4.236   6.016   6.546
 3929SOL     OW12685   0.551   0.498   4.946
 3929SOL    HW112686   0.526   0.558   5.022
 3929SOL    HW212687   0.480   0.503   4.876
 3930SOL     OW12688   3.007   2.224   4.026
 3930SOL    HW112689   3.029   2.132   3.994
 3930SOL    HW212690   2.988   2.284   3.948
 3931SOL     OW12691   1.304   1.284   1.291
 3931SOL    HW112692   1.240   1.233   1.234
 3931SOL    HW212693   1.336   1.226   1.366
 3932SOL     OW12694   1.804   3.754   3.623
 3932SOL    HW112695   1.723   3.774   3.678
 3932SOL    HW212696   1.781   3.760   3.526
 3933SOL     OW12697   1.542   6.116   0.038
 3933SOL    HW112698   1.545   6.017   0.025
 3933SOL    HW212699   1.636   6.151   0.044
 3934SOL     OW12700   0.430   1.081   6.614
 3934SOL    HW112701   0.501   1.128   6.666
 3934SOL    HW212702   0.343   1.086   6.663
 3935SOL     OW12703   2.709   6.704   6.886
 3935SOL    HW112704   2.701   6.795   6.847
 3935SOL    HW212705   2.775   6.650   6.833
 3936SOL     OW12706   7.007   5.117   5.605
 3936SOL    HW112707   0.024   5.208   5.598
 3936SOL    HW212708   7.021   5.068   5.519
 3937SOL     OW12709   7.001   1.352   3.281
 3937SOL    HW112710   0.010   1.368   3.188
 3937SOL    HW212711   0.027   1.410   3.345
 3938SOL     OW12712   0.376   2.110   3.836
 3938SOL    HW112713   0.292   2.060   3.857
 3938SOL    HW212714   0.420   2.139   3.921
 3939SOL     OW12715   1.874   2.948   2.919
 3939SOL    HW112716   1.937   2.875   2.894
 3939SOL    HW212717   1.788   2.908   2.952
 3940SOL     OW12718   5.359   4.327   1.370
 3940SOL    HW112719   5.339   4.375   1.455
 3940SOL    HW212720   5.319   4.376   1.293
 3941SOL     OW12721   5.209   3.517   5.394
 3941SOL    HW112722   5.141   3.446   5.374
 3941SOL    HW212723   5.301   3.476   5.393
 3942SOL     OW12724   0.378   6.534   6.351
 3942SOL    HW112725   0.451   6.603   6.351
 3942SOL    HW212726   0.292   6.576   6.380
 3943SOL     OW12727   6.679   2.794   2.898
 3943SOL    HW112728   6.710   2.841   2.980
 3943SOL    HW212729   6.608   2.728   2.923
 3944SOL     OW12730   4.520   2.467   4.854
 3944SOL    HW112731   4.536   2.532   4.780
 3944SOL    HW212732   4.423   2.467   4.878
 3945SOL     OW12733   0.834   2.037   0.185
 3945SOL    HW112734   0.876   2.118   0.226
 3945SOL    HW212735   0.881   2.016   0.099
 3946SOL     OW12736   5.255   4.780   4.673
 3946SOL    HW112737   5.259   4.822   4.583
 3946SOL    HW212738   5.305   4.836   4.739
 3947SOL     OW12739   5.063   6.693   0.131
 3947SOL    HW112740   5.043   6.599   0.103
 3947SOL    HW212741   5.160   6.712   0.118
 3948SOL     OW12742   0.274   5.035   2.413
 3948SOL    HW112743   0.302   4.970   2.343
 3948SOL    HW212744   0.239   4.986   2.493
 3949SOL     OW12745   4.931   0.549   3.326
 3949SOL    HW112746   4.952   0.466   3.275
 3949SOL    HW212747   4.992   0.557   3.405
 3950SOL     OW12748   1.913   4.613   0.376
 3950SOL    HW112749   1.912   4.520   0.413
 3950SOL    HW212750   2.007   4.649   0.379
 3951SOL     OW12751   4.827   0.208   1.492
 3951SOL    HW112752   4.806   0.110   1.491
 3951SOL    HW212753   4.755   0.257   1.541
 3952SOL     OW12754   6.736   2.236   2.173
 3952SOL    HW112755   6.830   2.265   2.193
 3952SOL    HW212756   6.701   2.289   2.095
 3953SOL     OW12757   3.806   5.013   1.136
 3953SOL    HW112758   3.810   4.914   1.135
 3953SOL    HW212759   3.711   5.043   1.148
 3954SOL     OW12760   4.182   5.433   5.154
 3954SOL    HW112761   4.225   5.388   5.075
 3954SOL    HW212762   4.155   5.364   5.221
 3955SOL     OW12763   2.862   6.819   6.206
 3955SOL    HW112764   2.824   6.753   6.142
 3955SOL    HW212765   2.828   6.911   6.185
 3956SOL     OW12766   0.984   0.940   2.745
 3956SOL    HW112767   0.912   0.872   2.757
 3956SOL    HW212768   0.946   1.023   2.703
 3957SOL     OW12769   4.958   6.694   4.064
 3957SOL    HW112770   4.919   6.785   4.076
 3957SOL    HW212771   4.915   6.650   3.985
 3958SOL     OW12772   5.727   1.270   4.770
 3958SOL    HW112773   5.666   1.320   4.831
 3958SOL    HW212774   5.769   1.333   4.705
 3959SOL     OW12775   4.332   6.699   0.449
 3959SOL    HW112776   4.412   6.758   0.458
 3959SOL    HW212777   4.264   6.723   0.518
 3960SOL     OW12778   4.968   1.305   6.207
 3960SOL    HW112779   4.904   1.230   6.224
 3960SOL    HW212780   4.983   1.356   6.292
 3961SOL     OW12781   5.372   1.228   2.220
 3961SOL    HW112782   5.399   1.198   2.129
 3961SOL    HW212783   5.422   1.176   2.290
 3962SOL     OW12784   2.074   4.517   6.675
 3962SOL    HW112785   2.102   4.429   6.714
 3962SOL    HW212786   2.075   4.587   6.747
 3963SOL     OW12787   4.847   5.396   2.915
 3963SOL    HW112788   4.902   5.312   2.914
 3963SOL    HW212789   4.781   5.393   2.840
 3964SOL     OW12790   4.449   5.191   3.613
 3964SOL    HW112791   4.404   5.277   3.590
 3964SOL    HW212792   4.512   5.205   3.689
 3965SOL     OW12793   5.080   2.871   4.482
 3965SOL    HW112794   5.012   2.898   4.414
 3965SOL    HW212795   5.138   2.949   4.505
 3966SOL     OW12796   4.553   6.130   6.086
 3966SOL    HW112797   4.609   6.212   6.092
 3966SOL    HW212798   4.605   6.052   6.121
 3967SOL     OW12799   2.100   3.744   2.409
 3967SOL    HW112800   2.130   3.838   2.391
 3967SOL    HW212801   2.125   3.718   2.502
 3968SOL     OW12802   4.820   0.652   0.986
 3968SOL    HW112803   4.849   0.566   0.945
 3968SOL    HW212804   4.850   0.728   0.928
 3969SOL     OW12805   1.063   4.286   2.482
 3969SOL    HW112806   1.061   4.328   2.392
 3969SOL    HW212807   0.975   4.300   2.527
 3970SOL     OW12808   5.859   6.196   3.325
 3970SOL    HW112809   5.799   6.200   3.405
 3970SOL    HW212810   5.943   6.146   3.349
 3971SOL     OW12811   3.365   5.377   3.432
 3971SOL    HW112812   3.396   5.451   3.372
 3971SOL    HW212813   3.273   5.398   3.466
 3972SOL     OW12814   1.163   3.777   0.766
 3972SOL    HW112815   1.176   3.773   0.667
 3972SOL    HW212816   1.081   3.829   0.788
 3973SOL     OW12817   1.595   5.958   6.217
 3973SOL    HW112818   1.690   5.949   6.186
 3973SOL    HW212819   1.575   6.053   6.237
 3974SOL     OW12820   2.236   0.272   5.243
 3974SOL    HW112821   2.287   0.189   5.219
 3974SOL    HW212822   2.275   0.312   5.326
 3975SOL     OW12823   5.161   1.871   6.084
 3975SOL    HW112824   5.131   1.941   6.020
 3975SOL    HW212825   5.151   1.781   6.043
 3976SOL     OW12826   1.462   6.405   1.964
 3976SOL    HW112827   1.489   6.404   2.060
 3976SOL    HW212828   1.452   6.500   1.933
 3977SOL     OW12829   2.028   3.144   5.968
 3977SOL    HW112830   1.998   3.156   6.063
 3977SOL    HW212831   2.021   3.232   5.920
 3978SOL     OW12832   5.880   5.425   3.833
 3978SOL    HW112833   5.837   5.345   3.874
 3978SOL    HW212834   5.941   5.396   3.759
 3979SOL     OW12835   3.584   0.854   0.003
 3979SOL    HW112836   3.531   0.925   6.980
 3979SOL    HW212837   3.633   0.799   6.960
 3980SOL     OW12838   5.645   6.018   6.913
 3980SOL    HW112839   5.647   5.971   6.825
 3980SOL    HW212840   5.550   6.026   6.945
 3981SOL     OW12841   3.269   0.108   0.460
 3981SOL    HW112842   3.181   0.080   0.422
 3981SOL    HW212843   3.263   0.112   0.560
 3982SOL     OW12844   2.474   6.548   3.532
 3982SOL    HW112845   2.425   6.628   3.496
 3982SOL    HW212846   2.572   6.558   3.516
 3983SOL     OW12847   4.819   4.954   4.350
 3983SOL    HW112848   4.839   4.949   4.252
 3983SOL    HW212849   4.724   4.925   4.366
 3984SOL     OW12850   6.632   0.896   2.186
 3984SOL    HW112851   6.593   0.986   2.164
 3984SOL    HW212852   6.706   0.907   2.253
 3985SOL     OW12853   2.429   4.661   6.642
 3985SOL    HW112854   2.382   4.575   6.623
 3985SOL    HW212855   2.421   4.683   6.739
 3986SOL     OW12856   5.107   1.582   2.886
 3986SOL    HW112857   5.096   1.589   2.787
 3986SOL    HW212858   5.084   1.489   2.916
 3987SOL     OW12859   3.849   4.908   3.207
 3987SOL    HW112860   3.827   4.943   3.298
 3987SOL    HW212861   3.766   4.904   3.152
 3988SOL     OW12862   3.105   5.109   6.763
 3988SOL    HW112863   3.197   5.127   6.728
 3988SOL    HW212864   3.083   5.012   6.750
 3989SOL     OW12865   6.748   2.666   6.739
 3989SOL    HW112866   6.680   2.596   6.717
 3989SOL    HW212867   6.819   2.626   6.797
 3990SOL     OW12868   4.566   2.144   2.579
 3990SOL    HW112869   4.533   2.210   2.511
 3990SOL    HW212870   4.603   2.193   2.658
 3991SOL     OW12871   6.461   0.808   2.388
 3991SOL    HW112872   6.413   0.885   2.430
 3991SOL    HW212873   6.539   0.842   2.335
 3992SOL     OW12874   3.320   1.357   6.993
 3992SOL    HW112875   3.221   1.359   7.007
 3992SOL    HW212876   3.366   1.386   0.052
 3993SOL     OW12877   1.210   2.634   2.127
 3993SOL    HW112878   1.166   2.686   2.200
 3993SOL    HW212879   1.273   2.567   2.167
 3994SOL     OW12880   1.714   6.677   6.489
 3994SOL    HW112881   1.794   6.653   6.435
 3994SOL    HW212882   1.662   6.748   6.441
 3995SOL     OW12883   1.978   3.401   6.342
 3995SOL    HW112884   2.007   3.452   6.261
 3995SOL    HW212885   1.969   3.464   6.419
 3996SOL     OW12886   0.352   6.437   4.830
 3996SOL    HW112887   0.312   6.497   4.899
 3996SOL    HW212888   0.288   6.426   4.754
 3997SOL     OW12889   5.767   1.215   3.234
 3997SOL    HW112890   5.751   1.303   3.278
 3997SOL    HW212891   5.725   1.216   3.143
 3998SOL     OW12892   3.797   1.072   3.747
 3998SOL    HW112893   3.853   1.052   3.828
 3998SOL    HW212894   3.844   1.140   3.691
 3999SOL     OW12895   5.639   2.495   4.045
 3999SOL    HW112896   5.739   2.491   4.037
 3999SOL    HW212897   5.615   2.528   4.136
 4000SOL     OW12898   3.070   0.015   3.675
 4000SOL    HW112899   3.151   0.056   3.717
 4000SOL    HW212900   3.067   0.039   3.578
 4001SOL     OW12901   2.513   1.773   3.819
 4001SOL    HW112902   2.572   1.692   3.818
 4001SOL    HW212903   2.509   1.813   3.728
 4002SOL     OW12904   3.358   4.214   0.641
 4002SOL    HW112905   3.311   4.300   0.626
 4002SOL    HW212906   3.393   4.180   0.553
 4003SOL     OW12907   3.436   0.093   3.866
 4003SOL    HW112908   3.371   0.151   3.817
 4003SOL    HW212909   3.494   0.149   3.924
 4004SOL     OW12910   5.334   2.263   4.005
 4004SOL    HW112911   5.334   2.208   3.921
 4004SOL    HW212912   5.421   2.250   4.053
 4005SOL     OW12913   5.119   5.536   7.009
 4005SOL    HW112914   5.207   5.512   0.025
 4005SOL    HW212915   5.123   5.630   6.975
 4006SOL     OW12916   4.572   5.200   2.257
 4006SOL    HW112917   4.606   5.123   2.310
 4006SOL    HW212918   4.636   5.277   2.263
 4007SOL     OW12919   6.989   2.371   6.500
 4007SOL    HW112920   6.993   2.439   6.573
 4007SOL    HW212921   6.953   2.412   6.417
 4008SOL     OW12922   2.663   2.135   4.797
 4008SOL    HW112923   2.672   2.233   4.781
 4008SOL    HW212924   2.567   2.114   4.817
 4009SOL     OW12925   4.631   3.111   1.420
 4009SOL    HW112926   4.579   3.163   1.487
 4009SOL    HW212927   4.642   3.017   1.452
 4010SOL     OW12928   2.294   2.879   1.367
 4010SOL    HW112929   2.217   2.942   1.357
 4010SOL    HW212930   2.375   2.917   1.322
 4011SOL     OW12931   0.760   1.355   2.108
 4011SOL    HW112932   0.756   1.280   2.041
 4011SOL    HW212933   0.765   1.442   2.060
 4012SOL     OW12934   6.880   4.325   1.806
 4012SOL    HW112935   6.781   4.331   1.818
 4012SOL    HW212936   6.909   4.390   1.735
 4013SOL     OW12937   3.495   1.444   5.028
 4013SOL    HW112938   3.456   1.508   5.094
 4013SOL    HW212939   3.445   1.452   4.942
 4014SOL     OW12940   5.499   6.412   2.448
 4014SOL    HW112941   5.564   6.488   2.440
 4014SOL    HW212942   5.458   6.413   2.539
 4015SOL     OW12943   4.564   4.583   6.549
 4015SOL    HW112944   4.585   4.629   6.462
 4015SOL    HW212945   4.647   4.540   6.584
 4016SOL     OW12946   2.042   6.339   6.256
 4016SOL    HW112947   1.964   6.351   6.194
 4016SOL    HW212948   2.009   6.322   6.349
 4017SOL     OW12949   6.765   6.077   0.780
 4017SOL    HW112950   6.730   6.022   0.704
 4017SOL    HW212951   6.793   6.017   0.854
 4018SOL     OW12952   3.739   5.908   2.259
 4018SOL    HW112953   3.683   5.868   2.332
 4018SOL    HW212954   3.821   5.852   2.246
 4019SOL     OW12955   5.116   4.363   3.488
 4019SOL    HW112956   5.031   4.388   3.441
 4019SOL    HW212957   5.194   4.386   3.430
 4020SOL     OW12958   4.790   2.110   5.248
 4020SOL    HW112959   4.814   2.014   5.260
 4020SOL    HW212960   4.791   2.133   5.150
 4021SOL     OW12961   3.873   4.968   6.512
 4021SOL    HW112962   3.971   4.956   6.496
 4021SOL    HW212963   3.859   5.028   6.590
 4022SOL     OW12964   4.759   1.733   6.970
 4022SOL    HW112965   4.740   1.802   0.016
 4022SOL    HW212966   4.847   1.689   6.990
 4023SOL     OW12967   6.086   1.867   4.812
 4023SOL    HW112968   6.170   1.915   4.789
 4023SOL    HW212969   6.100   1.769   4.805
 4024SOL     OW12970   3.612   6.275   4.632
 4024SOL    HW112971   3.548   6.218   4.581
 4024SOL    HW212972   3.575   6.368   4.640
 4025SOL     OW12973   0.762   3.672   3.187
 4025SOL    HW112974   0.814   3.710   3.110
 4025SOL    HW212975   0.762   3.572   3.182
 4026SOL     OW12976   5.628   5.677   4.428
 4026SOL    HW112977   5.720   5.711   4.448
 4026SOL    HW212978   5.628   5.577   4.435
 4027SOL     OW12979   3.509   4.195   1.808
 4027SOL    HW112980   3.565   4.180   1.889
 4027SOL    HW212981   3.566   4.229   1.734
 4028SOL     OW12982   1.814   2.182   4.352
 4028SOL    HW112983   1.909   2.177   4.320
 4028SOL    HW212984   1.777   2.090   4.361
 4029SOL     OW12985   1.997   3.699   5.668
 4029SOL    HW112986   2.097   3.698   5.665
 4029SOL    HW212987   1.964   3.782   5.622
 4030SOL     OW12988   0.693   1.684   5.605
 4030SOL    HW112989   0.791   1.704   5.607
 4030SOL    HW212990   0.680   1.588   5.580
 4031SOL     OW12991   4.597   5.592   3.629
 4031SOL    HW112992   4.509   5.628   3.660
 4031SOL    HW212993   4.606   5.607   3.530
 4032SOL     OW12994   5.850   6.519   4.089
 4032SOL    HW112995   5.838   6.618   4.099
 4032SOL    HW212996   5.769   6.480   4.046
 4033SOL     OW12997   2.934   3.740   4.497
 4033SOL    HW112998   2.935   3.682   4.415
 4033SOL    HW212999   2.839   3.755   4.526
 4034SOL     OW13000   6.565   1.497   4.618
 4034SOL    HW113001   6.546   1.415   4.565
 4034SOL    HW213002   6.525   1.576   4.572
 4035SOL     OW13003   0.405   4.332   6.692
 4035SOL    HW113004   0.480   4.283   6.648
 4035SOL    HW213005   0.322   4.324   6.636
 4036SOL     OW13006   6.031   6.028   2.733
 4036SOL    HW113007   6.114   5.980   2.759
 4036SOL    HW213008   5.966   6.027   2.809
 4037SOL     OW13009   0.910   3.745   6.501
 4037SOL    HW113010   0.987   3.750   6.564
 4037SOL    HW213011   0.849   3.670   6.528
 4038SOL     OW13012   5.274   4.447   3.138
 4038SOL    HW113013   5.346   4.440   3.069
 4038SOL    HW213014   5.315   4.437   3.229
 4039SOL     OW13015   5.547   6.308   0.347
 4039SOL    HW113016   5.645   6.323   0.357
 4039SOL    HW213017   5.515   6.248   0.420
 4040SOL     OW13018   3.245   6.553   1.253
 4040SOL    HW113019   3.289   6.611   1.321
 4040SOL    HW213020   3.150   6.538   1.278
 4041SOL     OW13021   1.267   6.397   3.348
 4041SOL    HW113022   1.196   6.468   3.350
 4041SOL    HW213023   1.243   6.324   3.412
 4042SOL     OW13024   5.769   5.162   1.869
 4042SOL    HW113025   5.675   5.195   1.879
 4042SOL    HW213026   5.773   5.094   1.795
 4043SOL     OW13027   5.195   2.159   2.414
 4043SOL    HW113028   5.116   2.101   2.394
 4043SOL    HW213029   5.262   2.150   2.340
 4044SOL     OW13030   5.753   0.068   3.618
 4044SOL    HW113031   5.824   0.011   3.576
 4044SOL    HW213032   5.663   0.033   3.592
 4045SOL     OW13033   1.868   5.064   6.847
 4045SOL    HW113034   1.831   5.082   6.756
 4045SOL    HW213035   1.956   5.018   6.840
 4046SOL     OW13036   1.254   2.606   1.443
 4046SOL    HW113037   1.192   2.546   1.391
 4046SOL    HW213038   1.201   2.659   1.509
 4047SOL     OW13039   3.267   3.809   1.776
 4047SOL    HW113040   3.174   3.793   1.810
 4047SOL    HW213041   3.332   3.797   1.851
 4048SOL     OW13042   5.535   0.453   0.558
 4048SOL    HW113043   5.480   0.474   0.477
 4048SOL    HW213044   5.627   0.490   0.546
 4049SOL     OW13045   5.708   6.765   5.662
 4049SOL    HW113046   5.673   6.725   5.747
 4049SOL    HW213047   5.631   6.785   5.601
 4050SOL     OW13048   1.782   6.192   0.558
 4050SOL    HW113049   1.697   6.216   0.511
 4050SOL    HW213050   1.779   6.096   0.586
 4051SOL     OW13051   3.120   4.798   0.672
 4051SOL    HW113052   3.109   4.871   0.740
 4051SOL    HW213053   3.136   4.711   0.720
 4052SOL     OW13054   0.773   0.588   6.860
 4052SOL    HW113055   0.700   0.620   6.920
 4052SOL    HW213056   0.860   0.588   6.910
 4053SOL     OW13057   3.524   4.957   3.889
 4053SOL    HW113058   3.620   4.945   3.914
 4053SOL    HW213059   3.503   5.055   3.884
 4054SOL     OW13060   3.798   2.203   1.107
 4054SOL    HW113061   3.862   2.277   1.130
 4054SOL    HW213062   3.745   2.229   1.026
 4055SOL     OW13063   3.489   2.057   6.029
 4055SOL    HW113064   3.480   2.038   6.127
 4055SOL    HW213065   3.530   2.148   6.017
 4056SOL     OW13066   3.632   2.953   6.843
 4056SOL    HW113067   3.536   2.980   6.850
 4056SOL    HW213068   3.657   2.941   6.747
 4057SOL     OW13069   4.397   2.787   6.432
 4057SOL    HW113070   4.334   2.836   6.372
 4057SOL    HW213071   4.405   2.837   6.519
 4058SOL     OW13072   2.134   1.160   5.578
 4058SOL    HW113073   2.189   1.088   5.620
 4058SOL    HW213074   2.194   1.224   5.530
 4059SOL     OW13075   1.282   1.860   5.221
 4059SOL    HW113076   1.272   1.784   5.285
 4059SOL    HW213077   1.379   1.880   5.208
 4060SOL     OW13078   3.878   5.080   4.199
 4060SOL    HW113079   3.924   5.069   4.287
 4060SOL    HW213080   3.932   5.140   4.139
 4061SOL     OW13081   3.119   3.994   2.204
 4061SOL    HW113082   3.139   4.049   2.285
 4061SOL    HW213083   3.200   3.990   2.146
 4062SOL     OW13084   3.163   0.821   2.711
 4062SOL    HW113085   3.143   0.742   2.653
 4062SOL    HW213086   3.082   0.879   2.717
 4063SOL     OW13087   3.128   4.987   6.062
 4063SOL    HW113088   3.088   5.047   5.993
 4063SOL    HW213089   3.188   4.921   6.018
 4064SOL     OW13090   6.987   0.695   3.731
 4064SOL    HW113091   7.003   0.677   3.634
 4064SOL    HW213092   0.007   0.623   3.786
 4065SOL     OW13093   6.715   0.020   0.677
 4065SOL    HW113094   6.651   6.969   0.695
 4065SOL    HW213095   6.794   7.009   0.626
 4066SOL     OW13096   5.968   4.226   1.654
 4066SOL    HW113097   6.014   4.138   1.643
 4066SOL    HW213098   6.027   4.299   1.621
 4067SOL     OW13099   6.355   1.344   2.597
 4067SOL    HW113100   6.319   1.438   2.600
 4067SOL    HW213101   6.386   1.318   2.688
 4068SOL     OW13102   5.769   0.255   4.073
 4068SOL    HW113103   5.771   0.213   4.164
 4068SOL    HW213104   5.832   0.333   4.071
 4069SOL     OW13105   5.628   5.548   0.802
 4069SOL    HW113106   5.588   5.594   0.882
 4069SOL    HW213107   5.728   5.556   0.807
 4070SOL     OW13108   2.020   3.782   3.341
 4070SOL    HW113109   1.924   3.778   3.312
 4070SOL    HW213110   2.066   3.856   3.293
 4071SOL     OW13111   1.740   0.342   3.888
 4071SOL    HW113112   1.833   0.354   3.851
 4071SOL    HW213113   1.720   0.244   3.895
 4072SOL     OW13114   1.400   0.138   4.800
 4072SOL    HW113115   1.322   0.158   4.859
 4072SOL    HW213116   1.472   0.205   4.818
 4073SOL     OW13117   2.818   6.387   0.111
 4073SOL    HW113118   2.864   6.419   0.028
 4073SOL    HW213119   2.880   6.396   0.189
 4074SOL     OW13120   1.515   2.360   0.958
 4074SOL    HW113121   1.607   2.340   0.992
 4074SOL    HW213122   1.474   2.277   0.921
 4075SOL     OW13123   5.203   1.810   3.008
 4075SOL    HW113124   5.276   1.770   3.064
 4075SOL    HW213125   5.148   1.736   2.968
 4076SOL     OW13126   1.921   3.524   4.277
 4076SOL    HW113127   1.863   3.604   4.260
 4076SOL    HW213128   1.901   3.454   4.209
 4077SOL     OW13129   3.480   1.187   1.134
 4077SOL    HW113130   3.521   1.218   1.219
 4077SOL    HW213131   3.385   1.217   1.130
 4078SOL     OW13132   6.359   3.724   1.217
 4078SOL    HW113133   6.377   3.822   1.222
 4078SOL    HW213134   6.407   3.678   1.292
 4079SOL     OW13135   0.330   0.338   3.892
 4079SOL    HW113136   0.278   0.347   3.977
 4079SOL    HW213137   0.388   0.418   3.880
 4080SOL     OW13138   3.494   3.932   1.680
 4080SOL    HW113139   3.404   3.896   1.702
 4080SOL    HW213140   3.505   4.022   1.722
 4081SOL     OW13141   1.824   2.222   5.593
 4081SOL    HW113142   1.798   2.245   5.499
 4081SOL    HW213143   1.918   2.252   5.609
 4082SOL     OW13144   1.169   2.862   4.617
 4082SOL    HW113145   1.106   2.812   4.558
 4082SOL    HW213146   1.192   2.806   4.697
 4083SOL     OW13147   5.614   5.012   3.140
 4083SOL    HW113148   5.516   4.990   3.135
 4083SOL    HW213149   5.632   5.061   3.225
 4084SOL     OW13150   4.275   1.073   3.258
 4084SOL    HW113151   4.341   1.025   3.201
 4084SOL    HW213152   4.184   1.067   3.217
 4085SOL     OW13153   3.179   4.955   2.211
 4085SOL    HW113154   3.099   4.896   2.216
 4085SOL    HW213155   3.222   4.946   2.121
 4086SOL     OW13156   6.363   5.485   6.215
 4086SOL    HW113157   6.320   5.408   6.168
 4086SOL    HW213158   6.439   5.452   6.272
 4087SOL     OW13159   2.692   0.255   2.518
 4087SOL    HW113160   2.750   0.214   2.588
 4087SOL    HW213161   2.725   0.228   2.427
 4088SOL     OW13162   0.102   1.301   5.462
 4088SOL    HW113163   0.116   1.351   5.377
 4088SOL    HW213164   0.158   1.343   5.534
 4089SOL     OW13165   0.389   0.098   3.786
 4089SOL    HW113166   0.327   0.071   3.712
 4089SOL    HW213167   0.352   0.179   3.832
 4090SOL     OW13168   2.937   0.204   5.455
 4090SOL    HW113169   2.971   0.128   5.399
 4090SOL    HW213170   3.007   0.275   5.459
 4091SOL     OW13171   2.181   5.550   1.323
 4091SOL    HW113172   2.109   5.618   1.336
 4091SOL    HW213173   2.143   5.458   1.332
 4092SOL     OW13174   4.959   3.200   4.325
 4092SOL    HW113175   4.932   3.276   4.266
 4092SOL    HW213176   4.911   3.208   4.413
 4093SOL     OW13177   4.816   5.638   3.013
 4093SOL    HW113178   4.839   5.549   2.973
 4093SOL    HW213179   4.763   5.624   3.097
 4094SOL     OW13180   0.110   5.716   6.847
 4094SOL    HW113181   0.144   5.786   6.785
 4094SOL    HW213182   0.132   5.626   6.810
 4095SOL     OW13183   0.165   5.068   6.654
 4095SOL    HW113184   0.144   5.150   6.602
 4095SOL    HW213185   0.081   5.018   6.675
 4096SOL     OW13186   1.590   2.150   7.023
 4096SOL    HW113187   1.561   2.157   6.928
 4096SOL    HW213188   1.667   2.212   0.015
 4097SOL     OW13189   7.014   4.534   4.988
 4097SOL    HW113190   6.989   4.614   4.933
 4097SOL    HW213191   0.090   4.526   4.991
 4098SOL     OW13192   2.350   5.056   3.315
 4098SOL    HW113193   2.353   5.018   3.223
 4098SOL    HW213194   2.266   5.026   3.361
 4099SOL     OW13195   4.367   4.840   6.152
 4099SOL    HW113196   4.390   4.849   6.055
 4099SOL    HW213197   4.326   4.750   6.168
 4100SOL     OW13198   1.301   0.665   3.525
 4100SOL    HW113199   1.311   0.654   3.624
 4100SOL    HW213200   1.220   0.615   3.494
 4101SOL     OW13201   6.684   0.534   0.377
 4101SOL    HW113202   6.761   0.598   0.381
 4101SOL    HW213203   6.630   0.551   0.295
 4102SOL     OW13204   1.663   0.786   6.957
 4102SOL    HW113205   1.739   0.723   6.938
 4102SOL    HW213206   1.697   0.880   6.959
 4103SOL     OW13207   1.454   6.487   2.608
 4103SOL    HW113208   1.363   6.506   2.644
 4103SOL    HW213209   1.477   6.391   2.625
 4104SOL     OW13210   0.324   5.727   3.969
 4104SOL    HW113211   0.394   5.736   3.898
 4104SOL    HW213212   0.233   5.738   3.928
 4105SOL     OW13213   4.987   1.077   0.955
 4105SOL    HW113214   5.003   1.127   1.040
 4105SOL    HW213215   4.918   1.006   0.970
 4106SOL     OW13216   6.808   2.483   3.462
 4106SOL    HW113217   6.746   2.485   3.540
 4106SOL    HW213218   6.855   2.395   3.460
 4107SOL     OW13219   6.939   6.514   6.665
 4107SOL    HW113220   7.011   6.447   6.683
 4107SOL    HW213221   6.863   6.470   6.617
 4108SOL     OW13222   6.462   5.300   3.755
 4108SOL    HW113223   6.417   5.313   3.666
 4108SOL    HW213224   6.450   5.383   3.810
 4109SOL     OW13225   5.974   6.653   3.219
 4109SOL    HW113226   5.966   6.561   3.180
 4109SOL    HW213227   6.010   6.647   3.312
 4110SOL     OW13228   4.868   4.163   0.176
 4110SOL    HW113229   4.845   4.255   0.144
 4110SOL    HW213230   4.963   4.142   0.154
 4111SOL     OW13231   6.859   3.928   4.122
 4111SOL    HW113232   6.835   3.928   4.025
 4111SOL    HW213233   6.825   4.011   4.165
 4112SOL     OW13234   4.898   0.072   5.146
 4112SOL    HW113235   4.951   7.020   5.110
 4112SOL    HW213236   4.802   0.061   5.120
 4113SOL     OW13237   4.288   4.743   4.720
 4113SOL    HW113238   4.304   4.710   4.626
 4113SOL    HW213239   4.292   4.665   4.783
 4114SOL     OW13240   6.925   1.371   2.500
 4114SOL    HW113241   6.847   1.433   2.498
 4114SOL    HW213242   6.935   1.327   2.410
 4115SOL     OW13243   3.393   4.948   4.232
 4115SOL    HW113244   3.477   5.000   4.215
 4115SOL    HW213245   3.414   4.850   4.228
 4116SOL     OW13246   5.169   2.575   3.504
 4116SOL    HW113247   5.208   2.530   3.583
 4116SOL    HW213248   5.226   2.559   3.424
 4117SOL     OW13249   1.006   2.365   2.985
 4117SOL    HW113250   1.077   2.307   3.026
 4117SOL    HW213251   1.045   2.416   2.909
 4118SOL     OW13252   6.943   6.730   6.376
 4118SOL    HW113253   6.886   6.804   6.340
 4118SOL    HW213254   6.886   6.665   6.425
 4119SOL     OW13255   2.361   1.492   3.529
 4119SOL    HW113256   2.359   1.409   3.474
 4119SOL    HW213257   2.332   1.472   3.622
 4120SOL     OW13258   2.099   1.234   6.258
 4120SOL    HW113259   2.083   1.136   6.249
 4120SOL    HW213260   2.062   1.281   6.177
 4121SOL     OW13261   6.790   6.767   1.698
 4121SOL    HW113262   6.833   6.724   1.618
 4121SOL    HW213263   6.705   6.812   1.670
 4122SOL     OW13264   6.665   4.861   4.227
 4122SOL    HW113265   6.758   4.860   4.188
 4122SOL    HW213266   6.626   4.953   4.217
 4123SOL     OW13267   3.852   4.901   2.434
 4123SOL    HW113268   3.918   4.850   2.489
 4123SOL    HW213269   3.848   4.862   2.342
 4124SOL     OW13270   6.601   5.955   0.373
 4124SOL    HW113271   6.611   5.924   0.467
 4124SOL    HW213272   6.664   6.031   0.356
 4125SOL     OW13273   5.644   2.062   2.080
 4125SOL    HW113274   5.730   2.012   2.075
 4125SOL    HW213275   5.569   1.999   2.101
 4126SOL     OW13276   0.917   3.212   1.955
 4126SOL    HW113277   0.929   3.135   1.893
 4126SOL    HW213278   0.999   3.222   2.012
 4127SOL     OW13279   3.734   1.812   4.109
 4127SOL    HW113280   3.759   1.748   4.036
 4127SOL    HW213281   3.765   1.904   4.084
 4128SOL     OW13282   0.059   3.254   0.895
 4128SOL    HW113283   6.994   3.217   0.870
 4128SOL    HW213284   0.064   3.349   0.865
 4129SOL     OW13285   2.699   2.850   0.862
 4129SOL    HW113286   2.691   2.776   0.794
 4129SOL    HW213287   2.692   2.811   0.954
 4130SOL     OW13288   5.696   2.788   1.193
 4130SOL    HW113289   5.735   2.822   1.108
 4130SOL    HW213290   5.633   2.857   1.230
 4131SOL     OW13291   4.615   0.723   2.638
 4131SOL    HW113292   4.588   0.816   2.662
 4131SOL    HW213293   4.679   0.688   2.706
 4132SOL     OW13294   6.884   4.198   4.434
 4132SOL    HW113295   6.930   4.247   4.359
 4132SOL    HW213296   6.936   4.116   4.456
 4133SOL     OW13297   5.753   0.079   2.267
 4133SOL    HW113298   5.685   0.147   2.294
 4133SOL    HW213299   5.712   7.012   2.269
 4134SOL     OW13300   2.253   3.318   1.141
 4134SOL    HW113301   2.204   3.256   1.079
 4134SOL    HW213302   2.337   3.275   1.172
 4135SOL     OW13303   0.168   1.158   2.230
 4135SOL    HW113304   0.232   1.194   2.161
 4135SOL    HW213305   0.207   1.077   2.272
 4136SOL     OW13306   1.283   4.761   2.104
 4136SOL    HW113307   1.374   4.735   2.136
 4136SOL    HW213308   1.271   4.732   2.010
 4137SOL     OW13309   1.436   2.861   0.307
 4137SOL    HW113310   1.470   2.879   0.214
 4137SOL    HW213311   1.480   2.779   0.343
 4138SOL     OW13312   4.864   6.542   0.804
 4138SOL    HW113313   4.813   6.471   0.854
 4138SOL    HW213314   4.956   6.550   0.841
 4139SOL     OW13315   2.100   2.436   2.889
 4139SOL    HW113316   2.083   2.534   2.899
 4139SOL    HW213317   2.172   2.408   2.951
 4140SOL     OW13318   2.426   2.278   5.011
 4140SOL    HW113319   2.396   2.317   5.098
 4140SOL    HW213320   2.416   2.347   4.939
 4141SOL     OW13321   4.402   0.069   6.995
 4141SOL    HW113322   4.312   0.082   6.955
 4141SOL    HW213323   4.471   0.112   6.937
 4142SOL     OW13324   0.009   4.454   3.009
 4142SOL    HW113325   6.988   4.403   3.082
 4142SOL    HW213326   6.969   4.470   2.934
 4143SOL     OW13327   5.874   3.100   0.821
 4143SOL    HW113328   5.797   3.132   0.877
 4143SOL    HW213329   5.874   3.001   0.817
 4144SOL     OW13330   5.805   1.798   0.588
 4144SOL    HW113331   5.757   1.744   0.657
 4144SOL    HW213332   5.741   1.865   0.548
 4145SOL     OW13333   0.401   6.735   1.596
 4145SOL    HW113334   0.309   6.699   1.605
 4145SOL    HW213335   0.430   6.729   1.500
 4146SOL     OW13336   5.189   6.930   3.612
 4146SOL    HW113337   5.282   6.966   3.607
 4146SOL    HW213338   5.159   6.930   3.707
 4147SOL     OW13339   4.935   4.439   5.535
 4147SOL    HW113340   5.016   4.444   5.477
 4147SOL    HW213341   4.952   4.378   5.612
 4148SOL     OW13342   2.849   1.479   5.924
 4148SOL    HW113343   2.771   1.451   5.980
 4148SOL    HW213344   2.901   1.398   5.896
 4149SOL     OW13345   1.900   2.865   0.279
 4149SOL    HW113346   1.920   2.883   0.375
 4149SOL    HW213347   1.802   2.847   0.268
 4150SOL     OW13348   5.751   2.452   6.280
 4150SOL    HW113349   5.698   2.489   6.203
 4150SOL    HW213350   5.716   2.361   6.304
 4151SOL     OW13351   2.428   6.541   4.573
 4151SOL    HW113352   2.349   6.487   4.602
 4151SOL    HW213353   2.405   6.638   4.577
 4152SOL     OW13354   3.030   5.377   1.645
 4152SOL    HW113355   3.061   5.296   1.596
 4152SOL    HW213356   2.983   5.439   1.581
 4153SOL     OW13357   6.914   4.913   1.846
 4153SOL    HW113358   6.969   4.976   1.791
 4153SOL    HW213359   6.819   4.916   1.815
 4154SOL     OW13360   1.283   5.860   4.689
 4154SOL    HW113361   1.361   5.921   4.700
 4154SOL    HW213362   1.198   5.913   4.696
 4155SOL     OW13363   0.980   2.435   1.587
 4155SOL    HW113364   0.999   2.364   1.654
 4155SOL    HW213365   0.959   2.521   1.634
 4156SOL     OW13366   0.014   5.314   5.234
 4156SOL    HW113367   0.083   5.250   5.199
 4156SOL    HW213368   7.005   5.370   5.159
 4157SOL     OW13369   6.919   6.160   1.999
 4157SOL    HW113370   6.957   6.189   2.086
 4157SOL    HW213371   6.949   6.066   1.979
 4158SOL     OW13372   1.365   2.442   2.208
 4158SOL    HW113373   1.375   2.387   2.125
 4158SOL    HW213374   1.382   2.386   2.289
 4159SOL     OW13375   2.979   1.639   3.666
 4159SOL    HW113376   2.955   1.731   3.698
 4159SOL    HW213377   2.986   1.578   3.745
 4160SOL     OW13378   6.504   0.231   6.261
 4160SOL    HW113379   6.492   0.151   6.202
 4160SOL    HW213380   6.417   0.279   6.271
 4161SOL     OW13381   3.140   2.379   1.462
 4161SOL    HW113382   3.080   2.334   1.528
 4161SOL    HW213383   3.094   2.387   1.374
 4162SOL     OW13384   6.398   6.650   1.551
 4162SOL    HW113385   6.445   6.573   1.596
 4162SOL    HW213386   6.397   6.635   1.452
 4163SOL     OW13387   4.045   6.523   1.325
 4163SOL    HW113388   4.033   6.573   1.239
 4163SOL    HW213389   4.057   6.425   1.305
 4164SOL     OW13390   7.004   6.961   4.957
 4164SOL    HW113391   6.932   6.894   4.939
 4164SOL    HW213392   6.974   7.023   5.030
 4165SOL     OW13393   4.637   1.117   5.746
 4165SOL    HW113394   4.701   1.156   5.680
 4165SOL    HW213395   4.606   1.027   5.714
 4166SOL     OW13396   6.035   0.710   2.704
 4166SOL    HW113397   6.027   0.611   2.715
 4166SOL    HW213398   5.979   0.755   2.774
 4167SOL     OW13399   3.996   4.849   5.487
 4167SOL    HW113400   4.051   4.849   5.403
 4167SOL    HW213401   3.949   4.936   5.497
 4168SOL     OW13402   6.066   4.399   0.510
 4168SOL    HW113403   6.025   4.309   0.528
 4168SOL    HW213404   6.128   4.392   0.431
 4169SOL     OW13405   4.886   3.917   5.020
 4169SOL    HW113406   4.792   3.886   5.032
 4169SOL    HW213407   4.912   3.908   4.923
 4170SOL     OW13408   5.850   3.284   4.437
 4170SOL    HW113409   5.899   3.370   4.455
 4170SOL    HW213410   5.788   3.265   4.513
 4171SOL     OW13411   1.372   3.870   0.903
 4171SOL    HW113412   1.294   3.827   0.857
 4171SOL    HW213413   1.434   3.909   0.835
 4172SOL     OW13414   2.942   3.957   0.706
 4172SOL    HW113415   2.925   4.042   0.757
 4172SOL    HW213416   2.855   3.923   0.669
 4173SOL     OW13417   4.533   2.774   5.169
 4173SOL    HW113418   4.449   2.822   5.144
 4173SOL    HW213419   4.578   2.740   5.086
 4174SOL     OW13420   4.470   0.735   4.515
 4174SOL    HW113421   4.496   0.724   4.611
 4174SOL    HW213422   4.425   0.651   4.483
 4175SOL     OW13423   1.813   4.520   6.557
 4175SOL    HW113424   1.760   4.482   6.632
 4175SOL    HW213425   1.903   4.548   6.591
 4176SOL     OW13426   4.814   6.469   6.481
 4176SOL    HW113427   4.893   6.465   6.542
 4176SOL    HW213428   4.762   6.384   6.489
 4177SOL     OW13429   4.640   4.728   4.159
 4177SOL    HW113430   4.633   4.825   4.137
 4177SOL    HW213431   4.719   4.713   4.218
 4178SOL     OW13432   3.113   5.647   2.209
 4178SOL    HW113433   3.144   5.667   2.117
 4178SOL    HW213434   3.056   5.565   2.208
 4179SOL     OW13435   4.945   2.916   4.252
 4179SOL    HW113436   4.889   2.998   4.247
 4179SOL    HW213437   4.912   2.848   4.186
 4180SOL     OW13438   5.377   3.157   0.301
 4180SOL    HW113439   5.383   3.134   0.398
 4180SOL    HW213440   5.286   3.130   0.267
 4181SOL     OW13441   5.231   0.043   5.475
 4181SOL    HW113442   5.183   0.004   5.554
 4181SOL    HW213443   5.290   6.996   5.435
 4182SOL     OW13444   0.069   6.109   4.005
 4182SOL    HW113445   0.120   6.083   4.087
 4182SOL    HW213446   6.995   6.102   4.022
 4183SOL     OW13447   2.839   1.518   2.190
 4183SOL    HW113448   2.797   1.598   2.148
 4183SOL    HW213449   2.768   1.454   2.220
 4184SOL     OW13450   3.179   6.211   3.093
 4184SOL    HW113451   3.097   6.227   3.037
 4184SOL    HW213452   3.152   6.172   3.181
 4185SOL     OW13453   6.791   3.899   3.223
 4185SOL    HW113454   6.727   3.905   3.146
 4185SOL    HW213455   6.740   3.879   3.307
 4186SOL     OW13456   1.577   5.874   6.932
 4186SOL    HW113457   1.590   5.783   6.893
 4186SOL    HW213458   1.611   5.943   6.868
 4187SOL     OW13459   1.510   3.518   6.696
 4187SOL    HW113460   1.548   3.519   6.603
 4187SOL    HW213461   1.575   3.478   6.759
 4188SOL     OW13462   4.920   0.313   6.943
 4188SOL    HW113463   4.830   0.275   6.964
 4188SOL    HW213464   4.921   0.347   6.849
 4189SOL     OW13465   4.862   5.813   2.809
 4189SOL    HW113466   4.917   5.777   2.734
 4189SOL    HW213467   4.881   5.760   2.892
 4190SOL     OW13468   0.443   7.021   0.875
 4190SOL    HW113469   0.363   0.046   0.841
 4190SOL    HW213470   0.502   6.995   0.799
 4191SOL     OW13471   4.805   4.328   6.020
 4191SOL    HW113472   4.730   4.289   5.967
 4191SOL    HW213473   4.837   4.261   6.088
 4192SOL     OW13474   1.180   2.016   2.256
 4192SOL    HW113475   1.199   2.084   2.185
 4192SOL    HW213476   1.266   1.971   2.282
 4193SOL     OW13477   6.104   0.789   1.166
 4193SOL    HW113478   6.110   0.874   1.219
 4193SOL    HW213479   6.187   0.735   1.181
 4194SOL     OW13480   4.547   1.068   5.459
 4194SOL    HW113481   4.574   1.141   5.522
 4194SOL    HW213482   4.595   1.080   5.372
 4195SOL     OW13483   4.593   6.024   1.784
 4195SOL    HW113484   4.506   6.000   1.828
 4195SOL    HW213485   4.643   6.088   1.843
 4196SOL     OW13486   6.572   2.034   3.364
 4196SOL    HW113487   6.624   2.080   3.291
 4196SOL    HW213488   6.474   2.049   3.349
 4197SOL     OW13489   3.506   6.426   6.448
 4197SOL    HW113490   3.416   6.443   6.408
 4197SOL    HW213491   3.503   6.448   6.546
 4198SOL     OW13492   6.747   0.481   2.335
 4198SOL    HW113493   6.670   0.488   2.271
 4198SOL    HW213494   6.811   0.556   2.318
 4199SOL     OW13495   1.460   4.244   6.197
 4199SOL    HW113496   1.369   4.270   6.167
 4199SOL    HW213497   1.459   4.223   6.295
 4200SOL     OW13498   4.407   0.622   5.251
 4200SOL    HW113499   4.409   0.687   5.328
 4200SOL    HW213500   4.357   0.662   5.175
 4201SOL     OW13501   6.229   6.923   3.986
 4201SOL    HW113502   6.226   6.915   4.086
 4201SOL    HW213503   6.325   6.931   3.957
 4202SOL     OW13504   3.886   5.992   0.319
 4202SOL    HW113505   3.909   6.062   0.387
 4202SOL    HW213506   3.872   5.905   0.366
 4203SOL     OW13507   5.609   5.360   0.321
 4203SOL    HW113508   5.515   5.326   0.310
 4203SOL    HW213509   5.608   5.445   0.373
 4204SOL     OW13510   3.251   3.721   5.732
 4204SOL    HW113511   3.250   3.622   5.714
 4204SOL    HW213512   3.342   3.757   5.711
 4205SOL     OW13513   3.629   5.789   5.060
 4205SOL    HW113514   3.723   5.770   5.089
 4205SOL    HW213515   3.590   5.708   5.016
 4206SOL     OW13516   1.778   1.992   4.817
 4206SOL    HW113517   1.791   2.060   4.746
 4206SOL    HW213518   1.850   2.001   4.886
 4207SOL     OW13519   2.502   2.545   1.236
 4207SOL    HW113520   2.406   2.564   1.253
 4207SOL    HW213521   2.553   2.550   1.323
 4208SOL     OW13522   1.844   4.122   5.018
 4208SOL    HW113523   1.862   4.084   5.108
 4208SOL    HW213524   1.851   4.050   4.949
 4209SOL     OW13525   0.032   5.799   2.579
 4209SOL    HW113526   0.042   5.809   2.678
 4209SOL    HW213527   0.119   5.772   2.539
 4210SOL     OW13528   4.082   3.540   4.873
 4210SOL    HW113529   3.999   3.559   4.822
 4210SOL    HW213530   4.138   3.475   4.822
 4211SOL     OW13531   3.526   2.118   5.242
 4211SOL    HW113532   3.571   2.029   5.253
 4211SOL    HW213533   3.430   2.103   5.216
 4212SOL     OW13534   0.133   1.215   3.915
 4212SOL    HW113535   0.230   1.190   3.912
 4212SOL    HW213536   0.080   1.145   3.867
 4213SOL     OW13537   2.997   0.978   2.883
 4213SOL    HW113538   2.964   0.955   2.975
 4213SOL    HW213539   2.922   0.969   2.818
 4214SOL     OW13540   0.786   5.243   3.956
 4214SOL    HW113541   0.723   5.270   4.029
 4214SOL    HW213542   0.844   5.169   3.989
 4215SOL     OW13543   4.894   6.290   4.983
 4215SOL    HW113544   4.896   6.267   4.886
 4215SOL    HW213545   4.988   6.290   5.019
 4216SOL     OW13546   1.622   0.611   2.989
 4216SOL    HW113547   1.535   0.657   3.010
 4216SOL    HW213548   1.616   0.568   2.899
 4217SOL     OW13549   1.238   7.020   1.934
 4217SOL    HW113550   1.286   6.982   1.855
 4217SOL    HW213551   1.163   0.054   1.904
 4218SOL     OW13552   3.510   1.506   1.115
 4218SOL    HW113553   3.440   1.443   1.148
 4218SOL    HW213554   3.492   1.528   1.019
 4219SOL     OW13555   4.443   6.194   4.310
 4219SOL    HW113556   4.422   6.104   4.347
 4219SOL    HW213557   4.416   6.264   4.375
 4220SOL     OW13558   5.148   2.224   1.665
 4220SOL    HW113559   5.095   2.287   1.722
 4220SOL    HW213560   5.092   2.144   1.644
 4221SOL     OW13561   6.507   5.232   6.632
 4221SOL    HW113562   6.565   5.302   6.675
 4221SOL    HW213563   6.433   5.276   6.582
 4222SOL     OW13564   5.244   2.097   3.799
 4222SOL    HW113565   5.314   2.030   3.820
 4222SOL    HW213566   5.193   2.069   3.717
 4223SOL     OW13567   4.195   4.034   1.327
 4223SOL    HW113568   4.249   3.993   1.401
 4223SOL    HW213569   4.115   3.978   1.309
 4224SOL     OW13570   5.192   4.161   4.935
 4224SOL    HW113571   5.286   4.193   4.921
 4224SOL    HW213572   5.135   4.190   4.857
 4225SOL     OW13573   0.677   2.149   5.230
 4225SOL    HW113574   0.759   2.205   5.218
 4225SOL    HW213575   0.700   2.069   5.285
 4226SOL     OW13576   0.262   5.620   4.826
 4226SOL    HW113577   0.297   5.701   4.873
 4226SOL    HW213578   0.330   5.546   4.833
 4227SOL     OW13579   4.968   5.752   1.749
 4227SOL    HW113580   4.977   5.836   1.801
 4227SOL    HW213581   5.041   5.689   1.774
 4228SOL     OW13582   1.034   5.976   4.724
 4228SOL    HW113583   0.948   5.926   4.714
 4228SOL    HW213584   1.019   6.073   4.706
 4229SOL     OW13585   5.866   5.648   5.912
 4229SOL    HW113586   5.914   5.562   5.894
 4229SOL    HW213587   5.789   5.657   5.848
 4230SOL     OW13588   1.400   6.988   2.690
 4230SOL    HW113589   1.430   0.005   2.604
 4230SOL    HW213590   1.336   0.025   2.735
 4231SOL     OW13591   5.390   0.768   5.367
 4231SOL    HW113592   5.489   0.784   5.359
 4231SOL    HW213593   5.368   0.736   5.459
 4232SOL     OW13594   2.449   5.310   3.307
 4232SOL    HW113595   2.445   5.363   3.392
 4232SOL    HW213596   2.417   5.217   3.325
 4233SOL     OW13597   6.515   6.619   4.241
 4233SOL    HW113598   6.575   6.697   4.222
 4233SOL    HW213599   6.547   6.540   4.189
 4234SOL     OW13600   2.172   5.352   5.522
 4234SOL    HW113601   2.139   5.337   5.429
 4234SOL    HW213602   2.212   5.443   5.529
 4235SOL     OW13603   6.720   4.673   5.574
 4235SOL    HW113604   6.791   4.702   5.638
 4235SOL    HW213605   6.701   4.748   5.510
 4236SOL     OW13606   0.182   5.340   2.497
 4236SOL    HW113607   0.236   5.423   2.512
 4236SOL    HW213608   0.239   5.260   2.512
 4237SOL     OW13609   6.680   3.689   4.198
 4237SOL    HW113610   6.732   3.609   4.231
 4237SOL    HW213611   6.744   3.760   4.169
 4238SOL     OW13612   1.498   0.839   3.238
 4238SOL    HW113613   1.469   0.745   3.224
 4238SOL    HW213614   1.487   0.890   3.152
 4239SOL     OW13615   4.478   0.937   3.093
 4239SOL    HW113616   4.447   0.907   3.003
 4239SOL    HW213617   4.557   0.998   3.082
 4240SOL     OW13618   1.713   5.310   0.104
 4240SOL    HW113619   1.652   5.239   0.067
 4240SOL    HW213620   1.771   5.270   0.175
 4241SOL     OW13621   6.968   1.668   0.807
 4241SOL    HW113622   6.968   1.570   0.826
 4241SOL    HW213623   6.940   1.684   0.713
 4242SOL     OW13624   2.548   2.569   4.140
 4242SOL    HW113625   2.550   2.560   4.240
 4242SOL    HW213626   2.620   2.512   4.100
 4243SOL     OW13627   5.177   0.878   2.715
 4243SOL    HW113628   5.198   0.850   2.621
 4243SOL    HW213629   5.080   0.866   2.732
 4244SOL     OW13630   3.566   3.727   1.939
 4244SOL    HW113631   3.613   3.675   1.868
 4244SOL    HW213632   3.623   3.804   1.967
 4245SOL     OW13633   7.022   1.923   6.093
 4245SOL    HW113634   7.021   1.863   6.173
 4245SOL    HW213635   6.981   2.011   6.116
 4246SOL     OW13636   6.623   3.910   3.006
 4246SOL    HW113637   6.652   3.960   2.924
 4246SOL    HW213638   6.581   3.824   2.978
 4247SOL     OW13639   0.126   6.252   4.653
 4247SOL    HW113640   0.087   6.286   4.568
 4247SOL    HW213641   0.076   6.291   4.731
 4248SOL     OW13642   1.572   2.376   5.216
 4248SOL    HW113643   1.551   2.291   5.168
 4248SOL    HW213644   1.614   2.441   5.152
 4249SOL     OW13645   6.705   2.977   5.605
 4249SOL    HW113646   6.634   3.041   5.575
 4249SOL    HW213647   6.787   3.028   5.633
 4250SOL     OW13648   0.240   4.685   3.540
 4250SOL    HW113649   0.185   4.721   3.615
 4250SOL    HW213650   0.301   4.757   3.507
 4251SOL     OW13651   5.930   4.155   0.590
 4251SOL    HW113652   5.895   4.061   0.593
 4251SOL    HW213653   5.894   4.207   0.668
 4252SOL     OW13654   6.357   5.900   4.977
 4252SOL    HW113655   6.435   5.940   5.025
 4252SOL    HW213656   6.373   5.902   4.878
 4253SOL     OW13657   3.761   0.673   1.899
 4253SOL    HW113658   3.681   0.633   1.945
 4253SOL    HW213659   3.746   0.671   1.800
 4254SOL     OW13660   1.691   3.208   1.572
 4254SOL    HW113661   1.600   3.246   1.587
 4254SOL    HW213662   1.740   3.263   1.504
 4255SOL     OW13663   6.072   2.323   3.807
 4255SOL    HW113664   6.154   2.311   3.752
 4255SOL    HW213665   6.056   2.240   3.860
 4256SOL     OW13666   1.595   6.813   1.421
 4256SOL    HW113667   1.601   6.713   1.419
 4256SOL    HW213668   1.511   6.842   1.374
 4257SOL     OW13669   3.577   1.671   5.644
 4257SOL    HW113670   3.581   1.717   5.733
 4257SOL    HW213671   3.664   1.685   5.595
 4258SOL     OW13672   5.814   6.623   2.151
 4258SOL    HW113673   5.850   6.653   2.240
 4258SOL    HW213674   5.884   6.635   2.081
 4259SOL     OW13675   2.406   1.291   6.743
 4259SOL    HW113676   2.347   1.211   6.733
 4259SOL    HW213677   2.480   1.286   6.675
 4260SOL     OW13678   4.376   5.732   3.741
 4260SOL    HW113679   4.319   5.790   3.683
 4260SOL    HW213680   4.434   5.789   3.799
 4261SOL     OW13681   2.699   6.991   1.436
 4261SOL    HW113682   2.603   7.006   1.462
 4261SOL    HW213683   2.747   6.949   1.513
 4262SOL     OW13684   1.650   5.328   5.752
 4262SOL    HW113685   1.581   5.256   5.740
 4262SOL    HW213686   1.740   5.292   5.727
 4263SOL     OW13687   2.764   6.490   4.587
 4263SOL    HW113688   2.737   6.579   4.625
 4263SOL    HW213689   2.841   6.453   4.639
 4264SOL     OW13690   0.192   1.836   0.746
 4264SOL    HW113691   0.261   1.883   0.802
 4264SOL    HW213692   0.119   1.802   0.805
 4265SOL     OW13693   6.423   1.885   0.006
 4265SOL    HW113694   6.382   1.854   6.945
 4265SOL    HW213695   6.512   1.926   7.012
 4266SOL     OW13696   2.986   5.354   0.185
 4266SOL    HW113697   3.000   5.398   0.097
 4266SOL    HW213698   2.893   5.370   0.217
 4267SOL     OW13699   2.101   3.789   4.951
 4267SOL    HW113700   2.169   3.855   4.984
 4267SOL    HW213701   2.146   3.701   4.933
 4268SOL     OW13702   1.462   6.639   0.252
 4268SOL    HW113703   1.522   6.701   0.304
 4268SOL    HW213704   1.475   6.546   0.285
 4269SOL     OW13705   2.321   2.283   0.392
 4269SOL    HW113706   2.376   2.281   0.309
 4269SOL    HW213707   2.283   2.192   0.409
 4270SOL     OW13708   3.924   3.087   4.712
 4270SOL    HW113709   3.918   3.083   4.811
 4270SOL    HW213710   3.853   3.029   4.672
 4271SOL     OW13711   6.994   0.247   5.569
 4271SOL    HW113712   6.897   0.256   5.548
 4271SOL    HW213713   0.008   0.337   5.590
 4272SOL     OW13714   6.959   5.039   4.915
 4272SOL    HW113715   6.893   5.099   4.869
 4272SOL    HW213716   0.026   5.058   4.878
 4273SOL     OW13717   4.560   6.317   4.662
 4273SOL    HW113718   4.624   6.381   4.703
 4273SOL    HW213719   4.605   6.229   4.645
 4274SOL     OW13720   0.485   6.861   3.291
 4274SOL    HW113721   0.424   6.892   3.218
 4274SOL    HW213722   0.487   6.761   3.293
 4275SOL     OW13723   6.817   0.772   5.753
 4275SOL    HW113724   6.756   0.727   5.687
 4275SOL    HW213725   6.772   0.778   5.842
 4276SOL     OW13726   1.727   5.336   2.566
 4276SOL    HW113727   1.689   5.398   2.498
 4276SOL    HW213728   1.717   5.241   2.534
 4277SOL     OW13729   7.011   4.549   3.739
 4277SOL    HW113730   7.018   4.450   3.739
 4277SOL    HW213731   0.002   4.584   3.832
 4278SOL     OW13732   6.746   6.762   4.942
 4278SOL    HW113733   6.673   6.710   4.898
 4278SOL    HW213734   6.713   6.800   5.028
 4279SOL     OW13735   3.600   6.572   5.713
 4279SOL    HW113736   3.573   6.572   5.617
 4279SOL    HW213737   3.523   6.601   5.770
 4280SOL     OW13738   5.918   1.329   5.229
 4280SOL    HW113739   5.835   1.373   5.198
 4280SOL    HW213740   5.985   1.398   5.256
 4281SOL     OW13741   1.693   4.840   4.421
 4281SOL    HW113742   1.642   4.789   4.351
 4281SOL    HW213743   1.648   4.927   4.438
 4282SOL     OW13744   2.495   2.210   0.174
 4282SOL    HW113745   2.486   2.116   0.206
 4282SOL    HW213746   2.482   2.213   0.075
 4283SOL     OW13747   1.475   0.403   3.799
 4283SOL    HW113748   1.437   0.490   3.830
 4283SOL    HW213749   1.566   0.391   3.839
 4284SOL     OW13750   5.650   0.110   2.806
 4284SOL    HW113751   5.718   0.125   2.878
 4284SOL    HW213752   5.559   0.126   2.842
 4285SOL     OW13753   0.300   0.102   6.051
 4285SOL    HW113754   0.356   0.036   6.000
 4285SOL    HW213755   0.231   0.053   6.104
 4286SOL     OW13756   4.901   5.131   6.494
 4286SOL    HW113757   4.875   5.108   6.401
 4286SOL    HW213758   4.827   5.105   6.557
 4287SOL     OW13759   5.915   0.566   4.820
 4287SOL    HW113760   5.945   0.494   4.882
 4287SOL    HW213761   5.991   0.628   4.801
 4288SOL     OW13762   0.911   6.740   3.500
 4288SOL    HW113763   0.987   6.796   3.533
 4288SOL    HW213764   0.845   6.798   3.452
 4289SOL     OW13765   5.446   2.706   2.033
 4289SOL    HW113766   5.389   2.677   1.956
 4289SOL    HW213767   5.392   2.706   2.116
 4290SOL     OW13768   2.558   6.704   1.240
 4290SOL    HW113769   2.470   6.748   1.228
 4290SOL    HW213770   2.631   6.769   1.218
 4291SOL     OW13771   5.044   3.330   1.354
 4291SOL    HW113772   4.999   3.386   1.424
 4291SOL    HW213773   5.044   3.234   1.383
 4292SOL     OW13774   5.962   4.780   5.455
 4292SOL    HW113775   6.017   4.799   5.537
 4292SOL    HW213776   5.915   4.863   5.426
 4293SOL     OW13777   6.446   3.969   6.548
 4293SOL    HW113778   6.522   3.927   6.598
 4293SOL    HW213779   6.429   3.918   6.464
 4294SOL     OW13780   4.433   2.964   6.676
 4294SOL    HW113781   4.387   3.051   6.691
 4294SOL    HW213782   4.510   2.956   6.739
 4295SOL     OW13783   4.195   0.278   4.738
 4295SOL    HW113784   4.272   0.223   4.772
 4295SOL    HW213785   4.110   0.226   4.749
 4296SOL     OW13786   2.542   1.961   0.268
 4296SOL    HW113787   2.522   1.922   0.358
 4296SOL    HW213788   2.489   1.913   0.199
 4297SOL     OW13789   4.831   6.810   5.343
 4297SOL    HW113790   4.821   6.854   5.254
 4297SOL    HW213791   4.923   6.773   5.352
 4298SOL     OW13792   1.535   5.433   0.389
 4298SOL    HW113793   1.550   5.436   0.290
 4298SOL    HW213794   1.437   5.434   0.408
 4299SOL     OW13795   1.231   3.285   6.111
 4299SOL    HW113796   1.327   3.295   6.135
 4299SOL    HW213797   1.196   3.371   6.075
 4300SOL     OW13798   2.858   0.999   6.010
 4300SOL    HW113799   2.872   1.069   5.941
 4300SOL    HW213800   2.777   1.021   6.065
 4301SOL     OW13801   2.950   1.396   0.447
 4301SOL    HW113802   2.907   1.369   0.361
 4301SOL    HW213803   2.988   1.315   0.492
 4302SOL     OW13804   1.348   6.377   6.014
 4302SOL    HW113805   1.348   6.278   6.023
 4302SOL    HW213806   1.275   6.416   6.070
 4303SOL     OW13807   6.287   4.466   2.872
 4303SOL    HW113808   6.324   4.392   2.927
 4303SOL    HW213809   6.196   4.441   2.839
 4304SOL     OW13810   3.242   3.456   4.293
 4304SOL    HW113811   3.203   3.537   4.338
 4304SOL    HW213812   3.171   3.409   4.241
 4305SOL     OW13813   6.104   1.471   3.711
 4305SOL    HW113814   6.126   1.379   3.678
 4305SOL    HW213815   6.005   1.483   3.712
 4306SOL     OW13816   6.993   3.565   6.621
 4306SOL    HW113817   7.012   3.567   6.719
 4306SOL    HW213818   0.010   3.484   6.580
 4307SOL     OW13819   4.715   4.309   5.396
 4307SOL    HW113820   4.764   4.340   5.477
 4307SOL    HW213821   4.619   4.293   5.418
 4308SOL     OW13822   4.848   5.927   5.785
 4308SOL    HW113823   4.811   6.020   5.782
 4308SOL    HW213824   4.794   5.871   5.848
 4309SOL     OW13825   1.111   0.193   0.389
 4309SOL    HW113826   1.098   0.238   0.477
 4309SOL    HW213827   1.142   0.099   0.403
 4310SOL     OW13828   1.569   2.437   4.019
 4310SOL    HW113829   1.642   2.504   4.009
 4310SOL    HW213830   1.481   2.480   3.996
 4311SOL     OW13831   1.029   6.305   3.108
 4311SOL    HW113832   1.104   6.346   3.159
 4311SOL    HW213833   1.017   6.210   3.137
 4312SOL     OW13834   1.059   5.810   1.589
 4312SOL    HW113835   1.030   5.726   1.542
 4312SOL    HW213836   1.158   5.809   1.601
 4313SOL     OW13837   5.659   1.247   1.675
 4313SOL    HW113838   5.670   1.155   1.713
 4313SOL    HW213839   5.749   1.287   1.658
 4314SOL     OW13840   4.672   2.701   2.931
 4314SOL    HW113841   4.658   2.607   2.902
 4314SOL    HW213842   4.594   2.732   2.985
 4315SOL     OW13843   2.477   0.603   2.218
 4315SOL    HW113844   2.398   0.574   2.273
 4315SOL    HW213845   2.479   0.550   2.133
 4316SOL     OW13846   5.036   0.015   1.106
 4316SOL    HW113847   5.054   0.039   1.201
 4316SOL    HW213848   5.123   0.000   1.058
 4317SOL     OW13849   3.305   1.165   5.505
 4317SOL    HW113850   3.342   1.223   5.432
 4317SOL    HW213851   3.220   1.124   5.474
 4318SOL     OW13852   0.957   3.595   3.829
 4318SOL    HW113853   0.904   3.511   3.832
 4318SOL    HW213854   0.947   3.644   3.916
 4319SOL     OW13855   2.323   3.526   6.680
 4319SOL    HW113856   2.362   3.617   6.671
 4319SOL    HW213857   2.352   3.469   6.603
 4320SOL     OW13858   1.509   6.383   2.240
 4320SOL    HW113859   1.424   6.355   2.285
 4320SOL    HW213860   1.547   6.463   2.287
 4321SOL     OW13861   6.146   0.754   4.815
 4321SOL    HW113862   6.087   0.831   4.792
 4321SOL    HW213863   6.241   0.783   4.813
 4322SOL     OW13864   6.560   1.299   6.360
 4322SOL    HW113865   6.637   1.304   6.424
 4322SOL    HW213866   6.491   1.237   6.396
 4323SOL     OW13867   5.334   3.120   2.209
 4323SOL    HW113868   5.375   3.114   2.118
 4323SOL    HW213869   5.340   3.031   2.254
 4324SOL     OW13870   5.793   4.488   6.795
 4324SOL    HW113871   5.881   4.530   6.820
 4324SOL    HW213872   5.802   4.389   6.800
 4325SOL     OW13873   1.607   0.951   0.614
 4325SOL    HW113874   1.706   0.938   0.610
 4325SOL    HW213875   1.584   1.012   0.689
 4326SOL     OW13876   6.342   2.893   5.303
 4326SOL    HW113877   6.318   2.931   5.392
 4326SOL    HW213878   6.439   2.911   5.284
 4327SOL     OW13879   5.713   5.198   2.436
 4327SOL    HW113880   5.649   5.177   2.510
 4327SOL    HW213881   5.690   5.144   2.355
 4328SOL     OW13882   4.283   4.748   5.537
 4328SOL    HW113883   4.225   4.686   5.590
 4328SOL    HW213884   4.259   4.843   5.558
 4329SOL     OW13885   3.354   1.550   6.015
 4329SOL    HW113886   3.283   1.547   6.086
 4329SOL    HW213887   3.313   1.569   5.926
 4330SOL     OW13888   2.697   0.288   5.568
 4330SOL    HW113889   2.650   0.352   5.507
 4330SOL    HW213890   2.791   0.274   5.537
 4331SOL     OW13891   5.143   3.326   0.939
 4331SOL    HW113892   5.163   3.243   0.991
 4331SOL    HW213893   5.122   3.303   0.845
 4332SOL     OW13894   5.212   3.847   2.242
 4332SOL    HW113895   5.281   3.790   2.197
 4332SOL    HW213896   5.127   3.794   2.252
 4333SOL     OW13897   5.239   1.597   5.432
 4333SOL    HW113898   5.228   1.506   5.392
 4333SOL    HW213899   5.326   1.637   5.402
 4334SOL     OW13900   2.778   2.178   1.840
 4334SOL    HW113901   2.721   2.252   1.804
 4334SOL    HW213902   2.824   2.209   1.923
 4335SOL     OW13903   3.110   3.508   3.761
 4335SOL    HW113904   3.206   3.532   3.745
 4335SOL    HW213905   3.052   3.574   3.714
 4336SOL     OW13906   1.387   6.627   5.359
 4336SOL    HW113907   1.379   6.576   5.444
 4336SOL    HW213908   1.441   6.575   5.293
 4337SOL     OW13909   0.750   4.902   0.166
 4337SOL    HW113910   0.819   4.952   0.113
 4337SOL    HW213911   0.758   4.927   0.263
 4338SOL     OW13912   5.141   5.366   4.811
 4338SOL    HW113913   5.112   5.447   4.760
 4338SOL    HW213914   5.118   5.378   4.908
 4339SOL     OW13915   5.569   2.525   4.782
 4339SOL    HW113916   5.503   2.572   4.841
 4339SOL    HW213917   5.556   2.426   4.790
 4340SOL     OW13918   6.376   3.534   2.170
 4340SOL    HW113919   6.280   3.557   2.187
 4340SOL    HW213920   6.380   3.459   2.103
 4341SOL     OW13921   1.165   3.595   2.164
 4341SOL    HW113922   1.145   3.688   2.194
 4341SOL    HW213923   1.247   3.594   2.107
 4342SOL     OW13924   6.489   2.860   3.485
 4342SOL    HW113925   6.472   2.775   3.534
 4342SOL    HW213926   6.566   2.849   3.423
 4343SOL     OW13927   3.564   0.548   6.949
 4343SOL    HW113928   3.585   0.538   6.852
 4343SOL    HW213929   3.650   0.553   7.001
 4344SOL     OW13930   1.592   5.046   3.290
 4344SOL    HW113931   1.503   5.000   3.289
 4344SOL    HW213932   1.649   5.007   3.363
 4345SOL     OW13933   1.630   3.174   5.402
 4345SOL    HW113934   1.677   3.086   5.397
 4345SOL    HW213935   1.683   3.236   5.459
 4346SOL     OW13936   2.209   3.143   1.750
 4346SOL    HW113937   2.289   3.188   1.710
 4346SOL    HW213938   2.127   3.196   1.727
 4347SOL     OW13939   0.051   0.921   1.655
 4347SOL    HW113940   0.088   0.973   1.578
 4347SOL    HW213941   7.007   0.856   1.621
 4348SOL     OW13942   0.140   3.332   2.495
 4348SOL    HW113943   0.151   3.241   2.535
 4348SOL    HW213944   0.150   3.401   2.567
 4349SOL     OW13945   0.563   1.569   2.935
 4349SOL    HW113946   0.502   1.648   2.938
 4349SOL    HW213947   0.522   1.494   2.986
 4350SOL     OW13948   4.596   2.249   4.299
 4350SOL    HW113949   4.516   2.309   4.291
 4350SOL    HW213950   4.632   2.255   4.393
 4351SOL     OW13951   2.158   6.565   1.751
 4351SOL    HW113952   2.145   6.469   1.776
 4351SOL    HW213953   2.182   6.572   1.654
 4352SOL     OW13954   0.503   2.408   1.710
 4352SOL    HW113955   0.501   2.496   1.756
 4352SOL    HW213956   0.450   2.341   1.762
 4353SOL     OW13957   2.671   5.654   1.095
 4353SOL    HW113958   2.628   5.732   1.141
 4353SOL    HW213959   2.723   5.601   1.161
 4354SOL     OW13960   2.136   6.656   6.782
 4354SOL    HW113961   2.037   6.651   6.771
 4354SOL    HW213962   2.165   6.592   6.853
 4355SOL     OW13963   3.772   0.328   1.857
 4355SOL    HW113964   3.855   0.305   1.806
 4355SOL    HW213965   3.757   0.427   1.852
 4356SOL     OW13966   4.587   4.228   1.665
 4356SOL    HW113967   4.531   4.216   1.582
 4356SOL    HW213968   4.531   4.266   1.738
 4357SOL     OW13969   6.100   0.495   0.152
 4357SOL    HW113970   6.091   0.508   0.053
 4357SOL    HW213971   6.034   0.553   0.199
 4358SOL     OW13972   6.776   6.331   0.719
 4358SOL    HW113973   6.781   6.237   0.752
 4358SOL    HW213974   6.743   6.332   0.624
 4359SOL     OW13975   1.435   2.145   4.352
 4359SOL    HW113976   1.428   2.103   4.442
 4359SOL    HW213977   1.520   2.197   4.345
 4360SOL     OW13978   1.032   3.906   2.529
 4360SOL    HW113979   0.975   3.936   2.605
 4360SOL    HW213980   1.041   3.980   2.462
 4361SOL     OW13981   3.598   2.942   1.533
 4361SOL    HW113982   3.546   2.911   1.613
 4361SOL    HW213983   3.604   2.867   1.466
 4362SOL     OW13984   5.942   3.849   5.673
 4362SOL    HW113985   5.857   3.812   5.710
 4362SOL    HW213986   5.927   3.943   5.643
 4363SOL     OW13987   4.630   1.966   5.934
 4363SOL    HW113988   4.678   1.906   5.998
 4363SOL    HW213989   4.536   1.978   5.964
 4364SOL     OW13990   2.924   3.730   5.381
 4364SOL    HW113991   2.948   3.789   5.458
 4364SOL    HW213992   3.002   3.673   5.356
 4365SOL     OW13993   3.052   1.598   2.670
 4365SOL    HW113994   3.050   1.570   2.574
 4365SOL    HW213995   2.960   1.592   2.709
 4366SOL     OW13996   6.119   6.482   1.242
 4366SOL    HW113997   6.204   6.519   1.207
 4366SOL    HW213998   6.069   6.436   1.168
 4367SOL     OW13999   0.881   4.814   4.830
 4367SOL    HW114000   0.845   4.764   4.909
 4367SOL    HW214001   0.974   4.847   4.850
 4368SOL     OW14002   4.571   5.138   1.083
 4368SOL    HW114003   4.592   5.235   1.070
 4368SOL    HW214004   4.481   5.118   1.046
 4369SOL     OW14005   5.128   5.541   2.421
 4369SOL    HW114006   5.212   5.582   2.456
 4369SOL    HW214007   5.141   5.512   2.326
 4370SOL     OW14008   5.726   4.777   3.093
 4370SOL    HW114009   5.817   4.790   3.131
 4370SOL    HW214010   5.680   4.866   3.085
 4371SOL     OW14011   6.357   0.613   1.864
 4371SOL    HW114012   6.367   0.557   1.782
 4371SOL    HW214013   6.426   0.587   1.931
 4372SOL     OW14014   4.846   1.039   2.897
 4372SOL    HW114015   4.769   1.049   2.959
 4372SOL    HW214016   4.873   1.128   2.862
 4373SOL     OW14017   6.757   3.048   6.620
 4373SOL    HW114018   6.683   3.025   6.683
 4373SOL    HW214019   6.838   2.994   6.641
 4374SOL     OW14020   1.424   2.044   1.679
 4374SOL    HW114021   1.385   2.115   1.737
 4374SOL    HW214022   1.510   2.012   1.719
 4375SOL     OW14023   2.625   6.875   4.045
 4375SOL    HW114024   2.576   6.814   3.983
 4375SOL    HW214025   2.605   6.850   4.140
 4376SOL     OW14026   6.611   7.024   2.384
 4376SOL    HW114027   6.659   6.955   2.330
 4376SOL    HW214028   6.672   0.076   2.403
 4377SOL     OW14029   5.541   3.667   0.329
 4377SOL    HW114030   5.518   3.571   0.337
 4377SOL    HW214031   5.507   3.703   0.242
 4378SOL     OW14032   2.253   0.609   3.338
 4378SOL    HW114033   2.154   0.602   3.348
 4378SOL    HW214034   2.275   0.659   3.255
 4379SOL     OW14035   2.542   1.218   4.323
 4379SOL    HW114036   2.494   1.184   4.404
 4379SOL    HW214037   2.615   1.281   4.352
 4380SOL     OW14038   1.369   1.072   1.539
 4380SOL    HW114039   1.391   1.048   1.634
 4380SOL    HW214040   1.448   1.054   1.480
 4381SOL     OW14041   1.612   5.759   4.989
 4381SOL    HW114042   1.634   5.661   4.989
 4381SOL    HW214043   1.513   5.771   4.997
 4382SOL     OW14044   6.614   3.159   6.043
 4382SOL    HW114045   6.623   3.255   6.070
 4382SOL    HW214046   6.684   3.137   5.975
 4383SOL     OW14047   5.782   3.445   6.309
 4383SOL    HW114048   5.811   3.442   6.404
 4383SOL    HW214049   5.688   3.477   6.303
 4384SOL     OW14050   6.710   0.932   3.368
 4384SOL    HW114051   6.802   0.961   3.340
 4384SOL    HW214052   6.649   1.010   3.369
 4385SOL     OW14053   4.514   2.148   4.728
 4385SOL    HW114054   4.477   2.197   4.649
 4385SOL    HW214055   4.459   2.169   4.809
 4386SOL     OW14056   1.098   4.029   6.166
 4386SOL    HW114057   1.075   3.938   6.134
 4386SOL    HW214058   1.096   4.031   6.266
 4387SOL     OW14059   5.799   3.004   1.371
 4387SOL    HW114060   5.838   2.971   1.285
 4387SOL    HW214061   5.839   3.092   1.395
 4388SOL     OW14062   5.664   2.136   6.258
 4388SOL    HW114063   5.648   2.039   6.236
 4388SOL    HW214064   5.645   2.191   6.177
 4389SOL     OW14065   6.857   3.568   1.674
 4389SOL    HW114066   6.851   3.666   1.693
 4389SOL    HW214067   6.953   3.543   1.659
 4390SOL     OW14068   5.638   6.997   0.433
 4390SOL    HW114069   5.597   0.036   0.498
 4390SOL    HW214070   5.711   0.020   0.382
 4391SOL     OW14071   1.724   5.129   6.588
 4391SOL    HW114072   1.738   5.037   6.551
 4391SOL    HW214073   1.689   5.188   6.516
 4392SOL     OW14074   0.692   1.775   4.159
 4392SOL    HW114075   0.686   1.699   4.094
 4392SOL    HW214076   0.613   1.773   4.219
 4393SOL     OW14077   6.345   0.288   1.967
 4393SOL    HW114078   6.248   0.308   1.975
 4393SOL    HW214079   6.379   0.247   2.051
 4394SOL     OW14080   1.097   0.367   1.281
 4394SOL    HW114081   1.150   0.315   1.214
 4394SOL    HW214082   1.069   0.454   1.242
 4395SOL     OW14083   1.920   0.025   1.799
 4395SOL    HW114084   1.952   6.970   1.851
 4395SOL    HW214085   1.988   0.050   1.730
 4396SOL     OW14086   1.564   1.465   3.918
 4396SOL    HW114087   1.466   1.487   3.918
 4396SOL    HW214088   1.591   1.434   3.827
 4397SOL     OW14089   2.177   2.941   3.833
 4397SOL    HW114090   2.109   2.967   3.766
 4397SOL    HW214091   2.153   2.979   3.922
 4398SOL     OW14092   1.680   3.522   6.146
 4398SOL    HW114093   1.742   3.512   6.067
 4398SOL    HW214094   1.672   3.619   6.169
 4399SOL     OW14095   2.019   5.990   1.625
 4399SOL    HW114096   2.051   6.079   1.593
 4399SOL    HW214097   1.979   5.999   1.716
 4400SOL     OW14098   1.354   6.453   3.859
 4400SOL    HW114099   1.262   6.480   3.831
 4400SOL    HW214100   1.379   6.369   3.811
 4401SOL     OW14101   3.758   6.478   5.467
 4401SOL    HW114102   3.759   6.570   5.428
 4401SOL    HW214103   3.752   6.410   5.394
 4402SOL     OW14104   1.285   0.418   2.207
 4402SOL    HW114105   1.224   0.378   2.275
 4402SOL    HW214106   1.329   0.345   2.155
 4403SOL     OW14107   0.607   5.538   0.962
 4403SOL    HW114108   0.560   5.571   1.044
 4403SOL    HW214109   0.705   5.534   0.979
 4404SOL     OW14110   1.015   5.440   5.307
 4404SOL    HW114111   1.110   5.464   5.323
 4404SOL    HW214112   1.007   5.340   5.296
 4405SOL     OW14113   2.667   4.921   3.098
 4405SOL    HW114114   2.569   4.940   3.104
 4405SOL    HW214115   2.695   4.868   3.179
 4406SOL     OW14116   6.776   3.471   1.430
 4406SOL    HW114117   6.840   3.516   1.368
 4406SOL    HW214118   6.792   3.503   1.524
 4407SOL     OW14119   0.147   5.848   1.678
 4407SOL    HW114120   0.160   5.898   1.592
 4407SOL    HW214121   0.208   5.886   1.748
 4408SOL     OW14122   3.594   6.320   6.876
 4408SOL    HW114123   3.564   6.375   6.798
 4408SOL    HW214124   3.519   6.262   6.907
 4409SOL     OW14125   3.988   0.815   2.350
 4409SOL    HW114126   3.918   0.757   2.308
 4409SOL    HW214127   3.996   0.900   2.298
 4410SOL     OW14128   0.176   6.346   0.951
 4410SOL    HW114129   0.106   6.299   1.006
 4410SOL    HW214130   0.182   6.302   0.861
 4411SOL     OW14131   3.468   4.732   5.540
 4411SOL    HW114132   3.540   4.801   5.549
 4411SOL    HW214133   3.442   4.700   5.632
 4412SOL     OW14134   5.290   7.009   4.185
 4412SOL    HW114135   5.380   0.026   4.201
 4412SOL    HW214136   5.224   0.056   4.164
 4413SOL     OW14137   3.791   6.885   4.257
 4413SOL    HW114138   3.722   6.870   4.185
 4413SOL    HW214139   3.762   6.839   4.341
 4414SOL     OW14140   4.900   5.331   1.488
 4414SOL    HW114141   4.916   5.364   1.581
 4414SOL    HW214142   4.804   5.342   1.464
 4415SOL     OW14143   3.515   3.990   1.370
 4415SOL    HW114144   3.442   3.968   1.305
 4415SOL    HW214145   3.500   3.940   1.455
 4416SOL     OW14146   3.862   1.452   4.348
 4416SOL    HW114147   3.835   1.378   4.287
 4416SOL    HW214148   3.797   1.528   4.337
 4417SOL     OW14149   6.532   2.460   4.118
 4417SOL    HW114150   6.628   2.485   4.106
 4417SOL    HW214151   6.502   2.489   4.209
 4418SOL     OW14152   6.421   1.266   1.470
 4418SOL    HW114153   6.478   1.345   1.447
 4418SOL    HW214154   6.375   1.284   1.557
 4419SOL     OW14155   6.294   5.997   6.184
 4419SOL    HW114156   6.261   6.043   6.266
 4419SOL    HW214157   6.216   5.963   6.131
 4420SOL     OW14158   4.065   2.293   1.601
 4420SOL    HW114159   3.978   2.249   1.577
 4420SOL    HW214160   4.138   2.252   1.547
 4421SOL     OW14161   0.899   3.284   5.006
 4421SOL    HW114162   0.871   3.337   4.926
 4421SOL    HW214163   0.962   3.212   4.977
 4422SOL     OW14164   0.970   5.266   6.758
 4422SOL    HW114165   0.965   5.183   6.813
 4422SOL    HW214166   0.988   5.241   6.662
 4423SOL     OW14167   6.310   4.363   5.749
 4423SOL    HW114168   6.240   4.337   5.682
 4423SOL    HW214169   6.397   4.379   5.703
 4424SOL     OW14170   4.789   5.825   4.076
 4424SOL    HW114171   4.838   5.801   3.992
 4424SOL    HW214172   4.791   5.924   4.088
 4425SOL     OW14173   2.062   5.216   1.071
 4425SOL    HW114174   2.049   5.243   1.166
 4425SOL    HW214175   2.067   5.298   1.014
 4426SOL     OW14176   0.690   0.455   3.724
 4426SOL    HW114177   0.651   0.519   3.791
 4426SOL    HW214178   0.672   0.361   3.752
 4427SOL     OW14179   3.579   6.574   2.707
 4427SOL    HW114180   3.631   6.619   2.634
 4427SOL    HW214181   3.565   6.478   2.683
 4428SOL     OW14182   4.871   0.748   4.623
 4428SOL    HW114183   4.847   0.747   4.526
 4428SOL    HW214184   4.969   0.762   4.633
 4429SOL     OW14185   3.359   6.919   3.425
 4429SOL    HW114186   3.288   6.864   3.469
 4429SOL    HW214187   3.347   6.916   3.326
 4430SOL     OW14188   5.814   4.548   3.988
 4430SOL    HW114189   5.912   4.548   4.008
 4430SOL    HW214190   5.799   4.585   3.896
 4431SOL     OW14191   3.232   0.245   3.798
 4431SOL    HW114192   3.219   0.322   3.735
 4431SOL    HW214193   3.155   0.241   3.862
 4432SOL     OW14194   1.903   3.588   6.576
 4432SOL    HW114195   1.904   3.610   6.673
 4432SOL    HW214196   1.900   3.672   6.522
 4433SOL     OW14197   0.768   1.871   4.920
 4433SOL    HW114198   0.750   1.773   4.917
 4433SOL    HW214199   0.854   1.891   4.874
 4434SOL     OW14200   0.040   1.404   1.630
 4434SOL    HW114201   0.006   1.463   1.557
 4434SOL    HW214202   6.986   1.359   1.675
 4435SOL     OW14203   3.187   3.869   0.665
 4435SOL    HW114204   3.106   3.911   0.706
 4435SOL    HW214205   3.193   3.895   0.569
 4436SOL     OW14206   4.466   2.437   1.604
 4436SOL    HW114207   4.529   2.383   1.659
 4436SOL    HW214208   4.439   2.384   1.523
 4437SOL     OW14209   0.325   3.615   2.629
 4437SOL    HW114210   0.308   3.688   2.695
 4437SOL    HW214211   0.415   3.574   2.646
 4438SOL     OW14212   4.257   6.450   5.529
 4438SOL    HW114213   4.332   6.433   5.593
 4438SOL    HW214214   4.277   6.532   5.475
 4439SOL     OW14215   1.114   6.859   3.191
 4439SOL    HW114216   1.142   6.948   3.225
 4439SOL    HW214217   1.156   6.842   3.102
 4440SOL     OW14218   2.039   4.790   1.158
 4440SOL    HW114219   1.939   4.790   1.163
 4440SOL    HW214220   2.069   4.857   1.090
 4441SOL     OW14221   1.223   1.801   1.073
 4441SOL    HW114222   1.211   1.898   1.098
 4441SOL    HW214223   1.287   1.758   1.136
 4442SOL     OW14224   1.490   5.106   5.722
 4442SOL    HW114225   1.470   5.010   5.744
 4442SOL    HW214226   1.458   5.126   5.629
 4443SOL     OW14227   0.757   4.565   6.593
 4443SOL    HW114228   0.779   4.468   6.587
 4443SOL    HW214229   0.672   4.577   6.644
 4444SOL     OW14230   4.543   4.207   0.898
 4444SOL    HW114231   4.472   4.184   0.965
 4444SOL    HW214232   4.630   4.221   0.945
 4445SOL     OW14233   0.304   5.051   6.411
 4445SOL    HW114234   0.231   5.099   6.363
 4445SOL    HW214235   0.273   5.028   6.504
 4446SOL     OW14236   5.056   1.681   0.315
 4446SOL    HW114237   5.114   1.614   0.361
 4446SOL    HW214238   4.978   1.703   0.374
 4447SOL     OW14239   5.413   4.618   5.042
 4447SOL    HW114240   5.452   4.545   5.097
 4447SOL    HW214241   5.330   4.585   4.996
 4448SOL     OW14242   2.932   6.389   1.064
 4448SOL    HW114243   2.836   6.413   1.083
 4448SOL    HW214244   2.982   6.472   1.040
 4449SOL     OW14245   4.317   1.481   6.536
 4449SOL    HW114246   4.391   1.475   6.603
 4449SOL    HW214247   4.355   1.505   6.446
 4450SOL     OW14248   3.712   1.240   0.216
 4450SOL    HW114249   3.768   1.292   0.151
 4450SOL    HW214250   3.750   1.149   0.228
 4451SOL     OW14251   4.866   4.828   3.629
 4451SOL    HW114252   4.809   4.747   3.614
 4451SOL    HW214253   4.840   4.900   3.565
 4452SOL     OW14254   5.269   6.011   4.574
 4452SOL    HW114255   5.303   5.917   4.575
 4452SOL    HW214256   5.340   6.072   4.540
 4453SOL     OW14257   0.365   3.561   1.417
 4453SOL    HW114258   0.380   3.471   1.376
 4453SOL    HW214259   0.309   3.617   1.356
 4454SOL     OW14260   0.787   1.657   0.150
 4454SOL    HW114261   0.712   1.673   0.086
 4454SOL    HW214262   0.751   1.655   0.244
 4455SOL     OW14263   6.193   6.047   5.164
 4455SOL    HW114264   6.098   6.017   5.176
 4455SOL    HW214265   6.234   5.999   5.087
 4456SOL     OW14266   2.004   6.434   3.611
 4456SOL    HW114267   2.079   6.417   3.674
 4456SOL    HW214268   2.041   6.455   3.520
 4457SOL     OW14269   1.216   2.029   4.673
 4457SOL    HW114270   1.299   2.076   4.706
 4457SOL    HW214271   1.234   1.990   4.583
 4458SOL     OW14272   2.084   3.560   1.750
 4458SOL    HW114273   2.098   3.658   1.759
 4458SOL    HW214274   2.130   3.512   1.825
 4459SOL     OW14275   1.466   2.165   4.664
 4459SOL    HW114276   1.566   2.156   4.671
 4459SOL    HW214277   1.444   2.252   4.622
 4460SOL     OW14278   6.928   2.842   4.142
 4460SOL    HW114279   7.006   2.797   4.098
 4460SOL    HW214280   6.895   2.917   4.084
 4461SOL     OW14281   2.472   0.683   1.765
 4461SOL    HW114282   2.424   0.770   1.748
 4461SOL    HW214283   2.440   0.644   1.851
 4462SOL     OW14284   6.116   3.609   2.218
 4462SOL    HW114285   6.074   3.685   2.167
 4462SOL    HW214286   6.045   3.555   2.263
 4463SOL     OW14287   5.618   0.805   0.728
 4463SOL    HW114288   5.687   0.870   0.698
 4463SOL    HW214289   5.629   0.786   0.826
 4464SOL     OW14290   0.524   5.066   0.593
 4464SOL    HW114291   0.498   5.087   0.687
 4464SOL    HW214292   0.513   5.147   0.536
 4465SOL     OW14293   2.298   5.677   0.106
 4465SOL    HW114294   2.319   5.752   0.169
 4465SOL    HW214295   2.199   5.668   0.097
 4466SOL     OW14296   2.433   2.188   3.887
 4466SOL    HW114297   2.379   2.106   3.865
 4466SOL    HW214298   2.403   2.225   3.976
 4467SOL     OW14299   2.782   6.155   3.881
 4467SOL    HW114300   2.737   6.130   3.967
 4467SOL    HW214301   2.851   6.225   3.899
 4468SOL     OW14302   0.796   3.206   0.770
 4468SOL    HW114303   0.743   3.195   0.686
 4468SOL    HW214304   0.871   3.141   0.771
 4469SOL     OW14305   3.213   6.961   1.535
 4469SOL    HW114306   3.278   6.887   1.552
 4469SOL    HW214307   3.120   6.925   1.542
 4470SOL     OW14308   1.091   0.665   2.426
 4470SOL    HW114309   1.176   0.630   2.387
 4470SOL    HW214310   1.111   0.746   2.482
 4471SOL     OW14311   2.156   2.518   6.233
 4471SOL    HW114312   2.128   2.597   6.288
 4471SOL    HW214313   2.255   2.509   6.236
 4472SOL     OW14314   1.669   2.861   1.395
 4472SOL    HW114315   1.660   2.939   1.333
 4472SOL    HW214316   1.591   2.800   1.385
 4473SOL     OW14317   6.782   2.590   4.070
 4473SOL    HW114318   6.795   2.677   4.118
 4473SOL    HW214319   6.869   2.563   4.028
 4474SOL     OW14320   3.089   0.903   2.222
 4474SOL    HW114321   3.177   0.951   2.227
 4474SOL    HW214322   3.053   0.908   2.130
 4475SOL     OW14323   1.169   3.666   2.532
 4475SOL    HW114324   1.146   3.763   2.542
 4475SOL    HW214325   1.085   3.614   2.516
 4476SOL     OW14326   5.651   1.334   4.415
 4476SOL    HW114327   5.566   1.371   4.375
 4476SOL    HW214328   5.628   1.259   4.476
 4477SOL     OW14329   2.660   0.020   5.386
 4477SOL    HW114330   2.742   0.047   5.436
 4477SOL    HW214331   2.653   0.073   5.302
 4478SOL     OW14332   1.087   0.030   1.143
 4478SOL    HW114333   1.094   7.024   1.048
 4478SOL    HW214334   1.165   0.089   1.164
 4479SOL     OW14335   0.805   2.301   0.051
 4479SOL    HW114336   0.826   2.257   0.138
 4479SOL    HW214337   0.815   2.400   0.060
 4480SOL     OW14338   0.141   4.653   4.701
 4480SOL    HW114339   0.123   4.558   4.678
 4480SOL    HW214340   0.083   4.680   4.778
 4481SOL     OW14341   2.457   5.010   5.589
 4481SOL    HW114342   2.535   4.986   5.532
 4481SOL    HW214343   2.433   4.932   5.648
 4482SOL     OW14344   2.874   4.613   6.382
 4482SOL    HW114345   2.833   4.568   6.303
 4482SOL    HW214346   2.864   4.712   6.373
 4483SOL     OW14347   0.754   2.923   1.973
 4483SOL    HW114348   0.694   3.001   1.993
 4483SOL    HW214349   0.822   2.950   1.905
 4484SOL     OW14350   2.388   3.386   0.424
 4484SOL    HW114351   2.432   3.388   0.514
 4484SOL    HW214352   2.438   3.326   0.363
 4485SOL     OW14353   4.588   2.601   4.636
 4485SOL    HW114354   4.669   2.582   4.581
 4485SOL    HW214355   4.568   2.699   4.632
 4486SOL     OW14356   5.579   4.554   5.542
 4486SOL    HW114357   5.670   4.590   5.523
 4486SOL    HW214358   5.560   4.477   5.481
 4487SOL     OW14359   1.864   3.117   0.168
 4487SOL    HW114360   1.885   3.024   0.197
 4487SOL    HW214361   1.776   3.117   0.121
 4488SOL     OW14362   0.946   4.171   3.884
 4488SOL    HW114363   0.992   4.111   3.819
 4488SOL    HW214364   0.849   4.176   3.862
 4489SOL     OW14365   4.820   5.343   5.101
 4489SOL    HW114366   4.822   5.386   5.010
 4489SOL    HW214367   4.731   5.301   5.116
 4490SOL     OW14368   5.499   1.843   0.808
 4490SOL    HW114369   5.400   1.836   0.821
 4490SOL    HW214370   5.526   1.939   0.804
 4491SOL     OW14371   0.922   2.889   3.031
 4491SOL    HW114372   0.949   2.861   2.939
 4491SOL    HW214373   0.998   2.939   3.074
 4492SOL     OW14374   5.526   0.889   1.622
 4492SOL    HW114375   5.583   0.954   1.671
 4492SOL    HW214376   5.441   0.874   1.672
 4493SOL     OW14377   5.302   6.742   5.130
 4493SOL    HW114378   5.304   6.835   5.093
 4493SOL    HW214379   5.362   6.737   5.209
 4494SOL     OW14380   0.913   0.659   6.089
 4494SOL    HW114381   0.925   0.683   6.186
 4494SOL    HW214382   0.842   0.589   6.081
 4495SOL     OW14383   3.640   5.904   1.917
 4495SOL    HW114384   3.591   5.957   1.986
 4495SOL    HW214385   3.688   5.828   1.962
 4496SOL     OW14386   4.524   6.262   6.468
 4496SOL    HW114387   4.426   6.275   6.456
 4496SOL    HW214388   4.571   6.278   6.381
 4497SOL     OW14389   3.605   2.242   0.106
 4497SOL    HW114390   3.677   2.273   0.169
 4497SOL    HW214391   3.647   2.200   0.026
 4498SOL     OW14392   6.971   5.062   5.925
 4498SOL    HW114393   6.987   5.142   5.868
 4498SOL    HW214394   6.991   4.979   5.873
 4499SOL     OW14395   6.835   1.731   2.767
 4499SOL    HW114396   6.750   1.690   2.734
 4499SOL    HW214397   6.906   1.661   2.772
 4500SOL     OW14398   4.072   5.160   0.196
 4500SOL    HW114399   4.126   5.229   0.148
 4500SOL    HW214400   3.990   5.139   0.142
 4501SOL     OW14401   6.291   1.607   1.921
 4501SOL    HW114402   6.295   1.626   1.823
 4501SOL    HW214403   6.197   1.588   1.948
 4502SOL     OW14404   0.942   3.415   6.914
 4502SOL    HW114405   0.876   3.370   6.854
 4502SOL    HW214406   0.997   3.346   6.960
 4503SOL     OW14407   2.800   0.163   2.219
 4503SOL    HW114408   2.765   0.073   2.193
 4503SOL    HW214409   2.899   0.165   2.207
 4504SOL     OW14410   6.893   1.636   3.587
 4504SOL    HW114411   6.876   1.695   3.509
 4504SOL    HW214412   6.806   1.611   3.629
 4505SOL     OW14413   6.493   4.464   2.542
 4505SOL    HW114414   6.577   4.517   2.532
 4505SOL    HW214415   6.475   4.448   2.639
 4506SOL     OW14416   4.685   2.765   4.275
 4506SOL    HW114417   4.701   2.839   4.339
 4506SOL    HW214418   4.772   2.726   4.246
 4507SOL     OW14419   6.324   3.252   3.593
 4507SOL    HW114420   6.246   3.245   3.532
 4507SOL    HW214421   6.296   3.232   3.687
 4508SOL     OW14422   0.319   4.426   0.545
 4508SOL    HW114423   0.355   4.477   0.467
 4508SOL    HW214424   0.374   4.445   0.626
 4509SOL     OW14425   4.501   1.753   2.177
 4509SOL    HW114426   4.461   1.805   2.101
 4509SOL    HW214427   4.497   1.808   2.260
 4510SOL     OW14428   4.548   1.360   4.010
 4510SOL    HW114429   4.584   1.439   4.060
 4510SOL    HW214430   4.613   1.284   4.016
 4511SOL     OW14431   6.972   4.390   1.172
 4511SOL    HW114432   6.916   4.391   1.089
 4511SOL    HW214433   6.989   4.483   1.203
 4512SOL     OW14434   3.681   1.965   5.705
 4512SOL    HW114435   3.664   1.895   5.775
 4512SOL    HW214436   3.603   1.970   5.643
 4513SOL     OW14437   0.999   6.052   6.590
 4513SOL    HW114438   0.913   6.066   6.638
 4513SOL    HW214439   1.047   6.139   6.580
 4514SOL     OW14440   3.169   3.213   6.210
 4514SOL    HW114441   3.114   3.130   6.199
 4514SOL    HW214442   3.157   3.272   6.130
 4515SOL     OW14443   5.633   6.912   4.944
 4515SOL    HW114444   5.535   6.893   4.929
 4515SOL    HW214445   5.688   6.848   4.891
 4516SOL     OW14446   2.808   1.882   6.013
 4516SOL    HW114447   2.759   1.932   5.941
 4516SOL    HW214448   2.887   1.936   6.042
 4517SOL     OW14449   4.139   0.692   6.351
 4517SOL    HW114450   4.234   0.664   6.338
 4517SOL    HW214451   4.079   0.613   6.341
 4518SOL     OW14452   1.720   6.637   1.176
 4518SOL    HW114453   1.668   6.623   1.260
 4518SOL    HW214454   1.673   6.592   1.100
 4519SOL     OW14455   5.569   6.804   0.224
 4519SOL    HW114456   5.567   6.894   0.268
 4519SOL    HW214457   5.657   6.760   0.244
 4520SOL     OW14458   4.117   6.398   5.274
 4520SOL    HW114459   4.090   6.491   5.248
 4520SOL    HW214460   4.176   6.401   5.354
 4521SOL     OW14461   4.902   2.444   5.221
 4521SOL    HW114462   4.834   2.479   5.286
 4521SOL    HW214463   4.971   2.392   5.270
 4522SOL     OW14464   5.103   3.327   3.386
 4522SOL    HW114465   5.138   3.367   3.470
 4522SOL    HW214466   5.105   3.227   3.393
 4523SOL     OW14467   0.234   3.756   6.493
 4523SOL    HW114468   0.231   3.800   6.403
 4523SOL    HW214469   0.144   3.764   6.536
 4524SOL     OW14470   0.649   3.208   3.086
 4524SOL    HW114471   0.662   3.114   3.117
 4524SOL    HW214472   0.616   3.208   2.991
 4525SOL     OW14473   2.148   2.677   5.972
 4525SOL    HW114474   2.170   2.694   6.068
 4525SOL    HW214475   2.052   2.701   5.955
 4526SOL     OW14476   0.749   0.387   6.315
 4526SOL    HW114477   0.803   0.321   6.367
 4526SOL    HW214478   0.787   0.479   6.329
 4527SOL     OW14479   6.767   0.112   2.893
 4527SOL    HW114480   6.701   0.184   2.872
 4527SOL    HW214481   6.855   0.134   2.851
 4528SOL     OW14482   4.070   0.872   5.498
 4528SOL    HW114483   4.066   0.804   5.571
 4528SOL    HW214484   4.026   0.835   5.416
 4529SOL     OW14485   3.059   1.036   5.504
 4529SOL    HW114486   3.076   0.953   5.558
 4529SOL    HW214487   3.083   1.019   5.408
 4530SOL     OW14488   1.989   6.344   4.980
 4530SOL    HW114489   1.954   6.375   4.892
 4530SOL    HW214490   2.089   6.340   4.977
 4531SOL     OW14491   1.360   4.929   6.373
 4531SOL    HW114492   1.299   4.923   6.294
 4531SOL    HW214493   1.445   4.880   6.352
 4532SOL     OW14494   5.346   0.700   3.058
 4532SOL    HW114495   5.261   0.702   3.111
 4532SOL    HW214496   5.415   0.648   3.109
 4533SOL     OW14497   1.992   0.339   2.659
 4533SOL    HW114498   1.991   0.439   2.666
 4533SOL    HW214499   2.045   0.312   2.579
 4534SOL     OW14500   4.392   1.771   4.554
 4534SOL    HW114501   4.359   1.852   4.604
 4534SOL    HW214502   4.388   1.691   4.614
 4535SOL     OW14503   3.448   2.054   0.971
 4535SOL    HW114504   3.402   2.105   1.043
 4535SOL    HW214505   3.440   2.104   0.884
 4536SOL     OW14506   2.540   2.045   6.025
 4536SOL    HW114507   2.597   2.065   5.946
 4536SOL    HW214508   2.517   2.130   6.073
 4537SOL     OW14509   3.296   3.693   3.957
 4537SOL    HW114510   3.200   3.705   3.983
 4537SOL    HW214511   3.354   3.735   4.028
 4538SOL     OW14512   6.757   2.780   1.623
 4538SOL    HW114513   6.776   2.847   1.695
 4538SOL    HW214514   6.667   2.799   1.583
 4539SOL     OW14515   1.748   5.068   5.240
 4539SOL    HW114516   1.824   5.079   5.177
 4539SOL    HW214517   1.729   5.156   5.285
 4540SOL     OW14518   0.348   1.174   0.585
 4540SOL    HW114519   0.299   1.089   0.568
 4540SOL    HW214520   0.301   1.250   0.540
 4541SOL     OW14521   4.032   1.532   6.543
 4541SOL    HW114522   4.125   1.508   6.571
 4541SOL    HW214523   3.990   1.453   6.499
 4542SOL     OW14524   0.184   2.154   0.597
 4542SOL    HW114525   0.256   2.093   0.564
 4542SOL    HW214526   0.193   2.166   0.696
 4543SOL     OW14527   4.217   2.396   0.538
 4543SOL    HW114528   4.212   2.304   0.499
 4543SOL    HW214529   4.302   2.440   0.509
 4544SOL     OW14530   5.098   4.934   0.467
 4544SOL    HW114531   5.052   4.881   0.537
 4544SOL    HW214532   5.110   5.028   0.499
 4545SOL     OW14533   0.802   4.071   4.680
 4545SOL    HW114534   0.732   4.106   4.617
 4545SOL    HW214535   0.868   4.144   4.700
 4546SOL     OW14536   2.712   1.458   5.523
 4546SOL    HW114537   2.810   1.474   5.519
 4546SOL    HW214538   2.681   1.459   5.618
 4547SOL     OW14539   6.458   0.624   0.513
 4547SOL    HW114540   6.408   0.666   0.437
 4547SOL    HW214541   6.541   0.581   0.479
 4548SOL     OW14542   2.194   3.000   2.763
 4548SOL    HW114543   2.186   3.036   2.670
 4548SOL    HW214544   2.134   3.052   2.824
 4549SOL     OW14545   5.656   4.625   2.339
 4549SOL    HW114546   5.638   4.648   2.434
 4549SOL    HW214547   5.667   4.709   2.286
 4550SOL     OW14548   0.557   4.707   2.874
 4550SOL    HW114549   0.621   4.631   2.883
 4550SOL    HW214550   0.467   4.671   2.850
 4551SOL     OW14551   1.722   3.509   4.708
 4551SOL    HW114552   1.782   3.539   4.782
 4551SOL    HW214553   1.629   3.541   4.724
 4552SOL     OW14554   5.926   1.309   1.372
 4552SOL    HW114555   5.941   1.210   1.375
 4552SOL    HW214556   5.865   1.331   1.296
 4553SOL     OW14557   5.055   4.836   6.277
 4553SOL    HW114558   5.103   4.895   6.211
 4553SOL    HW214559   5.102   4.748   6.282
 4554SOL     OW14560   0.344   6.190   1.307
 4554SOL    HW114561   0.393   6.214   1.223
 4554SOL    HW214562   0.255   6.151   1.283
 4555SOL     OW14563   1.520   1.606   0.053
 4555SOL    HW114564   1.615   1.586   0.075
 4555SOL    HW214565   1.463   1.528   0.078
 4556SOL     OW14566   6.260   3.219   5.805
 4556SOL    HW114567   6.296   3.310   5.784
 4556SOL    HW214568   6.178   3.228   5.861
 4557SOL     OW14569   6.320   5.144   4.128
 4557SOL    HW114570   6.255   5.220   4.128
 4557SOL    HW214571   6.306   5.089   4.211
 4558SOL     OW14572   6.003   2.939   5.460
 4558SOL    HW114573   5.972   3.001   5.388
 4558SOL    HW214574   5.959   2.965   5.546
 4559SOL     OW14575   0.683   2.945   3.163
 4559SOL    HW114576   0.622   2.885   3.112
 4559SOL    HW214577   0.777   2.931   3.132
 4560SOL     OW14578   6.973   4.537   1.620
 4560SOL    HW114579   0.040   4.538   1.580
 4560SOL    HW214580   6.904   4.553   1.549
 4561SOL     OW14581   3.156   2.169   4.239
 4561SOL    HW114582   3.245   2.134   4.208
 4561SOL    HW214583   3.104   2.203   4.161
 4562SOL     OW14584   2.110   6.800   0.519
 4562SOL    HW114585   2.052   6.854   0.580
 4562SOL    HW214586   2.126   6.710   0.560
 4563SOL     OW14587   6.954   2.863   1.414
 4563SOL    HW114588   6.882   2.830   1.476
 4563SOL    HW214589   7.023   2.912   1.467
 4564SOL     OW14590   0.308   4.401   2.146
 4564SOL    HW114591   0.214   4.417   2.115
 4564SOL    HW214592   0.353   4.338   2.084
 4565SOL     OW14593   1.790   0.470   5.087
 4565SOL    HW114594   1.791   0.514   4.998
 4565SOL    HW214595   1.883   0.451   5.117
 4566SOL     OW14596   0.127   4.160   1.321
 4566SOL    HW114597   0.191   4.227   1.281
 4566SOL    HW214598   0.179   4.081   1.354
 4567SOL     OW14599   0.129   6.947   6.167
 4567SOL    HW114600   0.132   6.926   6.264
 4567SOL    HW214601   0.118   6.862   6.115
 4568SOL     OW14602   1.032   4.386   4.008
 4568SOL    HW114603   0.976   4.311   3.973
 4568SOL    HW214604   1.124   4.380   3.968
 4569SOL     OW14605   3.104   0.957   3.207
 4569SOL    HW114606   3.185   0.951   3.149
 4569SOL    HW214607   3.113   0.895   3.285
 4570SOL     OW14608   6.599   5.519   1.334
 4570SOL    HW114609   6.518   5.523   1.276
 4570SOL    HW214610   6.613   5.425   1.366
 4571SOL     OW14611   4.093   2.783   6.494
 4571SOL    HW114612   4.111   2.871   6.451
 4571SOL    HW214613   4.060   2.718   6.425
 4572SOL     OW14614   2.679   2.460   6.822
 4572SOL    HW114615   2.650   2.552   6.795
 4572SOL    HW214616   2.770   2.441   6.785
 4573SOL     OW14617   0.968   6.356   1.018
 4573SOL    HW114618   0.907   6.336   1.095
 4573SOL    HW214619   1.063   6.341   1.046
 4574SOL     OW14620   6.136   3.552   0.054
 4574SOL    HW114621   6.132   3.466   0.105
 4574SOL    HW214622   6.056   3.608   0.077
 4575SOL     OW14623   6.389   0.952   4.513
 4575SOL    HW114624   6.415   1.042   4.548
 4575SOL    HW214625   6.314   0.962   4.447
 4576SOL     OW14626   3.128   5.026   4.913
 4576SOL    HW114627   3.086   5.078   4.987
 4576SOL    HW214628   3.076   4.943   4.897
 4577SOL     OW14629   1.695   2.008   3.152
 4577SOL    HW114630   1.676   1.947   3.229
 4577SOL    HW214631   1.624   1.995   3.082
 4578SOL     OW14632   1.617   0.473   2.753
 4578SOL    HW114633   1.519   0.478   2.768
 4578SOL    HW214634   1.636   0.463   2.655
 4579SOL     OW14635   4.666   0.104   1.826
 4579SOL    HW114636   4.599   0.112   1.899
 4579SOL    HW214637   4.701   0.194   1.801
 4580SOL     OW14638   5.740   3.440   0.214
 4580SOL    HW114639   5.654   3.439   0.265
 4580SOL    HW214640   5.748   3.355   0.160
 4581SOL     OW14641   3.143   6.747   2.026
 4581SOL    HW114642   3.119   6.698   2.110
 4581SOL    HW214643   3.239   6.732   2.005
 4582SOL     OW14644   5.318   0.948   2.937
 4582SOL    HW114645   5.269   0.932   2.851
 4582SOL    HW214646   5.336   0.860   2.982
 4583SOL     OW14647   1.982   0.218   6.532
 4583SOL    HW114648   1.950   0.123   6.530
 4583SOL    HW214649   1.987   0.249   6.627
 4584SOL     OW14650   1.584   0.038   5.887
 4584SOL    HW114651   1.627   0.120   5.924
 4584SOL    HW214652   1.493   0.026   5.927
 4585SOL     OW14653   1.686   4.041   3.538
 4585SOL    HW114654   1.784   4.020   3.542
 4585SOL    HW214655   1.658   4.049   3.442
 4586SOL     OW14656   5.102   4.264   0.301
 4586SOL    HW114657   5.124   4.319   0.381
 4586SOL    HW214658   5.021   4.209   0.319
 4587SOL     OW14659   3.242   3.552   4.810
 4587SOL    HW114660   3.281   3.612   4.879
 4587SOL    HW214661   3.143   3.565   4.807
 4588SOL     OW14662   2.954   3.786   6.119
 4588SOL    HW114663   2.930   3.769   6.214
 4588SOL    HW214664   3.053   3.781   6.108
 4589SOL     OW14665   5.359   5.935   2.016
 4589SOL    HW114666   5.317   5.920   1.926
 4589SOL    HW214667   5.413   6.019   2.014
 4590SOL     OW14668   3.530   5.519   1.744
 4590SOL    HW114669   3.459   5.452   1.763
 4590SOL    HW214670   3.488   5.608   1.727
 4591SOL     OW14671   2.512   6.708   5.364
 4591SOL    HW114672   2.466   6.732   5.279
 4591SOL    HW214673   2.456   6.738   5.442
 4592SOL     OW14674   2.554   1.343   4.684
 4592SOL    HW114675   2.523   1.282   4.757
 4592SOL    HW214676   2.482   1.349   4.614
 4593SOL     OW14677   0.143   5.556   3.172
 4593SOL    HW114678   0.111   5.538   3.265
 4593SOL    HW214679   0.067   5.590   3.116
 4594SOL     OW14680   2.736   0.290   3.229
 4594SOL    HW114681   2.737   0.256   3.135
 4594SOL    HW214682   2.824   0.333   3.250
 4595SOL     OW14683   4.819   1.636   6.240
 4595SOL    HW114684   4.785   1.665   6.151
 4595SOL    HW214685   4.918   1.623   6.236
 4596SOL     OW14686   0.894   0.825   2.085
 4596SOL    HW114687   0.993   0.826   2.099
 4596SOL    HW214688   0.873   0.857   1.993
 4597SOL     OW14689   2.664   5.140   6.697
 4597SOL    HW114690   2.684   5.056   6.746
 4597SOL    HW214691   2.686   5.219   6.756
 4598SOL     OW14692   2.266   5.170   0.027
 4598SOL    HW114693   2.344   5.137   6.998
 4598SOL    HW214694   2.212   5.234   6.995
 4599SOL     OW14695   1.709   4.079   2.794
 4599SOL    HW114696   1.700   3.982   2.770
 4599SOL    HW214697   1.700   4.135   2.711
 4600SOL     OW14698   6.819   6.474   6.164
 4600SOL    HW114699   6.828   6.432   6.073
 4600SOL    HW214700   6.887   6.436   6.226
 4601SOL     OW14701   0.830   0.940   4.659
 4601SOL    HW114702   0.888   0.860   4.641
 4601SOL    HW214703   0.864   1.018   4.608
 4602SOL     OW14704   2.671   0.395   6.682
 4602SOL    HW114705   2.740   0.435   6.621
 4602SOL    HW214706   2.668   0.448   6.767
 4603SOL     OW14707   4.476   5.968   1.103
 4603SOL    HW114708   4.451   5.873   1.122
 4603SOL    HW214709   4.425   6.028   1.164
 4604SOL     OW14710   4.934   0.135   6.012
 4604SOL    HW114711   4.854   0.148   5.953
 4604SOL    HW214712   5.015   0.170   5.966
 4605SOL     OW14713   2.222   6.989   1.867
 4605SOL    HW114714   2.178   0.052   1.888
 4605SOL    HW214715   2.167   6.915   1.906
 4606SOL     OW14716   0.002   6.483   2.638
 4606SOL    HW114717   6.986   6.574   2.639
 4606SOL    HW214718   0.089   6.485   2.588
 4607SOL     OW14719   2.140   3.933   3.129
 4607SOL    HW114720   2.063   3.930   3.065
 4607SOL    HW214721   2.204   4.004   3.100
 4608SOL     OW14722   6.903   3.100   5.202
 4608SOL    HW114723   6.978   3.122   5.264
 4608SOL    HW214724   6.928   3.124   5.108
 4609SOL     OW14725   4.240   6.306   6.534
 4609SOL    HW114726   4.194   6.221   6.561
 4609SOL    HW214727   4.212   6.380   6.594
 4610SOL     OW14728   5.670   2.018   6.851
 4610SOL    HW114729   5.652   2.116   6.855
 4610SOL    HW214730   5.663   1.979   6.943
 4611SOL     OW14731   0.455   0.774   5.715
 4611SOL    HW114732   0.385   0.703   5.729
 4611SOL    HW214733   0.416   0.848   5.661
 4612SOL     OW14734   2.243   6.365   2.418
 4612SOL    HW114735   2.272   6.396   2.509
 4612SOL    HW214736   2.235   6.265   2.418
 4613SOL     OW14737   1.873   4.735   2.193
 4613SOL    HW114738   1.817   4.652   2.193
 4613SOL    HW214739   1.943   4.727   2.123
 4614SOL     OW14740   6.024   2.974   3.885
 4614SOL    HW114741   6.093   2.957   3.955
 4614SOL    HW214742   5.947   3.022   3.925
 4615SOL     OW14743   0.837   1.073   1.203
 4615SOL    HW114744   0.802   1.162   1.233
 4615SOL    HW214745   0.936   1.078   1.193
 4616SOL     OW14746   6.216   2.615   5.156
 4616SOL    HW114747   6.155   2.653   5.087
 4616SOL    HW214748   6.299   2.671   5.161
 4617SOL     OW14749   0.267   2.773   2.097
 4617SOL    HW114750   0.256   2.818   2.009
 4617SOL    HW214751   0.185   2.788   2.153
 4618SOL     OW14752   2.246   3.849   5.493
 4618SOL    HW114753   2.238   3.751   5.514
 4618SOL    HW214754   2.286   3.897   5.571
 4619SOL     OW14755   3.177   6.305   4.393
 4619SOL    HW114756   3.155   6.389   4.443
 4619SOL    HW214757   3.175   6.227   4.455
 4620SOL     OW14758   0.500   5.230   1.250
 4620SOL    HW114759   0.502   5.248   1.152
 4620SOL    HW214760   0.593   5.217   1.284
 4621SOL     OW14761   4.928   0.390   2.456
 4621SOL    HW114762   4.885   0.303   2.481
 4621SOL    HW214763   4.859   0.462   2.454
 4622SOL     OW14764   4.293   5.306   0.995
 4622SOL    HW114765   4.334   5.397   1.001
 4622SOL    HW214766   4.193   5.316   0.989
 4623SOL     OW14767   3.306   5.154   0.926
 4623SOL    HW114768   3.367   5.210   0.869
 4623SOL    HW214769   3.350   5.065   0.944
 4624SOL     OW14770   3.932   1.242   3.591
 4624SOL    HW114771   3.937   1.187   3.507
 4624SOL    HW214772   3.913   1.337   3.567
 4625SOL     OW14773   1.954   5.490   1.899
 4625SOL    HW114774   1.936   5.567   1.837
 4625SOL    HW214775   1.876   5.479   1.961
 4626SOL     OW14776   4.036   3.982   1.845
 4626SOL    HW114777   3.960   4.041   1.815
 4626SOL    HW214778   4.122   4.018   1.808
 4627SOL     OW14779   0.080   5.821   4.590
 4627SOL    HW114780   0.174   5.799   4.564
 4627SOL    HW214781   0.078   5.853   4.685
 4628SOL     OW14782   4.570   4.937   3.439
 4628SOL    HW114783   4.659   4.965   3.472
 4628SOL    HW214784   4.499   4.971   3.500
 4629SOL     OW14785   2.028   5.636   6.690
 4629SOL    HW114786   1.979   5.718   6.660
 4629SOL    HW214787   2.085   5.602   6.616
 4630SOL     OW14788   1.439   5.065   2.321
 4630SOL    HW114789   1.375   5.093   2.250
 4630SOL    HW214790   1.392   5.064   2.409
 4631SOL     OW14791   7.016   0.207   3.953
 4631SOL    HW114792   7.006   0.211   3.853
 4631SOL    HW214793   0.013   0.113   3.980
 4632SOL     OW14794   3.163   5.225   2.634
 4632SOL    HW114795   3.130   5.223   2.540
 4632SOL    HW214796   3.174   5.131   2.668
 4633SOL     OW14797   5.445   1.564   4.455
 4633SOL    HW114798   5.519   1.630   4.458
 4633SOL    HW214799   5.360   1.610   4.430
 4634SOL     OW14800   2.919   3.789   4.878
 4634SOL    HW114801   2.934   3.872   4.823
 4634SOL    HW214802   2.914   3.813   4.975
 4635SOL     OW14803   4.897   5.244   0.797
 4635SOL    HW114804   4.892   5.307   0.875
 4635SOL    HW214805   4.969   5.177   0.812
 4636SOL     OW14806   2.218   5.221   0.560
 4636SOL    HW114807   2.260   5.274   0.634
 4636SOL    HW214808   2.122   5.206   0.580
 4637SOL     OW14809   1.602   6.968   1.668
 4637SOL    HW114810   1.506   6.961   1.697
 4637SOL    HW214811   1.613   6.924   1.579
 4638SOL     OW14812   3.977   5.015   0.624
 4638SOL    HW114813   3.935   5.026   0.713
 4638SOL    HW214814   4.070   5.053   0.625
 4639SOL     OW14815   2.512   2.778   0.500
 4639SOL    HW114816   2.435   2.764   0.562
 4639SOL    HW214817   2.482   2.761   0.406
 4640SOL     OW14818   5.786   3.363   5.787
 4640SOL    HW114819   5.761   3.378   5.692
 4640SOL    HW214820   5.750   3.438   5.843
 4641SOL     OW14821   0.818   6.129   4.110
 4641SOL    HW114822   0.888   6.190   4.145
 4641SOL    HW214823   0.851   6.034   4.111
 4642SOL     OW14824   1.596   1.739   3.826
 4642SOL    HW114825   1.513   1.765   3.874
 4642SOL    HW214826   1.623   1.647   3.852
 4643SOL     OW14827   6.974   2.290   6.838
 4643SOL    HW114828   6.936   2.283   6.745
 4643SOL    HW214829   6.973   2.386   6.866
 4644SOL     OW14830   1.533   1.464   6.784
 4644SOL    HW114831   1.545   1.461   6.684
 4644SOL    HW214832   1.594   1.533   6.822
 4645SOL     OW14833   1.423   0.865   3.743
 4645SOL    HW114834   1.397   0.883   3.648
 4645SOL    HW214835   1.342   0.865   3.801
 4646SOL     OW14836   2.460   5.441   4.066
 4646SOL    HW114837   2.404   5.463   3.986
 4646SOL    HW214838   2.555   5.428   4.037
 4647SOL     OW14839   2.099   6.469   3.352
 4647SOL    HW114840   2.171   6.520   3.305
 4647SOL    HW214841   2.087   6.380   3.308
 4648SOL     OW14842   2.927   1.161   3.923
 4648SOL    HW114843   2.975   1.094   3.868
 4648SOL    HW214844   2.920   1.128   4.018
 4649SOL     OW14845   6.246   0.771   0.742
 4649SOL    HW114846   6.156   0.806   0.767
 4649SOL    HW214847   6.242   0.728   0.652
 4650SOL     OW14848   5.404   6.103   1.565
 4650SOL    HW114849   5.328   6.080   1.627
 4650SOL    HW214850   5.490   6.071   1.605
 4651SOL     OW14851   6.680   3.899   6.305
 4651SOL    HW114852   6.592   3.868   6.342
 4651SOL    HW214853   6.665   3.950   6.221
 4652SOL     OW14854   0.189   5.962   4.303
 4652SOL    HW114855   0.192   5.985   4.400
 4652SOL    HW214856   0.278   5.983   4.261
 4653SOL     OW14857   4.861   5.924   0.564
 4653SOL    HW114858   4.787   5.920   0.631
 4653SOL    HW214859   4.829   5.970   0.482
 4654SOL     OW14860   6.563   6.567   4.497
 4654SOL    HW114861   6.589   6.593   4.404
 4654SOL    HW214862   6.465   6.545   4.499
 4655SOL     OW14863   5.401   2.621   1.178
 4655SOL    HW114864   5.411   2.528   1.214
 4655SOL    HW214865   5.480   2.676   1.204
 4656SOL     OW14866   0.816   0.710   1.729
 4656SOL    HW114867   0.717   0.718   1.721
 4656SOL    HW214868   0.853   0.792   1.772
 4657SOL     OW14869   5.136   6.829   2.010
 4657SOL    HW114870   5.108   6.828   2.107
 4657SOL    HW214871   5.087   6.903   1.963
 4658SOL     OW14872   2.523   2.783   5.480
 4658SOL    HW114873   2.470   2.862   5.509
 4658SOL    HW214874   2.520   2.776   5.380
 4659SOL     OW14875   3.642   4.572   1.103
 4659SOL    HW114876   3.664   4.532   1.014
 4659SOL    HW214877   3.546   4.599   1.105
 4660SOL     OW14878   1.079   6.505   3.802
 4660SOL    HW114879   1.046   6.561   3.725
 4660SOL    HW214880   1.012   6.433   3.820
 4661SOL     OW14881   1.852   3.911   5.544
 4661SOL    HW114882   1.827   4.000   5.581
 4661SOL    HW214883   1.775   3.872   5.494
 4662SOL     OW14884   2.665   6.733   5.006
 4662SOL    HW114885   2.667   6.636   5.028
 4662SOL    HW214886   2.671   6.745   4.907
 4663SOL     OW14887   1.307   0.297   0.197
 4663SOL    HW114888   1.253   0.380   0.206
 4663SOL    HW214889   1.260   0.222   0.244
 4664SOL     OW14890   6.420   0.068   0.905
 4664SOL    HW114891   6.515   0.095   0.894
 4664SOL    HW214892   6.412   6.993   0.901
 4665SOL     OW14893   2.103   0.545   5.455
 4665SOL    HW114894   2.175   0.595   5.405
 4665SOL    HW214895   2.027   0.606   5.474
 4666SOL     OW14896   2.012   2.504   6.656
 4666SOL    HW114897   1.940   2.442   6.686
 4666SOL    HW214898   1.990   2.597   6.687
 4667SOL     OW14899   6.899   3.450   2.057
 4667SOL    HW114900   6.984   3.502   2.059
 4667SOL    HW214901   6.822   3.513   2.046
 4668SOL     OW14902   3.982   2.190   4.868
 4668SOL    HW114903   4.047   2.220   4.799
 4668SOL    HW214904   3.893   2.172   4.826
 4669SOL     OW14905   5.294   0.086   0.563
 4669SOL    HW114906   5.376   0.113   0.512
 4669SOL    HW214907   5.283   7.011   0.559
 4670SOL     OW14908   1.570   3.536   0.093
 4670SOL    HW114909   1.505   3.612   0.086
 4670SOL    HW214910   1.663   3.572   0.084
 4671SOL     OW14911   0.664   3.198   0.063
 4671SOL    HW114912   0.739   3.144   0.103
 4671SOL    HW214913   0.659   3.286   0.109
 4672SOL     OW14914   3.478   4.356   5.653
 4672SOL    HW114915   3.433   4.271   5.627
 4672SOL    HW214916   3.521   4.397   5.573
 4673SOL     OW14917   4.857   0.647   6.827
 4673SOL    HW114918   4.935   0.590   6.852
 4673SOL    HW214919   4.887   0.742   6.816
 4674SOL     OW14920   0.161   1.549   0.435
 4674SOL    HW114921   0.157   1.646   0.461
 4674SOL    HW214922   0.143   1.493   0.516
 4675SOL     OW14923   3.715   6.053   6.931
 4675SOL    HW114924   3.793   6.072   6.990
 4675SOL    HW214925   3.693   6.134   6.876
 4676SOL     OW14926   0.962   6.298   4.966
 4676SOL    HW114927   1.012   6.384   4.970
 4676SOL    HW214928   0.939   6.268   5.059
 4677SOL     OW14929   3.155   0.438   6.808
 4677SOL    HW114930   3.160   0.373   6.732
 4677SOL    HW214931   3.237   0.430   6.864
 4678SOL     OW14932   1.824   5.000   1.751
 4678SOL    HW114933   1.897   4.990   1.684
 4678SOL    HW214934   1.795   5.096   1.754
 4679SOL     OW14935   2.599   1.192   6.056
 4679SOL    HW114936   2.620   1.290   6.065
 4679SOL    HW214937   2.574   1.155   6.145
 4680SOL     OW14938   2.027   5.269   1.341
 4680SOL    HW114939   2.088   5.212   1.395
 4680SOL    HW214940   1.947   5.293   1.396
 4681SOL     OW14941   0.489   5.551   5.172
 4681SOL    HW114942   0.392   5.529   5.180
 4681SOL    HW214943   0.543   5.483   5.222
 4682SOL     OW14944   4.095   6.539   0.402
 4682SOL    HW114945   4.190   6.568   0.401
 4682SOL    HW214946   4.044   6.587   0.330
 4683SOL     OW14947   6.653   3.840   2.369
 4683SOL    HW114948   6.661   3.879   2.460
 4683SOL    HW214949   6.563   3.798   2.358
 4684SOL     OW14950   1.542   2.943   4.981
 4684SOL    HW114951   1.496   3.027   4.952
 4684SOL    HW214952   1.473   2.877   5.011
 4685SOL     OW14953   6.088   5.394   4.155
 4685SOL    HW114954   6.022   5.330   4.196
 4685SOL    HW214955   6.045   5.441   4.078
 4686SOL     OW14956   4.906   6.170   6.949
 4686SOL    HW114957   4.892   6.072   6.961
 4686SOL    HW214958   4.987   6.186   6.893
 4687SOL     OW14959   6.551   3.946   4.492
 4687SOL    HW114960   6.527   4.013   4.563
 4687SOL    HW214961   6.506   3.971   4.407
 4688SOL     OW14962   0.335   3.411   6.714
 4688SOL    HW114963   0.277   3.332   6.731
 4688SOL    HW214964   0.352   3.460   6.800
 4689SOL     OW14965   0.015   0.222   6.012
 4689SOL    HW114966   0.047   0.143   5.959
 4689SOL    HW214967   0.085   0.247   6.079
 4690SOL     OW14968   1.557   1.279   0.226
 4690SOL    HW114969   1.562   1.283   0.126
 4690SOL    HW214970   1.554   1.183   0.255
 4691SOL     OW14971   2.681   4.247   1.056
 4691SOL    HW114972   2.637   4.164   1.024
 4691SOL    HW214973   2.641   4.274   1.144
 4692SOL     OW14974   0.107   5.099   2.839
 4692SOL    HW114975   0.134   5.013   2.883
 4692SOL    HW214976   0.080   5.165   2.909
 4693SOL     OW14977   0.547   1.294   4.479
 4693SOL    HW114978   0.640   1.322   4.504
 4693SOL    HW214979   0.527   1.205   4.519
 4694SOL     OW14980   2.461   1.135   6.968
 4694SOL    HW114981   2.545   1.089   6.941
 4694SOL    HW214982   2.439   1.207   6.902
 4695SOL     OW14983   3.706   2.801   1.882
 4695SOL    HW114984   3.741   2.716   1.841
 4695SOL    HW214985   3.751   2.879   1.840
 4696SOL     OW14986   0.158   3.610   6.099
 4696SOL    HW114987   0.207   3.561   6.027
 4696SOL    HW214988   0.074   3.561   6.121
 4697SOL     OW14989   1.675   3.915   0.030
 4697SOL    HW114990   1.727   3.844   0.078
 4697SOL    HW214991   1.607   3.872   6.995
 4698SOL     OW14992   5.501   4.798   1.249
 4698SOL    HW114993   5.500   4.889   1.209
 4698SOL    HW214994   5.554   4.799   1.334
 4699SOL     OW14995   0.209   0.194   2.162
 4699SOL    HW114996   0.193   0.240   2.074
 4699SOL    HW214997   0.189   0.257   2.237
 4700SOL     OW14998   5.278   1.450   1.026
 4700SOL    HW114999   5.255   1.547   1.032
 4700SOL    HW215000   5.361   1.432   1.079
 4701SOL     OW15001   0.978   1.443   0.582
 4701SOL    HW115002   0.908   1.377   0.611
 4701SOL    HW215003   1.017   1.487   0.663
 4702SOL     OW15004   3.794   3.793   6.495
 4702SOL    HW115005   3.812   3.696   6.515
 4702SOL    HW215006   3.880   3.840   6.477
 4703SOL     OW15007   1.769   1.246   3.190
 4703SOL    HW115008   1.760   1.162   3.137
 4703SOL    HW215009   1.839   1.235   3.260
 4704SOL     OW15010   0.509   6.703   0.879
 4704SOL    HW115011   0.573   6.768   0.920
 4704SOL    HW215012   0.559   6.622   0.848
 4705SOL     OW15013   3.695   2.882   4.266
 4705SOL    HW115014   3.698   2.874   4.366
 4705SOL    HW215015   3.600   2.891   4.236
 4706SOL     OW15016   3.586   5.891   6.728
 4706SOL    HW115017   3.626   5.941   6.805
 4706SOL    HW215018   3.488   5.880   6.743
 4707SOL     OW15019   1.628   5.600   1.156
 4707SOL    HW115020   1.626   5.669   1.084
 4707SOL    HW215021   1.631   5.645   1.245
 4708SOL     OW15022   3.116   2.297   0.596
 4708SOL    HW115023   3.190   2.252   0.546
 4708SOL    HW215024   3.108   2.392   0.566
 4709SOL     OW15025   3.780   4.798   5.212
 4709SOL    HW115026   3.852   4.845   5.160
 4709SOL    HW215027   3.803   4.701   5.218
 4710SOL     OW15028   4.652   1.319   6.878
 4710SOL    HW115029   4.676   1.228   6.843
 4710SOL    HW215030   4.666   1.386   6.805
 4711SOL     OW15031   3.064   0.227   2.424
 4711SOL    HW115032   3.019   0.295   2.365
 4711SOL    HW215033   3.103   0.155   2.368
 4712SOL     OW15034   1.736   4.716   1.113
 4712SOL    HW115035   1.701   4.731   1.021
 4712SOL    HW215036   1.659   4.716   1.178
 4713SOL     OW15037   2.886   5.489   1.340
 4713SOL    HW115038   2.928   5.547   1.409
 4713SOL    HW215039   2.786   5.493   1.349
 4714SOL     OW15040   2.764   1.278   1.492
 4714SOL    HW115041   2.745   1.349   1.559
 4714SOL    HW215042   2.862   1.276   1.472
 4715SOL     OW15043   6.854   3.069   2.811
 4715SOL    HW115044   6.846   3.004   2.735
 4715SOL    HW215045   6.941   3.055   2.858
 4716SOL     OW15046   3.795   5.204   6.683
 4716SOL    HW115047   3.820   5.280   6.623
 4716SOL    HW215048   3.748   5.240   6.764
 4717SOL     OW15049   1.190   5.928   2.573
 4717SOL    HW115050   1.273   5.872   2.576
 4717SOL    HW215051   1.127   5.891   2.504
 4718SOL     OW15052   5.101   1.814   6.536
 4718SOL    HW115053   5.006   1.806   6.566
 4718SOL    HW215054   5.154   1.863   6.605
 4719SOL     OW15055   5.815   3.658   2.607
 4719SOL    HW115056   5.810   3.636   2.509
 4719SOL    HW215057   5.789   3.578   2.660
 4720SOL     OW15058   2.599   6.311   5.927
 4720SOL    HW115059   2.527   6.304   5.996
 4720SOL    HW215060   2.560   6.297   5.836
 4721SOL     OW15061   1.420   2.099   0.934
 4721SOL    HW115062   1.378   2.025   0.986
 4721SOL    HW215063   1.490   2.061   0.873
 4722SOL     OW15064   1.787   6.633   0.445
 4722SOL    HW115065   1.849   6.696   0.398
 4722SOL    HW215066   1.693   6.667   0.436
 4723SOL     OW15067   2.743   6.468   6.706
 4723SOL    HW115068   2.814   6.426   6.649
 4723SOL    HW215069   2.689   6.396   6.751
 4724SOL     OW15070   3.927   6.484   2.398
 4724SOL    HW115071   3.968   6.458   2.311
 4724SOL    HW215072   3.873   6.407   2.433
 4725SOL     OW15073   4.917   6.353   3.102
 4725SOL    HW115074   4.943   6.368   3.006
 4725SOL    HW215075   4.933   6.257   3.125
 4726SOL     OW15076   1.439   3.883   6.569
 4726SOL    HW115077   1.500   3.961   6.585
 4726SOL    HW215078   1.405   3.849   6.657
 4727SOL     OW15079   6.641   5.740   0.171
 4727SOL    HW115080   6.582   5.811   0.209
 4727SOL    HW215081   6.736   5.758   0.197
 4728SOL     OW15082   6.466   1.404   6.950
 4728SOL    HW115083   6.445   1.309   6.926
 4728SOL    HW215084   6.381   1.452   6.972
 4729SOL     OW15085   2.593   0.345   2.171
 4729SOL    HW115086   2.534   0.269   2.142
 4729SOL    HW215087   2.676   0.308   2.212
 4730SOL     OW15088   2.404   6.063   5.730
 4730SOL    HW115089   2.383   6.118   5.811
 4730SOL    HW215090   2.464   5.987   5.757
 4731SOL     OW15091   5.664   1.039   4.896
 4731SOL    HW115092   5.699   1.122   4.852
 4731SOL    HW215093   5.567   1.051   4.917
 4732SOL     OW15094   6.998   3.298   6.881
 4732SOL    HW115095   0.012   3.234   6.947
 4732SOL    HW215096   0.038   3.312   6.806
 4733SOL     OW15097   0.370   3.328   2.752
 4733SOL    HW115098   0.436   3.401   2.735
 4733SOL    HW215099   0.278   3.367   2.756
 4734SOL     OW15100   4.799   3.345   0.029
 4734SOL    HW115101   4.701   3.357   0.013
 4734SOL    HW215102   4.850   3.407   6.994
 4735SOL     OW15103   0.636   4.086   4.232
 4735SOL    HW115104   0.593   4.176   4.238
 4735SOL    HW215105   0.595   4.034   4.157
 4736SOL     OW15106   0.810   1.219   7.011
 4736SOL    HW115107   0.720   1.196   0.022
 4736SOL    HW215108   0.850   1.293   0.041
 4737SOL     OW15109   2.698   4.872   2.069
 4737SOL    HW115110   2.741   4.785   2.094
 4737SOL    HW215111   2.621   4.889   2.131
 4738SOL     OW15112   6.691   6.239   1.889
 4738SOL    HW115113   6.769   6.198   1.936
 4738SOL    HW215114   6.680   6.334   1.918
 4739SOL     OW15115   4.053   0.510   2.457
 4739SOL    HW115116   4.052   0.589   2.396
 4739SOL    HW215117   3.987   0.524   2.531
 4740SOL     OW15118   0.677   2.138   2.624
 4740SOL    HW115119   0.680   2.042   2.653
 4740SOL    HW215120   0.738   2.192   2.681
 4741SOL     OW15121   3.891   3.031   1.891
 4741SOL    HW115122   3.874   2.983   1.977
 4741SOL    HW215123   3.986   3.017   1.864
 4742SOL     OW15124   2.674   6.872   0.131
 4742SOL    HW115125   2.611   6.882   0.054
 4742SOL    HW215126   2.757   6.825   0.102
 4743SOL     OW15127   2.028   4.249   1.794
 4743SOL    HW115128   2.096   4.318   1.815
 4743SOL    HW215129   1.956   4.289   1.737
 4744SOL     OW15130   1.973   6.498   0.936
 4744SOL    HW115131   1.928   6.586   0.920
 4744SOL    HW215132   1.904   6.425   0.936
 4745SOL     OW15133   2.207   4.310   0.707
 4745SOL    HW115134   2.149   4.392   0.713
 4745SOL    HW215135   2.223   4.289   0.610
 4746SOL     OW15136   4.712   5.377   4.047
 4746SOL    HW115137   4.735   5.283   4.072
 4746SOL    HW215138   4.671   5.424   4.125
 4747SOL     OW15139   1.826   3.029   0.796
 4747SOL    HW115140   1.881   2.972   0.734
 4747SOL    HW215141   1.766   3.087   0.742
 4748SOL     OW15142   1.744   6.316   2.929
 4748SOL    HW115143   1.745   6.366   3.016
 4748SOL    HW215144   1.836   6.283   2.909
 4749SOL     OW15145   1.821   0.445   0.544
 4749SOL    HW115146   1.777   0.463   0.456
 4749SOL    HW215147   1.858   0.352   0.545
 4750SOL     OW15148   5.671   3.454   4.760
 4750SOL    HW115149   5.576   3.483   4.750
 4750SOL    HW215150   5.732   3.526   4.725
 4751SOL     OW15151   4.944   0.867   2.410
 4751SOL    HW115152   4.933   0.861   2.509
 4751SOL    HW215153   4.914   0.956   2.378
 4752SOL     OW15154   4.302   2.241   7.019
 4752SOL    HW115155   4.311   2.307   0.069
 4752SOL    HW215156   4.211   2.200   7.021
 4753SOL     OW15157   2.538   6.453   5.266
 4753SOL    HW115158   2.496   6.379   5.319
 4753SOL    HW215159   2.516   6.541   5.309
 4754SOL     OW15160   4.466   4.506   6.930
 4754SOL    HW115161   4.469   4.540   6.836
 4754SOL    HW215162   4.375   4.471   6.950
 4755SOL     OW15163   1.602   0.712   1.906
 4755SOL    HW115164   1.581   0.616   1.889
 4755SOL    HW215165   1.516   0.762   1.921
 4756SOL     OW15166   5.995   4.236   6.647
 4756SOL    HW115167   6.012   4.258   6.743
 4756SOL    HW215168   6.074   4.187   6.609
 4757SOL     OW15169   1.924   2.959   1.504
 4757SOL    HW115170   1.845   2.923   1.454
 4757SOL    HW215171   1.974   3.022   1.445
 4758SOL     OW15172   1.620   0.224   3.189
 4758SOL    HW115173   1.658   0.234   3.097
 4758SOL    HW215174   1.645   0.304   3.244
 4759SOL     OW15175   0.939   5.021   1.229
 4759SOL    HW115176   0.998   4.992   1.154
 4759SOL    HW215177   0.965   4.972   1.312
 4760SOL     OW15178   1.762   6.729   0.742
 4760SOL    HW115179   1.793   6.823   0.728
 4760SOL    HW215180   1.727   6.692   0.656
 4761SOL     OW15181   0.375   6.725   0.567
 4761SOL    HW115182   0.382   6.627   0.586
 4761SOL    HW215183   0.330   6.771   0.644
 4762SOL     OW15184   2.196   5.659   2.431
 4762SOL    HW115185   2.138   5.645   2.511
 4762SOL    HW215186   2.286   5.691   2.461
 4763SOL     OW15187   4.619   5.582   1.862
 4763SOL    HW115188   4.632   5.648   1.788
 4763SOL    HW215189   4.689   5.510   1.854
 4764SOL     OW15190   4.605   3.886   5.976
 4764SOL    HW115191   4.604   3.899   5.877
 4764SOL    HW215192   4.516   3.850   6.006
 4765SOL     OW15193   4.010   1.729   5.277
 4765SOL    HW115194   4.077   1.657   5.259
 4765SOL    HW215195   3.919   1.698   5.252
 4766SOL     OW15196   6.681   6.822   4.107
 4766SOL    HW115197   6.717   6.823   4.200
 4766SOL    HW215198   6.754   6.799   4.043
 4767SOL     OW15199   2.223   5.188   4.627
 4767SOL    HW115200   2.234   5.284   4.601
 4767SOL    HW215201   2.294   5.133   4.583
 4768SOL     OW15202   4.691   2.557   6.705
 4768SOL    HW115203   4.777   2.592   6.668
 4768SOL    HW215204   4.699   2.459   6.720
 4769SOL     OW15205   3.485   5.651   1.430
 4769SOL    HW115206   3.465   5.718   1.358
 4769SOL    HW215207   3.412   5.582   1.432
 4770SOL     OW15208   6.968   1.701   5.321
 4770SOL    HW115209   6.930   1.614   5.290
 4770SOL    HW215210   0.041   1.705   5.300
 4771SOL     OW15211   2.666   0.154   5.147
 4771SOL    HW115212   2.609   0.235   5.130
 4771SOL    HW215213   2.730   0.142   5.071
 4772SOL     OW15214   2.564   5.645   0.848
 4772SOL    HW115215   2.602   5.723   0.799
 4772SOL    HW215216   2.587   5.653   0.946
 4773SOL     OW15217   2.234   5.680   4.837
 4773SOL    HW115218   2.250   5.663   4.740
 4773SOL    HW215219   2.317   5.716   4.879
 4774SOL     OW15220   1.383   3.739   0.079
 4774SOL    HW115221   1.387   3.750   0.178
 4774SOL    HW215222   1.290   3.756   0.047
 4775SOL     OW15223   5.649   6.529   4.939
 4775SOL    HW115224   5.611   6.489   5.022
 4775SOL    HW215225   5.697   6.614   4.961
 4776SOL     OW15226   1.422   0.574   6.330
 4776SOL    HW115227   1.346   0.611   6.383
 4776SOL    HW215228   1.398   0.484   6.294
 4777SOL     OW15229   0.806   5.943   0.843
 4777SOL    HW115230   0.736   5.872   0.830
 4777SOL    HW215231   0.895   5.906   0.815
 4778SOL     OW15232   0.916   2.289   5.258
 4778SOL    HW115233   0.909   2.383   5.225
 4778SOL    HW215234   0.994   2.243   5.214
 4779SOL     OW15235   5.515   1.441   3.751
 4779SOL    HW115236   5.440   1.388   3.791
 4779SOL    HW215237   5.547   1.508   3.818
 4780SOL     OW15238   5.709   2.551   5.316
 4780SOL    HW115239   5.716   2.567   5.217
 4780SOL    HW215240   5.800   2.556   5.357
 4781SOL     OW15241   1.837   5.807   2.360
 4781SOL    HW115242   1.863   5.862   2.439
 4781SOL    HW215243   1.919   5.765   2.321
 4782SOL     OW15244   5.503   4.895   4.772
 4782SOL    HW115245   5.553   4.962   4.717
 4782SOL    HW215246   5.567   4.838   4.823
 4783SOL     OW15247   6.194   2.969   1.066
 4783SOL    HW115248   6.273   2.917   1.096
 4783SOL    HW215249   6.223   3.045   1.009
 4784SOL     OW15250   5.436   2.416   6.287
 4784SOL    HW115251   5.358   2.469   6.256
 4784SOL    HW215252   5.479   2.462   6.364
 4785SOL     OW15253   0.989   5.848   3.462
 4785SOL    HW115254   1.074   5.856   3.515
 4785SOL    HW215255   0.913   5.886   3.514
 4786SOL     OW15256   3.076   6.582   0.565
 4786SOL    HW115257   3.143   6.508   0.555
 4786SOL    HW215258   3.124   6.668   0.583
 4787SOL     OW15259   3.993   1.485   4.813
 4787SOL    HW115260   3.978   1.427   4.893
 4787SOL    HW215261   3.912   1.540   4.796
 4788SOL     OW15262   6.169   6.048   6.806
 4788SOL    HW115263   6.103   6.100   6.860
 4788SOL    HW215264   6.243   6.108   6.776
 4789SOL     OW15265   4.888   0.650   2.213
 4789SOL    HW115266   4.830   0.598   2.275
 4789SOL    HW215267   4.933   0.724   2.263
 4790SOL     OW15268   5.715   1.914   5.192
 4790SOL    HW115269   5.655   1.912   5.112
 4790SOL    HW215270   5.809   1.932   5.164
 4791SOL     OW15271   6.994   2.670   0.419
 4791SOL    HW115272   7.002   2.693   0.516
 4791SOL    HW215273   6.900   2.685   0.389
 4792SOL     OW15274   2.136   3.729   4.154
 4792SOL    HW115275   2.116   3.757   4.061
 4792SOL    HW215276   2.113   3.632   4.166
 4793SOL     OW15277   0.838   3.651   6.249
 4793SOL    HW115278   0.879   3.563   6.223
 4793SOL    HW215279   0.880   3.683   6.334
 4794SOL     OW15280   4.614   0.701   4.281
 4794SOL    HW115281   4.587   0.740   4.369
 4794SOL    HW215282   4.548   0.630   4.255
 4795SOL     OW15283   0.419   0.572   5.238
 4795SOL    HW115284   0.492   0.568   5.306
 4795SOL    HW215285   0.332   0.546   5.281
 4796SOL     OW15286   3.598   1.369   5.546
 4796SOL    HW115287   3.665   1.440   5.567
 4796SOL    HW215288   3.506   1.408   5.550
 4797SOL     OW15289   0.986   5.374   4.755
 4797SOL    HW115290   1.061   5.366   4.689
 4797SOL    HW215291   0.973   5.471   4.778
 4798SOL     OW15292   4.910   4.820   6.520
 4798SOL    HW115293   4.864   4.908   6.528
 4798SOL    HW215294   4.972   4.822   6.441
 4799SOL     OW15295   3.328   2.964   6.585
 4799SOL    HW115296   3.392   2.964   6.662
 4799SOL    HW215297   3.344   3.045   6.529
 4800SOL     OW15298   1.581   5.091   0.008
 4800SOL    HW115299   1.540   5.048   6.952
 4800SOL    HW215300   1.679   5.071   0.010
 4801SOL     OW15301   4.747   2.428   1.755
 4801SOL    HW115302   4.710   2.495   1.820
 4801SOL    HW215303   4.759   2.471   1.666
 4802SOL     OW15304   7.002   6.204   2.247
 4802SOL    HW115305   6.988   6.234   2.342
 4802SOL    HW215306   0.057   6.143   2.243
 4803SOL     OW15307   5.465   4.357   6.577
 4803SOL    HW115308   5.492   4.269   6.537
 4803SOL    HW215309   5.536   4.425   6.558
 4804SOL     OW15310   5.400   1.639   0.467
 4804SOL    HW115311   5.374   1.733   0.489
 4804SOL    HW215312   5.358   1.576   0.533
 4805SOL     OW15313   6.183   1.948   1.196
 4805SOL    HW115314   6.091   1.980   1.219
 4805SOL    HW215315   6.246   2.027   1.195
 4806SOL     OW15316   1.240   2.747   3.064
 4806SOL    HW115317   1.174   2.678   3.095
 4806SOL    HW215318   1.250   2.741   2.965
 4807SOL     OW15319   1.419   2.833   6.803
 4807SOL    HW115320   1.416   2.756   6.739
 4807SOL    HW215321   1.490   2.898   6.774
 4808SOL     OW15322   3.733   5.918   0.707
 4808SOL    HW115323   3.773   5.977   0.778
 4808SOL    HW215324   3.777   5.828   0.710
 4809SOL     OW15325   3.520   5.000   1.675
 4809SOL    HW115326   3.476   5.073   1.726
 4809SOL    HW215327   3.452   4.950   1.622
 4810SOL     OW15328   1.266   3.807   3.864
 4810SOL    HW115329   1.190   3.870   3.847
 4810SOL    HW215330   1.233   3.730   3.919
 4811SOL     OW15331   3.068   3.938   4.667
 4811SOL    HW115332   3.168   3.928   4.662
 4811SOL    HW215333   3.030   3.941   4.575
 4812SOL     OW15334   0.281   6.650   2.268
 4812SOL    HW115335   0.229   6.675   2.186
 4812SOL    HW215336   0.371   6.693   2.265
 4813SOL     OW15337   6.236   1.536   6.936
 4813SOL    HW115338   6.163   1.467   6.940
 4813SOL    HW215339   6.208   1.611   6.876
 4814SOL     OW15340   6.992   3.781   1.483
 4814SOL    HW115341   6.971   3.835   1.564
 4814SOL    HW215342   7.019   3.688   1.511
 4815SOL     OW15343   5.859   4.796   2.496
 4815SOL    HW115344   5.788   4.788   2.566
 4815SOL    HW215345   5.817   4.820   2.409
 4816SOL     OW15346   1.531   6.907   2.059
 4816SOL    HW115347   1.533   6.891   2.157
 4816SOL    HW215348   1.487   6.830   2.013
 4817SOL     OW15349   3.848   1.455   1.608
 4817SOL    HW115350   3.772   1.419   1.661
 4817SOL    HW215351   3.812   1.502   1.527
 4818SOL     OW15352   2.893   0.659   4.727
 4818SOL    HW115353   2.943   0.744   4.747
 4818SOL    HW215354   2.852   0.624   4.812
 4819SOL     OW15355   3.362   0.997   1.567
 4819SOL    HW115356   3.420   1.010   1.647
 4819SOL    HW215357   3.331   1.086   1.533
 4820SOL     OW15358   6.903   4.348   2.385
 4820SOL    HW115359   6.997   4.323   2.361
 4820SOL    HW215360   6.855   4.268   2.420
 4821SOL     OW15361   6.363   5.250   1.653
 4821SOL    HW115362   6.437   5.315   1.634
 4821SOL    HW215363   6.402   5.159   1.667
 4822SOL     OW15364   2.240   4.067   3.853
 4822SOL    HW115365   2.313   4.110   3.800
 4822SOL    HW215366   2.168   4.134   3.871
 4823SOL     OW15367   1.012   0.164   4.136
 4823SOL    HW115368   1.091   0.220   4.160
 4823SOL    HW215369   1.009   0.083   4.195
 4824SOL     OW15370   5.164   2.407   2.505
 4824SOL    HW115371   5.241   2.452   2.460
 4824SOL    HW215372   5.161   2.311   2.476
 4825SOL     OW15373   1.909   3.196   3.472
 4825SOL    HW115374   1.854   3.270   3.433
 4825SOL    HW215375   1.982   3.171   3.408
 4826SOL     OW15376   0.391   6.408   0.586
 4826SOL    HW115377   0.460   6.341   0.616
 4826SOL    HW215378   0.309   6.397   0.641
 4827SOL     OW15379   4.478   1.087   0.943
 4827SOL    HW115380   4.411   1.036   0.890
 4827SOL    HW215381   4.570   1.064   0.911
 4828SOL     OW15382   5.020   3.201   1.776
 4828SOL    HW115383   5.036   3.280   1.717
 4828SOL    HW215384   4.981   3.231   1.863
 4829SOL     OW15385   3.030   0.505   5.872
 4829SOL    HW115386   2.985   0.594   5.861
 4829SOL    HW215387   3.063   0.496   5.965
 4830SOL     OW15388   4.993   6.042   3.619
 4830SOL    HW115389   5.077   5.990   3.638
 4830SOL    HW215390   5.013   6.140   3.623
 4831SOL     OW15391   6.538   4.321   5.174
 4831SOL    HW115392   6.589   4.407   5.180
 4831SOL    HW215393   6.461   4.324   5.237
 4832SOL     OW15394   3.266   3.187   5.863
 4832SOL    HW115395   3.170   3.214   5.870
 4832SOL    HW215396   3.272   3.095   5.826
 4833SOL     OW15397   4.234   1.265   3.489
 4833SOL    HW115398   4.167   1.253   3.563
 4833SOL    HW215399   4.195   1.231   3.403
 4834SOL     OW15400   4.260   1.187   1.224
 4834SOL    HW115401   4.346   1.232   1.199
 4834SOL    HW215402   4.280   1.101   1.271
 4835SOL     OW15403   2.095   6.866   6.495
 4835SOL    HW115404   2.076   6.842   6.590
 4835SOL    HW215405   2.188   6.902   6.487
 4836SOL     OW15406   5.080   1.891   4.047
 4836SOL    HW115407   5.105   1.873   3.952
 4836SOL    HW215408   5.162   1.913   4.100
 4837SOL     OW15409   3.005   2.438   1.234
 4837SOL    HW115410   3.004   2.526   1.187
 4837SOL    HW215411   2.953   2.371   1.182
 4838SOL     OW15412   3.846   4.813   2.183
 4838SOL    HW115413   3.768   4.754   2.161
 4838SOL    HW215414   3.925   4.785   2.129
 4839SOL     OW15415   0.011   5.531   5.874
 4839SOL    HW115416   7.015   5.623   5.841
 4839SOL    HW215417   0.110   5.517   5.873
 4840SOL     OW15418   6.201   6.611   0.311
 4840SOL    HW115419   6.148   6.693   0.333
 4840SOL    HW215420   6.251   6.625   0.226
 4841SOL     OW15421   3.365   6.068   1.792
 4841SOL    HW115422   3.409   5.987   1.753
 4841SOL    HW215423   3.343   6.051   1.888
 4842SOL     OW15424   3.905   5.797   1.664
 4842SOL    HW115425   3.985   5.751   1.702
 4842SOL    HW215426   3.861   5.738   1.597
 4843SOL     OW15427   7.001   3.795   0.141
 4843SOL    HW115428   0.062   3.762   0.182
 4843SOL    HW215429   6.987   3.890   0.168
 4844SOL     OW15430   6.726   2.899   6.897
 4844SOL    HW115431   6.739   2.838   6.819
 4844SOL    HW215432   6.637   2.945   6.889
 4845SOL     OW15433   6.161   5.664   4.084
 4845SOL    HW115434   6.209   5.687   4.169
 4845SOL    HW215435   6.207   5.588   4.039
 4846SOL     OW15436   1.439   2.981   0.991
 4846SOL    HW115437   1.381   2.904   1.015
 4846SOL    HW215438   1.535   2.959   1.012
 4847SOL     OW15439   3.692   1.914   5.293
 4847SOL    HW115440   3.782   1.950   5.319
 4847SOL    HW215441   3.701   1.857   5.211
 4848SOL     OW15442   2.002   1.247   3.312
 4848SOL    HW115443   2.021   1.304   3.232
 4848SOL    HW215444   2.026   1.299   3.395
 4849SOL     OW15445   1.543   0.245   0.327
 4849SOL    HW115446   1.570   0.323   0.271
 4849SOL    HW215447   1.448   0.220   0.306
 4850SOL     OW15448   4.014   0.350   1.707
 4850SOL    HW115449   4.038   0.350   1.610
 4850SOL    HW215450   4.085   0.302   1.759
 4851SOL     OW15451   3.975   6.020   5.687
 4851SOL    HW115452   3.940   5.947   5.629
 4851SOL    HW215453   4.071   6.037   5.665
 4852SOL     OW15454   1.984   0.848   0.084
 4852SOL    HW115455   2.081   0.869   0.093
 4852SOL    HW215456   1.939   0.917   0.027
 4853SOL     OW15457   3.792   1.507   2.948
 4853SOL    HW115458   3.692   1.507   2.938
 4853SOL    HW215459   3.816   1.510   3.045
 4854SOL     OW15460   4.737   5.403   2.292
 4854SOL    HW115461   4.794   5.395   2.374
 4854SOL    HW215462   4.795   5.408   2.211
 4855SOL     OW15463   6.041   1.524   2.056
 4855SOL    HW115464   6.083   1.441   2.092
 4855SOL    HW215465   6.022   1.587   2.130
 4856SOL     OW15466   3.026   4.836   3.808
 4856SOL    HW115467   3.080   4.882   3.879
 4856SOL    HW215468   3.086   4.780   3.751
 4857SOL     OW15469   1.075   2.053   6.083
 4857SOL    HW115470   1.050   2.017   6.173
 4857SOL    HW215471   0.998   2.041   6.020
 4858SOL     OW15472   1.844   2.171   4.633
 4858SOL    HW115473   1.823   2.170   4.536
 4858SOL    HW215474   1.846   2.266   4.666
 4859SOL     OW15475   1.728   5.777   4.737
 4859SOL    HW115476   1.823   5.744   4.736
 4859SOL    HW215477   1.692   5.773   4.831
 4860SOL     OW15478   4.609   5.405   1.437
 4860SOL    HW115479   4.562   5.491   1.458
 4860SOL    HW215480   4.545   5.329   1.451
 4861SOL     OW15481   4.995   4.903   0.035
 4861SOL    HW115482   4.983   4.931   0.130
 4861SOL    HW215483   4.915   4.851   0.005
 4862SOL     OW15484   1.338   5.468   2.864
 4862SOL    HW115485   1.333   5.389   2.924
 4862SOL    HW215486   1.249   5.481   2.818
 4863SOL     OW15487   5.661   4.161   0.439
 4863SOL    HW115488   5.734   4.151   0.507
 4863SOL    HW215489   5.647   4.075   0.392
 4864SOL     OW15490   2.855   1.023   3.250
 4864SOL    HW115491   2.828   1.118   3.264
 4864SOL    HW215492   2.951   1.020   3.221
 4865SOL     OW15493   2.278   6.459   4.217
 4865SOL    HW115494   2.358   6.432   4.272
 4865SOL    HW215495   2.199   6.406   4.246
 4866SOL     OW15496   0.089   3.564   1.620
 4866SOL    HW115497   0.151   3.621   1.673
 4866SOL    HW215498   0.134   3.479   1.595
 4867SOL     OW15499   4.631   5.618   2.446
 4867SOL    HW115500   4.547   5.666   2.421
 4867SOL    HW215501   4.657   5.556   2.371
 4868SOL     OW15502   6.243   4.336   1.857
 4868SOL    HW115503   6.329   4.313   1.903
 4868SOL    HW215504   6.259   4.410   1.792
 4869SOL     OW15505   1.656   1.797   0.339
 4869SOL    HW115506   1.713   1.852   0.401
 4869SOL    HW215507   1.679   1.819   0.245
 4870SOL     OW15508   0.712   6.636   2.198
 4870SOL    HW115509   0.637   6.702   2.198
 4870SOL    HW215510   0.675   6.543   2.197
 4871SOL     OW15511   1.599   0.983   4.261
 4871SOL    HW115512   1.578   0.985   4.359
 4871SOL    HW215513   1.679   0.925   4.245
 4872SOL     OW15514   6.963   6.540   3.160
 4872SOL    HW115515   0.033   6.568   3.139
 4872SOL    HW215516   6.907   6.551   3.078
 4873SOL     OW15517   6.894   5.689   4.475
 4873SOL    HW115518   6.939   5.607   4.440
 4873SOL    HW215519   6.962   5.750   4.516
 4874SOL     OW15520   4.920   2.285   3.322
 4874SOL    HW115521   4.838   2.320   3.366
 4874SOL    HW215522   4.971   2.360   3.281
 4875SOL     OW15523   5.009   6.955   0.086
 4875SOL    HW115524   5.048   6.863   0.080
 4875SOL    HW215525   5.012   6.999   7.021
 4876SOL     OW15526   1.113   1.409   3.245
 4876SOL    HW115527   1.173   1.473   3.197
 4876SOL    HW215528   1.159   1.320   3.253
 4877SOL     OW15529   0.546   1.986   5.046
 4877SOL    HW115530   0.624   1.940   5.004
 4877SOL    HW215531   0.577   2.038   5.125
 4878SOL     OW15532   7.001   1.881   1.902
 4878SOL    HW115533   6.920   1.930   1.871
 4878SOL    HW215534   0.053   1.945   1.913
 4879SOL     OW15535   4.852   1.764   2.323
 4879SOL    HW115536   4.856   1.818   2.407
 4879SOL    HW215537   4.924   1.793   2.260
 4880SOL     OW15538   6.493   2.992   6.771
 4880SOL    HW115539   6.422   2.922   6.777
 4880SOL    HW215540   6.459   3.068   6.715
 4881SOL     OW15541   1.637   2.481   1.314
 4881SOL    HW115542   1.638   2.382   1.303
 4881SOL    HW215543   1.715   2.510   1.369
 4882SOL     OW15544   4.174   2.022   5.126
 4882SOL    HW115545   4.269   2.010   5.096
 4882SOL    HW215546   4.161   1.979   5.215
 4883SOL     OW15547   5.046   4.001   1.728
 4883SOL    HW115548   4.980   4.065   1.690
 4883SOL    HW215549   5.021   3.907   1.703
 4884SOL     OW15550   2.228   5.868   0.890
 4884SOL    HW115551   2.219   5.968   0.890
 4884SOL    HW215552   2.265   5.839   0.802
 4885SOL     OW15553   2.313   4.826   1.999
 4885SOL    HW115554   2.396   4.846   2.051
 4885SOL    HW215555   2.337   4.812   1.903
 4886SOL     OW15556   3.516   0.054   2.039
 4886SOL    HW115557   3.512   0.067   2.138
 4886SOL    HW215558   3.423   0.050   2.002
 4887SOL     OW15559   1.335   6.918   1.635
 4887SOL    HW115560   1.288   6.830   1.624
 4887SOL    HW215561   1.280   6.991   1.594
 4888SOL     OW15562   3.104   6.679   3.017
 4888SOL    HW115563   3.163   6.741   2.966
 4888SOL    HW215564   3.031   6.731   3.062
 4889SOL     OW15565   6.656   1.796   4.700
 4889SOL    HW115566   6.649   1.870   4.633
 4889SOL    HW215567   6.748   1.757   4.698
 4890SOL     OW15568   0.889   0.889   5.329
 4890SOL    HW115569   0.970   0.931   5.370
 4890SOL    HW215570   0.902   0.789   5.325
 4891SOL     OW15571   2.322   4.832   6.323
 4891SOL    HW115572   2.360   4.747   6.362
 4891SOL    HW215573   2.296   4.894   6.398
 4892SOL     OW15574   5.905   6.671   2.401
 4892SOL    HW115575   5.956   6.589   2.426
 4892SOL    HW215576   5.941   6.749   2.452
 4893SOL     OW15577   0.190   3.109   2.066
 4893SOL    HW115578   0.187   3.201   2.027
 4893SOL    HW215579   0.257   3.054   2.017
 4894SOL     OW15580   3.751   6.953   2.009
 4894SOL    HW115581   3.753   6.872   2.067
 4894SOL    HW215582   3.661   6.996   2.013
 4895SOL     OW15583   0.203   4.870   2.951
 4895SOL    HW115584   0.292   4.868   2.905
 4895SOL    HW215585   0.182   4.780   2.987
 4896SOL     OW15586   2.212   5.270   3.787
 4896SOL    HW115587   2.209   5.320   3.701
 4896SOL    HW215588   2.251   5.179   3.771
 4897SOL     OW15589   1.851   5.905   5.333
 4897SOL    HW115590   1.865   6.001   5.358
 4897SOL    HW215591   1.939   5.863   5.313
 4898SOL     OW15592   4.132   1.094   5.036
 4898SOL    HW115593   4.176   1.076   4.948
 4898SOL    HW215594   4.047   1.042   5.042
 4899SOL     OW15595   6.080   5.537   2.206
 4899SOL    HW115596   6.079   5.565   2.302
 4899SOL    HW215597   6.029   5.451   2.196
 4900SOL     OW15598   4.237   5.976   5.596
 4900SOL    HW115599   4.225   6.028   5.511
 4900SOL    HW215600   4.326   5.931   5.596
 4901SOL     OW15601   0.966   2.580   5.179
 4901SOL    HW115602   0.987   2.644   5.105
 4901SOL    HW215603   1.036   2.588   5.251
 4902SOL     OW15604   2.318   0.461   6.296
 4902SOL    HW115605   2.222   0.484   6.309
 4902SOL    HW215606   2.338   0.372   6.337
 4903SOL     OW15607   4.658   5.886   0.900
 4903SOL    HW115608   4.752   5.879   0.933
 4903SOL    HW215609   4.596   5.896   0.978
 4904SOL     OW15610   2.231   0.666   5.877
 4904SOL    HW115611   2.288   0.638   5.954
 4904SOL    HW215612   2.193   0.585   5.832
 4905SOL     OW15613   3.090   7.014   2.971
 4905SOL    HW115614   3.118   6.964   2.889
 4905SOL    HW215615   3.076   0.086   2.950
 4906SOL     OW15616   4.801   3.320   5.229
 4906SOL    HW115617   4.824   3.288   5.137
 4906SOL    HW215618   4.770   3.415   5.223
 4907SOL     OW15619   4.859   1.213   0.574
 4907SOL    HW115620   4.895   1.178   0.488
 4907SOL    HW215621   4.817   1.302   0.559
 4908SOL     OW15622   4.625   0.560   0.402
 4908SOL    HW115623   4.711   0.608   0.417
 4908SOL    HW215624   4.643   0.461   0.396
 4909SOL     OW15625   6.525   4.089   3.185
 4909SOL    HW115626   6.550   4.041   3.102
 4909SOL    HW215627   6.481   4.026   3.249
 4910SOL     OW15628   5.670   0.833   4.720
 4910SOL    HW115629   5.651   0.905   4.786
 4910SOL    HW215630   5.585   0.783   4.700
 4911SOL     OW15631   1.807   2.359   2.696
 4911SOL    HW115632   1.717   2.330   2.728
 4911SOL    HW215633   1.843   2.429   2.758
 4912SOL     OW15634   5.493   1.810   5.521
 4912SOL    HW115635   5.541   1.781   5.604
 4912SOL    HW215636   5.515   1.747   5.446
 4913SOL     OW15637   5.397   2.844   5.919
 4913SOL    HW115638   5.341   2.781   5.865
 4913SOL    HW215639   5.348   2.870   6.002
 4914SOL     OW15640   4.337   0.357   5.218
 4914SOL    HW115641   4.428   0.325   5.243
 4914SOL    HW215642   4.332   0.456   5.229
 4915SOL     OW15643   3.137   6.130   5.548
 4915SOL    HW115644   3.092   6.099   5.464
 4915SOL    HW215645   3.077   6.195   5.596
 4916SOL     OW15646   6.627   0.673   4.260
 4916SOL    HW115647   6.548   0.698   4.204
 4916SOL    HW215648   6.642   0.574   4.255
 4917SOL     OW15649   3.479   5.970   0.785
 4917SOL    HW115650   3.569   5.931   0.762
 4917SOL    HW215651   3.411   5.897   0.785
 4918SOL     OW15652   6.249   5.493   1.963
 4918SOL    HW115653   6.312   5.427   2.003
 4918SOL    HW215654   6.183   5.523   2.032
 4919SOL     OW15655   3.971   3.054   2.207
 4919SOL    HW115656   4.056   3.002   2.198
 4919SOL    HW215657   3.905   3.000   2.259
 4920SOL     OW15658   5.619   0.363   5.291
 4920SOL    HW115659   5.523   0.391   5.288
 4920SOL    HW215660   5.677   0.442   5.274
 4921SOL     OW15661   1.067   5.877   0.753
 4921SOL    HW115662   1.052   5.874   0.655
 4921SOL    HW215663   1.147   5.934   0.772
 4922SOL     OW15664   3.266   2.084   5.172
 4922SOL    HW115665   3.209   2.152   5.126
 4922SOL    HW215666   3.208   2.015   5.214
 4923SOL     OW15667   3.289   1.936   2.911
 4923SOL    HW115668   3.309   1.972   3.002
 4923SOL    HW215669   3.276   2.012   2.848
 4924SOL     OW15670   2.390   1.571   5.831
 4924SOL    HW115671   2.485   1.550   5.809
 4924SOL    HW215672   2.387   1.642   5.902
 4925SOL     OW15673   4.383   6.916   3.236
 4925SOL    HW115674   4.444   6.948   3.164
 4925SOL    HW215675   4.303   6.976   3.241
 4926SOL     OW15676   5.935   1.797   1.499
 4926SOL    HW115677   5.889   1.883   1.521
 4926SOL    HW215678   6.028   1.816   1.469
 4927SOL     OW15679   3.239   2.296   6.405
 4927SOL    HW115680   3.247   2.386   6.362
 4927SOL    HW215681   3.152   2.290   6.453
 4928SOL     OW15682   1.115   1.497   1.213
 4928SOL    HW115683   1.090   1.563   1.284
 4928SOL    HW215684   1.188   1.438   1.246
 4929SOL     OW15685   0.016   0.165   3.654
 4929SOL    HW115686   6.961   0.183   3.594
 4929SOL    HW215687   0.081   0.241   3.645
 4930SOL     OW15688   5.980   6.989   2.140
 4930SOL    HW115689   5.923   6.952   2.066
 4930SOL    HW215690   5.931   0.037   2.187
 4931SOL     OW15691   6.045   6.837   1.537
 4931SOL    HW115692   5.951   6.817   1.565
 4931SOL    HW215693   6.102   6.850   1.618
 4932SOL     OW15694   3.438   4.152   3.071
 4932SOL    HW115695   3.385   4.090   3.130
 4932SOL    HW215696   3.377   4.221   3.033
 4933SOL     OW15697   2.467   6.348   4.386
 4933SOL    HW115698   2.559   6.320   4.359
 4933SOL    HW215699   2.472   6.414   4.461
 4934SOL     OW15700   3.320   6.084   2.722
 4934SOL    HW115701   3.362   6.175   2.714
 4934SOL    HW215702   3.361   6.036   2.800
 4935SOL     OW15703   1.190   2.194   6.893
 4935SOL    HW115704   1.218   2.275   6.944
 4935SOL    HW215705   1.259   2.122   6.902
 4936SOL     OW15706   2.443   4.542   1.194
 4936SOL    HW115707   2.510   4.543   1.120
 4936SOL    HW215708   2.490   4.526   1.281
 4937SOL     OW15709   4.823   2.963   4.867
 4937SOL    HW115710   4.786   3.056   4.866
 4937SOL    HW215711   4.878   2.949   4.949
 4938SOL     OW15712   3.710   5.581   5.491
 4938SOL    HW115713   3.616   5.607   5.515
 4938SOL    HW215714   3.709   5.519   5.413
 4939SOL     OW15715   4.782   3.442   5.784
 4939SOL    HW115716   4.796   3.494   5.869
 4939SOL    HW215717   4.694   3.396   5.788
 4940SOL     OW15718   1.987   0.072   5.185
 4940SOL    HW115719   1.946   0.047   5.273
 4940SOL    HW215720   2.060   0.138   5.199
 4941SOL     OW15721   4.428   1.425   6.985
 4941SOL    HW115722   4.460   1.479   0.040
 4941SOL    HW215723   4.505   1.372   6.949
 4942SOL     OW15724   5.101   3.766   5.428
 4942SOL    HW115725   5.050   3.761   5.514
 4942SOL    HW215726   5.152   3.681   5.414
 4943SOL     OW15727   4.604   2.308   0.843
 4943SOL    HW115728   4.562   2.348   0.924
 4943SOL    HW215729   4.679   2.368   0.811
 4944SOL     OW15730   2.326   4.483   3.118
 4944SOL    HW115731   2.418   4.472   3.079
 4944SOL    HW215732   2.316   4.423   3.197
 4945SOL     OW15733   0.776   6.816   3.983
 4945SOL    HW115734   0.766   6.737   3.922
 4945SOL    HW215735   0.866   6.856   3.971
 4946SOL     OW15736   1.572   3.275   1.985
 4946SOL    HW115737   1.473   3.279   1.973
 4946SOL    HW215738   1.597   3.323   2.069
 4947SOL     OW15739   0.840   6.967   0.758
 4947SOL    HW115740   0.764   6.947   0.697
 4947SOL    HW215741   0.820   6.933   0.850
 4948SOL     OW15742   2.220   1.229   2.602
 4948SOL    HW115743   2.269   1.246   2.517
 4948SOL    HW215744   2.276   1.260   2.679
 4949SOL     OW15745   5.175   0.278   5.321
 4949SOL    HW115746   5.247   0.347   5.326
 4949SOL    HW215747   5.213   0.188   5.343
 4950SOL     OW15748   2.308   6.015   4.940
 4950SOL    HW115749   2.354   5.932   4.973
 4950SOL    HW215750   2.249   5.993   4.863
 4951SOL     OW15751   4.211   1.507   4.441
 4951SOL    HW115752   4.164   1.424   4.412
 4951SOL    HW215753   4.206   1.515   4.541
 4952SOL     OW15754   0.094   6.635   5.125
 4952SOL    HW115755   0.054   6.703   5.063
 4952SOL    HW215756   0.193   6.631   5.110
 4953SOL     OW15757   2.061   5.465   0.923
 4953SOL    HW115758   2.000   5.469   0.843
 4953SOL    HW215759   2.138   5.526   0.910
 4954SOL     OW15760   5.316   4.986   0.188
 4954SOL    HW115761   5.366   4.943   0.263
 4954SOL    HW215762   5.374   4.990   0.107
 4955SOL     OW15763   1.765   6.855   0.999
 4955SOL    HW115764   1.706   6.824   0.925
 4955SOL    HW215765   1.759   6.791   1.076
 4956SOL     OW15766   4.255   0.112   5.524
 4956SOL    HW115767   4.232   0.209   5.525
 4956SOL    HW215768   4.261   0.080   5.430
 4957SOL     OW15769   0.511   1.130   4.195
 4957SOL    HW115770   0.511   1.035   4.227
 4957SOL    HW215771   0.510   1.192   4.274
 4958SOL     OW15772   0.351   6.303   6.618
 4958SOL    HW115773   0.410   6.263   6.549
 4958SOL    HW215774   0.397   6.300   6.707
 4959SOL     OW15775   0.855   1.156   0.302
 4959SOL    HW115776   0.888   1.222   0.234
 4959SOL    HW215777   0.925   1.086   0.317
 4960SOL     OW15778   3.718   6.521   4.057
 4960SOL    HW115779   3.780   6.562   4.125
 4960SOL    HW215780   3.702   6.586   3.983
 4961SOL     OW15781   5.331   6.997   5.006
 4961SOL    HW115782   5.286   0.057   4.976
 4961SOL    HW215783   5.377   7.013   5.094
 4962SOL     OW15784   5.701   2.670   1.961
 4962SOL    HW115785   5.744   2.609   2.028
 4962SOL    HW215786   5.601   2.665   1.971
 4963SOL     OW15787   0.517   5.168   0.954
 4963SOL    HW115788   0.521   5.069   0.970
 4963SOL    HW215789   0.595   5.195   0.899
 4964SOL     OW15790   3.345   6.390   3.344
 4964SOL    HW115791   3.367   6.335   3.264
 4964SOL    HW215792   3.309   6.479   3.314
 4965SOL     OW15793   0.312   6.871   4.576
 4965SOL    HW115794   0.390   6.808   4.575
 4965SOL    HW215795   0.277   6.878   4.669
 4966SOL     OW15796   3.022   6.104   5.300
 4966SOL    HW115797   3.030   6.186   5.243
 4966SOL    HW215798   2.933   6.062   5.286
 4967SOL     OW15799   3.805   2.829   7.005
 4967SOL    HW115800   3.836   2.846   6.911
 4967SOL    HW215801   3.705   2.835   7.009
 4968SOL     OW15802   4.740   2.878   3.475
 4968SOL    HW115803   4.753   2.942   3.552
 4968SOL    HW215804   4.656   2.825   3.490
 4969SOL     OW15805   1.724   1.284   1.368
 4969SOL    HW115806   1.818   1.261   1.341
 4969SOL    HW215807   1.661   1.215   1.333
 4970SOL     OW15808   1.040   1.935   4.851
 4970SOL    HW115809   1.039   1.836   4.838
 4970SOL    HW215810   1.106   1.976   4.788
 4971SOL     OW15811   6.029   6.311   2.867
 4971SOL    HW115812   6.113   6.263   2.842
 4971SOL    HW215813   5.959   6.295   2.797
 4972SOL     OW15814   1.733   3.564   0.945
 4972SOL    HW115815   1.818   3.557   0.997
 4972SOL    HW215816   1.747   3.529   0.852
 4973SOL     OW15817   6.150   6.128   2.256
 4973SOL    HW115818   6.158   6.119   2.157
 4973SOL    HW215819   6.085   6.060   2.291
 4974SOL     OW15820   5.186   6.045   2.774
 4974SOL    HW115821   5.088   6.064   2.771
 4974SOL    HW215822   5.204   5.954   2.735
 4975SOL     OW15823   6.294   6.416   0.475
 4975SOL    HW115824   6.293   6.474   0.394
 4975SOL    HW215825   6.231   6.454   0.544
 4976SOL     OW15826   3.174   0.876   4.841
 4976SOL    HW115827   3.158   0.820   4.923
 4976SOL    HW215828   3.086   0.903   4.802
 4977SOL     OW15829   4.184   3.804   0.456
 4977SOL    HW115830   4.196   3.731   0.523
 4977SOL    HW215831   4.272   3.850   0.440
 4978SOL     OW15832   5.575   3.645   5.418
 4978SOL    HW115833   5.629   3.600   5.348
 4978SOL    HW215834   5.503   3.700   5.376
 4979SOL     OW15835   0.306   0.565   5.775
 4979SOL    HW115836   0.339   0.494   5.838
 4979SOL    HW215837   0.237   0.525   5.714
 4980SOL     OW15838   3.897   5.309   2.442
 4980SOL    HW115839   3.919   5.270   2.352
 4980SOL    HW215840   3.869   5.404   2.432
 4981SOL     OW15841   4.444   6.888   5.592
 4981SOL    HW115842   4.383   6.819   5.552
 4981SOL    HW215843   4.468   6.861   5.685
 4982SOL     OW15844   2.062   2.275   0.156
 4982SOL    HW115845   2.115   2.283   0.071
 4982SOL    HW215846   2.086   2.350   0.218
 4983SOL     OW15847   5.277   2.715   3.875
 4983SOL    HW115848   5.259   2.651   3.800
 4983SOL    HW215849   5.260   2.669   3.962
 4984SOL     OW15850   5.266   3.976   4.427
 4984SOL    HW115851   5.219   3.923   4.357
 4984SOL    HW215852   5.305   3.913   4.495
 4985SOL     OW15853   5.310   5.327   2.840
 4985SOL    HW115854   5.341   5.367   2.926
 4985SOL    HW215855   5.388   5.314   2.779
 4986SOL     OW15856   5.570   4.460   3.202
 4986SOL    HW115857   5.659   4.425   3.172
 4986SOL    HW215858   5.563   4.557   3.179
 4987SOL     OW15859   0.190   3.183   1.104
 4987SOL    HW115860   0.140   3.225   1.028
 4987SOL    HW215861   0.138   3.104   1.138
 4988SOL     OW15862   0.443   1.508   4.333
 4988SOL    HW115863   0.365   1.482   4.276
 4988SOL    HW215864   0.460   1.438   4.402
 4989SOL     OW15865   0.083   1.368   0.656
 4989SOL    HW115866   0.051   1.306   0.584
 4989SOL    HW215867   0.006   1.392   0.715
 4990SOL     OW15868   0.556   2.726   5.115
 4990SOL    HW115869   0.519   2.793   5.180
 4990SOL    HW215870   0.613   2.660   5.163
 4991SOL     OW15871   0.167   2.830   4.292
 4991SOL    HW115872   0.237   2.899   4.314
 4991SOL    HW215873   0.078   2.862   4.324
 4992SOL     OW15874   3.383   0.912   5.245
 4992SOL    HW115875   3.455   0.973   5.211
 4992SOL    HW215876   3.293   0.949   5.220
 4993SOL     OW15877   3.116   6.048   4.068
 4993SOL    HW115878   3.131   6.056   3.969
 4993SOL    HW215879   3.029   6.000   4.085
 4994SOL     OW15880   0.647   0.196   3.089
 4994SOL    HW115881   0.635   0.099   3.067
 4994SOL    HW215882   0.618   0.213   3.183
 4995SOL     OW15883   6.882   2.524   6.261
 4995SOL    HW115884   6.911   2.597   6.200
 4995SOL    HW215885   6.828   2.562   6.336
 4996SOL     OW15886   0.208   2.234   2.049
 4996SOL    HW115887   0.278   2.237   1.978
 4996SOL    HW215888   0.229   2.160   2.113
 4997SOL     OW15889   6.757   2.026   2.744
 4997SOL    HW115890   6.845   2.000   2.705
 4997SOL    HW215891   6.751   2.126   2.750
 4998SOL     OW15892   1.239   5.345   4.600
 4998SOL    HW115893   1.261   5.436   4.634
 4998SOL    HW215894   1.285   5.330   4.513
 4999SOL     OW15895   5.891   5.607   0.831
 4999SOL    HW115896   5.948   5.654   0.764
 4999SOL    HW215897   5.883   5.664   0.913
 5000SOL     OW15898   0.779   0.423   4.585
 5000SOL    HW115899   0.797   0.425   4.684
 5000SOL    HW215900   0.844   0.484   4.539
 5001SOL     OW15901   2.791   4.099   5.497
 5001SOL    HW115902   2.730   4.035   5.451
 5001SOL    HW215903   2.833   4.160   5.430
 5002SOL     OW15904   2.100   1.109   2.287
 5002SOL    HW115905   2.001   1.104   2.289
 5002SOL    HW215906   2.138   1.063   2.367
 5003SOL     OW15907   6.685   6.160   2.666
 5003SOL    HW115908   6.735   6.230   2.717
 5003SOL    HW215909   6.609   6.202   2.618
 5004SOL     OW15910   2.265   5.891   6.644
 5004SOL    HW115911   2.307   5.895   6.553
 5004SOL    HW215912   2.170   5.862   6.637
 5005SOL     OW15913   4.482   3.043   0.505
 5005SOL    HW115914   4.444   2.978   0.571
 5005SOL    HW215915   4.414   3.114   0.486
 5006SOL     OW15916   5.561   6.370   5.152
 5006SOL    HW115917   5.497   6.347   5.225
 5006SOL    HW215918   5.624   6.294   5.138
 5007SOL     OW15919   4.299   1.051   5.856
 5007SOL    HW115920   4.383   1.103   5.841
 5007SOL    HW215921   4.281   1.046   5.955
 5008SOL     OW15922   5.526   1.259   3.505
 5008SOL    HW115923   5.536   1.313   3.589
 5008SOL    HW215924   5.615   1.224   3.477
 5009SOL     OW15925   1.011   6.629   2.293
 5009SOL    HW115926   1.010   6.649   2.195
 5009SOL    HW215927   0.919   6.639   2.331
 5010SOL     OW15928   3.854   3.808   3.519
 5010SOL    HW115929   3.924   3.842   3.583
 5010SOL    HW215930   3.899   3.760   3.444
 5011SOL     OW15931   0.607   3.067   2.285
 5011SOL    HW115932   0.577   3.127   2.359
 5011SOL    HW215933   0.614   3.120   2.200
 5012SOL     OW15934   0.151   2.511   5.796
 5012SOL    HW115935   0.097   2.427   5.799
 5012SOL    HW215936   0.235   2.494   5.745
 5013SOL     OW15937   4.243   0.946   6.137
 5013SOL    HW115938   4.312   0.892   6.184
 5013SOL    HW215939   4.265   1.043   6.145
 5014SOL     OW15940   6.106   6.504   0.665
 5014SOL    HW115941   6.011   6.527   0.643
 5014SOL    HW215942   6.110   6.408   0.695
 5015SOL     OW15943   4.352   2.250   3.896
 5015SOL    HW115944   4.446   2.284   3.906
 5015SOL    HW215945   4.344   2.159   3.936
 5016SOL     OW15946   2.067   0.282   2.916
 5016SOL    HW115947   2.070   0.283   2.816
 5016SOL    HW215948   2.012   0.204   2.947
 5017SOL     OW15949   2.527   1.870   1.031
 5017SOL    HW115950   2.563   1.851   0.940
 5017SOL    HW215951   2.585   1.937   1.077
 5018SOL     OW15952   6.746   4.708   3.150
 5018SOL    HW115953   6.797   4.765   3.085
 5018SOL    HW215954   6.803   4.691   3.230
 5019SOL     OW15955   2.437   4.348   0.903
 5019SOL    HW115956   2.402   4.330   0.812
 5019SOL    HW215957   2.409   4.274   0.965
 5020SOL     OW15958   4.501   5.144   6.280
 5020SOL    HW115959   4.574   5.087   6.318
 5020SOL    HW215960   4.539   5.231   6.251
 5021SOL     OW15961   1.938   4.541   5.563
 5021SOL    HW115962   2.036   4.529   5.583
 5021SOL    HW215963   1.916   4.638   5.566
 5022SOL     OW15964   1.750   6.309   0.843
 5022SOL    HW115965   1.688   6.274   0.913
 5022SOL    HW215966   1.726   6.269   0.754
 5023SOL     OW15967   6.002   2.821   0.857
 5023SOL    HW115968   6.019   2.723   0.864
 5023SOL    HW215969   6.068   2.871   0.912
 5024SOL     OW15970   6.668   3.848   3.476
 5024SOL    HW115971   6.728   3.926   3.497
 5024SOL    HW215972   6.699   3.768   3.526
 5025SOL     OW15973   4.874   2.135   2.945
 5025SOL    HW115974   4.859   2.225   2.903
 5025SOL    HW215975   4.940   2.143   3.019
 5026SOL     OW15976   6.299   5.431   4.360
 5026SOL    HW115977   6.252   5.373   4.426
 5026SOL    HW215978   6.241   5.446   4.281
 5027SOL     OW15979   0.375   6.993   3.521
 5027SOL    HW115980   0.305   0.019   3.470
 5027SOL    HW215981   0.431   6.940   3.457
 5028SOL     OW15982   0.377   6.414   2.816
 5028SOL    HW115983   0.419   6.324   2.819
 5028SOL    HW215984   0.327   6.425   2.731
 5029SOL     OW15985   0.217   2.390   1.377
 5029SOL    HW115986   0.312   2.361   1.381
 5029SOL    HW215987   0.179   2.393   1.469
 5030SOL     OW15988   6.684   0.394   6.583
 5030SOL    HW115989   6.772   0.349   6.598
 5030SOL    HW215990   6.612   0.326   6.573
 5031SOL     OW15991   5.668   0.615   4.461
 5031SOL    HW115992   5.624   0.627   4.550
 5031SOL    HW215993   5.613   0.661   4.391
 5032SOL     OW15994   1.488   4.975   0.855
 5032SOL    HW115995   1.552   4.988   0.931
 5032SOL    HW215996   1.538   4.949   0.773
 5033SOL     OW15997   2.350   4.593   5.386
 5033SOL    HW115998   2.366   4.503   5.348
 5033SOL    HW215999   2.305   4.584   5.475
 5034SOL     OW16000   6.011   2.026   1.969
 5034SOL    HW116001   6.032   1.971   1.888
 5034SOL    HW216002   5.968   1.968   2.038
 5035SOL     OW16003   4.964   5.617   0.681
 5035SOL    HW116004   4.908   5.552   0.629
 5035SOL    HW216005   5.025   5.665   0.618
 5036SOL     OW16006   0.830   6.231   0.819
 5036SOL    HW116007   0.830   6.131   0.820
 5036SOL    HW216008   0.904   6.265   0.878
 5037SOL     OW16009   4.250   1.698   3.775
 5037SOL    HW116010   4.305   1.775   3.741
 5037SOL    HW216011   4.297   1.612   3.754
 5038SOL     OW16012   0.895   5.621   5.642
 5038SOL    HW116013   0.951   5.549   5.683
 5038SOL    HW216014   0.869   5.687   5.713
 5039SOL     OW16015   2.460   2.746   5.222
 5039SOL    HW116016   2.373   2.701   5.242
 5039SOL    HW216017   2.444   2.824   5.162
 5040SOL     OW16018   3.224   3.875   6.028
 5040SOL    HW116019   3.238   3.955   6.086
 5040SOL    HW216020   3.310   3.850   5.983
 5041SOL     OW16021   1.034   3.240   1.598
 5041SOL    HW116022   1.096   3.267   1.671
 5041SOL    HW216023   1.074   3.264   1.509
 5042SOL     OW16024   5.649   3.200   6.327
 5042SOL    HW116025   5.702   3.284   6.335
 5042SOL    HW216026   5.552   3.222   6.315
 5043SOL     OW16027   3.996   0.641   3.273
 5043SOL    HW116028   4.090   0.613   3.254
 5043SOL    HW216029   3.960   0.589   3.350
 5044SOL     OW16030   5.706   5.672   3.482
 5044SOL    HW116031   5.723   5.654   3.579
 5044SOL    HW216032   5.699   5.585   3.434
 5045SOL     OW16033   6.092   2.881   0.264
 5045SOL    HW116034   6.057   2.946   0.331
 5045SOL    HW216035   6.188   2.901   0.245
 5046SOL     OW16036   3.503   3.215   5.118
 5046SOL    HW116037   3.421   3.183   5.166
 5046SOL    HW216038   3.554   3.137   5.083
 5047SOL     OW16039   6.323   0.459   2.666
 5047SOL    HW116040   6.388   0.484   2.737
 5047SOL    HW216041   6.369   0.460   2.577
 5048SOL     OW16042   0.034   2.332   1.184
 5048SOL    HW116043   6.971   2.379   1.180
 5048SOL    HW216044   0.086   2.364   1.263
 5049SOL     OW16045   0.798   2.319   2.141
 5049SOL    HW116046   0.809   2.322   2.241
 5049SOL    HW216047   0.748   2.400   2.111
 5050SOL     OW16048   0.863   2.660   1.728
 5050SOL    HW116049   0.902   2.711   1.651
 5050SOL    HW216050   0.898   2.698   1.814
 5051SOL     OW16051   2.695   4.535   0.881
 5051SOL    HW116052   2.721   4.545   0.977
 5051SOL    HW216053   2.629   4.460   0.871
 5052SOL     OW16054   4.501   5.169   0.721
 5052SOL    HW116055   4.517   5.263   0.750
 5052SOL    HW216056   4.585   5.130   0.685
 5053SOL     OW16057   2.503   4.137   1.406
 5053SOL    HW116058   2.413   4.092   1.398
 5053SOL    HW216059   2.558   4.088   1.473
 5054SOL     OW16060   3.369   6.022   4.819
 5054SOL    HW116061   3.379   5.928   4.789
 5054SOL    HW216062   3.283   6.032   4.870
 5055SOL     OW16063   1.311   1.588   5.309
 5055SOL    HW116064   1.318   1.582   5.409
 5055SOL    HW216065   1.216   1.577   5.281
 5056SOL     OW16066   0.027   3.769   5.804
 5056SOL    HW116067   6.955   3.786   5.825
 5056SOL    HW216068   0.081   3.849   5.830
 5057SOL     OW16069   0.507   5.748   3.792
 5057SOL    HW116070   0.510   5.691   3.711
 5057SOL    HW216071   0.601   5.768   3.822
 5058SOL     OW16072   4.508   4.051   6.593
 5058SOL    HW116073   4.461   3.996   6.662
 5058SOL    HW216074   4.593   4.006   6.567
 5059SOL     OW16075   3.486   2.114   4.870
 5059SOL    HW116076   3.438   2.032   4.901
 5059SOL    HW216077   3.467   2.189   4.933
 5060SOL     OW16078   0.467   3.242   5.109
 5060SOL    HW116079   0.439   3.314   5.045
 5060SOL    HW216080   0.497   3.162   5.059
 5061SOL     OW16081   3.875   3.371   4.631
 5061SOL    HW116082   3.791   3.342   4.584
 5061SOL    HW216083   3.913   3.293   4.681
 5062SOL     OW16084   5.266   1.105   3.189
 5062SOL    HW116085   5.264   1.019   3.139
 5062SOL    HW216086   5.178   1.150   3.182
 5063SOL     OW16087   1.344   6.792   2.465
 5063SOL    HW116088   1.395   6.870   2.501
 5063SOL    HW216089   1.248   6.800   2.492
 5064SOL     OW16090   4.748   5.717   0.272
 5064SOL    HW116091   4.784   5.743   0.362
 5064SOL    HW216092   4.825   5.695   0.212
 5065SOL     OW16093   2.532   0.069   3.485
 5065SOL    HW116094   2.602   0.006   3.520
 5065SOL    HW216095   2.456   0.017   3.447
 5066SOL     OW16096   2.106   4.935   1.645
 5066SOL    HW116097   2.143   4.989   1.570
 5066SOL    HW216098   2.176   4.874   1.680
 5067SOL     OW16099   4.026   2.541   1.730
 5067SOL    HW116100   4.025   2.463   1.667
 5067SOL    HW216101   4.092   2.608   1.698
 5068SOL     OW16102   4.004   6.309   0.881
 5068SOL    HW116103   3.981   6.398   0.841
 5068SOL    HW216104   4.087   6.274   0.838
 5069SOL     OW16105   3.504   4.559   6.107
 5069SOL    HW116106   3.546   4.641   6.069
 5069SOL    HW216107   3.417   4.583   6.150
 5070SOL     OW16108   5.555   3.297   3.988
 5070SOL    HW116109   5.587   3.237   3.915
 5070SOL    HW216110   5.633   3.330   4.041
 5071SOL     OW16111   3.603   0.979   3.562
 5071SOL    HW116112   3.668   1.011   3.631
 5071SOL    HW216113   3.581   1.054   3.500
 5072SOL     OW16114   2.116   1.256   0.842
 5072SOL    HW116115   2.107   1.259   0.743
 5072SOL    HW216116   2.129   1.161   0.871
 5073SOL     OW16117   2.832   6.698   2.299
 5073SOL    HW116118   2.803   6.654   2.384
 5073SOL    HW216119   2.800   6.643   2.221
 5074SOL     OW16120   3.834   2.148   1.736
 5074SOL    HW116121   3.779   2.118   1.658
 5074SOL    HW216122   3.781   2.213   1.791
 5075SOL     OW16123   1.696   3.385   6.914
 5075SOL    HW116124   1.690   3.288   6.935
 5075SOL    HW216125   1.660   3.438   6.991
 5076SOL     OW16126   5.392   0.792   0.510
 5076SOL    HW116127   5.476   0.803   0.562
 5076SOL    HW216128   5.328   0.735   0.561
 5077SOL     OW16129   1.186   4.871   3.590
 5077SOL    HW116130   1.104   4.857   3.646
 5077SOL    HW216131   1.256   4.917   3.644
 5078SOL     OW16132   0.524   0.916   3.894
 5078SOL    HW116133   0.584   0.992   3.920
 5078SOL    HW216134   0.555   0.832   3.939
 5079SOL     OW16135   2.089   2.306   5.708
 5079SOL    HW116136   2.122   2.355   5.627
 5079SOL    HW216137   2.132   2.344   5.790
 5080SOL     OW16138   6.399   5.265   5.985
 5080SOL    HW116139   6.494   5.259   5.953
 5080SOL    HW216140   6.378   5.186   6.042
 5081SOL     OW16141   3.783   6.047   5.887
 5081SOL    HW116142   3.760   6.144   5.898
 5081SOL    HW216143   3.870   6.039   5.839
 5082SOL     OW16144   5.065   6.571   1.351
 5082SOL    HW116145   5.057   6.644   1.419
 5082SOL    HW216146   4.991   6.505   1.364
 5083SOL     OW16147   2.327   0.499   2.698
 5083SOL    HW116148   2.271   0.571   2.657
 5083SOL    HW216149   2.300   0.410   2.660
 5084SOL     OW16150   0.656   5.008   4.839
 5084SOL    HW116151   0.676   5.062   4.757
 5084SOL    HW216152   0.718   4.930   4.843
 5085SOL     OW16153   1.138   3.636   6.653
 5085SOL    HW116154   1.205   3.618   6.580
 5085SOL    HW216155   1.125   3.552   6.706
 5086SOL     OW16156   1.333   4.522   2.433
 5086SOL    HW116157   1.353   4.442   2.490
 5086SOL    HW216158   1.306   4.492   2.342
 5087SOL     OW16159   6.889   5.301   2.852
 5087SOL    HW116160   6.934   5.270   2.936
 5087SOL    HW216161   6.925   5.250   2.774
 5088SOL     OW16162   4.426   5.757   2.333
 5088SOL    HW116163   4.333   5.761   2.295
 5088SOL    HW216164   4.493   5.750   2.259
 5089SOL     OW16165   5.136   4.468   4.713
 5089SOL    HW116166   5.226   4.450   4.674
 5089SOL    HW216167   5.140   4.549   4.771
 5090SOL     OW16168   2.207   0.192   3.794
 5090SOL    HW116169   2.263   0.261   3.747
 5090SOL    HW216170   2.245   0.101   3.775
 5091SOL     OW16171   6.592   0.171   0.380
 5091SOL    HW116172   6.497   0.201   0.381
 5091SOL    HW216173   6.635   0.194   0.467
 5092SOL     OW16174   3.754   3.883   4.374
 5092SOL    HW116175   3.792   3.824   4.444
 5092SOL    HW216176   3.665   3.917   4.404
 5093SOL     OW16177   1.814   1.460   3.047
 5093SOL    HW116178   1.725   1.495   3.017
 5093SOL    HW216179   1.800   1.382   3.109
 5094SOL     OW16180   2.606   5.467   6.519
 5094SOL    HW116181   2.594   5.504   6.427
 5094SOL    HW216182   2.601   5.542   6.585
 5095SOL     OW16183   0.342   1.082   3.379
 5095SOL    HW116184   0.302   1.161   3.334
 5095SOL    HW216185   0.332   1.001   3.321
 5096SOL     OW16186   5.273   3.749   6.253
 5096SOL    HW116187   5.180   3.757   6.215
 5096SOL    HW216188   5.339   3.752   6.178
 5097SOL     OW16189   6.499   0.057   6.036
 5097SOL    HW116190   6.565   0.122   5.998
 5097SOL    HW216191   6.408   0.078   6.000
 5098SOL     OW16192   3.617   1.977   1.867
 5098SOL    HW116193   3.696   1.923   1.838
 5098SOL    HW216194   3.646   2.042   1.937
 5099SOL     OW16195   0.347   5.490   1.772
 5099SOL    HW116196   0.249   5.510   1.764
 5099SOL    HW216197   0.364   5.395   1.746
 5100SOL     OW16198   5.056   4.477   2.903
 5100SOL    HW116199   5.088   4.413   2.974
 5100SOL    HW216200   4.958   4.463   2.888
 5101SOL     OW16201   4.188   0.379   5.547
 5101SOL    HW116202   4.139   0.412   5.628
 5101SOL    HW216203   4.163   0.435   5.468
 5102SOL     OW16204   5.266   5.435   3.963
 5102SOL    HW116205   5.308   5.441   4.054
 5102SOL    HW216206   5.166   5.426   3.973
 5103SOL     OW16207   1.100   0.589   5.634
 5103SOL    HW116208   1.090   0.500   5.588
 5103SOL    HW216209   1.187   0.590   5.685
 5104SOL     OW16210   3.663   5.322   1.560
 5104SOL    HW116211   3.643   5.407   1.608
 5104SOL    HW216212   3.579   5.267   1.553
 5105SOL     OW16213   3.294   3.444   6.787
 5105SOL    HW116214   3.327   3.390   6.864
 5105SOL    HW216215   3.280   3.539   6.817
 5106SOL     OW16216   4.331   2.647   1.003
 5106SOL    HW116217   4.289   2.587   0.936
 5106SOL    HW216218   4.261   2.702   1.048
 5107SOL     OW16219   5.191   2.096   1.265
 5107SOL    HW116220   5.108   2.044   1.285
 5107SOL    HW216221   5.218   2.079   1.170
 5108SOL     OW16222   4.291   3.810   6.532
 5108SOL    HW116223   4.375   3.823   6.479
 5108SOL    HW216224   4.303   3.736   6.598
 5109SOL     OW16225   2.022   3.118   1.038
 5109SOL    HW116226   2.006   3.023   1.065
 5109SOL    HW216227   1.934   3.165   1.030
 5110SOL     OW16228   5.738   6.675   6.454
 5110SOL    HW116229   5.760   6.638   6.544
 5110SOL    HW216230   5.663   6.741   6.462
 5111SOL     OW16231   1.355   5.807   5.112
 5111SOL    HW116232   1.375   5.890   5.061
 5111SOL    HW216233   1.259   5.783   5.101
 5112SOL     OW16234   0.070   0.467   3.841
 5112SOL    HW116235   0.123   0.418   3.771
 5112SOL    HW216236   0.014   0.402   3.892
 5113SOL     OW16237   2.172   4.975   0.976
 5113SOL    HW116238   2.267   4.942   0.980
 5113SOL    HW216239   2.169   5.070   1.006
 5114SOL     OW16240   3.976   6.896   0.359
 5114SOL    HW116241   4.018   6.983   0.384
 5114SOL    HW216242   3.903   6.874   0.424
 5115SOL     OW16243   2.075   3.901   1.953
 5115SOL    HW116244   2.078   3.839   2.031
 5115SOL    HW216245   2.117   3.858   1.874
 5116SOL     OW16246   2.623   6.940   6.572
 5116SOL    HW116247   2.700   6.985   6.528
 5116SOL    HW216248   2.637   6.841   6.571
 5117SOL     OW16249   1.108   2.500   4.552
 5117SOL    HW116250   1.199   2.505   4.511
 5117SOL    HW216251   1.062   2.417   4.520
 5118SOL     OW16252   6.384   6.878   0.047
 5118SOL    HW116253   6.431   6.883   6.983
 5118SOL    HW216254   6.316   6.951   0.052
 5119SOL     OW16255   5.463   1.964   0.085
 5119SOL    HW116256   5.426   1.872   0.077
 5119SOL    HW216257   5.563   1.959   0.094
 5120SOL     OW16258   5.287   0.746   4.893
 5120SOL    HW116259   5.213   0.680   4.909
 5120SOL    HW216260   5.362   0.728   4.957
 5121SOL     OW16261   2.933   3.636   6.968
 5121SOL    HW116262   2.923   3.721   7.019
 5121SOL    HW216263   2.853   3.578   6.986
 5122SOL     OW16264   4.430   5.465   3.009
 5122SOL    HW116265   4.347   5.440   2.958
 5122SOL    HW216266   4.488   5.384   3.019
 5123SOL     OW16267   5.170   1.802   1.908
 5123SOL    HW116268   5.238   1.847   1.850
 5123SOL    HW216269   5.081   1.805   1.863
 5124SOL     OW16270   1.863   6.147   3.862
 5124SOL    HW116271   1.800   6.191   3.925
 5124SOL    HW216272   1.948   6.200   3.858
 5125SOL     OW16273   0.556   2.148   4.057
 5125SOL    HW116274   0.538   2.246   4.052
 5125SOL    HW216275   0.644   2.128   4.014
 5126SOL     OW16276   2.000   6.928   0.742
 5126SOL    HW116277   1.930   6.996   0.722
 5126SOL    HW216278   1.965   6.863   0.809
 5127SOL     OW16279   2.044   5.567   0.470
 5127SOL    HW116280   1.983   5.616   0.407
 5127SOL    HW216281   2.049   5.471   0.443
 5128SOL     OW16282   6.870   6.111   1.688
 5128SOL    HW116283   6.860   6.191   1.629
 5128SOL    HW216284   6.836   6.132   1.779
 5129SOL     OW16285   4.887   6.381   1.433
 5129SOL    HW116286   4.860   6.336   1.518
 5129SOL    HW216287   4.823   6.455   1.412
 5130SOL     OW16288   6.658   4.455   3.194
 5130SOL    HW116289   6.684   4.550   3.174
 5130SOL    HW216290   6.721   4.392   3.149
 5131SOL     OW16291   0.681   2.606   3.368
 5131SOL    HW116292   0.671   2.517   3.414
 5131SOL    HW216293   0.706   2.592   3.273
 5132SOL     OW16294   3.853   4.380   6.719
 5132SOL    HW116295   3.932   4.438   6.739
 5132SOL    HW216296   3.833   4.384   6.621
 5133SOL     OW16297   3.905   5.836   6.486
 5133SOL    HW116298   3.961   5.842   6.569
 5133SOL    HW216299   3.831   5.902   6.491
 5134SOL     OW16300   0.586   3.536   1.576
 5134SOL    HW116301   0.670   3.507   1.529
 5134SOL    HW216302   0.511   3.537   1.510
 5135SOL     OW16303   6.975   2.150   5.049
 5135SOL    HW116304   0.019   2.133   5.120
 5135SOL    HW216305   7.016   2.200   4.974
 5136SOL     OW16306   5.005   0.418   4.544
 5136SOL    HW116307   4.957   0.462   4.620
 5136SOL    HW216308   5.054   0.338   4.579
 5137SOL     OW16309   5.109   3.885   6.634
 5137SOL    HW116310   5.092   3.936   6.550
 5137SOL    HW216311   5.030   3.826   6.654
 5138SOL     OW16312   2.886   3.433   6.239
 5138SOL    HW116313   2.789   3.430   6.215
 5138SOL    HW216314   2.941   3.399   6.163
 5139SOL     OW16315   1.741   6.756   4.107
 5139SOL    HW116316   1.829   6.765   4.060
 5139SOL    HW216317   1.678   6.702   4.051
 5140SOL     OW16318   3.408   2.217   0.730
 5140SOL    HW116319   3.326   2.175   0.690
 5140SOL    HW216320   3.393   2.315   0.743
 5141SOL     OW16321   5.556   3.523   1.047
 5141SOL    HW116322   5.543   3.591   1.119
 5141SOL    HW216323   5.599   3.441   1.086
 5142SOL     OW16324   5.948   3.026   4.401
 5142SOL    HW116325   5.932   3.125   4.408
 5142SOL    HW216326   6.034   3.010   4.352
 5143SOL     OW16327   0.408   4.860   4.149
 5143SOL    HW116328   0.463   4.811   4.217
 5143SOL    HW216329   0.467   4.920   4.096
 5144SOL     OW16330   1.583   6.856   6.324
 5144SOL    HW116331   1.484   6.843   6.323
 5144SOL    HW216332   1.618   6.854   6.230
 5145SOL     OW16333   2.284   5.491   5.883
 5145SOL    HW116334   2.270   5.552   5.805
 5145SOL    HW216335   2.375   5.507   5.922
 5146SOL     OW16336   3.516   3.782   0.007
 5146SOL    HW116337   3.446   3.766   0.076
 5146SOL    HW216338   3.486   3.745   6.944
 5147SOL     OW16339   6.750   4.604   0.668
 5147SOL    HW116340   6.667   4.552   0.650
 5147SOL    HW216341   6.830   4.547   0.651
 5148SOL     OW16342   6.811   5.880   1.562
 5148SOL    HW116343   6.835   5.970   1.598
 5148SOL    HW216344   6.844   5.810   1.625
 5149SOL     OW16345   6.306   1.031   3.132
 5149SOL    HW116346   6.287   0.934   3.118
 5149SOL    HW216347   6.245   1.067   3.203
 5150SOL     OW16348   1.514   6.146   3.891
 5150SOL    HW116349   1.569   6.210   3.945
 5150SOL    HW216350   1.475   6.194   3.812
 5151SOL     OW16351   5.102   1.371   6.472
 5151SOL    HW116352   5.200   1.356   6.468
 5151SOL    HW216353   5.082   1.468   6.456
 5152SOL     OW16354   1.372   4.740   0.217
 5152SOL    HW116355   1.467   4.719   0.194
 5152SOL    HW216356   1.346   4.828   0.177
 5153SOL     OW16357   2.422   2.390   0.626
 5153SOL    HW116358   2.388   2.335   0.549
 5153SOL    HW216359   2.362   2.377   0.705
 5154SOL     OW16360   1.500   3.317   6.180
 5154SOL    HW116361   1.540   3.228   6.159
 5154SOL    HW216362   1.567   3.389   6.159
 5155SOL     OW16363   4.329   6.225   2.000
 5155SOL    HW116364   4.350   6.322   2.003
 5155SOL    HW216365   4.374   6.178   2.076
 5156SOL     OW16366   6.777   2.143   5.817
 5156SOL    HW116367   6.701   2.082   5.839
 5156SOL    HW216368   6.741   2.232   5.790
 5157SOL     OW16369   4.905   2.684   3.586
 5157SOL    HW116370   4.999   2.671   3.552
 5157SOL    HW216371   4.861   2.758   3.536
 5158SOL     OW16372   3.496   1.693   1.299
 5158SOL    HW116373   3.481   1.685   1.398
 5158SOL    HW216374   3.506   1.601   1.259
 5159SOL     OW16375   0.528   2.425   4.444
 5159SOL    HW116376   0.546   2.519   4.474
 5159SOL    HW216377   0.467   2.380   4.509
 5160SOL     OW16378   1.303   3.752   4.530
 5160SOL    HW116379   1.239   3.744   4.453
 5160SOL    HW216380   1.273   3.826   4.590
 5161SOL     OW16381   1.241   3.823   5.479
 5161SOL    HW116382   1.212   3.868   5.395
 5161SOL    HW216383   1.341   3.826   5.485
 5162SOL     OW16384   6.793   5.403   3.720
 5162SOL    HW116385   6.761   5.405   3.626
 5162SOL    HW216386   6.761   5.484   3.769
 5163SOL     OW16387   5.323   5.228   0.570
 5163SOL    HW116388   5.395   5.163   0.595
 5163SOL    HW216389   5.248   5.222   0.637
 5164SOL     OW16390   5.400   2.874   5.157
 5164SOL    HW116391   5.349   2.860   5.241
 5164SOL    HW216392   5.353   2.943   5.101
 5165SOL     OW16393   6.302   4.742   4.697
 5165SOL    HW116394   6.338   4.730   4.605
 5165SOL    HW216395   6.325   4.662   4.753
 5166SOL     OW16396   1.269   4.647   1.475
 5166SOL    HW116397   1.267   4.716   1.546
 5166SOL    HW216398   1.247   4.558   1.514
 5167SOL     OW16399   6.089   6.611   5.746
 5167SOL    HW116400   6.119   6.627   5.652
 5167SOL    HW216401   5.993   6.585   5.747
 5168SOL     OW16402   4.094   2.139   3.148
 5168SOL    HW116403   4.152   2.195   3.208
 5168SOL    HW216404   4.117   2.158   3.052
 5169SOL     OW16405   3.299   4.127   6.191
 5169SOL    HW116406   3.221   4.155   6.247
 5169SOL    HW216407   3.321   4.199   6.125
 5170SOL     OW16408   6.411   4.261   4.940
 5170SOL    HW116409   6.486   4.214   4.893
 5170SOL    HW216410   6.431   4.266   5.038
 5171SOL     OW16411   2.665   4.992   4.345
 5171SOL    HW116412   2.630   4.925   4.411
 5171SOL    HW216413   2.703   4.945   4.266
 5172SOL     OW16414   0.455   3.801   1.902
 5172SOL    HW116415   0.398   3.879   1.877
 5172SOL    HW216416   0.535   3.797   1.842
 5173SOL     OW16417   6.034   3.956   6.012
 5173SOL    HW116418   6.095   4.033   6.028
 5173SOL    HW216419   5.944   3.989   5.986
 5174SOL     OW16420   1.446   5.086   5.083
 5174SOL    HW116421   1.437   5.159   5.015
 5174SOL    HW216422   1.530   5.035   5.066
 5175SOL     OW16423   1.679   4.696   0.257
 5175SOL    HW116424   1.689   4.709   0.159
 5175SOL    HW216425   1.754   4.641   0.292
 5176SOL     OW16426   4.069   3.742   0.835
 5176SOL    HW116427   3.988   3.786   0.796
 5176SOL    HW216428   4.127   3.811   0.878
 5177SOL     OW16429   4.444   6.463   5.689
 5177SOL    HW116430   4.458   6.561   5.706
 5177SOL    HW216431   4.528   6.413   5.711
 5178SOL     OW16432   2.996   2.878   1.639
 5178SOL    HW116433   2.965   2.858   1.546
 5178SOL    HW216434   3.070   2.817   1.663
 5179SOL     OW16435   4.185   6.808   5.823
 5179SOL    HW116436   4.219   6.826   5.730
 5179SOL    HW216437   4.165   6.894   5.869
 5180SOL     OW16438   3.480   1.695   0.094
 5180SOL    HW116439   3.536   1.778   0.102
 5180SOL    HW216440   3.504   1.646   0.011
 5181SOL     OW16441   3.972   0.102   2.353
 5181SOL    HW116442   4.037   0.115   2.428
 5181SOL    HW216443   3.905   0.177   2.353
 5182SOL     OW16444   5.808   4.633   1.616
 5182SOL    HW116445   5.888   4.693   1.617
 5182SOL    HW216446   5.813   4.569   1.692
 5183SOL     OW16447   4.380   6.987   2.033
 5183SOL    HW116448   4.449   6.987   2.105
 5183SOL    HW216449   4.325   0.046   2.040
 5184SOL     OW16450   0.915   1.246   3.363
 5184SOL    HW116451   0.975   1.316   3.323
 5184SOL    HW216452   0.928   1.159   3.316
 5185SOL     OW16453   3.431   6.876   2.334
 5185SOL    HW116454   3.498   6.951   2.330
 5185SOL    HW216455   3.458   6.805   2.269
 5186SOL     OW16456   6.920   4.096   1.217
 5186SOL    HW116457   7.013   4.097   1.253
 5186SOL    HW216458   6.909   4.169   1.150
 5187SOL     OW16459   6.191   1.844   3.455
 5187SOL    HW116460   6.142   1.763   3.423
 5187SOL    HW216461   6.253   1.876   3.384
 5188SOL     OW16462   0.713   4.978   6.699
 5188SOL    HW116463   0.692   5.020   6.788
 5188SOL    HW216464   0.629   4.941   6.659
 5189SOL     OW16465   5.017   4.604   6.655
 5189SOL    HW116466   4.974   4.679   6.605
 5189SOL    HW216467   5.116   4.607   6.641
 5190SOL     OW16468   0.801   2.065   4.274
 5190SOL    HW116469   0.784   1.971   4.245
 5190SOL    HW216470   0.716   2.105   4.307
 5191SOL     OW16471   3.446   1.449   2.234
 5191SOL    HW116472   3.542   1.454   2.260
 5191SOL    HW216473   3.393   1.517   2.285
 5192SOL     OW16474   5.778   5.814   2.454
 5192SOL    HW116475   5.685   5.776   2.456
 5192SOL    HW216476   5.841   5.751   2.499
 5193SOL     OW16477   4.904   4.593   4.053
 5193SOL    HW116478   4.915   4.545   3.966
 5193SOL    HW216479   4.984   4.576   4.111
 5194SOL     OW16480   5.347   0.692   5.633
 5194SOL    HW116481   5.319   0.690   5.729
 5194SOL    HW216482   5.446   0.695   5.627
 5195SOL     OW16483   6.211   6.935   5.124
 5195SOL    HW116484   6.134   6.878   5.096
 5195SOL    HW216485   6.262   6.964   5.043
 5196SOL     OW16486   0.589   4.252   1.785
 5196SOL    HW116487   0.527   4.174   1.792
 5196SOL    HW216488   0.543   4.334   1.818
 5197SOL     OW16489   2.065   6.244   4.666
 5197SOL    HW116490   2.042   6.147   4.669
 5197SOL    HW216491   1.981   6.298   4.671
 5198SOL     OW16492   3.504   6.276   5.344
 5198SOL    HW116493   3.438   6.301   5.415
 5198SOL    HW216494   3.571   6.212   5.382
 5199SOL     OW16495   2.541   5.855   1.539
 5199SOL    HW116496   2.539   5.831   1.636
 5199SOL    HW216497   2.561   5.773   1.485
 5200SOL     OW16498   0.684   1.691   4.723
 5200SOL    HW116499   0.689   1.604   4.773
 5200SOL    HW216500   0.763   1.698   4.661
 5201SOL     OW16501   5.439   4.871   3.815
 5201SOL    HW116502   5.485   4.850   3.729
 5201SOL    HW216503   5.385   4.792   3.844
 5202SOL     OW16504   4.602   3.390   6.425
 5202SOL    HW116505   4.683   3.357   6.375
 5202SOL    HW216506   4.628   3.467   6.482
 5203SOL     OW16507   1.895   0.565   0.207
 5203SOL    HW116508   1.924   0.613   0.124
 5203SOL    HW216509   1.919   0.468   0.200
 5204SOL     OW16510   3.163   0.560   6.544
 5204SOL    HW116511   3.173   0.659   6.534
 5204SOL    HW216512   3.223   0.514   6.478
 5205SOL     OW16513   0.161   6.042   1.136
 5205SOL    HW116514   0.184   5.992   1.052
 5205SOL    HW216515   0.076   6.093   1.123
 5206SOL     OW16516   0.284   4.486   4.966
 5206SOL    HW116517   0.364   4.436   4.932
 5206SOL    HW216518   0.252   4.442   5.050
 5207SOL     OW16519   0.002   0.273   5.025
 5207SOL    HW116520   6.961   0.204   5.058
 5207SOL    HW216521   0.050   0.238   4.945
 5208SOL     OW16522   4.861   2.408   0.255
 5208SOL    HW116523   4.956   2.436   0.271
 5208SOL    HW216524   4.854   2.364   0.166
 5209SOL     OW16525   4.662   6.687   3.235
 5209SOL    HW116526   4.698   6.769   3.278
 5209SOL    HW216527   4.736   6.620   3.223
 5210SOL     OW16528   5.132   4.071   0.831
 5210SOL    HW116529   5.114   3.990   0.774
 5210SOL    HW216530   5.091   4.151   0.789
 5211SOL     OW16531   4.775   2.396   4.119
 5211SOL    HW116532   4.731   2.334   4.184
 5211SOL    HW216533   4.845   2.449   4.167
 5212SOL     OW16534   1.490   3.016   0.704
 5212SOL    HW116535   1.453   3.025   0.796
 5212SOL    HW216536   1.530   2.925   0.692
 5213SOL     OW16537   3.744   2.890   2.369
 5213SOL    HW116538   3.768   2.853   2.458
 5213SOL    HW216539   3.683   2.969   2.380
 5214SOL     OW16540   5.518   4.110   6.457
 5214SOL    HW116541   5.612   4.095   6.485
 5214SOL    HW216542   5.464   4.028   6.478
 5215SOL     OW16543   6.488   3.546   4.774
 5215SOL    HW116544   6.503   3.466   4.716
 5215SOL    HW216545   6.434   3.521   4.854
 5216SOL     OW16546   5.636   4.703   0.789
 5216SOL    HW116547   5.559   4.667   0.841
 5216SOL    HW216548   5.645   4.653   0.703
 5217SOL     OW16549   4.212   5.783   4.160
 5217SOL    HW116550   4.208   5.791   4.259
 5217SOL    HW216551   4.146   5.845   4.118
 5218SOL     OW16552   0.843   0.751   0.924
 5218SOL    HW116553   0.771   0.792   0.868
 5218SOL    HW216554   0.810   0.740   1.018
 5219SOL     OW16555   2.024   2.088   4.932
 5219SOL    HW116556   2.039   2.178   4.892
 5219SOL    HW216557   2.087   2.022   4.891
 5220SOL     OW16558   2.014   4.727   3.295
 5220SOL    HW116559   2.033   4.631   3.276
 5220SOL    HW216560   1.951   4.733   3.373
 5221SOL     OW16561   6.848   0.318   1.566
 5221SOL    HW116562   6.942   0.290   1.549
 5221SOL    HW216563   6.848   0.409   1.607
 5222SOL     OW16564   4.603   4.733   1.476
 5222SOL    HW116565   4.563   4.641   1.477
 5222SOL    HW216566   4.693   4.729   1.433
 5223SOL     OW16567   0.491   3.004   1.008
 5223SOL    HW116568   0.508   3.095   1.046
 5223SOL    HW216569   0.573   2.972   0.960
 5224SOL     OW16570   0.688   1.903   3.908
 5224SOL    HW116571   0.781   1.930   3.887
 5224SOL    HW216572   0.684   1.867   4.001
 5225SOL     OW16573   0.268   1.519   4.920
 5225SOL    HW116574   0.176   1.554   4.935
 5225SOL    HW216575   0.300   1.548   4.829
 5226SOL     OW16576   0.413   5.977   4.142
 5226SOL    HW116577   0.467   6.030   4.076
 5226SOL    HW216578   0.393   5.887   4.104
 5227SOL     OW16579   6.712   2.956   5.312
 5227SOL    HW116580   6.800   2.999   5.290
 5227SOL    HW216581   6.695   2.965   5.410
 5228SOL     OW16582   1.745   3.070   5.677
 5228SOL    HW116583   1.712   2.993   5.731
 5228SOL    HW216584   1.772   3.039   5.586
 5229SOL     OW16585   3.588   0.539   6.623
 5229SOL    HW116586   3.572   0.441   6.608
 5229SOL    HW216587   3.550   0.592   6.548
 5230SOL     OW16588   6.947   6.996   1.453
 5230SOL    HW116589   6.933   0.042   1.383
 5230SOL    HW216590   6.859   6.970   1.492
 5231SOL     OW16591   5.854   1.448   2.596
 5231SOL    HW116592   5.805   1.535   2.604
 5231SOL    HW216593   5.796   1.374   2.631
 5232SOL     OW16594   1.778   3.575   5.876
 5232SOL    HW116595   1.846   3.602   5.808
 5232SOL    HW216596   1.693   3.626   5.860
 5233SOL     OW16597   2.965   0.285   2.682
 5233SOL    HW116598   2.981   0.275   2.583
 5233SOL    HW216599   2.942   0.380   2.702
 5234SOL     OW16600   2.226   2.310   1.145
 5234SOL    HW116601   2.194   2.354   1.230
 5234SOL    HW216602   2.219   2.211   1.155
 5235SOL     OW16603   2.625   2.079   1.181
 5235SOL    HW116604   2.665   2.092   1.272
 5235SOL    HW216605   2.583   2.164   1.151
 5236SOL     OW16606   3.189   5.338   2.081
 5236SOL    HW116607   3.244   5.348   2.164
 5236SOL    HW216608   3.206   5.248   2.041
 5237SOL     OW16609   2.138   2.490   4.427
 5237SOL    HW116610   2.117   2.554   4.352
 5237SOL    HW216611   2.151   2.398   4.390
 5238SOL     OW16612   1.035   5.660   2.963
 5238SOL    HW116613   1.022   5.562   2.978
 5238SOL    HW216614   1.122   5.674   2.915
 5239SOL     OW16615   3.437   3.560   1.201
 5239SOL    HW116616   3.487   3.641   1.229
 5239SOL    HW216617   3.481   3.478   1.238
 5240SOL     OW16618   2.747   2.643   6.203
 5240SOL    HW116619   2.677   2.578   6.174
 5240SOL    HW216620   2.725   2.678   6.293
 5241SOL     OW16621   1.145   6.139   2.702
 5241SOL    HW116622   1.168   6.052   2.660
 5241SOL    HW216623   1.208   6.158   2.777
 5242SOL     OW16624   4.914   0.701   0.212
 5242SOL    HW116625   4.891   0.755   0.293
 5242SOL    HW216626   5.010   0.714   0.189
 5243SOL     OW16627   1.551   6.239   1.781
 5243SOL    HW116628   1.648   6.262   1.776
 5243SOL    HW216629   1.507   6.296   1.851
 5244SOL     OW16630   5.004   3.418   0.405
 5244SOL    HW116631   4.989   3.414   0.503
 5244SOL    HW216632   5.084   3.474   0.385
 5245SOL     OW16633   3.936   3.872   0.403
 5245SOL    HW116634   3.920   3.969   0.420
 5245SOL    HW216635   4.032   3.851   0.421
 5246SOL     OW16636   6.202   2.666   1.460
 5246SOL    HW116637   6.238   2.687   1.551
 5246SOL    HW216638   6.109   2.704   1.452
 5247SOL     OW16639   4.151   2.240   6.040
 5247SOL    HW116640   4.142   2.166   6.107
 5247SOL    HW216641   4.225   2.219   5.976
 5248SOL     OW16642   6.370   1.725   2.562
 5248SOL    HW116643   6.404   1.695   2.651
 5248SOL    HW216644   6.435   1.790   2.522
 5249SOL     OW16645   0.484   4.852   6.664
 5249SOL    HW116646   0.412   4.861   6.596
 5249SOL    HW216647   0.473   4.765   6.713
 5250SOL     OW16648   2.121   6.001   0.348
 5250SOL    HW116649   2.137   6.089   0.304
 5250SOL    HW216650   2.191   5.985   0.418
 5251SOL     OW16651   0.654   4.152   0.853
 5251SOL    HW116652   0.707   4.213   0.794
 5251SOL    HW216653   0.709   4.129   0.933
 5252SOL     OW16654   3.433   0.233   2.236
 5252SOL    HW116655   3.352   0.254   2.181
 5252SOL    HW216656   3.413   0.249   2.333
 5253SOL     OW16657   5.700   5.015   4.622
 5253SOL    HW116658   5.715   4.933   4.566
 5253SOL    HW216659   5.787   5.057   4.646
 5254SOL     OW16660   5.931   0.016   3.151
 5254SOL    HW116661   5.961   6.963   3.095
 5254SOL    HW216662   5.869   0.074   3.097
 5255SOL     OW16663   5.838   1.515   5.014
 5255SOL    HW116664   5.934   1.520   5.041
 5255SOL    HW216665   5.828   1.552   4.922
 5256SOL     OW16666   5.719   0.783   3.191
 5256SOL    HW116667   5.805   0.830   3.170
 5256SOL    HW216668   5.642   0.845   3.177
 5257SOL     OW16669   4.072   0.918   6.455
 5257SOL    HW116670   4.080   0.990   6.387
 5257SOL    HW216671   4.093   0.830   6.413
 5258SOL     OW16672   5.236   1.566   2.346
 5258SOL    HW116673   5.175   1.513   2.287
 5258SOL    HW216674   5.322   1.516   2.358
 5259SOL     OW16675   4.895   5.064   3.244
 5259SOL    HW116676   4.885   5.163   3.233
 5259SOL    HW216677   4.823   5.018   3.193
 5260SOL     OW16678   2.205   0.267   0.103
 5260SOL    HW116679   2.262   0.318   0.167
 5260SOL    HW216680   2.195   0.173   0.134
 5261SOL     OW16681   6.495   4.616   0.261
 5261SOL    HW116682   6.531   4.710   0.259
 5261SOL    HW216683   6.460   4.592   0.171
 5262SOL     OW16684   2.205   0.356   2.472
 5262SOL    HW116685   2.191   0.446   2.432
 5262SOL    HW216686   2.291   0.318   2.438
 5263SOL     OW16687   1.904   1.418   3.764
 5263SOL    HW116688   1.812   1.408   3.725
 5263SOL    HW216689   1.922   1.343   3.827
 5264SOL     OW16690   6.913   2.178   1.571
 5264SOL    HW116691   6.969   2.247   1.525
 5264SOL    HW216692   6.935   2.176   1.668
 5265SOL     OW16693   5.534   3.248   4.942
 5265SOL    HW116694   5.512   3.288   5.030
 5265SOL    HW216695   5.558   3.321   4.877
 5266SOL     OW16696   2.310   6.916   0.353
 5266SOL    HW116697   2.406   6.920   0.382
 5266SOL    HW216698   2.256   6.871   0.423
 5267SOL     OW16699   4.219   2.286   4.736
 5267SOL    HW116700   4.296   2.337   4.696
 5267SOL    HW216701   4.192   2.329   4.822
 5268SOL     OW16702   5.482   0.924   6.306
 5268SOL    HW116703   5.535   1.000   6.268
 5268SOL    HW216704   5.385   0.944   6.298
 5269SOL     OW16705   0.226   6.504   2.506
 5269SOL    HW116706   0.228   6.551   2.418
 5269SOL    HW216707   0.298   6.435   2.510
 5270SOL     OW16708   0.085   1.737   6.633
 5270SOL    HW116709   0.171   1.782   6.609
 5270SOL    HW216710   0.009   1.791   6.595
 5271SOL     OW16711   6.014   5.559   4.374
 5271SOL    HW116712   6.057   5.539   4.462
 5271SOL    HW216713   6.038   5.488   4.308
 5272SOL     OW16714   4.059   6.940   0.105
 5272SOL    HW116715   4.062   6.910   0.200
 5272SOL    HW216716   4.068   6.861   0.044
 5273SOL     OW16717   1.042   3.035   2.403
 5273SOL    HW116718   1.072   3.120   2.447
 5273SOL    HW216719   0.946   3.018   2.426
 5274SOL     OW16720   4.829   6.064   2.403
 5274SOL    HW116721   4.909   6.121   2.421
 5274SOL    HW216722   4.796   6.025   2.489
 5275SOL     OW16723   3.209   0.812   0.506
 5275SOL    HW116724   3.181   0.737   0.448
 5275SOL    HW216725   3.188   0.899   0.461
 5276SOL     OW16726   2.668   6.441   1.626
 5276SOL    HW116727   2.635   6.356   1.584
 5276SOL    HW216728   2.644   6.441   1.723
 5277SOL     OW16729   1.830   1.075   2.293
 5277SOL    HW116730   1.838   1.081   2.393
 5277SOL    HW216731   1.821   1.166   2.254
 5278SOL     OW16732   4.632   5.238   1.976
 5278SOL    HW116733   4.590   5.214   2.064
 5278SOL    HW216734   4.560   5.251   1.908
 5279SOL     OW16735   2.624   5.346   1.381
 5279SOL    HW116736   2.541   5.369   1.433
 5279SOL    HW216737   2.655   5.255   1.407
 5280SOL     OW16738   3.634   6.122   4.867
 5280SOL    HW116739   3.639   6.174   4.781
 5280SOL    HW216740   3.552   6.065   4.866
 5281SOL     OW16741   0.723   2.077   2.103
 5281SOL    HW116742   0.737   2.174   2.126
 5281SOL    HW216743   0.703   2.069   2.005
 5282SOL     OW16744   3.047   1.924   3.698
 5282SOL    HW116745   3.093   2.011   3.683
 5282SOL    HW216746   3.044   1.904   3.796
 5283SOL     OW16747   5.117   6.029   0.157
 5283SOL    HW116748   5.163   6.050   0.244
 5283SOL    HW216749   5.032   6.082   0.151
 5284SOL     OW16750   5.861   3.392   2.728
 5284SOL    HW116751   5.793   3.330   2.769
 5284SOL    HW216752   5.896   3.351   2.644
 5285SOL     OW16753   3.243   5.174   3.628
 5285SOL    HW116754   3.152   5.167   3.587
 5285SOL    HW216755   3.253   5.263   3.672
 5286SOL     OW16756   1.537   4.311   1.516
 5286SOL    HW116757   1.512   4.225   1.562
 5286SOL    HW216758   1.459   4.373   1.516
 5287SOL     OW16759   2.468   1.910   0.533
 5287SOL    HW116760   2.502   1.851   0.606
 5287SOL    HW216761   2.372   1.933   0.551
 5288SOL     OW16762   3.249   0.305   1.001
 5288SOL    HW116763   3.241   0.271   0.907
 5288SOL    HW216764   3.170   0.273   1.055
 5289SOL     OW16765   0.795   5.126   0.909
 5289SOL    HW116766   0.843   5.155   0.992
 5289SOL    HW216767   0.860   5.086   0.845
 5290SOL     OW16768   3.851   5.681   0.692
 5290SOL    HW116769   3.903   5.606   0.733
 5290SOL    HW216770   3.754   5.655   0.686
 5291SOL     OW16771   2.156   5.183   5.260
 5291SOL    HW116772   2.178   5.108   5.323
 5291SOL    HW216773   2.085   5.154   5.197
 5292SOL     OW16774   4.648   2.967   6.040
 5292SOL    HW116775   4.627   3.045   6.100
 5292SOL    HW216776   4.598   2.887   6.072
 5293SOL     OW16777   0.388   0.319   4.646
 5293SOL    HW116778   0.446   0.370   4.582
 5293SOL    HW216779   0.323   0.381   4.690
 5294SOL     OW16780   6.272   2.874   6.197
 5294SOL    HW116781   6.221   2.838   6.275
 5294SOL    HW216782   6.359   2.911   6.229
 5295SOL     OW16783   6.398   0.770   2.765
 5295SOL    HW116784   6.496   0.762   2.783
 5295SOL    HW216785   6.370   0.696   2.704
 5296SOL     OW16786   0.601   4.436   1.084
 5296SOL    HW116787   0.693   4.444   1.044
 5296SOL    HW216788   0.586   4.341   1.114
 5297SOL     OW16789   2.340   1.653   1.520
 5297SOL    HW116790   2.355   1.699   1.432
 5297SOL    HW216791   2.395   1.696   1.590
 5298SOL     OW16792   0.096   5.502   1.193
 5298SOL    HW116793   0.131   5.555   1.270
 5298SOL    HW216794   0.100   5.557   1.109
 5299SOL     OW16795   3.012   0.665   1.743
 5299SOL    HW116796   2.931   0.687   1.798
 5299SOL    HW216797   3.044   0.746   1.696
 5300SOL     OW16798   6.701   5.949   3.588
 5300SOL    HW116799   6.785   5.903   3.558
 5300SOL    HW216800   6.627   5.930   3.523
 5301SOL     OW16801   4.287   1.215   0.088
 5301SOL    HW116802   4.318   1.294   0.036
 5301SOL    HW216803   4.302   1.132   0.034
 5302SOL     OW16804   5.927   4.170   2.616
 5302SOL    HW116805   5.911   4.073   2.598
 5302SOL    HW216806   5.843   4.213   2.648
 5303SOL     OW16807   6.362   4.268   3.603
 5303SOL    HW116808   6.377   4.239   3.698
 5303SOL    HW216809   6.437   4.236   3.546
 5304SOL     OW16810   5.385   1.937   6.221
 5304SOL    HW116811   5.295   1.912   6.185
 5304SOL    HW216812   5.375   2.006   6.292
 5305SOL     OW16813   2.616   1.169   3.284
 5305SOL    HW116814   2.604   1.147   3.380
 5305SOL    HW216815   2.606   1.268   3.271
 5306SOL     OW16816   3.317   0.051   5.659
 5306SOL    HW116817   3.336   7.004   5.591
 5306SOL    HW216818   3.220   0.050   5.683
 5307SOL     OW16819   4.668   6.754   6.950
 5307SOL    HW116820   4.579   6.784   6.916
 5307SOL    HW216821   4.686   6.796   0.015
 5308SOL     OW16822   0.155   1.352   3.022
 5308SOL    HW116823   0.254   1.353   3.031
 5308SOL    HW216824   0.126   1.266   2.980
 5309SOL     OW16825   3.573   4.050   3.696
 5309SOL    HW116826   3.616   3.992   3.764
 5309SOL    HW216827   3.640   4.072   3.624
 5310SOL     OW16828   5.205   2.033   0.942
 5310SOL    HW116829   5.112   2.065   0.927
 5310SOL    HW216830   5.270   2.103   0.914
 5311SOL     OW16831   1.870   5.492   6.845
 5311SOL    HW116832   1.924   5.429   6.901
 5311SOL    HW216833   1.926   5.527   6.770
 5312SOL     OW16834   0.517   4.006   3.196
 5312SOL    HW116835   0.533   4.000   3.295
 5312SOL    HW216836   0.427   4.046   3.179
 5313SOL     OW16837   1.309   5.813   0.000
 5313SOL    HW116838   1.403   5.842   7.006
 5313SOL    HW216839   1.298   5.718   6.995
 5314SOL     OW16840   3.517   5.263   0.801
 5314SOL    HW116841   3.518   5.347   0.746
 5314SOL    HW216842   3.528   5.184   0.741
 5315SOL     OW16843   5.566   2.927   2.308
 5315SOL    HW116844   5.585   2.990   2.383
 5315SOL    HW216845   5.587   2.834   2.337
 5316SOL     OW16846   7.010   4.274   3.764
 5316SOL    HW116847   7.015   4.187   3.812
 5316SOL    HW216848   0.046   4.273   3.685
 5317SOL     OW16849   5.465   6.743   2.803
 5317SOL    HW116850   5.458   6.740   2.902
 5317SOL    HW216851   5.410   6.670   2.763
 5318SOL     OW16852   0.445   2.720   4.757
 5318SOL    HW116853   0.427   2.650   4.826
 5318SOL    HW216854   0.514   2.687   4.693
 5319SOL     OW16855   5.260   0.531   0.329
 5319SOL    HW116856   5.212   0.614   0.302
 5319SOL    HW216857   5.249   0.516   0.428
 5320SOL     OW16858   5.812   2.922   6.197
 5320SOL    HW116859   5.899   2.939   6.150
 5320SOL    HW216860   5.738   2.972   6.151
 5321SOL     OW16861   2.118   5.319   5.974
 5321SOL    HW116862   2.169   5.395   5.933
 5321SOL    HW216863   2.126   5.238   5.916
 5322SOL     OW16864   3.244   5.852   6.588
 5322SOL    HW116865   3.237   5.942   6.630
 5322SOL    HW216866   3.182   5.847   6.509
 5323SOL     OW16867   5.138   2.682   1.107
 5323SOL    HW116868   5.227   2.660   1.146
 5323SOL    HW216869   5.107   2.605   1.051
 5324SOL     OW16870   3.614   3.390   1.350
 5324SOL    HW116871   3.657   3.438   1.426
 5324SOL    HW216872   3.683   3.368   1.281
 5325SOL     OW16873   5.302   6.243   2.647
 5325SOL    HW116874   5.248   6.248   2.564
 5325SOL    HW216875   5.262   6.175   2.709
 5326SOL     OW16876   0.078   6.296   1.558
 5326SOL    HW116877   0.167   6.330   1.527
 5326SOL    HW216878   0.009   6.368   1.546
 5327SOL     OW16879   6.176   0.479   4.011
 5327SOL    HW116880   6.244   0.532   3.960
 5327SOL    HW216881   6.178   0.384   3.980
 5328SOL     OW16882   4.096   4.195   0.249
 5328SOL    HW116883   4.185   4.241   0.255
 5328SOL    HW216884   4.088   4.151   0.159
 5329SOL     OW16885   0.215   4.878   0.063
 5329SOL    HW116886   0.299   4.856   0.113
 5329SOL    HW216887   0.237   4.899   6.992
 5330SOL     OW16888   4.468   4.106   1.428
 5330SOL    HW116889   4.484   4.102   1.329
 5330SOL    HW216890   4.383   4.155   1.445
 5331SOL     OW16891   4.410   3.497   0.192
 5331SOL    HW116892   4.503   3.525   0.212
 5331SOL    HW216893   4.346   3.552   0.247
 5332SOL     OW16894   6.046   3.751   0.470
 5332SOL    HW116895   5.983   3.704   0.408
 5332SOL    HW216896   6.048   3.848   0.449
 5333SOL     OW16897   1.946   1.323   4.113
 5333SOL    HW116898   1.860   1.373   4.114
 5333SOL    HW216899   2.021   1.386   4.133
 5334SOL     OW16900   4.866   4.810   2.135
 5334SOL    HW116901   4.797   4.869   2.178
 5334SOL    HW216902   4.913   4.757   2.206
 5335SOL     OW16903   0.233   4.598   1.785
 5335SOL    HW116904   0.278   4.686   1.769
 5335SOL    HW216905   0.190   4.567   1.700
 5336SOL     OW16906   1.093   2.880   3.954
 5336SOL    HW116907   1.108   2.908   4.049
 5336SOL    HW216908   0.996   2.888   3.931
 5337SOL     OW16909   6.977   4.375   0.663
 5337SOL    HW116910   7.015   4.361   0.571
 5337SOL    HW216911   6.900   4.313   0.677
 5338SOL     OW16912   6.573   3.371   0.789
 5338SOL    HW116913   6.569   3.417   0.878
 5338SOL    HW216914   6.653   3.311   0.787
 5339SOL     OW16915   5.671   2.396   2.924
 5339SOL    HW116916   5.678   2.459   3.002
 5339SOL    HW216917   5.714   2.438   2.844
 5340SOL     OW16918   5.420   2.584   2.449
 5340SOL    HW116919   5.381   2.611   2.538
 5340SOL    HW216920   5.356   2.606   2.376
 5341SOL     OW16921   4.608   5.784   3.404
 5341SOL    HW116922   4.686   5.840   3.431
 5341SOL    HW216923   4.586   5.801   3.307
 5342SOL     OW16924   5.901   6.598   4.555
 5342SOL    HW116925   5.828   6.655   4.517
 5342SOL    HW216926   5.955   6.559   4.480
 5343SOL     OW16927   3.860   3.624   5.817
 5343SOL    HW116928   3.891   3.699   5.876
 5343SOL    HW216929   3.878   3.647   5.722
 5344SOL     OW16930   1.001   1.713   5.892
 5344SOL    HW116931   1.025   1.660   5.974
 5344SOL    HW216932   1.039   1.667   5.811
 5345SOL     OW16933   5.394   2.209   0.185
 5345SOL    HW116934   5.304   2.247   0.162
 5345SOL    HW216935   5.405   2.120   0.142
 5346SOL     OW16936   3.009   5.822   3.726
 5346SOL    HW116937   2.986   5.752   3.794
 5346SOL    HW216938   3.088   5.874   3.758
 5347SOL     OW16939   5.731   1.672   3.844
 5347SOL    HW116940   5.717   1.647   3.940
 5347SOL    HW216941   5.695   1.764   3.828
 5348SOL     OW16942   4.976   1.806   3.212
 5348SOL    HW116943   5.003   1.803   3.309
 5348SOL    HW216944   4.990   1.898   3.176
 5349SOL     OW16945   0.224   3.936   2.464
 5349SOL    HW116946   0.233   3.942   2.564
 5349SOL    HW216947   0.235   3.840   2.436
 5350SOL     OW16948   1.432   6.409   6.945
 5350SOL    HW116949   1.512   6.405   7.005
 5350SOL    HW216950   1.349   6.400   7.001
 5351SOL     OW16951   6.938   5.700   1.727
 5351SOL    HW116952   6.964   5.630   1.793
 5351SOL    HW216953   7.016   5.759   1.707
 5352SOL     OW16954   1.696   3.259   4.272
 5352SOL    HW116955   1.642   3.344   4.273
 5352SOL    HW216956   1.743   3.251   4.183
 5353SOL     OW16957   4.206   5.502   3.553
 5353SOL    HW116958   4.247   5.489   3.463
 5353SOL    HW216959   4.268   5.555   3.611
 5354SOL     OW16960   4.050   5.858   0.596
 5354SOL    HW116961   3.982   5.807   0.649
 5354SOL    HW216962   4.138   5.853   0.642
 5355SOL     OW16963   4.913   4.760   5.322
 5355SOL    HW116964   4.839   4.826   5.308
 5355SOL    HW216965   4.968   4.789   5.401
 5356SOL     OW16966   0.146   4.925   1.456
 5356SOL    HW116967   0.058   4.949   1.496
 5356SOL    HW216968   0.180   5.001   1.401
 5357SOL     OW16969   5.548   4.213   2.498
 5357SOL    HW116970   5.528   4.147   2.426
 5357SOL    HW216971   5.606   4.286   2.462
 5358SOL     OW16972   4.577   2.176   0.585
 5358SOL    HW116973   4.553   2.079   0.583
 5358SOL    HW216974   4.564   2.211   0.677
 5359SOL     OW16975   2.659   2.047   6.413
 5359SOL    HW116976   2.634   1.956   6.447
 5359SOL    HW216977   2.758   2.052   6.402
 5360SOL     OW16978   5.373   4.455   3.389
 5360SOL    HW116979   5.445   4.459   3.319
 5360SOL    HW216980   5.405   4.502   3.471
 5361SOL     OW16981   2.894   5.942   2.010
 5361SOL    HW116982   2.809   5.907   2.049
 5361SOL    HW216983   2.964   5.947   2.081
 5362SOL     OW16984   6.083   0.274   2.047
 5362SOL    HW116985   6.099   0.372   2.035
 5362SOL    HW216986   6.120   0.245   2.135
 5363SOL     OW16987   5.848   5.165   3.980
 5363SOL    HW116988   5.855   5.143   4.078
 5363SOL    HW216989   5.899   5.097   3.927
 5364SOL     OW16990   4.918   1.273   2.815
 5364SOL    HW116991   4.911   1.324   2.729
 5364SOL    HW216992   4.903   1.336   2.891
 5365SOL     OW16993   4.044   3.153   4.015
 5365SOL    HW116994   3.984   3.109   3.948
 5365SOL    HW216995   4.026   3.114   4.106
 5366SOL     OW16996   6.572   6.333   2.266
 5366SOL    HW116997   6.560   6.431   2.278
 5366SOL    HW216998   6.523   6.303   2.184
 5367SOL     OW16999   6.253   6.420   1.703
 5367SOL    HW117000   6.352   6.426   1.688
 5367SOL    HW217001   6.204   6.441   1.619
 5368SOL     OW17002   6.691   5.910   3.857
 5368SOL    HW117003   6.686   5.812   3.874
 5368SOL    HW217004   6.677   5.928   3.760
 5369SOL     OW17005   2.284   6.069   2.061
 5369SOL    HW117006   2.204   6.128   2.069
 5369SOL    HW217007   2.258   5.974   2.079
 5370SOL     OW17008   2.403   3.752   1.490
 5370SOL    HW117009   2.337   3.806   1.437
 5370SOL    HW217010   2.472   3.814   1.528
 5371SOL     OW17011   5.418   5.602   4.798
 5371SOL    HW117012   5.393   5.616   4.702
 5371SOL    HW217013   5.378   5.675   4.854
 5372SOL     OW17014   0.795   0.527   3.131
 5372SOL    HW117015   0.784   0.484   3.042
 5372SOL    HW217016   0.735   0.483   3.197
 5373SOL     OW17017   3.449   0.828   6.715
 5373SOL    HW117018   3.369   0.785   6.758
 5373SOL    HW217019   3.453   0.924   6.741
 5374SOL     OW17020   2.468   4.935   2.218
 5374SOL    HW117021   2.450   5.030   2.192
 5374SOL    HW217022   2.469   4.927   2.318
 5375SOL     OW17023   1.293   5.066   4.083
 5375SOL    HW117024   1.391   5.085   4.091
 5375SOL    HW217025   1.271   5.050   3.987
 5376SOL     OW17026   0.108   0.857   6.076
 5376SOL    HW117027   0.082   0.761   6.071
 5376SOL    HW217028   0.060   0.908   6.004
 5377SOL     OW17029   2.392   1.077   2.822
 5377SOL    HW117030   2.437   0.995   2.858
 5377SOL    HW217031   2.293   1.067   2.831
 5378SOL     OW17032   5.317   1.084   1.746
 5378SOL    HW117033   5.352   1.152   1.681
 5378SOL    HW217034   5.217   1.090   1.750
 5379SOL     OW17035   1.553   2.364   6.426
 5379SOL    HW117036   1.551   2.331   6.520
 5379SOL    HW217037   1.508   2.299   6.366
 5380SOL     OW17038   4.748   6.964   1.476
 5380SOL    HW117039   4.815   6.900   1.512
 5380SOL    HW217040   4.686   6.916   1.414
 5381SOL     OW17041   4.841   6.541   3.848
 5381SOL    HW117042   4.763   6.484   3.823
 5381SOL    HW217043   4.926   6.492   3.829
 5382SOL     OW17044   4.373   1.820   1.533
 5382SOL    HW117045   4.462   1.781   1.558
 5382SOL    HW217046   4.324   1.845   1.616
 5383SOL     OW17047   1.936   2.888   4.602
 5383SOL    HW117048   1.972   2.979   4.582
 5383SOL    HW217049   1.849   2.897   4.652
 5384SOL     OW17050   5.310   5.414   4.585
 5384SOL    HW117051   5.248   5.431   4.662
 5384SOL    HW217052   5.294   5.323   4.548
 5385SOL     OW17053   4.287   2.240   5.541
 5385SOL    HW117054   4.261   2.146   5.563
 5385SOL    HW217055   4.383   2.254   5.566
 5386SOL     OW17056   6.103   4.556   4.099
 5386SOL    HW117057   6.176   4.526   4.037
 5386SOL    HW217058   6.060   4.476   4.141
 5387SOL     OW17059   1.184   1.078   3.148
 5387SOL    HW117060   1.204   1.125   3.235
 5387SOL    HW217061   1.269   1.047   3.107
 5388SOL     OW17062   1.179   6.529   2.505
 5388SOL    HW117063   1.093   6.543   2.456
 5388SOL    HW217064   1.245   6.599   2.476
 5389SOL     OW17065   4.229   1.762   4.088
 5389SOL    HW117066   4.208   1.713   4.004
 5389SOL    HW217067   4.170   1.728   4.162
 5390SOL     OW17068   0.026   2.761   3.388
 5390SOL    HW117069   0.092   2.833   3.368
 5390SOL    HW217070   0.067   2.693   3.449
 5391SOL     OW17071   2.442   3.709   0.875
 5391SOL    HW117072   2.495   3.650   0.936
 5391SOL    HW217073   2.400   3.653   0.804
 5392SOL     OW17074   5.878   1.881   3.514
 5392SOL    HW117075   5.854   1.971   3.478
 5392SOL    HW217076   5.826   1.863   3.597
 5393SOL     OW17077   3.893   2.020   5.537
 5393SOL    HW117078   3.812   1.984   5.583
 5393SOL    HW217079   3.891   2.119   5.539
 5394SOL     OW17080   1.329   0.973   1.159
 5394SOL    HW117081   1.383   0.951   1.241
 5394SOL    HW217082   1.367   0.925   1.080
 5395SOL     OW17083   6.491   1.471   1.100
 5395SOL    HW117084   6.563   1.402   1.102
 5395SOL    HW217085   6.410   1.435   1.147
 5396SOL     OW17086   5.564   5.080   2.245
 5396SOL    HW117087   5.552   5.165   2.194
 5396SOL    HW217088   5.475   5.044   2.273
 5397SOL     OW17089   0.322   0.944   2.341
 5397SOL    HW117090   0.312   0.907   2.249
 5397SOL    HW217091   0.420   0.954   2.362
 5398SOL     OW17092   5.035   2.083   3.168
 5398SOL    HW117093   4.990   2.157   3.218
 5398SOL    HW217094   5.130   2.075   3.198
 5399SOL     OW17095   2.418   0.491   6.044
 5399SOL    HW117096   2.502   0.545   6.046
 5399SOL    HW217097   2.380   0.486   6.136
 5400SOL     OW17098   4.511   3.204   1.658
 5400SOL    HW117099   4.454   3.279   1.690
 5400SOL    HW217100   4.542   3.150   1.736
 5401SOL     OW17101   5.691   3.613   1.590
 5401SOL    HW117102   5.780   3.568   1.604
 5401SOL    HW217103   5.683   3.642   1.495
 5402SOL     OW17104   0.948   6.305   1.529
 5402SOL    HW117105   0.918   6.276   1.620
 5402SOL    HW217106   0.991   6.227   1.482
 5403SOL     OW17107   5.250   2.563   6.995
 5403SOL    HW117108   5.325   2.626   7.012
 5403SOL    HW217109   5.170   2.590   0.025
 5404SOL     OW17110   6.862   1.431   0.379
 5404SOL    HW117111   6.939   1.370   0.394
 5404SOL    HW217112   6.776   1.381   0.392
 5405SOL     OW17113   5.523   5.470   6.878
 5405SOL    HW117114   5.499   5.384   6.924
 5405SOL    HW217115   5.543   5.452   6.782
 5406SOL     OW17116   2.636   0.576   4.422
 5406SOL    HW117117   2.710   0.632   4.385
 5406SOL    HW217118   2.668   0.482   4.434
 5407SOL     OW17119   1.513   6.826   2.878
 5407SOL    HW117120   1.459   6.888   2.822
 5407SOL    HW217121   1.541   6.747   2.824
 5408SOL     OW17122   3.563   2.114   4.279
 5408SOL    HW117123   3.610   2.173   4.213
 5408SOL    HW217124   3.493   2.060   4.231
 5409SOL     OW17125   1.269   2.770   0.940
 5409SOL    HW117126   1.194   2.819   0.983
 5409SOL    HW217127   1.238   2.728   0.855
 5410SOL     OW17128   1.305   2.618   0.716
 5410SOL    HW117129   1.401   2.592   0.705
 5410SOL    HW217130   1.248   2.557   0.662
 5411SOL     OW17131   3.388   4.955   6.821
 5411SOL    HW117132   3.449   4.900   6.764
 5411SOL    HW217133   3.368   5.041   6.774
 5412SOL     OW17134   0.280   2.072   6.144
 5412SOL    HW117135   0.356   2.122   6.187
 5412SOL    HW217136   0.205   2.136   6.126
 5413SOL     OW17137   6.740   6.383   4.865
 5413SOL    HW117138   6.688   6.467   4.845
 5413SOL    HW217139   6.747   6.371   4.964
 5414SOL     OW17140   5.529   3.833   4.783
 5414SOL    HW117141   5.626   3.845   4.760
 5414SOL    HW217142   5.519   3.827   4.882
 5415SOL     OW17143   3.868   0.227   6.960
 5415SOL    HW117144   3.890   0.314   6.916
 5415SOL    HW217145   3.834   0.244   0.029
 5416SOL     OW17146   3.206   5.502   6.162
 5416SOL    HW117147   3.258   5.584   6.187
 5416SOL    HW217148   3.216   5.433   6.234
 5417SOL     OW17149   4.905   6.206   4.050
 5417SOL    HW117150   4.883   6.241   3.959
 5417SOL    HW217151   4.848   6.252   4.118
 5418SOL     OW17152   6.411   3.517   4.464
 5418SOL    HW117153   6.487   3.578   4.488
 5418SOL    HW217154   6.429   3.426   4.500
 5419SOL     OW17155   4.625   0.068   6.464
 5419SOL    HW117156   4.681   0.046   6.543
 5419SOL    HW217157   4.655   0.015   6.385
 5420SOL     OW17158   1.316   0.737   1.902
 5420SOL    HW117159   1.291   0.642   1.884
 5420SOL    HW217160   1.283   0.764   1.992
 5421SOL     OW17161   4.162   4.697   1.947
 5421SOL    HW117162   4.226   4.627   1.914
 5421SOL    HW217163   4.177   4.712   2.045
 5422SOL     OW17164   2.557   5.798   3.692
 5422SOL    HW117165   2.501   5.828   3.615
 5422SOL    HW217166   2.644   5.847   3.691
 5423SOL     OW17167   5.543   5.584   1.811
 5423SOL    HW117168   5.552   5.532   1.896
 5423SOL    HW217169   5.599   5.541   1.740
 5424SOL     OW17170   4.229   3.878   5.474
 5424SOL    HW117171   4.307   3.861   5.534
 5424SOL    HW217172   4.205   3.975   5.476
 5425SOL     OW17173   1.077   3.938   5.680
 5425SOL    HW117174   1.119   4.029   5.684
 5425SOL    HW217175   1.145   3.870   5.653
 5426SOL     OW17176   5.378   5.287   1.585
 5426SOL    HW117177   5.440   5.290   1.506
 5426SOL    HW217178   5.335   5.197   1.589
 5427SOL     OW17179   4.600   2.284   6.374
 5427SOL    HW117180   4.617   2.349   6.449
 5427SOL    HW217181   4.688   2.251   6.339
 5428SOL     OW17182   6.206   6.117   3.186
 5428SOL    HW117183   6.119   6.098   3.232
 5428SOL    HW217184   6.232   6.212   3.203
 5429SOL     OW17185   3.335   0.343   4.461
 5429SOL    HW117186   3.274   0.394   4.522
 5429SOL    HW217187   3.357   0.255   4.502
 5430SOL     OW17188   2.479   3.665   5.880
 5430SOL    HW117189   2.528   3.703   5.959
 5430SOL    HW217190   2.543   3.611   5.824
 5431SOL     OW17191   3.078   4.465   6.604
 5431SOL    HW117192   3.134   4.396   6.650
 5431SOL    HW217193   2.985   4.431   6.594
 5432SOL     OW17194   5.742   5.556   0.015
 5432SOL    HW117195   5.662   5.536   6.982
 5432SOL    HW217196   5.766   5.475   0.067
 5433SOL     OW17197   1.653   0.721   1.570
 5433SOL    HW117198   1.698   0.808   1.550
 5433SOL    HW217199   1.650   0.708   1.669
 5434SOL     OW17200   5.496   0.324   5.025
 5434SOL    HW117201   5.551   0.247   5.058
 5434SOL    HW217202   5.546   0.374   4.955
 5435SOL     OW17203   6.780   4.164   0.688
 5435SOL    HW117204   6.806   4.069   0.705
 5435SOL    HW217205   6.692   4.183   0.732
 5436SOL     OW17206   1.034   5.154   2.658
 5436SOL    HW117207   0.951   5.099   2.665
 5436SOL    HW217208   1.036   5.199   2.568
 5437SOL     OW17209   3.773   5.624   1.496
 5437SOL    HW117210   3.674   5.626   1.502
 5437SOL    HW217211   3.801   5.562   1.422
 5438SOL     OW17212   4.594   4.936   2.644
 5438SOL    HW117213   4.659   5.005   2.676
 5438SOL    HW217214   4.502   4.975   2.643
 5439SOL     OW17215   0.996   4.847   1.455
 5439SOL    HW117216   1.018   4.888   1.544
 5439SOL    HW217217   0.953   4.758   1.469
 5440SOL     OW17218   6.315   6.572   3.620
 5440SOL    HW117219   6.365   6.486   3.631
 5440SOL    HW217220   6.323   6.625   3.705
 5441SOL     OW17221   5.636   2.579   3.589
 5441SOL    HW117222   5.612   2.632   3.670
 5441SOL    HW217223   5.631   2.637   3.508
 5442SOL     OW17224   4.111   0.000   6.007
 5442SOL    HW117225   4.156   7.007   6.095
 5442SOL    HW217226   4.159   0.074   5.959
 5443SOL     OW17227   4.451   0.685   3.983
 5443SOL    HW117228   4.433   0.725   3.893
 5443SOL    HW217229   4.549   0.665   3.991
 5444SOL     OW17230   6.243   1.264   5.160
 5444SOL    HW117231   6.153   1.234   5.127
 5444SOL    HW217232   6.275   1.201   5.231
 5445SOL     OW17233   5.831   5.291   5.198
 5445SOL    HW117234   5.929   5.310   5.195
 5445SOL    HW217235   5.797   5.301   5.291
 5446SOL     OW17236   0.417   4.278   6.136
 5446SOL    HW117237   0.373   4.243   6.218
 5446SOL    HW217238   0.377   4.367   6.112
 5447SOL     OW17239   1.285   2.047   0.658
 5447SOL    HW117240   1.355   2.039   0.587
 5447SOL    HW217241   1.324   2.093   0.738
 5448SOL     OW17242   4.382   5.138   2.951
 5448SOL    HW117243   4.463   5.186   2.984
 5448SOL    HW217244   4.373   5.050   2.997
 5449SOL     OW17245   3.006   1.312   1.792
 5449SOL    HW117246   2.943   1.366   1.737
 5449SOL    HW217247   3.000   1.342   1.887
 5450SOL     OW17248   4.290   5.505   1.527
 5450SOL    HW117249   4.372   5.562   1.521
 5450SOL    HW217250   4.239   5.509   1.442
 5451SOL     OW17251   0.031   6.921   2.952
 5451SOL    HW117252   6.964   6.934   2.991
 5451SOL    HW217253   0.087   6.869   3.017
 5452SOL     OW17254   2.333   4.296   1.955
 5452SOL    HW117255   2.277   4.247   2.022
 5452SOL    HW217256   2.389   4.364   2.001
 5453SOL     OW17257   5.824   3.935   3.153
 5453SOL    HW117258   5.801   3.951   3.057
 5453SOL    HW217259   5.917   3.970   3.171
 5454SOL     OW17260   5.415   5.343   2.505
 5454SOL    HW117261   5.452   5.271   2.563
 5454SOL    HW217262   5.363   5.302   2.430
 5455SOL     OW17263   1.640   1.375   3.673
 5455SOL    HW117264   1.629   1.281   3.643
 5455SOL    HW217265   1.630   1.436   3.594
 5456SOL     OW17266   6.287   1.129   0.263
 5456SOL    HW117267   6.192   1.141   0.295
 5456SOL    HW217268   6.309   1.031   0.261
 5457SOL     OW17269   5.933   2.064   6.667
 5457SOL    HW117270   5.882   1.996   6.719
 5457SOL    HW217271   6.017   2.024   6.631
 5458SOL     OW17272   5.813   3.941   6.912
 5458SOL    HW117273   5.814   3.938   7.012
 5458SOL    HW217274   5.907   3.951   6.878
 5459SOL     OW17275   1.656   3.847   5.235
 5459SOL    HW117276   1.584   3.877   5.172
 5459SOL    HW217277   1.745   3.855   5.190
 5460SOL     OW17278   1.710   0.276   0.835
 5460SOL    HW117279   1.706   0.368   0.795
 5460SOL    HW217280   1.794   0.231   0.805
 5461SOL     OW17281   6.521   1.078   5.661
 5461SOL    HW117282   6.484   1.002   5.608
 5461SOL    HW217283   6.621   1.079   5.652
 5462SOL     OW17284   4.634   5.488   6.755
 5462SOL    HW117285   4.693   5.433   6.696
 5462SOL    HW217286   4.626   5.444   6.844
 5463SOL     OW17287   0.841   3.004   6.746
 5463SOL    HW117288   0.934   2.993   6.780
 5463SOL    HW217289   0.843   3.040   6.653
 5464SOL     OW17290   0.123   6.252   5.631
 5464SOL    HW117291   0.025   6.266   5.616
 5464SOL    HW217292   0.141   6.254   5.730
 5465SOL     OW17293   6.704   6.222   3.640
 5465SOL    HW117294   6.688   6.124   3.627
 5465SOL    HW217295   6.799   6.243   3.617
 5466SOL     OW17296   5.906   2.667   6.060
 5466SOL    HW117297   5.981   2.733   6.061
 5466SOL    HW217298   5.822   2.712   6.089
 5467SOL     OW17299   5.347   3.457   3.861
 5467SOL    HW117300   5.379   3.395   3.933
 5467SOL    HW217301   5.291   3.529   3.901
 5468SOL     OW17302   0.358   1.667   1.350
 5468SOL    HW117303   0.334   1.732   1.278
 5468SOL    HW217304   0.442   1.698   1.395
 5469SOL     OW17305   2.918   0.589   5.028
 5469SOL    HW117306   2.969   0.511   4.993
 5469SOL    HW217307   2.855   0.559   5.100
 5470SOL     OW17308   3.650   5.386   4.283
 5470SOL    HW117309   3.646   5.477   4.324
 5470SOL    HW217310   3.639   5.394   4.184
 5471SOL     OW17311   5.105   0.726   3.183
 5471SOL    HW117312   5.066   0.805   3.136
 5471SOL    HW217313   5.038   0.688   3.247
 5472SOL     OW17314   2.508   2.251   6.921
 5472SOL    HW117315   2.494   2.186   6.846
 5472SOL    HW217316   2.542   2.338   6.884
 5473SOL     OW17317   2.994   3.940   1.275
 5473SOL    HW117318   3.023   3.852   1.313
 5473SOL    HW217319   2.900   3.959   1.303
 5474SOL     OW17320   0.333   5.273   3.736
 5474SOL    HW117321   0.431   5.267   3.718
 5474SOL    HW217322   0.317   5.263   3.834
 5475SOL     OW17323   6.857   1.776   5.569
 5475SOL    HW117324   6.919   1.763   5.491
 5475SOL    HW217325   6.767   1.803   5.536
 5476SOL     OW17326   2.432   6.555   6.284
 5476SOL    HW117327   2.393   6.557   6.376
 5476SOL    HW217328   2.444   6.649   6.252
 5477SOL     OW17329   2.044   4.868   3.669
 5477SOL    HW117330   2.069   4.888   3.763
 5477SOL    HW217331   2.001   4.777   3.665
 5478SOL     OW17332   5.551   5.018   5.757
 5478SOL    HW117333   5.544   5.040   5.855
 5478SOL    HW217334   5.639   4.974   5.739
 5479SOL     OW17335   3.374   1.902   4.972
 5479SOL    HW117336   3.340   1.809   4.981
 5479SOL    HW217337   3.351   1.955   5.054
 5480SOL     OW17338   6.878   3.733   4.599
 5480SOL    HW117339   6.787   3.711   4.567
 5480SOL    HW217340   6.880   3.731   4.699
 5481SOL     OW17341   4.671   1.434   6.588
 5481SOL    HW117342   4.764   1.410   6.615
 5481SOL    HW217343   4.616   1.351   6.578
 5482SOL     OW17344   4.976   3.076   1.461
 5482SOL    HW117345   5.045   3.004   1.455
 5482SOL    HW217346   4.899   3.045   1.516
 5483SOL     OW17347   6.735   3.432   5.849
 5483SOL    HW117348   6.831   3.459   5.856
 5483SOL    HW217349   6.705   3.392   5.935
 5484SOL     OW17350   6.500   6.400   4.016
 5484SOL    HW117351   6.542   6.485   3.983
 5484SOL    HW217352   6.458   6.351   3.940
 5485SOL     OW17353   3.699   7.000   5.264
 5485SOL    HW117354   3.796   7.021   5.259
 5485SOL    HW217355   3.648   0.058   5.286
 5486SOL     OW17356   0.921   0.767   3.524
 5486SOL    HW117357   0.858   0.690   3.515
 5486SOL    HW217358   0.889   0.842   3.467
 5487SOL     OW17359   6.172   4.429   0.245
 5487SOL    HW117360   6.154   4.492   0.169
 5487SOL    HW217361   6.270   4.423   0.262
 5488SOL     OW17362   5.397   2.126   6.429
 5488SOL    HW117363   5.321   2.185   6.457
 5488SOL    HW217364   5.468   2.183   6.387
 5489SOL     OW17365   1.427   4.254   2.989
 5489SOL    HW117366   1.518   4.220   2.963
 5489SOL    HW217367   1.361   4.233   2.917
 5490SOL     OW17368   2.653   1.478   0.848
 5490SOL    HW117369   2.715   1.434   0.782
 5490SOL    HW217370   2.664   1.434   0.938
 5491SOL     OW17371   1.610   4.889   0.647
 5491SOL    HW117372   1.689   4.926   0.597
 5491SOL    HW217373   1.570   4.814   0.596
 5492SOL     OW17374   0.777   1.481   6.324
 5492SOL    HW117375   0.696   1.470   6.266
 5492SOL    HW217376   0.814   1.390   6.345
 5493SOL     OW17377   3.696   3.237   6.453
 5493SOL    HW117378   3.768   3.267   6.390
 5493SOL    HW217379   3.628   3.309   6.463
 5494SOL     OW17380   5.841   3.374   1.692
 5494SOL    HW117381   5.856   3.348   1.597
 5494SOL    HW217382   5.791   3.302   1.739
 5495SOL     OW17383   4.076   3.392   2.751
 5495SOL    HW117384   3.995   3.334   2.762
 5495SOL    HW217385   4.136   3.380   2.830
 5496SOL     OW17386   3.499   5.808   1.719
 5496SOL    HW117387   3.575   5.828   1.781
 5496SOL    HW217388   3.514   5.856   1.632
 5497SOL     OW17389   6.823   0.963   2.405
 5497SOL    HW117390   6.798   0.973   2.501
 5497SOL    HW217391   6.891   1.031   2.380
 5498SOL     OW17392   4.705   1.654   5.983
 5498SOL    HW117393   4.620   1.641   6.033
 5498SOL    HW217394   4.686   1.663   5.886
 5499SOL     OW17395   6.748   1.443   3.378
 5499SOL    HW117396   6.830   1.436   3.321
 5499SOL    HW217397   6.706   1.533   3.367
 5500SOL     OW17398   2.173   6.279   0.288
 5500SOL    HW117399   2.236   6.344   0.331
 5500SOL    HW217400   2.080   6.295   0.323
 5501SOL     OW17401   2.809   0.373   1.990
 5501SOL    HW117402   2.737   0.353   2.056
 5501SOL    HW217403   2.837   0.289   1.943
 5502SOL     OW17404   6.296   3.998   5.544
 5502SOL    HW117405   6.348   3.969   5.624
 5502SOL    HW217406   6.347   3.976   5.461
 5503SOL     OW17407   1.071   4.608   3.283
 5503SOL    HW117408   1.051   4.570   3.373
 5503SOL    HW217409   1.169   4.624   3.274
 5504SOL     OW17410   3.505   1.816   4.464
 5504SOL    HW117411   3.418   1.768   4.449
 5504SOL    HW217412   3.486   1.905   4.506
 5505SOL     OW17413   3.449   5.652   5.569
 5505SOL    HW117414   3.367   5.694   5.531
 5505SOL    HW217415   3.445   5.654   5.669
 5506SOL     OW17416   6.142   0.842   5.658
 5506SOL    HW117417   6.100   0.866   5.571
 5506SOL    HW217418   6.241   0.854   5.652
 5507SOL     OW17419   2.874   6.659   4.231
 5507SOL    HW117420   2.869   6.677   4.132
 5507SOL    HW217421   2.855   6.743   4.281
 5508SOL     OW17422   2.783   0.476   6.208
 5508SOL    HW117423   2.847   0.537   6.256
 5508SOL    HW217424   2.728   0.529   6.144
 5509SOL     OW17425   5.814   6.693   0.234
 5509SOL    HW117426   5.856   6.733   0.316
 5509SOL    HW217427   5.867   6.721   0.154
 5510SOL     OW17428   5.092   0.558   5.617
 5510SOL    HW117429   5.184   0.599   5.621
 5510SOL    HW217430   5.100   0.459   5.623
 5511SOL     OW17431   0.676   0.824   2.528
 5511SOL    HW117432   0.725   0.782   2.604
 5511SOL    HW217433   0.693   0.771   2.444
 5512SOL     OW17434   1.328   0.997   6.959
 5512SOL    HW117435   1.299   1.023   6.867
 5512SOL    HW217436   1.365   0.904   6.957
 5513SOL     OW17437   4.731   4.173   4.728
 5513SOL    HW117438   4.758   4.259   4.683
 5513SOL    HW217439   4.634   4.157   4.713
 5514SOL     OW17440   5.048   4.885   1.945
 5514SOL    HW117441   5.008   4.899   1.854
 5514SOL    HW217442   4.976   4.853   2.008
 5515SOL     OW17443   6.417   2.004   1.894
 5515SOL    HW117444   6.448   1.928   1.836
 5515SOL    HW217445   6.347   2.056   1.846
 5516SOL     OW17446   1.180   3.741   6.911
 5516SOL    HW117447   1.164   3.718   6.815
 5516SOL    HW217448   1.094   3.769   6.953
 5517SOL     OW17449   2.902   1.781   1.069
 5517SOL    HW117450   2.854   1.846   1.010
 5517SOL    HW217451   2.984   1.748   1.022
 5518SOL     OW17452   5.808   4.937   5.763
 5518SOL    HW117453   5.892   4.886   5.744
 5518SOL    HW217454   5.816   5.030   5.728
 5519SOL     OW17455   5.960   3.670   3.823
 5519SOL    HW117456   5.961   3.570   3.826
 5519SOL    HW217457   6.023   3.701   3.752
 5520SOL     OW17458   0.790   4.036   2.214
 5520SOL    HW117459   0.755   3.964   2.273
 5520SOL    HW217460   0.847   3.996   2.142
 5521SOL     OW17461   5.874   6.220   1.277
 5521SOL    HW117462   5.960   6.189   1.317
 5521SOL    HW217463   5.839   6.298   1.329
 5522SOL     OW17464   2.566   3.581   1.663
 5522SOL    HW117465   2.510   3.623   1.591
 5522SOL    HW217466   2.507   3.536   1.730
 5523SOL     OW17467   3.355   0.216   2.505
 5523SOL    HW117468   3.265   0.199   2.466
 5523SOL    HW217469   3.377   0.145   2.572
 5524SOL     OW17470   0.788   4.977   5.678
 5524SOL    HW117471   0.767   4.919   5.599
 5524SOL    HW217472   0.704   5.001   5.726
 5525SOL     OW17473   6.680   5.145   6.408
 5525SOL    HW117474   6.723   5.194   6.485
 5525SOL    HW217475   6.583   5.134   6.426
 5526SOL     OW17476   6.303   3.148   3.855
 5526SOL    HW117477   6.362   3.067   3.858
 5526SOL    HW217478   6.258   3.159   3.944
 5527SOL     OW17479   1.658   2.845   1.731
 5527SOL    HW117480   1.589   2.785   1.690
 5527SOL    HW217481   1.624   2.879   1.819
 5528SOL     OW17482   0.407   2.301   4.642
 5528SOL    HW117483   0.314   2.269   4.623
 5528SOL    HW217484   0.431   2.276   4.736
 5529SOL     OW17485   2.665   0.997   4.627
 5529SOL    HW117486   2.590   1.062   4.634
 5529SOL    HW217487   2.752   1.046   4.627
 5530SOL     OW17488   0.699   2.130   0.479
 5530SOL    HW117489   0.768   2.083   0.424
 5530SOL    HW217490   0.692   2.085   0.568
 5531SOL     OW17491   4.216   2.829   5.393
 5531SOL    HW117492   4.146   2.892   5.424
 5531SOL    HW217493   4.174   2.741   5.370
 5532SOL     OW17494   2.190   1.893   0.644
 5532SOL    HW117495   2.260   1.860   0.708
 5532SOL    HW217496   2.117   1.825   0.637
 5533SOL     OW17497   3.632   0.899   2.038
 5533SOL    HW117498   3.649   0.962   2.113
 5533SOL    HW217499   3.694   0.821   2.045
 5534SOL     OW17500   0.945   3.963   6.966
 5534SOL    HW117501   0.974   4.037   6.905
 5534SOL    HW217502   0.976   3.984   0.035
 5535SOL     OW17503   6.410   3.333   2.962
 5535SOL    HW117504   6.321   3.288   2.977
 5535SOL    HW217505   6.480   3.263   2.951
 5536SOL     OW17506   2.366   0.911   4.352
 5536SOL    HW117507   2.464   0.917   4.331
 5536SOL    HW217508   2.351   0.832   4.413
 5537SOL     OW17509   3.846   0.485   5.296
 5537SOL    HW117510   3.788   0.444   5.226
 5537SOL    HW217511   3.941   0.485   5.266
 5538SOL     OW17512   3.393   1.241   5.946
 5538SOL    HW117513   3.452   1.321   5.960
 5538SOL    HW217514   3.300   1.272   5.925
 5539SOL     OW17515   1.777   0.794   2.158
 5539SOL    HW117516   1.710   0.866   2.178
 5539SOL    HW217517   1.796   0.793   2.060
 5540SOL     OW17518   5.451   2.747   0.048
 5540SOL    HW117519   5.485   2.743   0.142
 5540SOL    HW217520   5.391   2.826   0.038
 5541SOL     OW17521   5.023   3.616   5.887
 5541SOL    HW117522   4.973   3.550   5.943
 5541SOL    HW217523   5.121   3.603   5.900
 5542SOL     OW17524   5.305   4.604   6.556
 5542SOL    HW117525   5.340   4.694   6.530
 5542SOL    HW217526   5.378   4.551   6.600
 5543SOL     OW17527   2.021   6.498   0.623
 5543SOL    HW117528   2.020   6.503   0.723
 5543SOL    HW217529   1.927   6.488   0.589
 5544SOL     OW17530   4.760   4.991   6.317
 5544SOL    HW117531   4.841   4.977   6.260
 5544SOL    HW217532   4.713   4.904   6.330
 5545SOL     OW17533   4.432   1.217   2.730
 5545SOL    HW117534   4.504   1.255   2.788
 5545SOL    HW217535   4.413   1.281   2.655
 5546SOL     OW17536   0.538   6.280   4.985
 5546SOL    HW117537   0.499   6.340   4.916
 5546SOL    HW217538   0.633   6.259   4.962
 5547SOL     OW17539   4.937   1.826   5.831
 5547SOL    HW117540   4.946   1.741   5.884
 5547SOL    HW217541   5.003   1.893   5.865
 5548SOL     OW17542   6.583   3.664   5.904
 5548SOL    HW117543   6.528   3.650   5.986
 5548SOL    HW217544   6.644   3.586   5.892
 5549SOL     OW17545   3.990   3.421   1.735
 5549SOL    HW117546   3.966   3.510   1.696
 5549SOL    HW217547   4.073   3.386   1.692
 5550SOL     OW17548   2.222   4.651   2.885
 5550SOL    HW117549   2.265   4.596   2.957
 5550SOL    HW217550   2.158   4.715   2.926
 5551SOL     OW17551   2.115   5.580   2.892
 5551SOL    HW117552   2.201   5.563   2.940
 5551SOL    HW217553   2.056   5.500   2.898
 5552SOL     OW17554   6.606   6.892   6.219
 5552SOL    HW117555   6.583   6.804   6.178
 5552SOL    HW217556   6.563   6.965   6.165
 5553SOL     OW17557   4.188   0.616   6.779
 5553SOL    HW117558   4.089   0.604   6.786
 5553SOL    HW217559   4.227   0.541   6.727
 5554SOL     OW17560   4.958   2.839   1.241
 5554SOL    HW117561   5.017   2.794   1.173
 5554SOL    HW217562   4.917   2.921   1.201
 5555SOL     OW17563   0.875   3.845   3.363
 5555SOL    HW117564   0.921   3.792   3.433
 5555SOL    HW217565   0.841   3.784   3.292
 5556SOL     OW17566   5.745   1.094   4.154
 5556SOL    HW117567   5.675   1.150   4.199
 5556SOL    HW217568   5.701   1.032   4.089
 5557SOL     OW17569   3.344   5.924   1.466
 5557SOL    HW117570   3.293   5.987   1.407
 5557SOL    HW217571   3.437   5.914   1.432
 5558SOL     OW17572   3.421   4.616   0.457
 5558SOL    HW117573   3.453   4.524   0.434
 5558SOL    HW217574   3.333   4.633   0.412
 5559SOL     OW17575   0.888   0.364   2.662
 5559SOL    HW117576   0.869   0.414   2.577
 5559SOL    HW217577   0.861   0.268   2.650
 5560SOL     OW17578   6.809   5.826   3.004
 5560SOL    HW117579   6.722   5.777   3.014
 5560SOL    HW217580   6.805   5.885   2.924
 5561SOL     OW17581   2.914   0.931   4.803
 5561SOL    HW117582   2.918   0.999   4.730
 5561SOL    HW217583   2.823   0.931   4.843
 5562SOL     OW17584   4.778   4.397   0.046
 5562SOL    HW117585   4.721   4.339   7.012
 5562SOL    HW217586   4.848   4.442   7.015
 5563SOL     OW17587   3.072   4.950   2.851
 5563SOL    HW117588   2.999   4.914   2.793
 5563SOL    HW217589   3.134   4.876   2.877
 5564SOL     OW17590   4.690   6.937   6.236
 5564SOL    HW117591   4.685   6.842   6.267
 5564SOL    HW217592   4.653   6.945   6.144
 5565SOL     OW17593   4.186   3.304   0.249
 5565SOL    HW117594   4.280   3.292   0.218
 5565SOL    HW217595   4.173   3.397   0.283
 5566SOL     OW17596   1.603   4.232   0.752
 5566SOL    HW117597   1.693   4.223   0.795
 5566SOL    HW217598   1.604   4.310   0.690
 5567SOL     OW17599   6.742   3.346   1.829
 5567SOL    HW117600   6.807   3.351   1.904
 5567SOL    HW217601   6.763   3.418   1.762
 5568SOL     OW17602   4.527   6.943   3.004
 5568SOL    HW117603   4.452   6.882   2.978
 5568SOL    HW217604   4.610   6.888   3.020
 5569SOL     OW17605   2.666   1.704   3.228
 5569SOL    HW117606   2.712   1.673   3.312
 5569SOL    HW217607   2.734   1.743   3.166
 5570SOL     OW17608   6.191   3.540   3.383
 5570SOL    HW117609   6.141   3.485   3.451
 5570SOL    HW217610   6.274   3.492   3.356
 5571SOL     OW17611   6.604   5.150   1.830
 5571SOL    HW117612   6.633   5.074   1.772
 5571SOL    HW217613   6.683   5.188   1.877
 5572SOL     OW17614   1.557   4.364   4.942
 5572SOL    HW117615   1.513   4.300   5.004
 5572SOL    HW217616   1.489   4.396   4.875
 5573SOL     OW17617   1.470   5.410   5.170
 5573SOL    HW117618   1.504   5.465   5.093
 5573SOL    HW217619   1.547   5.377   5.224
 5574SOL     OW17620   0.502   3.044   6.918
 5574SOL    HW117621   0.556   3.112   6.967
 5574SOL    HW217622   0.458   2.983   6.984
 5575SOL     OW17623   0.345   6.955   1.250
 5575SOL    HW117624   0.396   6.869   1.256
 5575SOL    HW217625   0.392   7.017   1.188
 5576SOL     OW17626   1.764   4.159   3.081
 5576SOL    HW117627   1.770   4.139   2.983
 5576SOL    HW217628   1.807   4.247   3.099
 5577SOL     OW17629   2.076   3.345   0.527
 5577SOL    HW117630   2.147   3.416   0.523
 5577SOL    HW217631   2.098   3.280   0.600
 5578SOL     OW17632   3.931   3.958   2.469
 5578SOL    HW117633   3.943   4.056   2.453
 5578SOL    HW217634   3.891   3.943   2.560
 5579SOL     OW17635   0.525   3.574   1.181
 5579SOL    HW117636   0.597   3.641   1.167
 5579SOL    HW217637   0.440   3.620   1.207
 5580SOL     OW17638   4.752   1.929   6.210
 5580SOL    HW117639   4.720   1.916   6.304
 5580SOL    HW217640   4.800   2.017   6.204
 5581SOL     OW17641   0.999   1.636   1.450
 5581SOL    HW117642   0.965   1.710   1.507
 5581SOL    HW217643   1.070   1.586   1.499
 5582SOL     OW17644   2.497   4.351   6.528
 5582SOL    HW117645   2.418   4.315   6.479
 5582SOL    HW217646   2.477   4.355   6.626
 5583SOL     OW17647   4.412   0.540   2.591
 5583SOL    HW117648   4.319   0.575   2.581
 5583SOL    HW217649   4.478   0.614   2.583
 5584SOL     OW17650   6.494   3.798   4.016
 5584SOL    HW117651   6.551   3.749   4.082
 5584SOL    HW217652   6.507   3.759   3.925
 5585SOL     OW17653   4.894   5.340   3.232
 5585SOL    HW117654   4.963   5.387   3.177
 5585SOL    HW217655   4.828   5.407   3.265
 5586SOL     OW17656   6.404   3.455   5.720
 5586SOL    HW117657   6.401   3.517   5.642
 5586SOL    HW217658   6.494   3.411   5.726
 5587SOL     OW17659   4.427   0.100   0.515
 5587SOL    HW117660   4.491   0.056   0.452
 5587SOL    HW217661   4.340   0.051   0.514
 5588SOL     OW17662   2.956   6.479   2.830
 5588SOL    HW117663   3.016   6.547   2.872
 5588SOL    HW217664   2.970   6.390   2.875
 5589SOL     OW17665   6.245   4.462   6.687
 5589SOL    HW117666   6.176   4.420   6.745
 5589SOL    HW217667   6.305   4.520   6.742
 5590SOL     OW17668   6.080   6.453   3.890
 5590SOL    HW117669   6.051   6.526   3.829
 5590SOL    HW217670   6.034   6.462   3.978
 5591SOL     OW17671   0.520   1.809   1.004
 5591SOL    HW117672   0.434   1.817   1.054
 5591SOL    HW217673   0.523   1.721   0.957
 5592SOL     OW17674   1.474   5.380   3.910
 5592SOL    HW117675   1.465   5.480   3.906
 5592SOL    HW217676   1.554   5.352   3.859
 5593SOL     OW17677   6.797   2.698   6.471
 5593SOL    HW117678   6.854   2.780   6.469
 5593SOL    HW217679   6.796   2.660   6.564
 5594SOL     OW17680   4.872   0.531   4.772
 5594SOL    HW117681   4.851   0.622   4.736
 5594SOL    HW217682   4.786   0.481   4.787
 5595SOL     OW17683   1.141   1.434   5.012
 5595SOL    HW117684   1.235   1.453   5.039
 5595SOL    HW217685   1.078   1.481   5.075
 5596SOL     OW17686   4.577   6.391   2.526
 5596SOL    HW117687   4.545   6.333   2.451
 5596SOL    HW217688   4.505   6.398   2.595
 5597SOL     OW17689   4.798   2.284   4.513
 5597SOL    HW117690   4.851   2.359   4.473
 5597SOL    HW217691   4.858   2.208   4.536
 5598SOL     OW17692   4.909   3.392   4.156
 5598SOL    HW117693   4.932   3.414   4.061
 5598SOL    HW217694   4.924   3.472   4.213
 5599SOL     OW17695   0.979   1.074   3.937
 5599SOL    HW117696   1.051   1.071   4.006
 5599SOL    HW217697   1.018   1.056   3.847
 5600SOL     OW17698   0.910   1.703   2.521
 5600SOL    HW117699   0.940   1.789   2.562
 5600SOL    HW217700   0.814   1.711   2.494
 5601SOL     OW17701   2.865   7.018   5.809
 5601SOL    HW117702   2.866   0.017   5.907
 5601SOL    HW217703   2.786   0.036   5.765
 5602SOL     OW17704   0.612   1.492   0.770
 5602SOL    HW117705   0.632   1.436   0.690
 5602SOL    HW217706   0.521   1.533   0.761
 5603SOL     OW17707   4.985   2.408   6.662
 5603SOL    HW117708   4.894   2.390   6.700
 5603SOL    HW217709   5.018   2.326   6.614
 5604SOL     OW17710   6.513   2.040   5.723
 5604SOL    HW117711   6.454   2.112   5.685
 5604SOL    HW217712   6.503   2.040   5.823
 5605SOL     OW17713   0.713   0.750   4.408
 5605SOL    HW117714   0.676   0.732   4.500
 5605SOL    HW217715   0.644   0.800   4.354
 5606SOL     OW17716   5.583   6.841   0.899
 5606SOL    HW117717   5.650   6.848   0.825
 5606SOL    HW217718   5.614   6.896   0.977
 5607SOL     OW17719   5.662   0.432   2.566
 5607SOL    HW117720   5.716   0.507   2.528
 5607SOL    HW217721   5.575   0.467   2.600
 5608SOL     OW17722   4.317   6.996   4.973
 5608SOL    HW117723   4.264   6.952   4.900
 5608SOL    HW217724   4.404   6.947   4.985
 5609SOL     OW17725   2.479   4.669   0.725
 5609SOL    HW117726   2.441   4.594   0.778
 5609SOL    HW217727   2.406   4.733   0.701
 5610SOL     OW17728   4.958   6.796   0.824
 5610SOL    HW117729   4.873   6.746   0.809
 5610SOL    HW217730   4.987   6.785   0.919
 5611SOL     OW17731   1.956   5.373   2.332
 5611SOL    HW117732   2.051   5.401   2.347
 5611SOL    HW217733   1.953   5.274   2.319
 5612SOL     OW17734   3.704   2.139   6.896
 5612SOL    HW117735   3.704   2.039   6.900
 5612SOL    HW217736   3.749   2.169   6.812
 5613SOL     OW17737   5.262   3.925   3.292
 5613SOL    HW117738   5.215   3.867   3.226
 5613SOL    HW217739   5.260   4.020   3.261
 5614SOL     OW17740   4.413   2.390   4.565
 5614SOL    HW117741   4.488   2.451   4.588
 5614SOL    HW217742   4.388   2.401   4.469
 5615SOL     OW17743   0.620   0.677   5.938
 5615SOL    HW117744   0.702   0.650   5.888
 5615SOL    HW217745   0.546   0.694   5.874
 5616SOL     OW17746   1.923   1.155   5.416
 5616SOL    HW117747   1.858   1.227   5.442
 5616SOL    HW217748   1.996   1.150   5.485
 5617SOL     OW17749   2.316   6.643   6.545
 5617SOL    HW117750   2.252   6.664   6.620
 5617SOL    HW217751   2.398   6.700   6.555
 5618SOL     OW17752   6.530   3.373   4.195
 5618SOL    HW117753   6.549   3.422   4.281
 5618SOL    HW217754   6.445   3.406   4.156
 5619SOL     OW17755   2.940   4.072   6.160
 5619SOL    HW117756   2.994   4.073   6.244
 5619SOL    HW217757   2.912   3.978   6.140
 5620SOL     OW17758   3.817   3.437   0.931
 5620SOL    HW117759   3.782   3.525   0.898
 5620SOL    HW217760   3.828   3.441   1.030
 5621SOL     OW17761   1.323   2.252   5.808
 5621SOL    HW117762   1.401   2.257   5.871
 5621SOL    HW217763   1.344   2.188   5.734
 5622SOL     OW17764   4.464   0.201   5.893
 5622SOL    HW117765   4.486   0.299   5.893
 5622SOL    HW217766   4.372   0.188   5.855
 5623SOL     OW17767   2.197   5.812   6.259
 5623SOL    HW117768   2.160   5.902   6.282
 5623SOL    HW217769   2.206   5.804   6.160
 5624SOL     OW17770   0.977   4.537   3.538
 5624SOL    HW117771   0.919   4.613   3.569
 5624SOL    HW217772   1.050   4.522   3.604
 5625SOL     OW17773   5.937   1.925   4.259
 5625SOL    HW117774   5.981   2.011   4.285
 5625SOL    HW217775   6.006   1.859   4.231
 5626SOL     OW17776   2.949   6.812   4.694
 5626SOL    HW117777   2.959   6.812   4.794
 5626SOL    HW217778   2.996   6.732   4.656
 5627SOL     OW17779   1.118   5.832   0.467
 5627SOL    HW117780   1.211   5.824   0.501
 5627SOL    HW217781   1.110   5.786   0.379
 5628SOL     OW17782   1.432   2.770   5.632
 5628SOL    HW117783   1.401   2.857   5.594
 5628SOL    HW217784   1.490   2.787   5.711
 5629SOL     OW17785   3.357   3.813   2.245
 5629SOL    HW117786   3.305   3.728   2.239
 5629SOL    HW217787   3.332   3.873   2.169
 5630SOL     OW17788   1.271   4.969   0.380
 5630SOL    HW117789   1.238   4.875   0.371
 5630SOL    HW217790   1.308   5.001   0.293
 5631SOL     OW17791   4.515   1.557   0.178
 5631SOL    HW117792   4.599   1.572   0.230
 5631SOL    HW217793   4.454   1.635   0.190
 5632SOL     OW17794   4.021   2.620   6.120
 5632SOL    HW117795   3.935   2.613   6.171
 5632SOL    HW217796   4.041   2.531   6.078
 5633SOL     OW17797   6.174   2.000   3.683
 5633SOL    HW117798   6.233   2.080   3.675
 5633SOL    HW217799   6.165   1.956   3.594
 5634SOL     OW17800   2.454   6.364   5.644
 5634SOL    HW117801   2.401   6.324   5.570
 5634SOL    HW217802   2.540   6.401   5.608
 5635SOL     OW17803   1.937   3.884   5.157
 5635SOL    HW117804   2.008   3.925   5.215
 5635SOL    HW217805   1.979   3.849   5.074
 5636SOL     OW17806   3.545   6.331   2.325
 5636SOL    HW117807   3.463   6.363   2.373
 5636SOL    HW217808   3.611   6.297   2.392
 5637SOL     OW17809   5.106   0.163   4.110
 5637SOL    HW117810   5.028   0.111   4.075
 5637SOL    HW217811   5.083   0.260   4.115
 5638SOL     OW17812   5.309   3.373   1.278
 5638SOL    HW117813   5.330   3.467   1.250
 5638SOL    HW217814   5.210   3.362   1.285
 5639SOL     OW17815   0.729   0.788   0.233
 5639SOL    HW117816   0.699   0.801   0.138
 5639SOL    HW217817   0.675   0.847   0.293
 5640SOL     OW17818   3.060   0.509   3.892
 5640SOL    HW117819   2.969   0.517   3.851
 5640SOL    HW217820   3.062   0.430   3.953
 5641SOL     OW17821   0.683   4.831   6.281
 5641SOL    HW117822   0.724   4.823   6.191
 5641SOL    HW217823   0.672   4.740   6.321
 5642SOL     OW17824   2.208   6.466   6.931
 5642SOL    HW117825   2.182   6.382   6.882
 5642SOL    HW217826   2.308   6.472   6.934
 5643SOL     OW17827   4.834   1.306   5.044
 5643SOL    HW117828   4.743   1.343   5.062
 5643SOL    HW217829   4.875   1.277   5.130
 5644SOL     OW17830   3.017   6.642   5.481
 5644SOL    HW117831   2.923   6.672   5.494
 5644SOL    HW217832   3.021   6.573   5.409
 5645SOL     OW17833   6.508   3.704   3.775
 5645SOL    HW117834   6.452   3.626   3.802
 5645SOL    HW217835   6.450   3.777   3.739
 5646SOL     OW17836   1.914   5.383   3.048
 5646SOL    HW117837   2.010   5.377   3.076
 5646SOL    HW217838   1.855   5.373   3.128
 5647SOL     OW17839   5.628   6.405   1.757
 5647SOL    HW117840   5.587   6.490   1.725
 5647SOL    HW217841   5.558   6.334   1.764
 5648SOL     OW17842   2.624   5.892   2.498
 5648SOL    HW117843   2.700   5.849   2.547
 5648SOL    HW217844   2.660   5.951   2.425
 5649SOL     OW17845   0.756   6.928   4.238
 5649SOL    HW117846   0.732   6.907   4.143
 5649SOL    HW217847   0.807   6.853   4.278
 5650SOL     OW17848   0.646   4.598   0.383
 5650SOL    HW117849   0.677   4.566   0.472
 5650SOL    HW217850   0.725   4.611   0.323
 5651SOL     OW17851   1.951   0.691   0.441
 5651SOL    HW117852   1.936   0.644   0.354
 5651SOL    HW217853   1.946   0.625   0.516
 5652SOL     OW17854   0.049   5.476   1.839
 5652SOL    HW117855   6.998   5.410   1.844
 5652SOL    HW217856   0.083   5.494   1.931
 5653SOL     OW17857   0.328   6.236   0.166
 5653SOL    HW117858   0.415   6.196   0.193
 5653SOL    HW217859   0.289   6.288   0.242
 5654SOL     OW17860   1.031   5.583   4.479
 5654SOL    HW117861   1.028   5.624   4.570
 5654SOL    HW217862   0.945   5.537   4.460
 5655SOL     OW17863   6.419   2.899   3.896
 5655SOL    HW117864   6.478   2.937   3.968
 5655SOL    HW217865   6.472   2.886   3.813
 5656SOL     OW17866   6.525   3.557   6.361
 5656SOL    HW117867   6.455   3.502   6.406
 5656SOL    HW217868   6.591   3.589   6.428
 5657SOL     OW17869   4.512   4.505   4.759
 5657SOL    HW117870   4.552   4.431   4.813
 5657SOL    HW217871   4.438   4.548   4.810
 5658SOL     OW17872   2.001   2.959   6.443
 5658SOL    HW117873   2.054   3.031   6.489
 5658SOL    HW217874   2.044   2.870   6.461
 5659SOL     OW17875   3.478   3.842   5.942
 5659SOL    HW117876   3.539   3.876   6.013
 5659SOL    HW217877   3.521   3.764   5.895
 5660SOL     OW17878   4.398   0.202   6.409
 5660SOL    HW117879   4.411   0.286   6.356
 5660SOL    HW217880   4.487   0.166   6.437
 5661SOL     OW17881   1.014   5.392   5.819
 5661SOL    HW117882   0.958   5.435   5.890
 5661SOL    HW217883   1.093   5.348   5.861
 5662SOL     OW17884   2.052   6.575   2.848
 5662SOL    HW117885   1.952   6.574   2.845
 5662SOL    HW217886   2.087   6.614   2.763
 5663SOL     OW17887   1.581   2.756   0.764
 5663SOL    HW117888   1.673   2.791   0.779
 5663SOL    HW217889   1.545   2.717   0.849
 5664SOL     OW17890   5.166   4.211   4.507
 5664SOL    HW117891   5.108   4.212   4.589
 5664SOL    HW217892   5.192   4.117   4.487
 5665SOL     OW17893   1.269   6.168   0.532
 5665SOL    HW117894   1.360   6.209   0.533
 5665SOL    HW217895   1.256   6.117   0.447
 5666SOL     OW17896   6.039   0.784   3.967
 5666SOL    HW117897   6.041   0.857   4.035
 5666SOL    HW217898   6.066   0.698   4.010
 5667SOL     OW17899   1.991   4.551   4.189
 5667SOL    HW117900   1.912   4.612   4.188
 5667SOL    HW217901   2.009   4.522   4.283
 5668SOL     OW17902   6.119   2.912   2.555
 5668SOL    HW117903   6.107   2.837   2.619
 5668SOL    HW217904   6.065   2.896   2.473
 5669SOL     OW17905   6.630   4.303   0.033
 5669SOL    HW117906   6.560   4.231   0.035
 5669SOL    HW217907   6.635   4.347   0.123
 5670SOL     OW17908   1.444   3.593   2.983
 5670SOL    HW117909   1.534   3.557   2.957
 5670SOL    HW217910   1.390   3.521   3.026
 5671SOL     OW17911   6.099   5.393   4.584
 5671SOL    HW117912   6.038   5.323   4.620
 5671SOL    HW217913   6.187   5.389   4.632
 5672SOL     OW17914   4.690   4.019   5.730
 5672SOL    HW117915   4.746   3.937   5.735
 5672SOL    HW217916   4.624   4.010   5.655
 5673SOL     OW17917   0.890   6.805   1.757
 5673SOL    HW117918   0.889   6.901   1.730
 5673SOL    HW217919   0.868   6.798   1.855
 5674SOL     OW17920   2.231   4.917   4.362
 5674SOL    HW117921   2.272   5.005   4.386
 5674SOL    HW217922   2.195   4.873   4.445
 5675SOL     OW17923   3.641   1.532   0.345
 5675SOL    HW117924   3.727   1.495   0.380
 5675SOL    HW217925   3.566   1.472   0.373
 5676SOL     OW17926   2.769   2.601   1.726
 5676SOL    HW117927   2.830   2.564   1.796
 5676SOL    HW217928   2.732   2.526   1.671
 5677SOL     OW17929   6.838   1.139   0.864
 5677SOL    HW117930   6.801   1.059   0.817
 5677SOL    HW217931   6.928   1.117   0.902
 5678SOL     OW17932   3.766   1.525   1.961
 5678SOL    HW117933   3.729   1.511   2.053
 5678SOL    HW217934   3.865   1.511   1.962
 5679SOL     OW17935   5.790   2.100   4.788
 5679SOL    HW117936   5.752   2.008   4.803
 5679SOL    HW217937   5.788   2.121   4.690
 5680SOL     OW17938   1.521   4.706   5.507
 5680SOL    HW117939   1.540   4.759   5.424
 5680SOL    HW217940   1.457   4.756   5.565
 5681SOL     OW17941   0.484   3.723   3.175
 5681SOL    HW117942   0.477   3.823   3.166
 5681SOL    HW217943   0.581   3.698   3.180
 5682SOL     OW17944   2.900   5.646   2.934
 5682SOL    HW117945   2.943   5.731   2.965
 5682SOL    HW217946   2.946   5.568   2.975
 5683SOL     OW17947   3.998   2.632   6.690
 5683SOL    HW117948   4.086   2.596   6.720
 5683SOL    HW217949   4.013   2.699   6.616
 5684SOL     OW17950   2.163   3.654   5.927
 5684SOL    HW117951   2.230   3.708   5.877
 5684SOL    HW217952   2.210   3.581   5.977
 5685SOL     OW17953   1.914   2.390   3.994
 5685SOL    HW117954   2.012   2.408   4.000
 5685SOL    HW217955   1.863   2.465   4.038
 5686SOL     OW17956   3.119   1.091   5.835
 5686SOL    HW117957   3.136   1.189   5.824
 5686SOL    HW217958   3.158   1.042   5.757
 5687SOL     OW17959   0.347   6.238   5.185
 5687SOL    HW117960   0.412   6.246   5.110
 5687SOL    HW217961   0.372   6.161   5.243
 5688SOL     OW17962   2.244   2.914   3.340
 5688SOL    HW117963   2.273   2.873   3.426
 5688SOL    HW217964   2.145   2.930   3.343
 5689SOL     OW17965   2.000   0.776   1.934
 5689SOL    HW117966   1.916   0.819   1.903
 5689SOL    HW217967   2.057   0.844   1.981
 5690SOL     OW17968   0.939   5.390   6.481
 5690SOL    HW117969   0.861   5.334   6.452
 5690SOL    HW217970   0.963   5.454   6.408
 5691SOL     OW17971   3.199   1.343   2.230
 5691SOL    HW117972   3.293   1.378   2.229
 5691SOL    HW217973   3.181   1.297   2.316
 5692SOL     OW17974   4.785   5.411   0.583
 5692SOL    HW117975   4.784   5.359   0.498
 5692SOL    HW217976   4.789   5.348   0.661
 5693SOL     OW17977   3.958   1.036   0.807
 5693SOL    HW117978   3.900   0.981   0.868
 5693SOL    HW217979   4.002   1.108   0.860
 5694SOL     OW17980   0.184   0.264   2.443
 5694SOL    HW117981   0.095   0.222   2.461
 5694SOL    HW217982   0.249   0.194   2.416
 5695SOL     OW17983   1.244   0.826   2.139
 5695SOL    HW117984   1.274   0.761   2.209
 5695SOL    HW217985   1.274   0.918   2.165
 5696SOL     OW17986   1.652   0.742   3.795
 5696SOL    HW117987   1.568   0.794   3.781
 5696SOL    HW217988   1.651   0.702   3.887
 5697SOL     OW17989   6.458   2.527   1.872
 5697SOL    HW117990   6.497   2.555   1.960
 5697SOL    HW217991   6.359   2.541   1.874
 5698SOL     OW17992   1.426   3.707   3.512
 5698SOL    HW117993   1.480   3.682   3.432
 5698SOL    HW217994   1.477   3.685   3.595
 5699SOL     OW17995   2.543   2.492   3.362
 5699SOL    HW117996   2.596   2.505   3.278
 5699SOL    HW217997   2.448   2.518   3.346
 5700SOL     OW17998   0.047   0.325   1.919
 5700SOL    HW117999   0.078   0.235   1.889
 5700SOL    HW218000   6.995   0.315   1.983
 5701SOL     OW18001   6.864   1.386   0.809
 5701SOL    HW118002   6.835   1.290   0.814
 5701SOL    HW218003   6.882   1.420   0.901
 5702SOL     OW18004   1.878   6.582   4.422
 5702SOL    HW118005   1.791   6.555   4.464
 5702SOL    HW218006   1.861   6.623   4.333
 5703SOL     OW18007   6.873   3.725   6.232
 5703SOL    HW118008   6.915   3.765   6.150
 5703SOL    HW218009   6.808   3.790   6.272
 5704SOL     OW18010   5.348   3.961   3.710
 5704SOL    HW118011   5.290   3.888   3.673
 5704SOL    HW218012   5.347   4.040   3.649
 5705SOL     OW18013   5.888   6.119   6.680
 5705SOL    HW118014   5.892   6.023   6.653
 5705SOL    HW218015   5.881   6.125   6.780
 5706SOL     OW18016   5.652   2.629   0.543
 5706SOL    HW118017   5.661   2.537   0.505
 5706SOL    HW218018   5.638   2.623   0.642
 5707SOL     OW18019   5.231   6.941   1.312
 5707SOL    HW118020   5.198   6.947   1.407
 5707SOL    HW218021   5.269   0.005   1.285
 5708SOL     OW18022   5.287   5.647   3.377
 5708SOL    HW118023   5.309   5.550   3.364
 5708SOL    HW218024   5.222   5.656   3.453
 5709SOL     OW18025   1.312   1.080   2.244
 5709SOL    HW118026   1.292   1.116   2.335
 5709SOL    HW218027   1.388   1.015   2.249
 5710SOL     OW18028   2.785   2.557   0.913
 5710SOL    HW118029   2.717   2.579   0.843
 5710SOL    HW218030   2.850   2.491   0.876
 5711SOL     OW18031   5.359   0.626   1.923
 5711SOL    HW118032   5.322   0.539   1.957
 5711SOL    HW218033   5.283   0.689   1.904
 5712SOL     OW18034   6.508   5.830   1.246
 5712SOL    HW118035   6.483   5.893   1.173
 5712SOL    HW218036   6.595   5.858   1.286
 5713SOL     OW18037   2.527   5.636   0.426
 5713SOL    HW118038   2.516   5.601   0.334
 5713SOL    HW218039   2.620   5.621   0.457
 5714SOL     OW18040   6.730   6.525   1.949
 5714SOL    HW118041   6.793   6.573   1.889
 5714SOL    HW218042   6.775   6.504   2.036
 5715SOL     OW18043   0.555   6.411   1.606
 5715SOL    HW118044   0.594   6.499   1.634
 5715SOL    HW218045   0.538   6.355   1.687
 5716SOL     OW18046   1.108   4.616   6.556
 5716SOL    HW118047   1.114   4.587   6.460
 5716SOL    HW218048   1.052   4.699   6.562
 5717SOL     OW18049   1.963   4.840   2.657
 5717SOL    HW118050   1.924   4.899   2.728
 5717SOL    HW218051   1.907   4.758   2.647
 5718SOL     OW18052   0.819   2.814   0.552
 5718SOL    HW118053   0.872   2.829   0.635
 5718SOL    HW218054   0.728   2.779   0.576
 5719SOL     OW18055   2.795   3.431   0.907
 5719SOL    HW118056   2.786   3.372   0.827
 5719SOL    HW218057   2.845   3.382   0.979
 5720SOL     OW18058   2.195   6.098   5.564
 5720SOL    HW118059   2.267   6.089   5.633
 5720SOL    HW218060   2.108   6.118   5.609
 5721SOL     OW18061   5.410   4.109   0.837
 5721SOL    HW118062   5.311   4.096   0.832
 5721SOL    HW218063   5.456   4.020   0.837
 5722SOL     OW18064   0.565   0.965   5.148
 5722SOL    HW118065   0.561   1.061   5.176
 5722SOL    HW218066   0.616   0.957   5.062
 5723SOL     OW18067   3.935   3.190   6.609
 5723SOL    HW118068   3.852   3.224   6.566
 5723SOL    HW218069   3.912   3.116   6.672
 5724SOL     OW18070   6.365   2.813   3.220
 5724SOL    HW118071   6.418   2.861   3.150
 5724SOL    HW218072   6.427   2.779   3.291
 5725SOL     OW18073   5.031   5.213   2.857
 5725SOL    HW118074   5.033   5.136   2.920
 5725SOL    HW218075   5.115   5.266   2.867
 5726SOL     OW18076   5.153   3.784   3.579
 5726SOL    HW118077   5.200   3.754   3.496
 5726SOL    HW218078   5.077   3.723   3.599
 5727SOL     OW18079   0.034   2.436   4.626
 5727SOL    HW118080   0.024   2.427   4.527
 5727SOL    HW218081   0.100   2.508   4.647
 5728SOL     OW18082   4.859   5.983   5.198
 5728SOL    HW118083   4.897   5.919   5.265
 5728SOL    HW218084   4.900   5.967   5.108
 5729SOL     OW18085   2.444   2.528   6.252
 5729SOL    HW118086   2.478   2.486   6.336
 5729SOL    HW218087   2.494   2.491   6.174
 5730SOL     OW18088   7.014   4.089   5.896
 5730SOL    HW118089   6.997   4.030   5.975
 5730SOL    HW218090   0.062   4.050   5.839
 5731SOL     OW18091   0.137   6.581   1.397
 5731SOL    HW118092   0.152   6.615   1.305
 5731SOL    HW218093   0.198   6.503   1.414
 5732SOL     OW18094   1.199   6.287   4.608
 5732SOL    HW118095   1.101   6.275   4.623
 5732SOL    HW218096   1.215   6.372   4.558
 5733SOL     OW18097   4.073   6.660   5.302
 5733SOL    HW118098   4.126   6.715   5.238
 5733SOL    HW218099   4.067   6.708   5.390
 5734SOL     OW18100   1.666   6.432   4.551
 5734SOL    HW118101   1.613   6.374   4.489
 5734SOL    HW218102   1.606   6.500   4.593
 5735SOL     OW18103   3.266   1.528   1.573
 5735SOL    HW118104   3.259   1.486   1.663
 5735SOL    HW218105   3.184   1.582   1.554
 5736SOL     OW18106   0.940   5.016   0.012
 5736SOL    HW118107   1.002   5.085   0.049
 5736SOL    HW218108   0.969   4.992   6.944
 5737SOL     OW18109   5.270   5.638   6.079
 5737SOL    HW118110   5.295   5.635   6.176
 5737SOL    HW218111   5.332   5.700   6.030
 5738SOL     OW18112   1.955   3.380   6.816
 5738SOL    HW118113   1.973   3.445   6.743
 5738SOL    HW218114   1.858   3.385   6.842
 5739SOL     OW18115   1.828   1.495   0.719
 5739SOL    HW118116   1.815   1.464   0.813
 5739SOL    HW218117   1.788   1.428   0.656
 5740SOL     OW18118   4.203   5.666   6.553
 5740SOL    HW118119   4.162   5.590   6.603
 5740SOL    HW218120   4.231   5.737   6.617
 5741SOL     OW18121   6.537   5.331   5.113
 5741SOL    HW118122   6.615   5.270   5.099
 5741SOL    HW218123   6.563   5.424   5.087
 5742SOL     OW18124   6.424   6.516   2.690
 5742SOL    HW118125   6.455   6.455   2.617
 5742SOL    HW218126   6.353   6.576   2.655
 5743SOL     OW18127   2.397   6.969   4.888
 5743SOL    HW118128   2.440   6.947   4.976
 5743SOL    HW218129   2.315   7.024   4.904
 5744SOL     OW18130   5.660   0.802   6.901
 5744SOL    HW118131   5.599   0.876   6.874
 5744SOL    HW218132   5.752   0.821   6.868
 5745SOL     OW18133   1.709   1.946   4.362
 5745SOL    HW118134   1.674   1.904   4.446
 5745SOL    HW218135   1.703   1.880   4.287
 5746SOL     OW18136   4.798   1.891   0.171
 5746SOL    HW118137   4.746   1.967   0.210
 5746SOL    HW218138   4.896   1.907   0.185
 5747SOL     OW18139   0.450   5.187   3.344
 5747SOL    HW118140   0.470   5.207   3.248
 5747SOL    HW218141   0.439   5.272   3.394
 5748SOL     OW18142   2.348   5.176   1.830
 5748SOL    HW118143   2.300   5.264   1.837
 5748SOL    HW218144   2.287   5.108   1.791
 5749SOL     OW18145   2.185   1.789   3.207
 5749SOL    HW118146   2.217   1.858   3.142
 5749SOL    HW218147   2.140   1.834   3.284
 5750SOL     OW18148   6.418   5.589   3.925
 5750SOL    HW118149   6.482   5.657   3.889
 5750SOL    HW218150   6.467   5.506   3.949
 5751SOL     OW18151   2.155   3.124   5.619
 5751SOL    HW118152   2.224   3.089   5.556
 5751SOL    HW218153   2.128   3.051   5.682
 5752SOL     OW18154   6.494   6.406   6.262
 5752SOL    HW118155   6.434   6.457   6.200
 5752SOL    HW218156   6.521   6.320   6.219
 5753SOL     OW18157   3.470   3.115   0.156
 5753SOL    HW118158   3.516   3.026   0.157
 5753SOL    HW218159   3.372   3.102   0.138
 5754SOL     OW18160   5.492   5.127   1.818
 5754SOL    HW118161   5.476   5.183   1.737
 5754SOL    HW218162   5.426   5.052   1.821
 5755SOL     OW18163   3.622   3.901   6.683
 5755SOL    HW118164   3.551   3.969   6.666
 5755SOL    HW218165   3.671   3.883   6.598
 5756SOL     OW18166   6.691   4.919   3.617
 5756SOL    HW118167   6.606   4.869   3.636
 5756SOL    HW218168   6.768   4.854   3.616
 5757SOL     OW18169   6.562   5.339   0.927
 5757SOL    HW118170   6.648   5.289   0.911
 5757SOL    HW218171   6.500   5.325   0.850
 5758SOL     OW18172   1.864   2.404   4.758
 5758SOL    HW118173   1.935   2.398   4.829
 5758SOL    HW218174   1.896   2.462   4.683
 5759SOL     OW18175   5.090   1.667   6.277
 5759SOL    HW118176   5.132   1.695   6.363
 5759SOL    HW218177   5.054   1.748   6.230
 5760SOL     OW18178   1.742   5.425   2.067
 5760SOL    HW118179   1.742   5.330   2.096
 5760SOL    HW218180   1.743   5.485   2.147
 5761SOL     OW18181   4.757   6.400   5.233
 5761SOL    HW118182   4.662   6.423   5.214
 5761SOL    HW218183   4.802   6.372   5.148
 5762SOL     OW18184   5.782   6.427   1.505
 5762SOL    HW118185   5.880   6.442   1.520
 5762SOL    HW218186   5.737   6.412   1.593
 5763SOL     OW18187   1.543   0.597   1.005
 5763SOL    HW118188   1.586   0.521   1.053
 5763SOL    HW218189   1.552   0.583   0.906
 5764SOL     OW18190   5.412   3.851   5.391
 5764SOL    HW118191   5.335   3.840   5.454
 5764SOL    HW218192   5.396   3.929   5.331
 5765SOL     OW18193   5.991   4.585   6.944
 5765SOL    HW118194   5.935   4.577   0.002
 5765SOL    HW218195   6.087   4.567   6.967
 5766SOL     OW18196   3.060   1.872   2.305
 5766SOL    HW118197   3.111   1.883   2.391
 5766SOL    HW218198   3.076   1.952   2.247
 5767SOL     OW18199   0.682   6.585   1.206
 5767SOL    HW118200   0.760   6.625   1.157
 5767SOL    HW218201   0.715   6.514   1.268
 5768SOL     OW18202   6.798   1.520   3.030
 5768SOL    HW118203   6.792   1.614   3.062
 5768SOL    HW218204   6.803   1.519   2.930
 5769SOL     OW18205   2.523   6.081   4.450
 5769SOL    HW118206   2.469   6.156   4.411
 5769SOL    HW218207   2.479   5.994   4.430
 5770SOL     OW18208   6.636   0.191   1.695
 5770SOL    HW118209   6.564   0.170   1.628
 5770SOL    HW218210   6.706   0.249   1.652
 5771SOL     OW18211   1.564   0.952   1.372
 5771SOL    HW118212   1.537   0.859   1.396
 5771SOL    HW218213   1.646   0.977   1.424
 5772SOL     OW18214   5.572   3.541   0.611
 5772SOL    HW118215   5.599   3.447   0.633
 5772SOL    HW218216   5.649   3.603   0.629
 5773SOL     OW18217   5.354   6.112   4.219
 5773SOL    HW118218   5.255   6.102   4.214
 5773SOL    HW218219   5.377   6.208   4.235
 5774SOL     OW18220   2.038   5.632   3.560
 5774SOL    HW118221   2.044   5.665   3.465
 5774SOL    HW218222   2.054   5.708   3.623
 5775SOL     OW18223   0.160   6.656   6.110
 5775SOL    HW118224   0.159   6.580   6.174
 5775SOL    HW218225   0.251   6.664   6.069
 5776SOL     OW18226   4.755   0.175   5.787
 5776SOL    HW118227   4.664   0.143   5.812
 5776SOL    HW218228   4.749   0.238   5.710
 5777SOL     OW18229   0.595   1.016   4.541
 5777SOL    HW118230   0.677   0.975   4.579
 5777SOL    HW218231   0.519   0.952   4.547
 5778SOL     OW18232   1.403   6.719   3.381
 5778SOL    HW118233   1.346   6.796   3.409
 5778SOL    HW218234   1.465   6.749   3.308
 5779SOL     OW18235   4.123   1.141   1.951
 5779SOL    HW118236   4.049   1.098   1.898
 5779SOL    HW218237   4.168   1.072   2.007
 5780SOL     OW18238   6.726   3.799   1.403
 5780SOL    HW118239   6.688   3.892   1.406
 5780SOL    HW218240   6.814   3.797   1.449
 5781SOL     OW18241   1.977   5.056   5.095
 5781SOL    HW118242   1.999   5.101   5.008
 5781SOL    HW218243   2.024   4.967   5.099
 5782SOL     OW18244   2.673   1.287   2.244
 5782SOL    HW118245   2.621   1.245   2.170
 5782SOL    HW218246   2.736   1.219   2.283
 5783SOL     OW18247   1.280   0.260   1.119
 5783SOL    HW118248   1.374   0.237   1.143
 5783SOL    HW218249   1.280   0.328   1.045
 5784SOL     OW18250   0.553   6.152   0.318
 5784SOL    HW118251   0.578   6.249   0.321
 5784SOL    HW218252   0.613   6.100   0.379
 5785SOL     OW18253   1.736   1.876   0.093
 5785SOL    HW118254   1.784   1.963   0.101
 5785SOL    HW218255   1.665   1.883   0.024
 5786SOL     OW18256   1.572   3.551   1.632
 5786SOL    HW118257   1.614   3.639   1.655
 5786SOL    HW218258   1.632   3.477   1.664
 5787SOL     OW18259   5.847   2.344   4.626
 5787SOL    HW118260   5.936   2.380   4.654
 5787SOL    HW218261   5.814   2.279   4.695
 5788SOL     OW18262   3.009   1.375   2.046
 5788SOL    HW118263   2.940   1.438   2.081
 5788SOL    HW218264   3.082   1.364   2.113
 5789SOL     OW18265   4.624   4.105   0.029
 5789SOL    HW118266   4.697   4.111   0.097
 5789SOL    HW218267   4.642   4.169   6.979
 5790SOL     OW18268   5.384   5.732   4.542
 5790SOL    HW118269   5.471   5.769   4.511
 5790SOL    HW218270   5.368   5.643   4.499
 5791SOL     OW18271   4.184   1.114   2.654
 5791SOL    HW118272   4.158   1.145   2.563
 5791SOL    HW218273   4.267   1.162   2.683
 5792SOL     OW18274   5.028   3.536   2.810
 5792SOL    HW118275   5.050   3.458   2.869
 5792SOL    HW218276   5.094   3.541   2.736
 5793SOL     OW18277   5.087   2.319   5.697
 5793SOL    HW118278   5.038   2.232   5.690
 5793SOL    HW218279   5.055   2.381   5.626
 5794SOL     OW18280   3.827   0.291   6.672
 5794SOL    HW118281   3.854   0.238   6.752
 5794SOL    HW218282   3.908   0.333   6.630
 5795SOL     OW18283   1.643   5.704   1.407
 5795SOL    HW118284   1.637   5.798   1.439
 5795SOL    HW218285   1.583   5.646   1.462
 5796SOL     OW18286   4.466   2.660   6.763
 5796SOL    HW118287   4.499   2.737   6.817
 5796SOL    HW218288   4.543   2.613   6.720
 5797SOL     OW18289   5.163   2.418   0.316
 5797SOL    HW118290   5.242   2.468   0.281
 5797SOL    HW218291   5.143   2.448   0.409
 5798SOL     OW18292   1.590   4.047   5.421
 5798SOL    HW118293   1.648   4.116   5.378
 5798SOL    HW218294   1.602   3.959   5.375
 5799SOL     OW18295   1.855   6.607   3.300
 5799SOL    HW118296   1.810   6.606   3.390
 5799SOL    HW218297   1.931   6.542   3.300
 5800SOL     OW18298   0.628   6.450   0.838
 5800SOL    HW118299   0.682   6.368   0.853
 5800SOL    HW218300   0.543   6.445   0.890
 5801SOL     OW18301   1.525   1.786   2.578
 5801SOL    HW118302   1.567   1.767   2.667
 5801SOL    HW218303   1.447   1.725   2.564
 5802SOL     OW18304   0.042   1.466   2.024
 5802SOL    HW118305   6.998   1.402   2.061
 5802SOL    HW218306   7.023   1.522   1.953
 5803SOL     OW18307   0.690   5.043   3.530
 5803SOL    HW118308   0.615   5.003   3.477
 5803SOL    HW218309   0.712   5.133   3.493
 5804SOL     OW18310   6.625   0.850   3.651
 5804SOL    HW118311   6.691   0.874   3.722
 5804SOL    HW218312   6.666   0.865   3.560
 5805SOL     OW18313   1.833   2.612   1.452
 5805SOL    HW118314   1.906   2.627   1.518
 5805SOL    HW218315   1.811   2.699   1.406
 5806SOL     OW18316   0.449   3.730   2.874
 5806SOL    HW118317   0.547   3.731   2.856
 5806SOL    HW218318   0.432   3.693   2.966
 5807SOL     OW18319   0.898   0.370   0.941
 5807SOL    HW118320   0.926   0.318   0.860
 5807SOL    HW218321   0.851   0.309   1.005
 5808SOL     OW18322   5.931   0.184   5.216
 5808SOL    HW118323   5.866   0.242   5.167
 5808SOL    HW218324   5.989   0.240   5.275
 5809SOL     OW18325   0.434   2.080   5.573
 5809SOL    HW118326   0.447   2.176   5.546
 5809SOL    HW218327   0.340   2.067   5.605
 5810SOL     OW18328   3.976   0.061   5.260
 5810SOL    HW118329   3.966   0.094   5.354
 5810SOL    HW218330   4.068   0.083   5.227
 5811SOL     OW18331   3.050   3.623   5.908
 5811SOL    HW118332   2.976   3.682   5.942
 5811SOL    HW218333   3.128   3.679   5.880
 5812SOL     OW18334   5.784   2.814   0.382
 5812SOL    HW118335   5.719   2.842   0.312
 5812SOL    HW218336   5.739   2.756   0.449
 5813SOL     OW18337   5.015   6.701   1.584
 5813SOL    HW118338   4.996   6.635   1.656
 5813SOL    HW218339   5.064   6.779   1.622
 5814SOL     OW18340   5.314   1.570   1.888
 5814SOL    HW118341   5.271   1.504   1.826
 5814SOL    HW218342   5.250   1.646   1.906
 5815SOL     OW18343   6.327   1.592   3.765
 5815SOL    HW118344   6.321   1.679   3.813
 5815SOL    HW218345   6.235   1.563   3.737
 5816SOL     OW18346   6.910   4.233   2.695
 5816SOL    HW118347   6.879   4.325   2.715
 5816SOL    HW218348   7.007   4.234   2.672
 5817SOL     OW18349   5.843   3.847   3.437
 5817SOL    HW118350   5.838   3.839   3.338
 5817SOL    HW218351   5.752   3.831   3.477
 5818SOL     OW18352   2.287   0.347   5.574
 5818SOL    HW118353   2.263   0.251   5.586
 5818SOL    HW218354   2.205   0.403   5.586
 5819SOL     OW18355   4.557   5.166   0.300
 5819SOL    HW118356   4.529   5.128   0.388
 5819SOL    HW218357   4.481   5.218   0.260
 5820SOL     OW18358   6.178   5.338   2.484
 5820SOL    HW118359   6.220   5.314   2.396
 5820SOL    HW218360   6.166   5.437   2.489
 5821SOL     OW18361   6.495   0.546   1.343
 5821SOL    HW118362   6.547   0.534   1.428
 5821SOL    HW218363   6.441   0.464   1.325
 5822SOL     OW18364   1.621   2.786   2.582
 5822SOL    HW118365   1.672   2.869   2.604
 5822SOL    HW218366   1.545   2.808   2.521
 5823SOL     OW18367   1.671   6.345   4.013
 5823SOL    HW118368   1.628   6.431   3.987
 5823SOL    HW218369   1.685   6.343   4.112
 5824SOL     OW18370   0.677   6.957   1.884
 5824SOL    HW118371   0.682   0.006   1.816
 5824SOL    HW218372   0.754   6.965   1.947
 5825SOL     OW18373   5.590   0.330   4.546
 5825SOL    HW118374   5.566   0.233   4.555
 5825SOL    HW218375   5.624   0.347   4.454
 5826SOL     OW18376   0.641   0.007   4.919
 5826SOL    HW118377   0.670   0.101   4.935
 5826SOL    HW218378   0.577   0.004   4.843
 5827SOL     OW18379   2.081   4.802   4.976
 5827SOL    HW118380   2.106   4.816   4.880
 5827SOL    HW218381   2.048   4.709   4.989
 5828SOL     OW18382   4.550   6.618   4.263
 5828SOL    HW118383   4.571   6.638   4.168
 5828SOL    HW218384   4.630   6.576   4.307
 5829SOL     OW18385   2.481   1.130   3.815
 5829SOL    HW118386   2.495   1.097   3.908
 5829SOL    HW218387   2.556   1.191   3.790
 5830SOL     OW18388   3.580   5.522   4.548
 5830SOL    HW118389   3.580   5.591   4.476
 5830SOL    HW218390   3.486   5.499   4.573
 5831SOL     OW18391   1.559   2.135   5.058
 5831SOL    HW118392   1.641   2.125   5.001
 5831SOL    HW218393   1.483   2.084   5.017
 5832SOL     OW18394   2.867   5.139   0.754
 5832SOL    HW118395   2.777   5.131   0.710
 5832SOL    HW218396   2.929   5.190   0.694
 5833SOL     OW18397   4.046   3.954   6.549
 5833SOL    HW118398   4.023   3.950   6.646
 5833SOL    HW218399   4.128   3.899   6.532
 5834SOL     OW18400   5.451   3.479   6.768
 5834SOL    HW118401   5.465   3.563   6.716
 5834SOL    HW218402   5.457   3.400   6.706
 5835SOL     OW18403   5.455   0.790   2.115
 5835SOL    HW118404   5.531   0.732   2.145
 5835SOL    HW218405   5.404   0.743   2.043
 5836SOL     OW18406   4.368   0.174   2.765
 5836SOL    HW118407   4.463   0.168   2.735
 5836SOL    HW218408   4.308   0.156   2.687
 5837SOL     OW18409   3.290   4.590   6.871
 5837SOL    HW118410   3.209   4.569   6.816
 5837SOL    HW218411   3.347   4.655   6.821
 5838SOL     OW18412   3.247   2.109   0.121
 5838SOL    HW118413   3.158   2.154   0.108
 5838SOL    HW218414   3.242   2.050   0.202
 5839SOL     OW18415   1.885   1.905   0.464
 5839SOL    HW118416   1.938   1.846   0.524
 5839SOL    HW218417   1.938   1.924   0.381
 5840SOL     OW18418   1.147   3.024   3.103
 5840SOL    HW118419   1.163   3.058   3.196
 5840SOL    HW218420   1.223   2.966   3.075
 5841SOL     OW18421   5.121   2.531   0.574
 5841SOL    HW118422   5.189   2.598   0.600
 5841SOL    HW218423   5.058   2.515   0.650
 5842SOL     OW18424   2.979   1.458   0.740
 5842SOL    HW118425   3.001   1.544   0.786
 5842SOL    HW218426   2.976   1.473   0.641
 5843SOL     OW18427   2.157   3.535   1.284
 5843SOL    HW118428   2.188   3.455   1.233
 5843SOL    HW218429   2.182   3.524   1.380
 5844SOL     OW18430   0.830   0.423   4.840
 5844SOL    HW118431   0.782   0.503   4.878
 5844SOL    HW218432   0.814   0.344   4.898
 5845SOL     OW18433   1.264   6.658   1.647
 5845SOL    HW118434   1.189   6.671   1.582
 5845SOL    HW218435   1.261   6.565   1.683
 5846SOL     OW18436   6.541   4.154   5.709
 5846SOL    HW118437   6.563   4.248   5.682
 5846SOL    HW218438   6.498   4.155   5.799
 5847SOL     OW18439   2.570   3.404   0.635
 5847SOL    HW118440   2.623   3.488   0.649
 5847SOL    HW218441   2.628   3.336   0.590
 5848SOL     OW18442   2.436   4.835   2.827
 5848SOL    HW118443   2.355   4.780   2.810
 5848SOL    HW218444   2.477   4.861   2.739
 5849SOL     OW18445   3.301   5.929   5.360
 5849SOL    HW118446   3.273   6.023   5.381
 5849SOL    HW218447   3.395   5.929   5.327
 5850SOL     OW18448   0.884   1.779   1.947
 5850SOL    HW118449   0.973   1.751   1.913
 5850SOL    HW218450   0.888   1.791   2.046
 5851SOL     OW18451   6.165   3.582   4.632
 5851SOL    HW118452   6.114   3.504   4.668
 5851SOL    HW218453   6.263   3.564   4.640
 5852SOL     OW18454   5.080   4.722   3.026
 5852SOL    HW118455   5.107   4.643   2.970
 5852SOL    HW218456   5.109   4.706   3.120
 5853SOL     OW18457   3.569   4.426   5.416
 5853SOL    HW118458   3.540   4.517   5.386
 5853SOL    HW218459   3.663   4.409   5.388
 5854SOL     OW18460   3.010   5.105   5.838
 5854SOL    HW118461   2.912   5.092   5.819
 5854SOL    HW218462   3.037   5.197   5.810
 5855SOL     OW18463   2.120   3.073   4.073
 5855SOL    HW118464   2.168   3.106   4.154
 5855SOL    HW218465   2.027   3.046   4.098
 5856SOL     OW18466   1.428   6.272   3.683
 5856SOL    HW118467   1.428   6.198   3.617
 5856SOL    HW218468   1.451   6.358   3.637
 5857SOL     OW18469   6.711   4.211   6.314
 5857SOL    HW118470   6.741   4.116   6.323
 5857SOL    HW218471   6.766   4.257   6.244
 5858SOL     OW18472   2.071   0.627   3.622
 5858SOL    HW118473   1.985   0.643   3.573
 5858SOL    HW218474   2.051   0.598   3.716
 5859SOL     OW18475   6.072   0.279   2.375
 5859SOL    HW118476   5.997   0.230   2.420
 5859SOL    HW218477   6.066   0.377   2.396
 5860SOL     OW18478   0.080   2.740   3.779
 5860SOL    HW118479   0.113   2.687   3.701
 5860SOL    HW218480   7.011   2.770   3.762
 5861SOL     OW18481   4.850   0.839   5.178
 5861SOL    HW118482   4.855   0.809   5.083
 5861SOL    HW218483   4.938   0.825   5.223
 5862SOL     OW18484   6.655   5.193   3.493
 5862SOL    HW118485   6.564   5.221   3.465
 5862SOL    HW218486   6.650   5.104   3.538
 5863SOL     OW18487   3.922   0.260   5.476
 5863SOL    HW118488   3.912   0.327   5.403
 5863SOL    HW218489   3.961   0.304   5.557
 5864SOL     OW18490   3.191   3.844   2.494
 5864SOL    HW118491   3.240   3.758   2.482
 5864SOL    HW218492   3.230   3.913   2.433
 5865SOL     OW18493   6.223   0.672   5.865
 5865SOL    HW118494   6.205   0.720   5.780
 5865SOL    HW218495   6.304   0.712   5.910
 5866SOL     OW18496   3.392   3.068   2.567
 5866SOL    HW118497   3.326   3.072   2.492
 5866SOL    HW218498   3.349   3.103   2.651
 5867SOL     OW18499   3.171   1.593   1.858
 5867SOL    HW118500   3.113   1.581   1.939
 5867SOL    HW218501   3.260   1.630   1.886
 5868SOL     OW18502   1.251   1.139   6.724
 5868SOL    HW118503   1.244   1.231   6.763
 5868SOL    HW218504   1.223   1.142   6.628
 5869SOL     OW18505   1.198   5.502   4.219
 5869SOL    HW118506   1.141   5.560   4.276
 5869SOL    HW218507   1.286   5.546   4.202
 5870SOL     OW18508   4.463   4.598   4.499
 5870SOL    HW118509   4.552   4.637   4.475
 5870SOL    HW218510   4.467   4.562   4.592
 5871SOL     OW18511   3.377   3.250   3.771
 5871SOL    HW118512   3.399   3.315   3.698
 5871SOL    HW218513   3.284   3.214   3.757
 5872SOL     OW18514   3.964   5.938   1.929
 5872SOL    HW118515   3.933   5.880   1.854
 5872SOL    HW218516   4.038   5.893   1.978
 5873SOL     OW18517   3.815   5.151   2.187
 5873SOL    HW118518   3.730   5.164   2.238
 5873SOL    HW218519   3.830   5.053   2.172
 5874SOL     OW18520   2.939   4.614   5.868
 5874SOL    HW118521   2.845   4.598   5.837
 5874SOL    HW218522   2.992   4.654   5.793
 5875SOL     OW18523   2.826   1.057   0.804
 5875SOL    HW118524   2.858   1.124   0.871
 5875SOL    HW218525   2.742   1.089   0.761
 5876SOL     OW18526   3.674   3.585   1.734
 5876SOL    HW118527   3.694   3.565   1.638
 5876SOL    HW218528   3.599   3.526   1.765
 5877SOL     OW18529   5.639   4.519   0.555
 5877SOL    HW118530   5.684   4.504   0.467
 5877SOL    HW218531   5.572   4.447   0.572
 5878SOL     OW18532   2.760   4.890   2.408
 5878SOL    HW118533   2.753   4.812   2.470
 5878SOL    HW218534   2.779   4.973   2.461
 5879SOL     OW18535   6.957   4.080   6.445
 5879SOL    HW118536   6.955   3.992   6.492
 5879SOL    HW218537   6.938   4.153   6.510
 5880SOL     OW18538   2.316   5.998   1.147
 5880SOL    HW118539   2.284   6.083   1.108
 5880SOL    HW218540   2.299   5.923   1.084
 5881SOL     OW18541   0.561   5.246   4.107
 5881SOL    HW118542   0.563   5.257   4.207
 5881SOL    HW218543   0.470   5.272   4.074
 5882SOL     OW18544   4.929   0.330   1.281
 5882SOL    HW118545   4.898   0.277   1.360
 5882SOL    HW218546   4.957   0.421   1.310
 5883SOL     OW18547   6.808   3.136   6.366
 5883SOL    HW118548   6.779   3.095   6.452
 5883SOL    HW218549   6.739   3.120   6.296
 5884SOL     OW18550   0.871   1.255   2.921
 5884SOL    HW118551   0.927   1.338   2.922
 5884SOL    HW218552   0.788   1.270   2.868
 5885SOL     OW18553   6.641   6.162   1.305
 5885SOL    HW118554   6.700   6.088   1.337
 5885SOL    HW218555   6.559   6.123   1.262
 5886SOL     OW18556   0.986   1.818   5.456
 5886SOL    HW118557   1.004   1.908   5.496
 5886SOL    HW218558   0.932   1.829   5.372
 5887SOL     OW18559   3.216   0.803   4.223
 5887SOL    HW118560   3.137   0.842   4.175
 5887SOL    HW218561   3.287   0.779   4.157
 5888SOL     OW18562   2.181   6.847   3.410
 5888SOL    HW118563   2.094   6.892   3.430
 5888SOL    HW218564   2.185   6.759   3.458
 5889SOL     OW18565   2.383   0.510   0.977
 5889SOL    HW118566   2.316   0.471   1.041
 5889SOL    HW218567   2.448   0.567   1.027
 5890SOL     OW18568   2.306   5.198   5.691
 5890SOL    HW118569   2.365   5.128   5.650
 5890SOL    HW218570   2.265   5.254   5.619
 5891SOL     OW18571   3.767   3.156   0.307
 5891SOL    HW118572   3.696   3.202   0.361
 5891SOL    HW218573   3.724   3.104   0.234
 5892SOL     OW18574   0.385   5.941   1.512
 5892SOL    HW118575   0.409   6.036   1.490
 5892SOL    HW218576   0.469   5.891   1.535
 5893SOL     OW18577   1.146   1.365   4.342
 5893SOL    HW118578   1.229   1.347   4.290
 5893SOL    HW218579   1.067   1.328   4.293
 5894SOL     OW18580   1.161   3.258   3.001
 5894SOL    HW118581   1.158   3.170   3.048
 5894SOL    HW218582   1.145   3.244   2.903
 5895SOL     OW18583   5.914   3.676   4.108
 5895SOL    HW118584   5.918   3.671   4.008
 5895SOL    HW218585   5.828   3.719   4.136
 5896SOL     OW18586   3.541   1.981   0.216
 5896SOL    HW118587   3.473   1.967   0.288
 5896SOL    HW218588   3.560   2.078   0.206
 5897SOL     OW18589   3.496   0.029   0.867
 5897SOL    HW118590   3.414   0.084   0.852
 5897SOL    HW218591   3.496   7.017   0.960
 5898SOL     OW18592   1.755   0.180   2.542
 5898SOL    HW118593   1.832   0.223   2.591
 5898SOL    HW218594   1.717   0.107   2.598
 5899SOL     OW18595   5.921   6.582   4.818
 5899SOL    HW118596   5.930   6.597   4.720
 5899SOL    HW218597   5.888   6.489   4.834
 5900SOL     OW18598   4.833   4.634   3.153
 5900SOL    HW118599   4.896   4.671   3.085
 5900SOL    HW218600   4.758   4.587   3.108
 5901SOL     OW18601   2.643   6.665   6.570
 5901SOL    HW118602   2.680   6.664   6.477
 5901SOL    HW218603   2.684   6.591   6.623
 5902SOL     OW18604   6.703   2.497   0.183
 5902SOL    HW118605   6.658   2.484   0.094
 5902SOL    HW218606   6.663   2.576   0.229
 5903SOL     OW18607   5.828   3.649   6.750
 5903SOL    HW118608   5.915   3.649   6.800
 5903SOL    HW218609   5.777   3.732   6.772
 5904SOL     OW18610   0.232   3.669   2.375
 5904SOL    HW118611   0.275   3.639   2.460
 5904SOL    HW218612   0.149   3.616   2.359
 5905SOL     OW18613   6.870   6.302   2.481
 5905SOL    HW118614   6.928   6.376   2.514
 5905SOL    HW218615   6.784   6.300   2.532
 5906SOL     OW18616   5.286   1.292   3.762
 5906SOL    HW118617   5.268   1.277   3.664
 5906SOL    HW218618   5.287   1.204   3.810
 5907SOL     OW18619   0.653   6.335   2.019
 5907SOL    HW118620   0.601   6.358   2.101
 5907SOL    HW218621   0.595   6.347   1.938
 5908SOL     OW18622   0.486   2.933   5.287
 5908SOL    HW118623   0.396   2.920   5.244
 5908SOL    HW218624   0.525   3.019   5.255
 5909SOL     OW18625   0.390   5.819   0.658
 5909SOL    HW118626   0.361   5.781   0.570
 5909SOL    HW218627   0.478   5.778   0.685
 5910SOL     OW18628   1.850   2.380   3.449
 5910SOL    HW118629   1.918   2.307   3.458
 5910SOL    HW218630   1.767   2.344   3.407
 5911SOL     OW18631   6.689   5.437   6.743
 5911SOL    HW118632   6.657   5.452   6.837
 5911SOL    HW218633   6.701   5.525   6.697
 5912SOL     OW18634   6.224   1.540   4.728
 5912SOL    HW118635   6.288   1.530   4.804
 5912SOL    HW218636   6.274   1.572   4.647
 5913SOL     OW18637   5.681   2.171   0.273
 5913SOL    HW118638   5.606   2.159   0.208
 5913SOL    HW218639   5.768   2.163   0.225
 5914SOL     OW18640   0.819   6.251   6.273
 5914SOL    HW118641   0.720   6.266   6.271
 5914SOL    HW218642   0.838   6.153   6.282
 5915SOL     OW18643   3.947   0.508   6.332
 5915SOL    HW118644   3.911   0.416   6.348
 5915SOL    HW218645   3.871   0.572   6.323
 5916SOL     OW18646   1.605   6.716   2.642
 5916SOL    HW118647   1.557   6.631   2.620
 5916SOL    HW218648   1.598   6.780   2.566
 5917SOL     OW18649   3.172   4.202   6.629
 5917SOL    HW118650   3.271   4.208   6.613
 5917SOL    HW218651   3.155   4.146   6.710
 5918SOL     OW18652   3.130   6.880   6.166
 5918SOL    HW118653   3.167   6.932   6.088
 5918SOL    HW218654   3.035   6.856   6.148
 5919SOL     OW18655   3.553   3.062   3.001
 5919SOL    HW118656   3.591   2.995   2.938
 5919SOL    HW218657   3.617   3.076   3.077
 5920SOL     OW18658   6.695   0.240   5.949
 5920SOL    HW118659   6.732   0.168   5.890
 5920SOL    HW218660   6.680   0.323   5.894
 5921SOL     OW18661   3.474   4.462   6.496
 5921SOL    HW118662   3.439   4.395   6.562
 5921SOL    HW218663   3.574   4.461   6.496
 5922SOL     OW18664   5.976   3.593   2.923
 5922SOL    HW118665   5.915   3.531   2.873
 5922SOL    HW218666   6.042   3.633   2.859
 5923SOL     OW18667   6.781   0.966   1.338
 5923SOL    HW118668   6.720   1.002   1.409
 5923SOL    HW218669   6.728   0.944   1.257
 5924SOL     OW18670   6.038   0.178   2.864
 5924SOL    HW118671   6.056   0.153   2.769
 5924SOL    HW218672   6.115   0.150   2.922
 5925SOL     OW18673   4.896   5.864   1.027
 5925SOL    HW118674   4.978   5.842   0.975
 5925SOL    HW218675   4.896   5.813   1.113
 5926SOL     OW18676   4.025   4.848   2.644
 5926SOL    HW118677   4.068   4.772   2.692
 5926SOL    HW218678   3.965   4.898   2.707
 5927SOL     OW18679   0.945   3.956   1.993
 5927SOL    HW118680   0.960   4.028   1.925
 5927SOL    HW218681   0.949   3.866   1.948
 5928SOL     OW18682   3.599   0.563   0.682
 5928SOL    HW118683   3.604   0.656   0.718
 5928SOL    HW218684   3.671   0.507   0.723
 5929SOL     OW18685   6.837   1.320   5.506
 5929SOL    HW118686   6.871   1.228   5.524
 5929SOL    HW218687   6.902   1.387   5.543
 5930SOL     OW18688   1.498   3.750   2.200
 5930SOL    HW118689   1.549   3.750   2.114
 5930SOL    HW218690   1.526   3.829   2.255
 5931SOL     OW18691   5.464   6.024   2.860
 5931SOL    HW118692   5.368   6.033   2.832
 5931SOL    HW218693   5.522   6.078   2.799
 5932SOL     OW18694   3.141   0.520   6.125
 5932SOL    HW118695   3.122   0.445   6.188
 5932SOL    HW218696   3.219   0.573   6.159
 5933SOL     OW18697   6.701   5.620   3.904
 5933SOL    HW118698   6.654   5.541   3.943
 5933SOL    HW218699   6.766   5.657   3.971
 5934SOL     OW18700   3.235   3.825   5.463
 5934SOL    HW118701   3.237   3.774   5.549
 5934SOL    HW218702   3.147   3.871   5.453
 5935SOL     OW18703   0.029   6.353   4.871
 5935SOL    HW118704   0.036   6.451   4.890
 5935SOL    HW218705   6.972   6.316   4.916
 5936SOL     OW18706   3.242   3.129   2.786
 5936SOL    HW118707   3.147   3.142   2.758
 5936SOL    HW218708   3.254   3.162   2.879
 5937SOL     OW18709   6.697   3.014   1.783
 5937SOL    HW118710   6.617   3.071   1.766
 5937SOL    HW218711   6.768   3.068   1.827
 5938SOL     OW18712   6.580   4.930   4.968
 5938SOL    HW118713   6.481   4.924   4.982
 5938SOL    HW218714   6.627   4.876   5.038
 5939SOL     OW18715   3.864   0.354   4.454
 5939SOL    HW118716   3.774   0.342   4.411
 5939SOL    HW218717   3.853   0.372   4.551
 5940SOL     OW18718   4.963   5.690   2.562
 5940SOL    HW118719   5.002   5.617   2.505
 5940SOL    HW218720   4.874   5.717   2.523
 5941SOL     OW18721   6.759   2.032   1.898
 5941SOL    HW118722   6.686   1.964   1.900
 5941SOL    HW218723   6.727   2.117   1.939
 5942SOL     OW18724   6.162   3.439   6.155
 5942SOL    HW118725   6.204   3.480   6.074
 5942SOL    HW218726   6.196   3.486   6.237
 5943SOL     OW18727   3.810   3.592   0.594
 5943SOL    HW118728   3.820   3.604   0.495
 5943SOL    HW218729   3.714   3.571   0.615
 5944SOL     OW18730   0.689   3.539   6.577
 5944SOL    HW118731   0.697   3.467   6.647
 5944SOL    HW218732   0.596   3.538   6.540
 5945SOL     OW18733   0.435   5.815   5.549
 5945SOL    HW118734   0.381   5.876   5.491
 5945SOL    HW218735   0.425   5.721   5.516
 5946SOL     OW18736   3.955   4.904   6.897
 5946SOL    HW118737   4.050   4.886   6.921
 5946SOL    HW218738   3.912   4.959   6.969
 5947SOL     OW18739   3.275   3.003   4.477
 5947SOL    HW118740   3.258   3.096   4.510
 5947SOL    HW218741   3.335   2.955   4.541
 5948SOL     OW18742   4.962   3.755   2.302
 5948SOL    HW118743   4.965   3.755   2.402
 5948SOL    HW218744   4.936   3.663   2.270
 5949SOL     OW18745   6.499   5.869   1.737
 5949SOL    HW118746   6.503   5.841   1.641
 5949SOL    HW218747   6.445   5.803   1.789
 5950SOL     OW18748   5.078   2.074   5.936
 5950SOL    HW118749   4.989   2.105   5.971
 5950SOL    HW218750   5.119   2.146   5.881
 5951SOL     OW18751   1.063   4.382   5.858
 5951SOL    HW118752   1.036   4.371   5.763
 5951SOL    HW218753   1.118   4.464   5.869
 5952SOL     OW18754   4.110   5.180   1.615
 5952SOL    HW118755   4.123   5.097   1.670
 5952SOL    HW218756   4.017   5.182   1.579
 5953SOL     OW18757   5.943   2.388   5.625
 5953SOL    HW118758   5.906   2.409   5.716
 5953SOL    HW218759   5.872   2.347   5.569
 5954SOL     OW18760   0.636   6.248   4.345
 5954SOL    HW118761   0.700   6.251   4.268
 5954SOL    HW218762   0.606   6.154   4.361
 5955SOL     OW18763   5.603   4.159   1.025
 5955SOL    HW118764   5.647   4.247   1.041
 5955SOL    HW218765   5.545   4.164   0.944
 5956SOL     OW18766   4.854   2.590   4.807
 5956SOL    HW118767   4.796   2.509   4.817
 5956SOL    HW218768   4.849   2.645   4.890
 5957SOL     OW18769   1.234   0.924   2.583
 5957SOL    HW118770   1.155   0.940   2.642
 5957SOL    HW218771   1.267   1.011   2.547
 5958SOL     OW18772   3.999   6.815   2.719
 5958SOL    HW118773   3.937   6.770   2.783
 5958SOL    HW218774   4.083   6.841   2.766
 5959SOL     OW18775   4.886   2.213   5.019
 5959SOL    HW118776   4.841   2.254   4.940
 5959SOL    HW218777   4.926   2.285   5.076
 5960SOL     OW18778   3.396   0.008   6.640
 5960SOL    HW118779   3.428   6.942   6.613
 5960SOL    HW218780   3.310   0.029   6.592
 5961SOL     OW18781   3.501   1.763   2.803
 5961SOL    HW118782   3.421   1.813   2.838
 5961SOL    HW218783   3.490   1.665   2.822
 5962SOL     OW18784   5.199   6.412   0.191
 5962SOL    HW118785   5.286   6.412   0.142
 5962SOL    HW218786   5.215   6.443   0.285
 5963SOL     OW18787   3.838   5.088   0.055
 5963SOL    HW118788   3.785   5.130   7.005
 5963SOL    HW218789   3.777   5.067   0.131
 5964SOL     OW18790   1.947   6.444   2.569
 5964SOL    HW118791   1.932   6.463   2.666
 5964SOL    HW218792   2.033   6.395   2.557
 5965SOL     OW18793   1.773   6.724   0.108
 5965SOL    HW118794   1.756   6.787   0.032
 5965SOL    HW218795   1.832   6.768   0.176
 5966SOL     OW18796   2.466   0.713   5.411
 5966SOL    HW118797   2.443   0.732   5.506
 5966SOL    HW218798   2.442   0.792   5.354
 5967SOL     OW18799   2.304   1.910   4.750
 5967SOL    HW118800   2.363   1.947   4.822
 5967SOL    HW218801   2.324   1.813   4.738
 5968SOL     OW18802   5.672   2.029   0.515
 5968SOL    HW118803   5.748   2.078   0.557
 5968SOL    HW218804   5.665   2.056   0.419
 5969SOL     OW18805   5.214   0.698   6.426
 5969SOL    HW118806   5.293   0.664   6.376
 5969SOL    HW218807   5.221   0.671   6.522
 5970SOL     OW18808   0.694   2.888   0.906
 5970SOL    HW118809   0.786   2.908   0.873
 5970SOL    HW218810   0.639   2.851   0.830
 5971SOL     OW18811   6.665   6.925   3.702
 5971SOL    HW118812   6.762   6.946   3.691
 5971SOL    HW218813   6.634   6.870   3.624
 5972SOL     OW18814   5.045   5.198   0.551
 5972SOL    HW118815   4.999   5.266   0.609
 5972SOL    HW218816   5.111   5.244   0.492
 5973SOL     OW18817   1.466   3.075   2.637
 5973SOL    HW118818   1.448   3.171   2.616
 5973SOL    HW218819   1.565   3.059   2.639
 5974SOL     OW18820   4.198   0.886   6.695
 5974SOL    HW118821   4.202   0.792   6.728
 5974SOL    HW218822   4.148   0.889   6.608
 5975SOL     OW18823   5.555   4.535   0.135
 5975SOL    HW118824   5.533   4.450   0.182
 5975SOL    HW218825   5.487   4.604   0.159
 5976SOL     OW18826   3.578   3.585   5.893
 5976SOL    HW118827   3.675   3.585   5.867
 5976SOL    HW218828   3.564   3.519   5.967
 5977SOL     OW18829   0.251   5.406   0.199
 5977SOL    HW118830   0.195   5.488   0.203
 5977SOL    HW218831   0.195   5.329   0.167
 5978SOL     OW18832   3.516   5.623   6.933
 5978SOL    HW118833   3.436   5.683   6.930
 5978SOL    HW218834   3.587   5.660   6.873
 5979SOL     OW18835   6.624   0.304   1.946
 5979SOL    HW118836   6.645   0.252   1.862
 5979SOL    HW218837   6.525   0.318   1.952
 5980SOL     OW18838   3.479   3.170   1.494
 5980SOL    HW118839   3.530   3.247   1.456
 5980SOL    HW218840   3.522   3.084   1.467
 5981SOL     OW18841   4.625   2.405   0.397
 5981SOL    HW118842   4.711   2.393   0.347
 5981SOL    HW218843   4.597   2.318   0.437
 5982SOL     OW18844   5.945   1.706   2.287
 5982SOL    HW118845   6.043   1.695   2.299
 5982SOL    HW218846   5.913   1.782   2.345
 5983SOL     OW18847   6.971   0.533   4.797
 5983SOL    HW118848   0.001   0.579   4.867
 5983SOL    HW218849   6.971   0.588   4.714
 5984SOL     OW18850   6.248   6.369   3.180
 5984SOL    HW118851   6.235   6.440   3.249
 5984SOL    HW218852   6.249   6.411   3.089
 5985SOL     OW18853   6.036   2.278   2.777
 5985SOL    HW118854   5.960   2.312   2.722
 5985SOL    HW218855   6.123   2.300   2.732
 5986SOL     OW18856   4.274   3.736   5.245
 5986SOL    HW118857   4.244   3.786   5.326
 5986SOL    HW218858   4.209   3.750   5.170
 5987SOL     OW18859   6.240   0.884   5.156
 5987SOL    HW118860   6.276   0.905   5.065
 5987SOL    HW218861   6.268   0.956   5.220
 5988SOL     OW18862   2.697   1.731   7.001
 5988SOL    HW118863   2.758   1.660   6.966
 5988SOL    HW218864   2.743   1.780   0.051
 5989SOL     OW18865   0.550   6.049   6.723
 5989SOL    HW118866   0.598   5.988   6.660
 5989SOL    HW218867   0.610   6.071   6.800
 5990SOL     OW18868   3.721   4.570   1.612
 5990SOL    HW118869   3.673   4.606   1.532
 5990SOL    HW218870   3.695   4.623   1.693
 5991SOL     OW18871   5.536   6.045   0.747
 5991SOL    HW118872   5.633   6.043   0.724
 5991SOL    HW218873   5.522   6.098   0.831
 5992SOL     OW18874   3.007   6.973   2.064
 5992SOL    HW118875   3.043   6.882   2.043
 5992SOL    HW218876   2.917   6.983   2.023
 5993SOL     OW18877   6.152   2.576   0.627
 5993SOL    HW118878   6.055   2.601   0.626
 5993SOL    HW218879   6.167   2.503   0.695
 5994SOL     OW18880   0.147   2.819   0.770
 5994SOL    HW118881   0.064   2.770   0.742
 5994SOL    HW218882   0.168   2.891   0.703
 5995SOL     OW18883   4.870   3.669   1.873
 5995SOL    HW118884   4.829   3.620   1.797
 5995SOL    HW218885   4.961   3.701   1.847
 5996SOL     OW18886   2.867   5.854   1.305
 5996SOL    HW118887   2.890   5.910   1.385
 5996SOL    HW218888   2.950   5.835   1.253
 5997SOL     OW18889   6.419   6.901   3.300
 5997SOL    HW118890   6.404   6.952   3.215
 5997SOL    HW218891   6.517   6.893   3.317
 5998SOL     OW18892   6.684   0.558   1.864
 5998SOL    HW118893   6.779   0.554   1.835
 5998SOL    HW218894   6.648   0.465   1.872
 5999SOL     OW18895   3.701   4.241   1.003
 5999SOL    HW118896   3.717   4.273   1.097
 5999SOL    HW218897   3.685   4.320   0.944
 6000SOL     OW18898   6.913   5.481   0.241
 6000SOL    HW118899   6.948   5.572   0.263
 6000SOL    HW218900   6.888   5.478   0.144
 6001SOL     OW18901   5.166   6.358   5.255
 6001SOL    HW118902   5.210   6.323   5.172
 6001SOL    HW218903   5.093   6.295   5.283
 6002SOL     OW18904   6.578   6.601   4.781
 6002SOL    HW118905   6.494   6.581   4.830
 6002SOL    HW218906   6.570   6.567   4.687
 6003SOL     OW18907   6.355   3.004   4.431
 6003SOL    HW118908   6.346   2.908   4.459
 6003SOL    HW218909   6.438   3.015   4.377
 6004SOL     OW18910   4.877   2.169   3.614
 6004SOL    HW118911   4.893   2.197   3.709
 6004SOL    HW218912   4.962   2.133   3.576
 6005SOL     OW18913   4.437   4.058   5.552
 6005SOL    HW118914   4.449   4.126   5.479
 6005SOL    HW218915   4.380   4.097   5.625
 6006SOL     OW18916   3.407   6.670   5.890
 6006SOL    HW118917   3.380   6.657   5.985
 6006SOL    HW218918   3.459   6.755   5.882
 6007SOL     OW18919   0.981   4.478   5.574
 6007SOL    HW118920   0.913   4.550   5.590
 6007SOL    HW218921   0.934   4.392   5.552
 6008SOL     OW18922   2.026   4.839   5.498
 6008SOL    HW118923   2.111   4.875   5.459
 6008SOL    HW218924   1.984   4.775   5.433
 6009SOL     OW18925   4.232   5.345   2.877
 6009SOL    HW118926   4.288   5.262   2.883
 6009SOL    HW218927   4.155   5.330   2.816
 6010SOL     OW18928   6.729   3.963   4.772
 6010SOL    HW118929   6.691   4.054   4.789
 6010SOL    HW218930   6.748   3.952   4.674
 6011SOL     OW18931   5.616   1.262   2.620
 6011SOL    HW118932   5.598   1.200   2.544
 6011SOL    HW218933   5.668   1.214   2.690
 6012SOL     OW18934   6.371   0.666   6.384
 6012SOL    HW118935   6.312   0.648   6.463
 6012SOL    HW218936   6.455   0.612   6.392
 6013SOL     OW18937   5.544   1.088   2.406
 6013SOL    HW118938   5.596   1.093   2.320
 6013SOL    HW218939   5.528   0.992   2.429
 6014SOL     OW18940   3.448   2.966   4.232
 6014SOL    HW118941   3.463   3.057   4.194
 6014SOL    HW218942   3.395   2.974   4.317
 6015SOL     OW18943   6.319   2.000   4.781
 6015SOL    HW118944   6.355   2.075   4.836
 6015SOL    HW218945   6.359   1.913   4.811
 6016SOL     OW18946   5.127   1.786   4.754
 6016SOL    HW118947   5.068   1.709   4.731
 6016SOL    HW218948   5.222   1.764   4.731
 6017SOL     OW18949   6.753   3.395   5.211
 6017SOL    HW118950   6.780   3.332   5.284
 6017SOL    HW218951   6.790   3.364   5.124
 6018SOL     OW18952   3.394   1.254   5.259
 6018SOL    HW118953   3.421   1.331   5.201
 6018SOL    HW218954   3.464   1.183   5.254
 6019SOL     OW18955   0.705   3.930   6.424
 6019SOL    HW118956   0.671   3.910   6.516
 6019SOL    HW218957   0.799   3.898   6.415
 6020SOL     OW18958   1.165   5.230   0.076
 6020SOL    HW118959   1.189   5.315   0.122
 6020SOL    HW218960   1.192   5.235   7.004
 6021SOL     OW18961   3.810   0.727   2.685
 6021SOL    HW118962   3.868   0.807   2.667
 6021SOL    HW218963   3.714   0.751   2.669
 6022SOL     OW18964   6.478   1.320   2.842
 6022SOL    HW118965   6.490   1.221   2.844
 6022SOL    HW218966   6.443   1.351   2.930
 6023SOL     OW18967   4.740   0.928   1.080
 6023SOL    HW118968   4.670   0.859   1.065
 6023SOL    HW218969   4.814   0.889   1.135
 6024SOL     OW18970   0.468   4.515   0.762
 6024SOL    HW118971   0.551   4.462   0.774
 6024SOL    HW218972   0.493   4.610   0.742
 6025SOL     OW18973   2.442   1.493   4.209
 6025SOL    HW118974   2.434   1.403   4.253
 6025SOL    HW218975   2.353   1.521   4.173
 6026SOL     OW18976   6.311   3.999   4.097
 6026SOL    HW118977   6.395   3.946   4.087
 6026SOL    HW218978   6.324   4.069   4.168
 6027SOL     OW18979   5.721   3.570   5.940
 6027SOL    HW118980   5.806   3.598   5.983
 6027SOL    HW218981   5.691   3.639   5.875
 6028SOL     OW18982   5.402   5.267   7.005
 6028SOL    HW118983   5.349   5.229   6.930
 6028SOL    HW218984   5.340   5.300   0.052
 6029SOL     OW18985   2.636   0.857   3.174
 6029SOL    HW118986   2.700   0.932   3.189
 6029SOL    HW218987   2.554   0.891   3.129
 6030SOL     OW18988   4.976   3.685   4.793
 6030SOL    HW118989   4.942   3.776   4.771
 6030SOL    HW218990   4.924   3.646   4.868
 6031SOL     OW18991   0.579   5.982   4.371
 6031SOL    HW118992   0.527   5.983   4.285
 6031SOL    HW218993   0.591   5.887   4.401
 6032SOL     OW18994   3.275   6.714   3.732
 6032SOL    HW118995   3.314   6.622   3.735
 6032SOL    HW218996   3.219   6.724   3.649
 6033SOL     OW18997   1.508   2.333   2.689
 6033SOL    HW118998   1.524   2.237   2.667
 6033SOL    HW218999   1.523   2.389   2.607
 6034SOL     OW19000   1.550   0.316   6.983
 6034SOL    HW119001   1.484   0.318   0.034
 6034SOL    HW219002   1.634   0.364   7.010
 6035SOL     OW19003   1.203   0.827   2.896
 6035SOL    HW119004   1.137   0.870   2.835
 6035SOL    HW219005   1.156   0.761   2.955
 6036SOL     OW19006   5.876   3.841   1.029
 6036SOL    HW119007   5.962   3.791   1.018
 6036SOL    HW219008   5.897   3.938   1.046
 6037SOL     OW19009   4.036   1.530   0.971
 6037SOL    HW119010   4.031   1.614   1.025
 6037SOL    HW219011   3.957   1.472   0.990
 6038SOL     OW19012   0.904   2.354   6.151
 6038SOL    HW119013   0.955   2.405   6.221
 6038SOL    HW219014   0.955   2.356   6.065
 6039SOL     OW19015   3.376   4.120   3.881
 6039SOL    HW119016   3.430   4.092   3.961
 6039SOL    HW219017   3.427   4.096   3.798
 6040SOL     OW19018   1.572   1.815   6.910
 6040SOL    HW119019   1.617   1.798   6.822
 6040SOL    HW219020   1.530   1.731   6.943
 6041SOL     OW19021   3.420   2.439   5.744
 6041SOL    HW119022   3.326   2.469   5.762
 6041SOL    HW219023   3.454   2.486   5.663
 6042SOL     OW19024   3.238   6.197   3.837
 6042SOL    HW119025   3.320   6.238   3.876
 6042SOL    HW219026   3.211   6.248   3.756
 6043SOL     OW19027   1.970   0.819   4.005
 6043SOL    HW119028   1.968   0.902   3.949
 6043SOL    HW219029   2.028   0.835   4.085
 6044SOL     OW19030   2.368   2.102   1.553
 6044SOL    HW119031   2.420   2.160   1.490
 6044SOL    HW219032   2.275   2.138   1.562
 6045SOL     OW19033   5.461   2.906   3.223
 6045SOL    HW119034   5.546   2.900   3.171
 6045SOL    HW219035   5.404   2.979   3.186
 6046SOL     OW19036   3.752   2.541   1.742
 6046SOL    HW119037   3.852   2.532   1.740
 6046SOL    HW219038   3.713   2.458   1.783
 6047SOL     OW19039   5.841   1.525   0.318
 6047SOL    HW119040   5.889   1.453   0.368
 6047SOL    HW219041   5.905   1.599   0.296
 6048SOL     OW19042   5.457   5.334   4.913
 6048SOL    HW119043   5.413   5.282   4.839
 6048SOL    HW219044   5.450   5.432   4.893
 6049SOL     OW19045   5.347   5.051   5.603
 6049SOL    HW119046   5.430   5.042   5.659
 6049SOL    HW219047   5.283   5.112   5.650
 6050SOL     OW19048   3.276   5.925   1.111
 6050SOL    HW119049   3.287   5.904   1.014
 6050SOL    HW219050   3.217   5.857   1.154
 6051SOL     OW19051   0.230   1.738   2.584
 6051SOL    HW119052   0.235   1.808   2.656
 6051SOL    HW219053   0.226   1.647   2.626
 6052SOL     OW19054   5.871   6.671   0.632
 6052SOL    HW119055   5.779   6.631   0.630
 6052SOL    HW219056   5.891   6.714   0.544
 6053SOL     OW19057   4.385   1.530   6.212
 6053SOL    HW119058   4.437   1.607   6.175
 6053SOL    HW219059   4.287   1.548   6.203
 6054SOL     OW19060   3.845   5.086   0.854
 6054SOL    HW119061   3.804   5.171   0.821
 6054SOL    HW219062   3.818   5.071   0.949
 6055SOL     OW19063   3.352   5.426   6.696
 6055SOL    HW119064   3.425   5.474   6.745
 6055SOL    HW219065   3.263   5.463   6.722
 6056SOL     OW19066   5.853   3.813   4.929
 6056SOL    HW119067   5.853   3.737   4.994
 6056SOL    HW219068   5.920   3.796   4.857
 6057SOL     OW19069   4.935   0.340   2.780
 6057SOL    HW119070   4.980   0.429   2.788
 6057SOL    HW219071   4.970   0.279   2.851
 6058SOL     OW19072   5.754   3.086   0.447
 6058SOL    HW119073   5.844   3.128   0.445
 6058SOL    HW219074   5.763   2.987   0.444
 6059SOL     OW19075   5.229   4.476   5.842
 6059SOL    HW119076   5.279   4.453   5.925
 6059SOL    HW219077   5.153   4.536   5.864
 6060SOL     OW19078   2.690   3.509   6.937
 6060SOL    HW119079   2.706   3.582   6.870
 6060SOL    HW219080   2.596   3.474   6.927
 6061SOL     OW19081   4.178   4.671   0.851
 6061SOL    HW119082   4.220   4.742   0.908
 6061SOL    HW219083   4.184   4.699   0.755
 6062SOL     OW19084   2.711   2.274   0.316
 6062SOL    HW119085   2.756   2.328   0.245
 6062SOL    HW219086   2.622   2.243   0.283
 6063SOL     OW19087   3.968   4.376   5.655
 6063SOL    HW119088   3.932   4.439   5.587
 6063SOL    HW219089   3.928   4.397   5.744
 6064SOL     OW19090   0.269   0.672   0.641
 6064SOL    HW119091   0.361   0.639   0.618
 6064SOL    HW219092   0.249   0.652   0.737
 6065SOL     OW19093   1.069   4.837   2.272
 6065SOL    HW119094   1.072   4.796   2.363
 6065SOL    HW219095   1.150   4.808   2.220
 6066SOL     OW19096   5.109   1.052   3.998
 6066SOL    HW119097   5.088   1.028   3.903
 6066SOL    HW219098   5.121   1.151   4.006
 6067SOL     OW19099   5.911   6.689   5.437
 6067SOL    HW119100   5.884   6.684   5.340
 6067SOL    HW219101   5.832   6.670   5.495
 6068SOL     OW19102   5.148   1.384   5.034
 6068SOL    HW119103   5.058   1.423   5.015
 6068SOL    HW219104   5.176   1.326   4.958
 6069SOL     OW19105   0.104   2.784   5.817
 6069SOL    HW119106   0.009   2.811   5.838
 6069SOL    HW219107   0.109   2.684   5.811
 6070SOL     OW19108   3.439   2.075   1.715
 6070SOL    HW119109   3.521   2.028   1.748
 6070SOL    HW219110   3.438   2.169   1.749
 6071SOL     OW19111   6.580   6.032   4.962
 6071SOL    HW119112   6.597   6.011   4.866
 6071SOL    HW219113   6.647   6.099   4.994
 6072SOL     OW19114   1.047   2.328   0.914
 6072SOL    HW119115   0.981   2.278   0.971
 6072SOL    HW219116   1.079   2.269   0.840
 6073SOL     OW19117   5.014   2.947   0.739
 6073SOL    HW119118   4.943   2.878   0.749
 6073SOL    HW219119   4.971   3.038   0.732
 6074SOL     OW19120   1.088   6.795   2.562
 6074SOL    HW119121   1.035   6.710   2.563
 6074SOL    HW219122   1.055   6.856   2.635
 6075SOL     OW19123   4.435   6.758   6.379
 6075SOL    HW119124   4.346   6.788   6.344
 6075SOL    HW219125   4.441   6.780   6.476
 6076SOL     OW19126   2.786   4.872   3.910
 6076SOL    HW119127   2.879   4.859   3.876
 6076SOL    HW219128   2.757   4.966   3.892
 6077SOL     OW19129   6.276   6.599   1.014
 6077SOL    HW119130   6.204   6.544   0.971
 6077SOL    HW219131   6.269   6.693   0.983
 6078SOL     OW19132   4.439   3.929   0.402
 6078SOL    HW119133   4.480   4.008   0.447
 6078SOL    HW219134   4.497   3.849   0.414
 6079SOL     OW19135   4.856   4.187   6.759
 6079SOL    HW119136   4.942   4.148   6.792
 6079SOL    HW219137   4.804   4.115   6.711
 6080SOL     OW19138   1.313   4.499   0.955
 6080SOL    HW119139   1.243   4.454   0.899
 6080SOL    HW219140   1.303   4.471   1.050
 6081SOL     OW19141   0.311   3.673   5.210
 6081SOL    HW119142   0.359   3.587   5.222
 6081SOL    HW219143   0.295   3.716   5.300
 6082SOL     OW19144   4.242   0.434   1.166
 6082SOL    HW119145   4.204   0.391   1.249
 6082SOL    HW219146   4.302   0.509   1.192
 6083SOL     OW19147   5.015   6.454   6.667
 6083SOL    HW119148   5.085   6.525   6.666
 6083SOL    HW219149   4.985   6.438   6.761
 6084SOL     OW19150   0.621   6.697   2.494
 6084SOL    HW119151   0.661   6.631   2.430
 6084SOL    HW219152   0.623   6.788   2.452
 6085SOL     OW19153   6.301   6.610   0.064
 6085SOL    HW119154   6.327   6.706   0.072
 6085SOL    HW219155   6.332   6.574   6.999
 6086SOL     OW19156   3.799   3.546   6.588
 6086SOL    HW119157   3.712   3.570   6.631
 6086SOL    HW219158   3.871   3.542   6.657
 6087SOL     OW19159   4.712   6.601   0.361
 6087SOL    HW119160   4.711   6.557   0.271
 6087SOL    HW219161   4.756   6.540   0.427
 6088SOL     OW19162   5.069   6.267   4.456
 6088SOL    HW119163   5.035   6.184   4.410
 6088SOL    HW219164   5.045   6.347   4.401
 6089SOL     OW19165   6.094   2.263   2.116
 6089SOL    HW119166   6.187   2.269   2.150
 6089SOL    HW219167   6.082   2.178   2.065
 6090SOL     OW19168   3.217   5.335   4.177
 6090SOL    HW119169   3.263   5.391   4.108
 6090SOL    HW219170   3.286   5.298   4.240
 6091SOL     OW19171   2.461   0.612   1.472
 6091SOL    HW119172   2.508   0.539   1.423
 6091SOL    HW219173   2.477   0.602   1.570
 6092SOL     OW19174   4.228   0.251   1.847
 6092SOL    HW119175   4.220   0.224   1.943
 6092SOL    HW219176   4.270   0.176   1.795
 6093SOL     OW19177   1.860   1.630   1.943
 6093SOL    HW119178   1.777   1.590   1.983
 6093SOL    HW219179   1.859   1.616   1.844
 6094SOL     OW19180   0.595   6.989   4.461
 6094SOL    HW119181   0.671   6.979   4.398
 6094SOL    HW219182   0.560   6.899   4.487
 6095SOL     OW19183   4.291   6.115   0.104
 6095SOL    HW119184   4.318   6.033   0.053
 6095SOL    HW219185   4.265   6.090   0.197
 6096SOL     OW19186   5.889   6.318   2.262
 6096SOL    HW119187   5.936   6.362   2.186
 6096SOL    HW219188   5.837   6.239   2.228
 6097SOL     OW19189   1.602   6.138   2.156
 6097SOL    HW119190   1.595   6.236   2.175
 6097SOL    HW219191   1.513   6.104   2.127
 6098SOL     OW19192   6.561   0.755   5.182
 6098SOL    HW119193   6.617   0.798   5.112
 6098SOL    HW219194   6.527   0.667   5.149
 6099SOL     OW19195   5.765   6.156   5.724
 6099SOL    HW119196   5.856   6.199   5.726
 6099SOL    HW219197   5.768   6.071   5.776
 6100SOL     OW19198   0.605   5.589   3.052
 6100SOL    HW119199   0.602   5.687   3.035
 6100SOL    HW219200   0.513   5.551   3.046
 6101SOL     OW19201   6.255   2.344   1.614
 6101SOL    HW119202   6.351   2.371   1.615
 6101SOL    HW219203   6.240   2.276   1.542
 6102SOL     OW19204   4.405   6.338   2.287
 6102SOL    HW119205   4.408   6.397   2.206
 6102SOL    HW219206   4.359   6.385   2.361
 6103SOL     OW19207   6.550   1.527   1.444
 6103SOL    HW119208   6.630   1.479   1.407
 6103SOL    HW219209   6.536   1.612   1.393
 6104SOL     OW19210   6.093   1.352   4.907
 6104SOL    HW119211   6.079   1.412   4.828
 6104SOL    HW219212   6.163   1.393   4.966
 6105SOL     OW19213   2.916   5.468   6.092
 6105SOL    HW119214   2.866   5.392   6.132
 6105SOL    HW219215   3.010   5.468   6.126
 6106SOL     OW19216   1.005   3.678   0.167
 6106SOL    HW119217   1.021   3.596   0.111
 6106SOL    HW219218   0.942   3.656   0.242
 6107SOL     OW19219   4.614   5.309   4.717
 6107SOL    HW119220   4.557   5.388   4.739
 6107SOL    HW219221   4.620   5.250   4.798
 6108SOL     OW19222   1.758   1.335   2.257
 6108SOL    HW119223   1.744   1.352   2.159
 6108SOL    HW219224   1.672   1.350   2.305
 6109SOL     OW19225   5.093   0.590   3.551
 6109SOL    HW119226   5.074   0.644   3.633
 6109SOL    HW219227   5.191   0.594   3.530
 6110SOL     OW19228   0.846   1.970   5.918
 6110SOL    HW119229   0.816   1.987   5.824
 6110SOL    HW219230   0.878   1.875   5.926
 6111SOL     OW19231   1.332   3.617   1.935
 6111SOL    HW119232   1.257   3.662   1.887
 6111SOL    HW219233   1.418   3.631   1.885
 6112SOL     OW19234   3.134   0.584   2.516
 6112SOL    HW119235   3.228   0.557   2.537
 6112SOL    HW219236   3.116   0.569   2.419
 6113SOL     OW19237   2.099   4.918   6.846
 6113SOL    HW119238   2.193   4.945   6.866
 6113SOL    HW219239   2.094   4.873   6.757
 6114SOL     OW19240   4.899   1.530   1.126
 6114SOL    HW119241   4.925   1.626   1.124
 6114SOL    HW219242   4.938   1.483   1.047
 6115SOL     OW19243   0.867   1.165   5.261
 6115SOL    HW119244   0.871   1.065   5.267
 6115SOL    HW219245   0.777   1.193   5.227
 6116SOL     OW19246   3.788   2.170   5.118
 6116SOL    HW119247   3.778   2.106   5.041
 6116SOL    HW219248   3.715   2.153   5.184
 6117SOL     OW19249   1.271   1.854   2.922
 6117SOL    HW119250   1.270   1.832   2.824
 6117SOL    HW219251   1.192   1.811   2.966
 6118SOL     OW19252   6.253   1.100   0.857
 6118SOL    HW119253   6.288   1.149   0.777
 6118SOL    HW219254   6.328   1.052   0.902
 6119SOL     OW19255   0.108   2.316   0.212
 6119SOL    HW119256   0.048   2.389   0.179
 6119SOL    HW219257   0.202   2.333   0.179
 6120SOL     OW19258   2.825   6.776   5.293
 6120SOL    HW119259   2.747   6.790   5.354
 6120SOL    HW219260   2.860   6.865   5.263
 6121SOL     OW19261   0.316   4.031   5.301
 6121SOL    HW119262   0.304   3.941   5.342
 6121SOL    HW219263   0.289   4.028   5.205
 6122SOL     OW19264   4.827   5.735   5.560
 6122SOL    HW119265   4.798   5.807   5.622
 6122SOL    HW219266   4.878   5.666   5.611
 6123SOL     OW19267   5.457   1.419   5.844
 6123SOL    HW119268   5.486   1.464   5.928
 6123SOL    HW219269   5.433   1.324   5.865
 6124SOL     OW19270   2.184   0.083   4.929
 6124SOL    HW119271   2.189   0.182   4.926
 6124SOL    HW219272   2.107   0.055   4.986
 6125SOL     OW19273   2.594   4.139   0.070
 6125SOL    HW119274   2.646   4.090   0.139
 6125SOL    HW219275   2.618   4.236   0.073
 6126SOL     OW19276   0.559   2.342   5.359
 6126SOL    HW119277   0.611   2.426   5.345
 6126SOL    HW219278   0.602   2.267   5.308
 6127SOL     OW19279   4.545   1.359   1.449
 6127SOL    HW119280   4.575   1.265   1.464
 6127SOL    HW219281   4.595   1.399   1.372
 6128SOL     OW19282   5.849   6.043   0.706
 6128SOL    HW119283   5.874   6.031   0.802
 6128SOL    HW219284   5.892   5.971   0.652
 6129SOL     OW19285   2.035   4.773   3.030
 6129SOL    HW119286   1.948   4.739   2.993
 6129SOL    HW219287   2.039   4.755   3.128
 6130SOL     OW19288   5.331   2.608   1.799
 6130SOL    HW119289   5.345   2.527   1.742
 6130SOL    HW219290   5.280   2.677   1.747
 6131SOL     OW19291   6.997   2.266   2.198
 6131SOL    HW119292   7.022   2.203   2.271
 6131SOL    HW219293   0.052   2.280   2.138
 6132SOL     OW19294   3.589   1.592   6.597
 6132SOL    HW119295   3.541   1.515   6.555
 6132SOL    HW219296   3.675   1.609   6.549
 6133SOL     OW19297   1.599   2.511   3.662
 6133SOL    HW119298   1.499   2.513   3.672
 6133SOL    HW219299   1.633   2.422   3.690
 6134SOL     OW19300   5.617   5.862   5.623
 6134SOL    HW119301   5.551   5.787   5.632
 6134SOL    HW219302   5.661   5.879   5.712
 6135SOL     OW19303   6.376   0.249   6.903
 6135SOL    HW119304   6.408   0.332   6.857
 6135SOL    HW219305   6.358   0.269   6.999
 6136SOL     OW19306   1.610   3.101   1.224
 6136SOL    HW119307   1.670   3.057   1.157
 6136SOL    HW219308   1.653   3.185   1.257
 6137SOL     OW19309   0.751   4.399   3.444
 6137SOL    HW119310   0.780   4.304   3.431
 6137SOL    HW219311   0.831   4.456   3.461
 6138SOL     OW19312   4.216   0.162   2.096
 6138SOL    HW119313   4.124   0.124   2.092
 6138SOL    HW219314   4.222   0.229   2.169
 6139SOL     OW19315   0.896   6.591   6.047
 6139SOL    HW119316   0.847   6.504   6.045
 6139SOL    HW219317   0.902   6.629   5.955
 6140SOL     OW19318   1.474   0.318   3.524
 6140SOL    HW119319   1.519   0.229   3.523
 6140SOL    HW219320   1.468   0.352   3.618
 6141SOL     OW19321   0.450   0.259   6.238
 6141SOL    HW119322   0.546   0.263   6.211
 6141SOL    HW219323   0.398   0.204   6.173
 6142SOL     OW19324   0.798   1.230   0.630
 6142SOL    HW119325   0.878   1.180   0.598
 6142SOL    HW219326   0.716   1.174   0.617
 6143SOL     OW19327   6.753   3.914   6.987
 6143SOL    HW119328   6.822   3.969   0.011
 6143SOL    HW219329   6.670   3.909   0.018
 6144SOL     OW19330   4.517   4.459   3.008
 6144SOL    HW119331   4.512   4.427   3.102
 6144SOL    HW219332   4.555   4.387   2.949
 6145SOL     OW19333   5.764   4.258   4.061
 6145SOL    HW119334   5.836   4.209   4.013
 6145SOL    HW219335   5.778   4.357   4.050
 6146SOL     OW19336   3.815   0.694   4.168
 6146SOL    HW119337   3.886   0.749   4.125
 6146SOL    HW219338   3.857   0.629   4.232
 6147SOL     OW19339   1.661   3.099   4.583
 6147SOL    HW119340   1.725   3.159   4.632
 6147SOL    HW219341   1.606   3.154   4.520
 6148SOL     OW19342   4.265   4.709   0.071
 6148SOL    HW119343   4.270   4.786   0.135
 6148SOL    HW219344   4.317   4.730   7.013
 6149SOL     OW19345   2.323   0.162   2.160
 6149SOL    HW119346   2.234   0.115   2.162
 6149SOL    HW219347   2.366   0.155   2.250
 6150SOL     OW19348   6.357   4.226   6.891
 6150SOL    HW119349   6.425   4.205   6.821
 6150SOL    HW219350   6.375   4.171   6.973
 6151SOL     OW19351   5.531   4.889   4.246
 6151SOL    HW119352   5.575   4.939   4.171
 6151SOL    HW219353   5.553   4.792   4.239
 6152SOL     OW19354   1.107   5.563   3.975
 6152SOL    HW119355   1.179   5.536   4.038
 6152SOL    HW219356   1.102   5.663   3.970
 6153SOL     OW19357   4.525   5.418   0.798
 6153SOL    HW119358   4.539   5.475   0.717
 6153SOL    HW219359   4.497   5.475   0.875
 6154SOL     OW19360   4.897   3.227   2.554
 6154SOL    HW119361   4.904   3.319   2.517
 6154SOL    HW219362   4.975   3.172   2.523
 6155SOL     OW19363   2.684   1.158   2.978
 6155SOL    HW119364   2.784   1.162   2.982
 6155SOL    HW219365   2.647   1.149   3.070
 6156SOL     OW19366   5.502   3.990   1.446
 6156SOL    HW119367   5.553   4.074   1.463
 6156SOL    HW219368   5.475   3.986   1.350
 6157SOL     OW19369   0.537   2.184   3.646
 6157SOL    HW119370   0.487   2.143   3.722
 6157SOL    HW219371   0.575   2.112   3.588
 6158SOL     OW19372   3.401   2.391   6.028
 6158SOL    HW119373   3.436   2.445   5.951
 6158SOL    HW219374   3.476   2.372   6.091
 6159SOL     OW19375   5.208   2.565   6.725
 6159SOL    HW119376   5.236   2.575   6.821
 6159SOL    HW219377   5.129   2.504   6.720
 6160SOL     OW19378   0.082   6.948   6.442
 6160SOL    HW119379   0.012   6.878   6.427
 6160SOL    HW219380   0.055   7.006   6.518
 6161SOL     OW19381   5.088   2.464   6.325
 6161SOL    HW119382   5.121   2.519   6.402
 6161SOL    HW219383   5.040   2.524   6.261
 6162SOL     OW19384   5.742   6.796   3.305
 6162SOL    HW119385   5.772   6.883   3.345
 6162SOL    HW219386   5.822   6.742   3.278
 6163SOL     OW19387   4.794   6.296   2.688
 6163SOL    HW119388   4.710   6.286   2.634
 6163SOL    HW219389   4.825   6.206   2.718
 6164SOL     OW19390   3.594   4.107   4.101
 6164SOL    HW119391   3.565   4.180   4.163
 6164SOL    HW219392   3.692   4.091   4.112
 6165SOL     OW19393   3.933   2.590   0.068
 6165SOL    HW119394   3.885   2.672   0.036
 6165SOL    HW219395   3.981   2.610   0.154
 6166SOL     OW19396   6.955   2.000   6.813
 6166SOL    HW119397   6.968   1.936   6.889
 6166SOL    HW219398   6.985   2.091   6.841
 6167SOL     OW19399   1.691   4.854   3.059
 6167SOL    HW119400   1.647   4.901   2.982
 6167SOL    HW219401   1.709   4.920   3.132
 6168SOL     OW19402   6.396   2.610   3.568
 6168SOL    HW119403   6.367   2.521   3.533
 6168SOL    HW219404   6.315   2.664   3.592
 6169SOL     OW19405   1.303   0.367   6.608
 6169SOL    HW119406   1.370   0.421   6.660
 6169SOL    HW219407   1.221   0.422   6.591
 6170SOL     OW19408   3.621   4.469   6.865
 6170SOL    HW119409   3.582   4.552   6.825
 6170SOL    HW219410   3.704   4.443   6.815
 6171SOL     OW19411   0.924   4.094   2.742
 6171SOL    HW119412   0.972   4.042   2.814
 6171SOL    HW219413   0.943   4.191   2.754
 6172SOL     OW19414   0.413   0.722   2.585
 6172SOL    HW119415   0.413   0.622   2.580
 6172SOL    HW219416   0.505   0.757   2.566
 6173SOL     OW19417   0.814   4.928   2.343
 6173SOL    HW119418   0.905   4.908   2.307
 6173SOL    HW219419   0.792   4.866   2.417
 6174SOL     OW19420   5.909   5.015   2.772
 6174SOL    HW119421   5.937   5.055   2.684
 6174SOL    HW219422   5.949   4.924   2.782
 6175SOL     OW19423   5.612   6.219   2.762
 6175SOL    HW119424   5.577   6.295   2.816
 6175SOL    HW219425   5.688   6.251   2.706
 6176SOL     OW19426   6.032   3.440   6.474
 6176SOL    HW119427   5.984   3.451   6.562
 6176SOL    HW219428   6.012   3.350   6.436
 6177SOL     OW19429   4.718   1.044   1.467
 6177SOL    HW119430   4.791   1.110   1.482
 6177SOL    HW219431   4.749   0.953   1.494
 6178SOL     OW19432   4.824   4.729   1.317
 6178SOL    HW119433   4.845   4.761   1.225
 6178SOL    HW219434   4.891   4.660   1.344
 6179SOL     OW19435   6.861   3.336   4.771
 6179SOL    HW119436   6.945   3.302   4.813
 6179SOL    HW219437   6.783   3.317   4.830
 6180SOL     OW19438   3.471   6.691   0.720
 6180SOL    HW119439   3.453   6.659   0.813
 6180SOL    HW219440   3.439   6.622   0.655
 6181SOL     OW19441   4.656   6.516   0.101
 6181SOL    HW119442   4.636   6.420   0.078
 6181SOL    HW219443   4.646   6.572   0.019
 6182SOL     OW19444   5.086   5.454   5.071
 6182SOL    HW119445   5.005   5.397   5.080
 6182SOL    HW219446   5.143   5.442   5.153
 6183SOL     OW19447   2.043   0.534   3.008
 6183SOL    HW119448   2.141   0.551   3.009
 6183SOL    HW219449   2.023   0.460   2.943
 6184SOL     OW19450   1.838   0.043   0.190
 6184SOL    HW119451   1.923   7.016   0.185
 6184SOL    HW219452   1.779   0.018   0.113
 6185SOL     OW19453   0.709   3.854   6.924
 6185SOL    HW119454   0.712   3.762   6.962
 6185SOL    HW219455   0.799   3.896   6.930
 6186SOL     OW19456   5.541   0.062   4.562
 6186SOL    HW119457   5.463   0.029   4.615
 6186SOL    HW219458   5.608   7.012   4.553
 6187SOL     OW19459   5.116   4.820   3.715
 6187SOL    HW119460   5.142   4.728   3.686
 6187SOL    HW219461   5.019   4.834   3.699
 6188SOL     OW19462   2.298   6.387   1.353
 6188SOL    HW119463   2.260   6.452   1.419
 6188SOL    HW219464   2.398   6.390   1.358
 6189SOL     OW19465   5.124   4.672   3.307
 6189SOL    HW119466   5.101   4.574   3.309
 6189SOL    HW219467   5.108   4.711   3.397
 6190SOL     OW19468   5.507   3.765   6.086
 6190SOL    HW119469   5.477   3.740   5.994
 6190SOL    HW219470   5.517   3.682   6.141
 6191SOL     OW19471   5.605   2.291   0.691
 6191SOL    HW119472   5.696   2.249   0.694
 6191SOL    HW219473   5.579   2.307   0.595
 6192SOL     OW19474   3.008   3.779   0.246
 6192SOL    HW119475   2.922   3.784   0.195
 6192SOL    HW219476   2.996   3.822   0.336
 6193SOL     OW19477   4.613   0.182   2.223
 6193SOL    HW119478   4.588   0.225   2.136
 6193SOL    HW219479   4.578   0.238   2.299
 6194SOL     OW19480   1.971   0.201   0.837
 6194SOL    HW119481   2.000   0.178   0.744
 6194SOL    HW219482   2.001   0.293   0.860
 6195SOL     OW19483   4.335   5.130   5.991
 6195SOL    HW119484   4.409   5.088   6.042
 6195SOL    HW219485   4.303   5.067   5.920
 6196SOL     OW19486   0.501   2.747   6.098
 6196SOL    HW119487   0.446   2.663   6.104
 6196SOL    HW219488   0.589   2.726   6.055
 6197SOL     OW19489   2.881   4.202   0.858
 6197SOL    HW119490   2.806   4.251   0.903
 6197SOL    HW219491   2.957   4.192   0.922
 6198SOL     OW19492   3.478   5.998   2.932
 6198SOL    HW119493   3.430   5.923   2.976
 6198SOL    HW219494   3.576   5.976   2.926
 6199SOL     OW19495   0.503   0.109   1.118
 6199SOL    HW119496   0.500   0.109   1.018
 6199SOL    HW219497   0.582   0.162   1.149
 6200SOL     OW19498   2.623   1.509   6.363
 6200SOL    HW119499   2.540   1.462   6.331
 6200SOL    HW219500   2.611   1.608   6.354
 6201SOL     OW19501   2.378   4.799   5.752
 6201SOL    HW119502   2.312   4.729   5.727
 6201SOL    HW219503   2.433   4.768   5.830
 6202SOL     OW19504   4.108   1.782   1.496
 6202SOL    HW119505   4.070   1.848   1.431
 6202SOL    HW219506   4.206   1.797   1.506
 6203SOL     OW19507   5.043   0.540   3.860
 6203SOL    HW119508   5.115   0.606   3.838
 6203SOL    HW219509   5.079   0.471   3.923
 6204SOL     OW19510   0.690   4.818   5.459
 6204SOL    HW119511   0.733   4.892   5.406
 6204SOL    HW219512   0.608   4.787   5.411
 6205SOL     OW19513   5.080   5.427   6.724
 6205SOL    HW119514   4.984   5.420   6.698
 6205SOL    HW219515   5.087   5.469   6.814
 6206SOL     OW19516   6.935   0.442   2.526
 6206SOL    HW119517   0.001   0.444   2.482
 6206SOL    HW219518   6.864   0.438   2.457
 6207SOL     OW19519   1.263   3.938   4.739
 6207SOL    HW119520   1.168   3.957   4.764
 6207SOL    HW219521   1.309   4.024   4.716
 6208SOL     OW19522   6.300   0.254   5.808
 6208SOL    HW119523   6.270   0.187   5.875
 6208SOL    HW219524   6.367   0.212   5.746
 6209SOL     OW19525   3.956   6.276   0.385
 6209SOL    HW119526   3.995   6.367   0.399
 6209SOL    HW219527   3.982   6.217   0.461
 6210SOL     OW19528   5.556   4.140   3.077
 6210SOL    HW119529   5.545   4.050   3.035
 6210SOL    HW219530   5.653   4.156   3.096
 6211SOL     OW19531   2.778   0.042   6.085
 6211SOL    HW119532   2.824   0.099   6.153
 6211SOL    HW219533   2.684   0.075   6.073
 6212SOL     OW19534   0.316   5.901   3.464
 6212SOL    HW119535   0.353   5.872   3.376
 6212SOL    HW219536   0.348   5.994   3.485
 6213SOL     OW19537   6.071   0.368   6.501
 6213SOL    HW119538   6.132   0.315   6.559
 6213SOL    HW219539   6.118   0.449   6.467
 6214SOL     OW19540   6.070   5.298   3.130
 6214SOL    HW119541   6.100   5.215   3.084
 6214SOL    HW219542   6.113   5.378   3.088
 6215SOL     OW19543   3.629   1.536   6.971
 6215SOL    HW119544   3.652   1.444   6.940
 6215SOL    HW219545   3.686   1.560   0.025
 6216SOL     OW19546   6.538   1.903   1.565
 6216SOL    HW119547   6.544   1.825   1.627
 6216SOL    HW219548   6.629   1.927   1.532
 6217SOL     OW19549   5.138   2.513   1.525
 6217SOL    HW119550   5.158   2.442   1.592
 6217SOL    HW219551   5.074   2.579   1.565
 6218SOL     OW19552   3.620   5.097   4.241
 6218SOL    HW119553   3.709   5.058   4.217
 6218SOL    HW219554   3.626   5.196   4.242
 6219SOL     OW19555   1.685   1.746   4.854
 6219SOL    HW119556   1.625   1.723   4.931
 6219SOL    HW219557   1.720   1.839   4.866
 6220SOL     OW19558   1.688   4.262   5.304
 6220SOL    HW119559   1.643   4.320   5.371
 6220SOL    HW219560   1.787   4.265   5.318
 6221SOL     OW19561   4.920   5.097   5.022
 6221SOL    HW119562   4.983   5.060   5.090
 6221SOL    HW219563   4.895   5.190   5.046
 6222SOL     OW19564   0.977   6.622   1.575
 6222SOL    HW119565   0.911   6.547   1.577
 6222SOL    HW219566   0.958   6.685   1.650
 6223SOL     OW19567   5.940   3.574   4.371
 6223SOL    HW119568   6.007   3.521   4.318
 6223SOL    HW219569   5.935   3.667   4.334
 6224SOL     OW19570   1.845   1.687   6.401
 6224SOL    HW119571   1.850   1.588   6.385
 6224SOL    HW219572   1.762   1.723   6.358
 6225SOL     OW19573   3.046   3.460   1.530
 6225SOL    HW119574   2.953   3.494   1.524
 6225SOL    HW219575   3.107   3.533   1.562
 6226SOL     OW19576   5.811   1.506   3.619
 6226SOL    HW119577   5.806   1.410   3.647
 6226SOL    HW219578   5.753   1.561   3.679
 6227SOL     OW19579   3.098   4.438   6.021
 6227SOL    HW119580   3.092   4.468   6.117
 6227SOL    HW219581   3.036   4.492   5.965
 6228SOL     OW19582   6.814   1.879   3.008
 6228SOL    HW119583   6.721   1.916   3.003
 6228SOL    HW219584   6.842   1.848   2.917
 6229SOL     OW19585   1.481   1.748   3.215
 6229SOL    HW119586   1.442   1.742   3.123
 6229SOL    HW219587   1.413   1.721   3.283
 6230SOL     OW19588   1.929   1.319   4.785
 6230SOL    HW119589   1.953   1.371   4.703
 6230SOL    HW219590   1.989   1.345   4.860
 6231SOL     OW19591   6.855   4.984   1.271
 6231SOL    HW119592   6.783   4.931   1.227
 6231SOL    HW219593   6.848   5.080   1.242
 6232SOL     OW19594   0.222   0.759   0.077
 6232SOL    HW119595   0.299   0.782   0.018
 6232SOL    HW219596   0.141   0.809   0.046
 6233SOL     OW19597   5.826   1.818   6.754
 6233SOL    HW119598   5.850   1.744   6.816
 6233SOL    HW219599   5.754   1.875   6.795
 6234SOL     OW19600   0.655   1.441   4.867
 6234SOL    HW119601   0.735   1.388   4.896
 6234SOL    HW219602   0.572   1.401   4.906
 6235SOL     OW19603   1.814   6.861   3.223
 6235SOL    HW119604   1.834   6.900   3.313
 6235SOL    HW219605   1.834   6.763   3.224
 6236SOL     OW19606   0.225   4.625   1.265
 6236SOL    HW119607   0.218   4.709   1.319
 6236SOL    HW219608   0.135   4.601   1.229
 6237SOL     OW19609   4.584   5.948   0.603
 6237SOL    HW119610   4.571   6.041   0.636
 6237SOL    HW219611   4.595   5.886   0.681
 6238SOL     OW19612   4.608   5.335   2.737
 6238SOL    HW119613   4.602   5.434   2.722
 6238SOL    HW219614   4.517   5.298   2.752
 6239SOL     OW19615   2.718   6.522   2.131
 6239SOL    HW119616   2.661   6.480   2.202
 6239SOL    HW219617   2.665   6.531   2.047
 6240SOL     OW19618   2.937   1.922   0.642
 6240SOL    HW119619   2.887   1.955   0.722
 6240SOL    HW219620   2.896   1.961   0.560
 6241SOL     OW19621   2.549   1.074   2.579
 6241SOL    HW119622   2.485   1.053   2.652
 6241SOL    HW219623   2.501   1.075   2.491
 6242SOL     OW19624   5.473   1.662   3.551
 6242SOL    HW119625   5.477   1.579   3.607
 6242SOL    HW219626   5.386   1.665   3.502
 6243SOL     OW19627   5.983   6.639   3.716
 6243SOL    HW119628   6.056   6.659   3.652
 6243SOL    HW219629   5.968   6.718   3.776
 6244SOL     OW19630   2.278   2.344   1.897
 6244SOL    HW119631   2.211   2.297   1.954
 6244SOL    HW219632   2.231   2.409   1.838
 6245SOL     OW19633   3.003   4.482   1.598
 6245SOL    HW119634   3.101   4.483   1.580
 6245SOL    HW219635   2.987   4.483   1.697
 6246SOL     OW19636   2.587   2.714   6.722
 6246SOL    HW119637   2.665   2.741   6.778
 6246SOL    HW219638   2.507   2.769   6.747
 6247SOL     OW19639   0.334   6.573   3.655
 6247SOL    HW119640   0.342   6.546   3.751
 6247SOL    HW219641   0.254   6.527   3.615
 6248SOL     OW19642   1.008   3.823   1.411
 6248SOL    HW119643   1.017   3.854   1.317
 6248SOL    HW219644   0.955   3.738   1.414
 6249SOL     OW19645   0.225   4.341   0.248
 6249SOL    HW119646   0.257   4.390   0.328
 6249SOL    HW219647   0.296   4.340   0.178
 6250SOL     OW19648   6.613   6.284   0.491
 6250SOL    HW119649   6.637   6.260   0.397
 6250SOL    HW219650   6.529   6.236   0.518
 6251SOL     OW19651   4.258   6.892   1.190
 6251SOL    HW119652   4.251   6.938   1.278
 6251SOL    HW219653   4.199   6.937   1.123
 6252SOL     OW19654   2.259   6.289   4.962
 6252SOL    HW119655   2.292   6.278   4.868
 6252SOL    HW219656   2.273   6.204   5.012
 6253SOL     OW19657   2.187   4.268   2.499
 6253SOL    HW119658   2.194   4.347   2.561
 6253SOL    HW219659   2.252   4.280   2.424
 6254SOL     OW19660   5.587   0.551   6.931
 6254SOL    HW119661   5.627   0.642   6.915
 6254SOL    HW219662   5.491   0.561   6.958
 6255SOL     OW19663   1.450   0.944   1.764
 6255SOL    HW119664   1.395   0.870   1.804
 6255SOL    HW219665   1.475   1.009   1.834
 6256SOL     OW19666   4.123   5.104   2.569
 6256SOL    HW119667   4.069   5.159   2.633
 6256SOL    HW219668   4.095   5.008   2.577
 6257SOL     OW19669   5.229   2.418   0.885
 6257SOL    HW119670   5.140   2.409   0.839
 6257SOL    HW219671   5.265   2.510   0.871
 6258SOL     OW19672   5.008   0.959   3.093
 6258SOL    HW119673   4.935   0.969   3.025
 6258SOL    HW219674   5.021   1.046   3.141
 6259SOL     OW19675   2.814   1.781   1.568
 6259SOL    HW119676   2.765   1.843   1.630
 6259SOL    HW219677   2.906   1.764   1.602
 6260SOL     OW19678   3.307   4.328   0.162
 6260SOL    HW119679   3.258   4.386   0.097
 6260SOL    HW219680   3.402   4.359   0.170
 6261SOL     OW19681   3.789   6.774   6.559
 6261SOL    HW119682   3.826   6.758   6.650
 6261SOL    HW219683   3.851   6.734   6.491
 6262SOL     OW19684   1.886   4.358   0.455
 6262SOL    HW119685   1.825   4.282   0.435
 6262SOL    HW219686   1.976   4.322   0.483
 6263SOL     OW19687   0.392   5.779   6.447
 6263SOL    HW119688   0.451   5.701   6.469
 6263SOL    HW219689   0.350   5.813   6.531
 6264SOL     OW19690   2.354   0.801   1.112
 6264SOL    HW119691   2.279   0.740   1.135
 6264SOL    HW219692   2.325   0.865   1.041
 6265SOL     OW19693   3.339   4.464   1.292
 6265SOL    HW119694   3.399   4.388   1.316
 6265SOL    HW219695   3.331   4.526   1.370
 6266SOL     OW19696   3.991   0.842   4.448
 6266SOL    HW119697   4.089   0.832   4.432
 6266SOL    HW219698   3.956   0.914   4.388
 6267SOL     OW19699   3.390   6.894   0.130
 6267SOL    HW119700   3.378   6.980   0.180
 6267SOL    HW219701   3.397   6.913   0.032
 6268SOL     OW19702   2.582   5.933   2.869
 6268SOL    HW119703   2.609   5.900   2.960
 6268SOL    HW219704   2.577   6.033   2.870
 6269SOL     OW19705   6.365   5.739   1.970
 6269SOL    HW119706   6.402   5.764   2.060
 6269SOL    HW219707   6.327   5.647   1.974
 6270SOL     OW19708   1.990   6.931   6.050
 6270SOL    HW119709   2.046   6.975   5.980
 6270SOL    HW219710   2.049   6.882   6.114
 6271SOL     OW19711   6.706   2.668   5.638
 6271SOL    HW119712   6.665   2.697   5.551
 6271SOL    HW219713   6.747   2.747   5.683
 6272SOL     OW19714   0.587   3.061   4.531
 6272SOL    HW119715   0.509   3.008   4.565
 6272SOL    HW219716   0.634   3.105   4.607
 6273SOL     OW19717   1.585   0.395   1.976
 6273SOL    HW119718   1.673   0.350   1.990
 6273SOL    HW219719   1.517   0.358   2.040
 6274SOL     OW19720   2.799   5.473   5.623
 6274SOL    HW119721   2.894   5.504   5.623
 6274SOL    HW219722   2.793   5.383   5.579
 6275SOL     OW19723   2.940   6.291   5.664
 6275SOL    HW119724   2.977   6.379   5.695
 6275SOL    HW219725   2.863   6.308   5.602
 6276SOL     OW19726   1.750   4.924   3.492
 6276SOL    HW119727   1.802   4.994   3.541
 6276SOL    HW219728   1.754   4.838   3.542
 6277SOL     OW19729   4.506   2.514   2.788
 6277SOL    HW119730   4.565   2.506   2.707
 6277SOL    HW219731   4.413   2.539   2.758
 6278SOL     OW19732   4.692   0.221   4.641
 6278SOL    HW119733   4.758   0.206   4.567
 6278SOL    HW219734   4.740   0.231   4.727
 6279SOL     OW19735   3.818   1.374   0.457
 6279SOL    HW119736   3.780   1.320   0.382
 6279SOL    HW219737   3.918   1.372   0.452
 6280SOL     OW19738   0.399   2.902   5.760
 6280SOL    HW119739   0.417   2.950   5.674
 6280SOL    HW219740   0.314   2.850   5.752
 6281SOL     OW19741   2.800   6.234   6.096
 6281SOL    HW119742   2.752   6.239   6.009
 6281SOL    HW219743   2.737   6.253   6.171
 6282SOL     OW19744   1.236   0.068   4.539
 6282SOL    HW119745   1.233   0.020   4.626
 6282SOL    HW219746   1.282   0.156   4.551
 6283SOL     OW19747   6.050   2.648   4.936
 6283SOL    HW119748   6.122   2.646   4.867
 6283SOL    HW219749   6.007   2.738   4.938
 6284SOL     OW19750   1.655   5.481   4.952
 6284SOL    HW119751   1.647   5.478   4.853
 6284SOL    HW219752   1.716   5.407   4.983
 6285SOL     OW19753   1.456   3.024   4.179
 6285SOL    HW119754   1.476   3.073   4.094
 6285SOL    HW219755   1.361   3.041   4.205
 6286SOL     OW19756   6.573   1.130   3.766
 6286SOL    HW119757   6.636   1.183   3.710
 6286SOL    HW219758   6.548   1.046   3.717
 6287SOL     OW19759   4.422   4.509   2.177
 6287SOL    HW119760   4.437   4.424   2.127
 6287SOL    HW219761   4.502   4.569   2.165
 6288SOL     OW19762   5.230   4.099   1.432
 6288SOL    HW119763   5.281   4.183   1.418
 6288SOL    HW219764   5.237   4.071   1.527
 6289SOL     OW19765   1.571   2.714   3.465
 6289SOL    HW119766   1.479   2.717   3.427
 6289SOL    HW219767   1.587   2.624   3.507
 6290SOL     OW19768   5.437   3.736   4.214
 6290SOL    HW119769   5.359   3.677   4.194
 6290SOL    HW219770   5.464   3.723   4.310
 6291SOL     OW19771   4.114   3.595   3.737
 6291SOL    HW119772   4.134   3.515   3.680
 6291SOL    HW219773   4.113   3.568   3.833
 6292SOL     OW19774   0.353   2.964   3.233
 6292SOL    HW119775   0.382   2.885   3.287
 6292SOL    HW219776   0.255   2.978   3.243
 6293SOL     OW19777   4.669   0.030   0.311
 6293SOL    HW119778   4.706   0.120   0.287
 6293SOL    HW219779   4.707   6.985   0.249
 6294SOL     OW19780   3.561   5.234   3.115
 6294SOL    HW119781   3.585   5.264   3.207
 6294SOL    HW219782   3.542   5.136   3.115
 6295SOL     OW19783   4.999   5.796   5.363
 6295SOL    HW119784   5.092   5.800   5.398
 6295SOL    HW219785   4.935   5.782   5.439
 6296SOL     OW19786   6.599   0.529   3.896
 6296SOL    HW119787   6.513   0.577   3.877
 6296SOL    HW219788   6.675   0.593   3.888
 6297SOL     OW19789   5.282   6.850   5.707
 6297SOL    HW119790   5.216   6.782   5.738
 6297SOL    HW219791   5.321   6.898   5.785
 6298SOL     OW19792   1.313   3.669   6.144
 6298SOL    HW119793   1.290   3.615   6.063
 6298SOL    HW219794   1.411   3.691   6.142
 6299SOL     OW19795   6.432   2.334   6.462
 6299SOL    HW119796   6.354   2.273   6.474
 6299SOL    HW219797   6.489   2.301   6.387
 6300SOL     OW19798   5.082   0.583   4.946
 6300SOL    HW119799   5.080   0.510   5.014
 6300SOL    HW219800   5.009   0.568   4.879
 6301SOL     OW19801   2.737   6.899   1.168
 6301SOL    HW119802   2.718   6.942   1.256
 6301SOL    HW219803   2.831   6.864   1.168
 6302SOL     OW19804   1.120   1.292   3.627
 6302SOL    HW119805   1.046   1.229   3.602
 6302SOL    HW219806   1.083   1.363   3.687
 6303SOL     OW19807   2.237   0.722   4.847
 6303SOL    HW119808   2.161   0.678   4.896
 6303SOL    HW219809   2.202   0.798   4.792
 6304SOL     OW19810   2.972   0.810   1.378
 6304SOL    HW119811   2.970   0.880   1.307
 6304SOL    HW219812   3.066   0.798   1.410
 6305SOL     OW19813   6.399   6.634   1.275
 6305SOL    HW119814   6.357   6.592   1.194
 6305SOL    HW219815   6.374   6.731   1.280
 6306SOL     OW19816   0.037   3.204   4.283
 6306SOL    HW119817   0.090   3.289   4.279
 6306SOL    HW219818   0.000   3.184   4.192
 6307SOL     OW19819   3.118   4.692   5.622
 6307SOL    HW119820   3.087   4.730   5.535
 6307SOL    HW219821   3.182   4.617   5.605
 6308SOL     OW19822   1.874   1.541   5.310
 6308SOL    HW119823   1.785   1.571   5.343
 6308SOL    HW219824   1.946   1.586   5.363
 6309SOL     OW19825   4.810   3.068   3.655
 6309SOL    HW119826   4.799   3.167   3.649
 6309SOL    HW219827   4.814   3.041   3.751
 6310SOL     OW19828   2.207   4.595   4.035
 6310SOL    HW119829   2.183   4.692   4.025
 6310SOL    HW219830   2.143   4.552   4.099
 6311SOL     OW19831   6.266   0.369   5.152
 6311SOL    HW119832   6.206   0.389   5.074
 6311SOL    HW219833   6.282   0.270   5.157
 6312SOL     OW19834   4.275   5.042   6.363
 6312SOL    HW119835   4.285   4.976   6.289
 6312SOL    HW219836   4.345   5.113   6.353
 6313SOL     OW19837   1.640   6.071   2.999
 6313SOL    HW119838   1.582   6.054   3.078
 6313SOL    HW219839   1.660   6.169   2.993
 6314SOL     OW19840   3.580   6.432   1.873
 6314SOL    HW119841   3.600   6.340   1.837
 6314SOL    HW219842   3.524   6.424   1.956
 6315SOL     OW19843   4.617   2.877   6.883
 6315SOL    HW119844   4.592   2.897   6.977
 6315SOL    HW219845   4.716   2.887   6.872
 6316SOL     OW19846   4.368   2.083   6.296
 6316SOL    HW119847   4.352   2.182   6.294
 6316SOL    HW219848   4.420   2.060   6.378
 6317SOL     OW19849   5.359   6.477   3.062
 6317SOL    HW119850   5.440   6.508   3.012
 6317SOL    HW219851   5.355   6.377   3.061
 6318SOL     OW19852   2.663   2.006   5.508
 6318SOL    HW119853   2.625   2.056   5.430
 6318SOL    HW219854   2.760   1.990   5.492
 6319SOL     OW19855   0.369   3.170   3.730
 6319SOL    HW119856   0.432   3.121   3.669
 6319SOL    HW219857   0.393   3.267   3.732
 6320SOL     OW19858   5.980   4.214   3.282
 6320SOL    HW119859   5.958   4.177   3.372
 6320SOL    HW219860   6.031   4.146   3.230
 6321SOL     OW19861   2.825   5.275   0.988
 6321SOL    HW119862   2.818   5.214   0.909
 6321SOL    HW219863   2.842   5.368   0.957
 6322SOL     OW19864   1.741   2.187   6.111
 6322SOL    HW119865   1.685   2.236   6.044
 6322SOL    HW219866   1.689   2.111   6.149
 6323SOL     OW19867   3.518   2.380   1.652
 6323SOL    HW119868   3.583   2.340   1.717
 6323SOL    HW219869   3.567   2.413   1.572
 6324SOL     OW19870   4.269   0.771   5.786
 6324SOL    HW119871   4.303   0.764   5.692
 6324SOL    HW219872   4.304   0.855   5.827
 6325SOL     OW19873   1.577   2.928   1.965
 6325SOL    HW119874   1.582   2.866   2.044
 6325SOL    HW219875   1.643   3.001   1.976
 6326SOL     OW19876   5.406   5.803   0.781
 6326SOL    HW119877   5.436   5.744   0.856
 6326SOL    HW219878   5.464   5.885   0.777
 6327SOL     OW19879   6.700   6.465   5.272
 6327SOL    HW119880   6.678   6.463   5.369
 6327SOL    HW219881   6.633   6.521   5.224
 6328SOL     OW19882   2.038   4.015   6.678
 6328SOL    HW119883   1.955   4.020   6.734
 6328SOL    HW219884   2.086   3.930   6.698
 6329SOL     OW19885   0.957   1.461   3.774
 6329SOL    HW119886   0.935   1.537   3.713
 6329SOL    HW219887   0.877   1.402   3.783
 6330SOL     OW19888   4.853   0.799   0.731
 6330SOL    HW119889   4.806   0.874   0.777
 6330SOL    HW219890   4.932   0.834   0.681
 6331SOL     OW19891   6.579   2.480   0.738
 6331SOL    HW119892   6.614   2.556   0.793
 6331SOL    HW219893   6.521   2.422   0.796
 6332SOL     OW19894   5.925   5.236   1.563
 6332SOL    HW119895   5.914   5.142   1.598
 6332SOL    HW219896   6.009   5.275   1.600
 6333SOL     OW19897   3.712   5.342   3.364
 6333SOL    HW119898   3.661   5.299   3.438
 6333SOL    HW219899   3.782   5.280   3.331
 6334SOL     OW19900   2.321   0.060   2.717
 6334SOL    HW119901   2.390   0.065   2.790
 6334SOL    HW219902   2.231   0.045   2.758
 6335SOL     OW19903   5.735   1.882   0.103
 6335SOL    HW119904   5.805   1.945   0.135
 6335SOL    HW219905   5.705   1.823   0.178
 6336SOL     OW19906   0.127   2.464   5.097
 6336SOL    HW119907   0.152   2.509   5.183
 6336SOL    HW219908   0.045   2.507   5.059
 6337SOL     OW19909   5.106   3.472   6.312
 6337SOL    HW119910   5.176   3.507   6.249
 6337SOL    HW219911   5.102   3.373   6.305
 6338SOL     OW19912   2.549   2.471   2.445
 6338SOL    HW119913   2.531   2.373   2.460
 6338SOL    HW219914   2.632   2.481   2.390
 6339SOL     OW19915   0.339   2.373   3.619
 6339SOL    HW119916   0.407   2.302   3.638
 6339SOL    HW219917   0.312   2.369   3.523
 6340SOL     OW19918   2.399   5.561   3.118
 6340SOL    HW119919   2.399   5.576   3.217
 6340SOL    HW219920   2.493   5.562   3.084
 6341SOL     OW19921   6.964   4.785   3.611
 6341SOL    HW119922   6.985   4.710   3.674
 6341SOL    HW219923   0.019   4.844   3.601
 6342SOL     OW19924   2.363   2.631   2.543
 6342SOL    HW119925   2.288   2.567   2.558
 6342SOL    HW219926   2.448   2.581   2.526
 6343SOL     OW19927   4.985   2.622   0.098
 6343SOL    HW119928   5.027   2.652   0.184
 6343SOL    HW219929   4.899   2.574   0.119
 6344SOL     OW19930   6.535   3.195   5.504
 6344SOL    HW119931   6.515   3.250   5.422
 6344SOL    HW219932   6.627   3.217   5.537
 6345SOL     OW19933   4.501   1.406   2.508
 6345SOL    HW119934   4.510   1.411   2.409
 6345SOL    HW219935   4.530   1.493   2.549
 6346SOL     OW19936   6.441   3.411   3.346
 6346SOL    HW119937   6.535   3.445   3.352
 6346SOL    HW219938   6.420   3.355   3.426
 6347SOL     OW19939   3.067   0.237   1.228
 6347SOL    HW119940   3.075   0.274   1.321
 6347SOL    HW219941   2.980   0.265   1.189
 6348SOL     OW19942   0.628   3.888   4.757
 6348SOL    HW119943   0.539   3.930   4.774
 6348SOL    HW219944   0.691   3.957   4.721
 6349SOL     OW19945   2.821   1.169   1.983
 6349SOL    HW119946   2.899   1.228   2.007
 6349SOL    HW219947   2.814   1.163   1.883
 6350SOL     OW19948   1.623   5.111   3.734
 6350SOL    HW119949   1.672   5.043   3.679
 6350SOL    HW219950   1.688   5.177   3.771
 6351SOL     OW19951   6.492   2.701   2.450
 6351SOL    HW119952   6.478   2.788   2.402
 6351SOL    HW219953   6.446   2.705   2.539
 6352SOL     OW19954   1.306   5.180   3.372
 6352SOL    HW119955   1.309   5.093   3.323
 6352SOL    HW219956   1.351   5.251   3.317
 6353SOL     OW19957   6.627   0.595   6.397
 6353SOL    HW119958   6.652   0.531   6.470
 6353SOL    HW219959   6.710   0.635   6.358
 6354SOL     OW19960   1.007   6.375   2.744
 6354SOL    HW119961   1.056   6.288   2.733
 6354SOL    HW219962   1.060   6.435   2.804
 6355SOL     OW19963   0.383   4.004   4.809
 6355SOL    HW119964   0.328   4.021   4.891
 6355SOL    HW219965   0.323   3.994   4.730
 6356SOL     OW19966   5.173   4.909   2.217
 6356SOL    HW119967   5.091   4.887   2.270
 6356SOL    HW219968   5.152   4.906   2.119
 6357SOL     OW19969   4.414   2.576   0.443
 6357SOL    HW119970   4.492   2.516   0.428
 6357SOL    HW219971   4.441   2.671   0.432
 6358SOL     OW19972   6.756   2.321   4.444
 6358SOL    HW119973   6.742   2.294   4.539
 6358SOL    HW219974   6.844   2.368   4.435
 6359SOL     OW19975   6.814   0.114   5.067
 6359SOL    HW119976   6.755   0.193   5.081
 6359SOL    HW219977   6.764   0.044   5.016
 6360SOL     OW19978   2.667   4.633   3.914
 6360SOL    HW119979   2.707   4.724   3.905
 6360SOL    HW219980   2.635   4.620   4.008
 6361SOL     OW19981   4.826   6.172   6.555
 6361SOL    HW119982   4.777   6.085   6.560
 6361SOL    HW219983   4.924   6.155   6.549
 6362SOL     OW19984   6.118   4.862   6.767
 6362SOL    HW119985   6.161   4.952   6.752
 6362SOL    HW219986   6.039   4.873   6.827
 6363SOL     OW19987   2.114   5.808   3.809
 6363SOL    HW119988   2.193   5.865   3.831
 6363SOL    HW219989   2.035   5.840   3.861
 6364SOL     OW19990   2.921   1.984   5.694
 6364SOL    HW119991   3.005   1.949   5.736
 6364SOL    HW219992   2.944   2.050   5.623
 6365SOL     OW19993   4.499   0.028   4.126
 6365SOL    HW119994   4.548   0.039   4.039
 6365SOL    HW219995   4.562   7.020   4.196
 6366SOL     OW19996   0.792   5.586   5.181
 6366SOL    HW119997   0.831   5.498   5.206
 6366SOL    HW219998   0.788   5.645   5.261
 6367SOL     OW19999   5.151   0.799   3.806
 6367SOL    HW120000   5.117   0.864   3.738
 6367SOL    HW220001   5.118   0.825   3.897
 6368SOL     OW20002   3.265   6.957   4.148
 6368SOL    HW120003   3.219   7.008   4.076
 6368SOL    HW220004   3.363   6.959   4.134
 6369SOL     OW20005   2.923   5.367   4.248
 6369SOL    HW120006   3.018   5.375   4.217
 6369SOL    HW220007   2.904   5.272   4.274
 6370SOL     OW20008   0.642   2.545   2.067
 6370SOL    HW120009   0.678   2.621   2.122
 6370SOL    HW220010   0.548   2.526   2.095
 6371SOL     OW20011   4.877   2.803   3.072
 6371SOL    HW120012   4.861   2.879   3.135
 6371SOL    HW220013   4.790   2.775   3.031
 6372SOL     OW20014   3.171   6.596   1.727
 6372SOL    HW120015   3.190   6.532   1.802
 6372SOL    HW220016   3.080   6.578   1.691
 6373SOL     OW20017   6.159   4.088   5.112
 6373SOL    HW120018   6.100   4.068   5.191
 6373SOL    HW220019   6.207   4.174   5.128
 6374SOL     OW20020   3.526   3.473   3.348
 6374SOL    HW120021   3.454   3.420   3.393
 6374SOL    HW220022   3.484   3.542   3.289
 6375SOL     OW20023   0.936   1.072   3.119
 6375SOL    HW120024   1.035   1.073   3.124
 6375SOL    HW220025   0.906   1.118   3.035
 6376SOL     OW20026   0.199   1.445   5.199
 6376SOL    HW120027   0.228   1.426   5.105
 6376SOL    HW220028   0.213   1.543   5.218
 6377SOL     OW20029   6.668   0.606   5.587
 6377SOL    HW120030   6.568   0.600   5.589
 6377SOL    HW220031   6.703   0.558   5.507
 6378SOL     OW20032   4.892   4.491   3.380
 6378SOL    HW120033   4.868   4.534   3.293
 6378SOL    HW220034   4.823   4.515   3.448
 6379SOL     OW20035   1.926   4.988   4.407
 6379SOL    HW120036   1.871   4.904   4.404
 6379SOL    HW220037   1.988   4.984   4.485
 6380SOL     OW20038   1.113   1.216   5.346
 6380SOL    HW120039   1.095   1.284   5.417
 6380SOL    HW220040   1.028   1.191   5.302
 6381SOL     OW20041   2.894   3.482   2.231
 6381SOL    HW120042   2.936   3.572   2.231
 6381SOL    HW220043   2.850   3.465   2.143
 6382SOL     OW20044   1.422   2.660   6.563
 6382SOL    HW120045   1.487   2.669   6.488
 6382SOL    HW220046   1.335   2.704   6.538
 6383SOL     OW20047   1.966   2.101   3.926
 6383SOL    HW120048   1.950   2.187   3.975
 6383SOL    HW220049   1.956   2.117   3.828
 6384SOL     OW20050   6.270   4.844   1.658
 6384SOL    HW120051   6.284   4.888   1.747
 6384SOL    HW220052   6.335   4.882   1.592
 6385SOL     OW20053   5.999   4.797   4.053
 6385SOL    HW120054   5.976   4.838   4.142
 6385SOL    HW220055   6.048   4.711   4.068
 6386SOL     OW20056   2.563   5.061   0.766
 6386SOL    HW120057   2.552   5.122   0.845
 6386SOL    HW220058   2.613   4.979   0.793
 6387SOL     OW20059   0.777   2.209   6.366
 6387SOL    HW120060   0.725   2.152   6.302
 6387SOL    HW220061   0.821   2.284   6.317
 6388SOL     OW20062   3.838   4.733   1.214
 6388SOL    HW120063   3.919   4.707   1.162
 6388SOL    HW220064   3.762   4.673   1.190
 6389SOL     OW20065   0.628   6.373   2.589
 6389SOL    HW120066   0.692   6.437   2.547
 6389SOL    HW220067   0.649   6.363   2.686
 6390SOL     OW20068   0.046   2.572   3.177
 6390SOL    HW120069   0.140   2.571   3.144
 6390SOL    HW220070   0.035   2.644   3.245
 6391SOL     OW20071   3.223   1.064   0.348
 6391SOL    HW120072   3.145   1.089   0.405
 6391SOL    HW220073   3.190   1.030   0.260
 6392SOL     OW20074   2.014   6.493   4.010
 6392SOL    HW120075   2.005   6.446   4.098
 6392SOL    HW220076   2.013   6.426   3.936
 6393SOL     OW20077   5.800   6.733   1.603
 6393SOL    HW120078   5.708   6.762   1.578
 6393SOL    HW220079   5.795   6.645   1.650
 6394SOL     OW20080   2.548   5.024   1.201
 6394SOL    HW120081   2.532   5.078   1.118
 6394SOL    HW220082   2.576   5.085   1.275
 6395SOL     OW20083   6.106   1.527   1.304
 6395SOL    HW120084   6.109   1.557   1.209
 6395SOL    HW220085   6.025   1.470   1.319
 6396SOL     OW20086   5.363   2.925   6.241
 6396SOL    HW120087   5.403   2.884   6.323
 6396SOL    HW220088   5.266   2.903   6.236
 6397SOL     OW20089   6.826   1.811   6.646
 6397SOL    HW120090   6.868   1.878   6.706
 6397SOL    HW220091   6.777   1.743   6.701
 6398SOL     OW20092   3.495   1.014   1.834
 6398SOL    HW120093   3.495   1.106   1.874
 6398SOL    HW220094   3.548   0.953   1.892
 6399SOL     OW20095   1.677   5.670   6.791
 6399SOL    HW120096   1.640   5.655   6.699
 6399SOL    HW220097   1.749   5.603   6.809
 6400SOL     OW20098   2.348   5.815   3.066
 6400SOL    HW120099   2.366   5.805   2.968
 6400SOL    HW220100   2.356   5.725   3.110
 6401SOL     OW20101   0.321   4.616   3.825
 6401SOL    HW120102   0.359   4.699   3.783
 6401SOL    HW220103   0.295   4.551   3.754
 6402SOL     OW20104   2.538   0.742   2.663
 6402SOL    HW120105   2.498   0.800   2.591
 6402SOL    HW220106   2.575   0.659   2.622
 6403SOL     OW20107   0.668   5.679   6.695
 6403SOL    HW120108   0.585   5.684   6.751
 6403SOL    HW220109   0.749   5.685   6.754
 6404SOL     OW20110   4.140   1.693   3.420
 6404SOL    HW120111   4.161   1.789   3.436
 6404SOL    HW220112   4.171   1.666   3.329
 6405SOL     OW20113   1.867   1.868   2.907
 6405SOL    HW120114   1.900   1.774   2.918
 6405SOL    HW220115   1.841   1.905   2.997
 6406SOL     OW20116   1.511   1.321   3.351
 6406SOL    HW120117   1.589   1.280   3.304
 6406SOL    HW220118   1.540   1.405   3.396
 6407SOL     OW20119   3.190   6.707   4.243
 6407SOL    HW120120   3.231   6.686   4.154
 6407SOL    HW220121   3.211   6.801   4.267
 6408SOL     OW20122   6.054   2.492   6.941
 6408SOL    HW120123   6.028   2.402   6.907
 6408SOL    HW220124   6.153   2.495   6.956
 6409SOL     OW20125   6.473   4.223   2.749
 6409SOL    HW120126   6.384   4.236   2.706
 6409SOL    HW220127   6.495   4.125   2.752
 6410SOL     OW20128   2.366   1.686   0.823
 6410SOL    HW120129   2.402   1.709   0.913
 6410SOL    HW220130   2.276   1.644   0.833
 6411SOL     OW20131   0.858   2.327   3.355
 6411SOL    HW120132   0.849   2.235   3.317
 6411SOL    HW220133   0.824   2.327   3.449
 6412SOL     OW20134   6.782   3.274   5.614
 6412SOL    HW120135   6.849   3.324   5.559
 6412SOL    HW220136   6.744   3.335   5.683
 6413SOL     OW20137   5.949   4.769   1.935
 6413SOL    HW120138   6.002   4.684   1.938
 6413SOL    HW220139   5.851   4.747   1.936
 6414SOL     OW20140   5.696   0.994   1.801
 6414SOL    HW120141   5.771   1.038   1.851
 6414SOL    HW220142   5.692   0.897   1.826
 6415SOL     OW20143   2.838   2.320   2.923
 6415SOL    HW120144   2.783   2.357   2.847
 6415SOL    HW220145   2.902   2.253   2.888
 6416SOL     OW20146   0.970   0.677   6.347
 6416SOL    HW120147   0.921   0.635   6.423
 6416SOL    HW220148   1.068   0.656   6.354
 6417SOL     OW20149   0.701   6.039   3.342
 6417SOL    HW120150   0.751   6.116   3.303
 6417SOL    HW220151   0.707   6.042   3.442
 6418SOL     OW20152   6.537   5.227   2.503
 6418SOL    HW120153   6.498   5.296   2.442
 6418SOL    HW220154   6.624   5.195   2.465
 6419SOL     OW20155   3.236   5.444   1.818
 6419SOL    HW120156   3.216   5.414   1.911
 6419SOL    HW220157   3.175   5.396   1.754
 6420SOL     OW20158   3.065   3.390   6.028
 6420SOL    HW120159   3.032   3.322   5.963
 6420SOL    HW220160   3.081   3.477   5.981
 6421SOL     OW20161   6.301   1.355   1.253
 6421SOL    HW120162   6.343   1.301   1.327
 6421SOL    HW220163   6.227   1.410   1.291
 6422SOL     OW20164   6.818   0.250   3.519
 6422SOL    HW120165   6.834   0.334   3.466
 6422SOL    HW220166   6.742   0.266   3.583
 6423SOL     OW20167   4.933   3.820   1.506
 6423SOL    HW120168   4.946   3.765   1.423
 6423SOL    HW220169   4.898   3.910   1.481
 6424SOL     OW20170   6.646   3.990   6.039
 6424SOL    HW120171   6.563   4.023   5.993
 6424SOL    HW220172   6.716   3.970   5.971
 6425SOL     OW20173   6.924   4.646   3.367
 6425SOL    HW120174   6.911   4.561   3.418
 6425SOL    HW220175   6.960   4.716   3.429
 6426SOL     OW20176   1.203   3.045   4.264
 6426SOL    HW120177   1.210   3.079   4.357
 6426SOL    HW220178   1.165   2.952   4.265
 6427SOL     OW20179   1.451   3.752   6.828
 6427SOL    HW120180   1.471   3.663   6.787
 6427SOL    HW220181   1.356   3.754   6.858
 6428SOL     OW20182   6.516   3.605   1.401
 6428SOL    HW120183   6.563   3.517   1.388
 6428SOL    HW220184   6.584   3.678   1.413
 6429SOL     OW20185   1.635   0.735   4.614
 6429SOL    HW120186   1.612   0.639   4.599
 6429SOL    HW220187   1.552   0.785   4.640
 6430SOL     OW20188   4.516   0.778   1.958
 6430SOL    HW120189   4.539   0.856   2.016
 6430SOL    HW220190   4.417   0.764   1.959
 6431SOL     OW20191   5.499   6.984   3.779
 6431SOL    HW120192   5.495   0.047   3.827
 6431SOL    HW220193   5.520   6.911   3.845
 6432SOL     OW20194   4.490   4.198   0.271
 6432SOL    HW120195   4.422   4.270   0.256
 6432SOL    HW220196   4.525   4.168   0.182
 6433SOL     OW20197   3.119   4.800   1.163
 6433SOL    HW120198   3.109   4.826   1.067
 6433SOL    HW220199   3.128   4.700   1.170
 6434SOL     OW20200   1.469   3.595   1.000
 6434SOL    HW120201   1.564   3.576   0.977
 6434SOL    HW220202   1.446   3.688   0.971
 6435SOL     OW20203   3.654   5.315   0.272
 6435SOL    HW120204   3.604   5.388   0.319
 6435SOL    HW220205   3.705   5.353   0.195
 6436SOL     OW20206   1.779   2.802   3.609
 6436SOL    HW120207   1.831   2.722   3.639
 6436SOL    HW220208   1.701   2.772   3.553
 6437SOL     OW20209   1.724   1.551   0.264
 6437SOL    HW120210   1.670   1.629   0.296
 6437SOL    HW220211   1.679   1.466   0.292
 6438SOL     OW20212   0.373   4.311   5.326
 6438SOL    HW120213   0.393   4.332   5.422
 6438SOL    HW220214   0.381   4.213   5.310
 6439SOL     OW20215   0.785   6.587   0.679
 6439SOL    HW120216   0.753   6.679   0.656
 6439SOL    HW220217   0.719   6.543   0.740
 6440SOL     OW20218   2.418   2.134   1.824
 6440SOL    HW120219   2.394   2.100   1.733
 6440SOL    HW220220   2.362   2.214   1.845
 6441SOL     OW20221   1.615   0.427   2.464
 6441SOL    HW120222   1.642   0.465   2.375
 6441SOL    HW220223   1.665   0.342   2.480
 6442SOL     OW20224   2.608   1.742   4.247
 6442SOL    HW120225   2.574   1.649   4.241
 6442SOL    HW220226   2.583   1.782   4.335
 6443SOL     OW20227   3.306   3.098   0.461
 6443SOL    HW120228   3.319   3.097   0.560
 6443SOL    HW220229   3.392   3.122   0.417
 6444SOL     OW20230   0.303   2.382   3.346
 6444SOL    HW120231   0.337   2.470   3.311
 6444SOL    HW220232   0.296   2.317   3.270
 6445SOL     OW20233   4.336   2.309   5.262
 6445SOL    HW120234   4.256   2.350   5.218
 6445SOL    HW220235   4.312   2.281   5.355
 6446SOL     OW20236   0.276   1.213   5.861
 6446SOL    HW120237   0.324   1.131   5.891
 6446SOL    HW220238   0.300   1.289   5.921
 6447SOL     OW20239   0.660   6.146   2.445
 6447SOL    HW120240   0.754   6.128   2.416
 6447SOL    HW220241   0.656   6.235   2.492
 6448SOL     OW20242   6.238   4.185   2.322
 6448SOL    HW120243   6.170   4.250   2.356
 6448SOL    HW220244   6.328   4.229   2.320
 6449SOL     OW20245   3.831   4.159   1.754
 6449SOL    HW120246   3.886   4.242   1.743
 6449SOL    HW220247   3.815   4.118   1.664
 6450SOL     OW20248   6.385   2.868   1.727
 6450SOL    HW120249   6.448   2.908   1.793
 6450SOL    HW220250   6.326   2.802   1.774
 6451SOL     OW20251   3.404   6.345   5.618
 6451SOL    HW120252   3.374   6.385   5.704
 6451SOL    HW220253   3.417   6.246   5.630
 6452SOL     OW20254   3.720   0.148   4.737
 6452SOL    HW120255   3.722   0.138   4.837
 6452SOL    HW220256   3.746   0.242   4.713
 6453SOL     OW20257   1.216   6.773   0.286
 6453SOL    HW120258   1.150   6.802   0.218
 6453SOL    HW220259   1.294   6.729   0.240
 6454SOL     OW20260   2.661   1.478   3.979
 6454SOL    HW120261   2.711   1.564   3.984
 6454SOL    HW220262   2.588   1.477   4.048
 6455SOL     OW20263   0.687   2.633   4.665
 6455SOL    HW120264   0.741   2.555   4.632
 6455SOL    HW220265   0.718   2.658   4.756
 6456SOL     OW20266   1.631   0.112   3.462
 6456SOL    HW120267   1.625   0.062   3.376
 6456SOL    HW220268   1.712   0.170   3.461
 6457SOL     OW20269   5.748   1.608   1.434
 6457SOL    HW120270   5.801   1.686   1.468
 6457SOL    HW220271   5.715   1.627   1.341
 6458SOL     OW20272   0.740   6.370   2.860
 6458SOL    HW120273   0.742   6.282   2.907
 6458SOL    HW220274   0.822   6.380   2.803
 6459SOL     OW20275   5.672   5.553   0.527
 6459SOL    HW120276   5.639   5.647   0.529
 6459SOL    HW220277   5.647   5.507   0.612
 6460SOL     OW20278   4.624   4.698   0.128
 6460SOL    HW120279   4.560   4.627   0.101
 6460SOL    HW220280   4.681   4.664   0.203
 6461SOL     OW20281   3.127   5.789   5.203
 6461SOL    HW120282   3.174   5.861   5.254
 6461SOL    HW220283   3.056   5.748   5.261
 6462SOL     OW20284   2.170   3.382   5.137
 6462SOL    HW120285   2.218   3.317   5.078
 6462SOL    HW220286   2.236   3.424   5.200
 6463SOL     OW20287   2.781   4.855   6.347
 6463SOL    HW120288   2.807   4.895   6.259
 6463SOL    HW220289   2.722   4.919   6.397
 6464SOL     OW20290   0.899   4.617   3.972
 6464SOL    HW120291   0.951   4.534   3.994
 6464SOL    HW220292   0.806   4.592   3.947
 6465SOL     OW20293   6.020   2.053   3.910
 6465SOL    HW120294   6.075   2.017   3.985
 6465SOL    HW220295   6.069   2.040   3.824
 6466SOL     OW20296   6.524   2.584   5.099
 6466SOL    HW120297   6.514   2.485   5.088
 6466SOL    HW220298   6.600   2.604   5.161
 6467SOL     OW20299   2.358   1.353   6.289
 6467SOL    HW120300   2.335   1.446   6.318
 6467SOL    HW220301   2.274   1.304   6.266
 6468SOL     OW20302   3.973   6.072   1.570
 6468SOL    HW120303   3.928   5.984   1.587
 6468SOL    HW220304   4.070   6.064   1.591
 6469SOL     OW20305   5.985   1.081   5.285
 6469SOL    HW120306   5.956   1.176   5.273
 6469SOL    HW220307   5.942   1.024   5.216
 6470SOL     OW20308   6.631   5.409   6.327
 6470SOL    HW120309   6.726   5.437   6.313
 6470SOL    HW220310   6.629   5.310   6.346
 6471SOL     OW20311   6.868   5.308   6.573
 6471SOL    HW120312   6.846   5.363   6.654
 6471SOL    HW220313   6.962   5.274   6.581
 6472SOL     OW20314   0.763   5.857   1.337
 6472SOL    HW120315   0.749   5.892   1.244
 6472SOL    HW220316   0.734   5.926   1.403
 6473SOL     OW20317   2.262   1.333   5.841
 6473SOL    HW120318   2.313   1.251   5.815
 6473SOL    HW220319   2.311   1.414   5.808
 6474SOL     OW20320   1.651   3.902   5.847
 6474SOL    HW120321   1.605   3.925   5.933
 6474SOL    HW220322   1.601   3.944   5.771
 6475SOL     OW20323   5.962   6.001   4.269
 6475SOL    HW120324   5.951   6.019   4.171
 6475SOL    HW220325   5.969   6.087   4.318
 6476SOL     OW20326   4.852   4.397   2.377
 6476SOL    HW120327   4.832   4.337   2.300
 6476SOL    HW220328   4.767   4.422   2.423
 6477SOL     OW20329   6.358   5.048   6.908
 6477SOL    HW120330   6.312   5.013   6.990
 6477SOL    HW220331   6.376   5.146   6.920
 6478SOL     OW20332   3.518   6.093   2.156
 6478SOL    HW120333   3.497   6.178   2.203
 6478SOL    HW220334   3.580   6.038   2.212
 6479SOL     OW20335   4.315   4.933   2.004
 6479SOL    HW120336   4.329   4.873   1.925
 6479SOL    HW220337   4.296   4.877   2.085
 6480SOL     OW20338   3.937   2.856   5.964
 6480SOL    HW120339   3.953   2.930   6.029
 6480SOL    HW220340   3.938   2.769   6.012
 6481SOL     OW20341   3.411   2.233   1.425
 6481SOL    HW120342   3.331   2.263   1.477
 6481SOL    HW220343   3.493   2.241   1.481
 6482SOL     OW20344   6.857   0.830   0.258
 6482SOL    HW120345   6.890   0.757   0.317
 6482SOL    HW220346   6.932   0.863   0.201
 6483SOL     OW20347   2.582   6.404   2.326
 6483SOL    HW120348   2.485   6.427   2.324
 6483SOL    HW220349   2.614   6.401   2.421
 6484SOL     OW20350   4.538   0.307   2.474
 6484SOL    HW120351   4.559   0.282   2.568
 6484SOL    HW220352   4.475   0.385   2.473
 6485SOL     OW20353   1.302   3.141   3.602
 6485SOL    HW120354   1.278   3.213   3.667
 6485SOL    HW220355   1.304   3.053   3.650
 6486SOL     OW20356   1.180   4.075   4.182
 6486SOL    HW120357   1.124   4.126   4.117
 6486SOL    HW220358   1.156   4.103   4.275
 6487SOL     OW20359   6.567   5.403   4.295
 6487SOL    HW120360   6.579   5.500   4.275
 6487SOL    HW220361   6.470   5.384   4.311
 6488SOL     OW20362   3.645   5.899   5.686
 6488SOL    HW120363   3.677   5.959   5.759
 6488SOL    HW220364   3.582   5.831   5.723
 6489SOL     OW20365   2.013   2.782   6.794
 6489SOL    HW120366   2.005   2.881   6.791
 6489SOL    HW220367   2.109   2.756   6.795
 6490SOL     OW20368   3.813   2.423   0.263
 6490SOL    HW120369   3.854   2.477   0.190
 6490SOL    HW220370   3.846   2.329   0.259
 6491SOL     OW20371   4.162   1.389   6.890
 6491SOL    HW120372   4.160   1.308   6.831
 6491SOL    HW220373   4.257   1.416   6.907
 6492SOL     OW20374   6.117   6.856   6.872
 6492SOL    HW120375   6.202   6.908   6.869
 6492SOL    HW220376   6.124   6.778   6.810
 6493SOL     OW20377   1.945   6.554   5.419
 6493SOL    HW120378   1.880   6.582   5.490
 6493SOL    HW220379   2.027   6.516   5.462
 6494SOL     OW20380   0.456   0.450   3.496
 6494SOL    HW120381   0.384   0.513   3.467
 6494SOL    HW220382   0.482   0.469   3.591
 6495SOL     OW20383   5.093   5.661   3.589
 6495SOL    HW120384   5.111   5.733   3.656
 6495SOL    HW220385   5.079   5.574   3.636
 6496SOL     OW20386   6.825   6.423   2.186
 6496SOL    HW120387   6.734   6.389   2.210
 6496SOL    HW220388   6.886   6.345   2.170
 6497SOL     OW20389   2.581   3.535   1.012
 6497SOL    HW120390   2.662   3.492   0.972
 6497SOL    HW220391   2.518   3.463   1.042
 6498SOL     OW20392   2.481   4.946   3.946
 6498SOL    HW120393   2.484   4.932   4.045
 6498SOL    HW220394   2.564   4.992   3.916
 6499SOL     OW20395   5.127   0.792   5.272
 6499SOL    HW120396   5.136   0.844   5.187
 6499SOL    HW220397   5.217   0.760   5.302
 6500SOL     OW20398   6.393   3.945   3.419
 6500SOL    HW120399   6.391   3.850   3.385
 6500SOL    HW220400   6.376   3.945   3.517
 6501SOL     OW20401   6.606   3.378   1.169
 6501SOL    HW120402   6.693   3.388   1.217
 6501SOL    HW220403   6.581   3.466   1.127
 6502SOL     OW20404   0.424   4.180   3.689
 6502SOL    HW120405   0.438   4.197   3.787
 6502SOL    HW220406   0.326   4.185   3.669
 6503SOL     OW20407   5.756   6.473   3.713
 6503SOL    HW120408   5.681   6.538   3.703
 6503SOL    HW220409   5.843   6.520   3.707
 6504SOL     OW20410   4.138   6.898   6.420
 6504SOL    HW120411   4.194   6.935   6.346
 6504SOL    HW220412   4.084   6.822   6.386
 6505SOL     OW20413   6.293   4.451   1.032
 6505SOL    HW120414   6.305   4.549   1.050
 6505SOL    HW220415   6.320   4.431   0.938
 6506SOL     OW20416   0.964   3.289   1.056
 6506SOL    HW120417   0.973   3.261   0.960
 6506SOL    HW220418   0.919   3.216   1.108
 6507SOL     OW20419   1.482   5.643   0.707
 6507SOL    HW120420   1.556   5.648   0.640
 6507SOL    HW220421   1.400   5.605   0.664
 6508SOL     OW20422   1.987   1.843   3.715
 6508SOL    HW120423   1.929   1.921   3.692
 6508SOL    HW220424   2.066   1.874   3.768
 6509SOL     OW20425   1.251   2.525   5.046
 6509SOL    HW120426   1.344   2.550   5.077
 6509SOL    HW220427   1.195   2.504   5.126
 6510SOL     OW20428   0.087   5.186   6.287
 6510SOL    HW120429   0.034   5.270   6.277
 6510SOL    HW220430   0.042   5.112   6.236
 6511SOL     OW20431   6.088   0.351   5.360
 6511SOL    HW120432   6.158   0.347   5.288
 6511SOL    HW220433   6.128   0.389   5.443
 6512SOL     OW20434   4.865   6.717   2.934
 6512SOL    HW120435   4.809   6.636   2.952
 6512SOL    HW220436   4.860   6.741   2.837
 6513SOL     OW20437   3.476   6.548   4.240
 6513SOL    HW120438   3.573   6.544   4.218
 6513SOL    HW220439   3.422   6.538   4.156
 6514SOL     OW20440   4.890   6.947   4.093
 6514SOL    HW120441   4.860   6.972   4.185
 6514SOL    HW220442   4.850   7.010   4.027
 6515SOL     OW20443   6.592   5.385   4.006
 6515SOL    HW120444   6.630   5.306   3.958
 6515SOL    HW220445   6.588   5.366   4.104
 6516SOL     OW20446   0.364   1.592   6.761
 6516SOL    HW120447   0.445   1.575   6.706
 6516SOL    HW220448   0.389   1.648   6.841
 6517SOL     OW20449   6.925   1.680   0.535
 6517SOL    HW120450   6.910   1.593   0.488
 6517SOL    HW220451   6.987   1.737   0.480
 6518SOL     OW20452   0.841   6.153   0.214
 6518SOL    HW120453   0.786   6.083   0.168
 6518SOL    HW220454   0.795   6.242   0.205
 6519SOL     OW20455   2.637   1.917   4.045
 6519SOL    HW120456   2.641   1.842   4.111
 6519SOL    HW220457   2.577   1.892   3.969
 6520SOL     OW20458   6.376   5.702   2.809
 6520SOL    HW120459   6.345   5.787   2.767
 6520SOL    HW220460   6.424   5.647   2.741
 6521SOL     OW20461   1.246   0.957   4.368
 6521SOL    HW120462   1.250   0.967   4.269
 6521SOL    HW220463   1.326   1.001   4.409
 6522SOL     OW20464   2.430   5.281   6.603
 6522SOL    HW120465   2.497   5.347   6.570
 6522SOL    HW220466   2.476   5.195   6.625
 6523SOL     OW20467   2.876   1.449   6.287
 6523SOL    HW120468   2.781   1.454   6.319
 6523SOL    HW220469   2.903   1.536   6.246
 6524SOL     OW20470   3.837   3.636   3.744
 6524SOL    HW120471   3.833   3.688   3.658
 6524SOL    HW220472   3.932   3.627   3.773
 6525SOL     OW20473   1.041   2.473   2.709
 6525SOL    HW120474   1.122   2.419   2.732
 6525SOL    HW220475   1.045   2.502   2.614
 6526SOL     OW20476   1.197   6.784   4.999
 6526SOL    HW120477   1.225   6.697   5.040
 6526SOL    HW220478   1.125   6.826   5.054
 6527SOL     OW20479   1.422   1.063   4.915
 6527SOL    HW120480   1.386   1.127   4.983
 6527SOL    HW220481   1.490   1.110   4.858
 6528SOL     OW20482   0.129   0.608   4.185
 6528SOL    HW120483   0.122   0.682   4.251
 6528SOL    HW220484   0.158   0.644   4.096
 6529SOL     OW20485   5.466   1.933   3.040
 6529SOL    HW120486   5.489   1.837   3.053
 6529SOL    HW220487   5.400   1.942   2.964
 6530SOL     OW20488   6.347   2.863   0.616
 6530SOL    HW120489   6.350   2.763   0.619
 6530SOL    HW220490   6.381   2.900   0.702
 6531SOL     OW20491   5.599   2.325   3.839
 6531SOL    HW120492   5.684   2.275   3.852
 6531SOL    HW220493   5.591   2.396   3.909
 6532SOL     OW20494   6.666   1.885   6.906
 6532SOL    HW120495   6.753   1.931   6.921
 6532SOL    HW220496   6.605   1.944   6.854
 6533SOL     OW20497   5.776   6.472   0.994
 6533SOL    HW120498   5.744   6.467   1.088
 6533SOL    HW220499   5.702   6.446   0.932
 6534SOL     OW20500   2.534   4.002   1.047
 6534SOL    HW120501   2.457   3.952   1.006
 6534SOL    HW220502   2.617   3.946   1.040
 6535SOL     OW20503   0.211   2.901   5.167
 6535SOL    HW120504   0.192   2.986   5.118
 6535SOL    HW220505   0.144   2.831   5.140
 6536SOL     OW20506   6.229   2.195   6.503
 6536SOL    HW120507   6.193   2.104   6.482
 6536SOL    HW220508   6.153   2.259   6.517
 6537SOL     OW20509   6.570   6.703   6.631
 6537SOL    HW120510   6.609   6.684   6.541
 6537SOL    HW220511   6.638   6.683   6.701
 6538SOL     OW20512   3.681   3.760   0.279
 6538SOL    HW120513   3.750   3.779   0.348
 6538SOL    HW220514   3.650   3.665   0.288
 6539SOL     OW20515   2.410   2.038   6.739
 6539SOL    HW120516   2.313   2.046   6.762
 6539SOL    HW220517   2.438   1.943   6.749
 6540SOL     OW20518   3.722   1.691   4.355
 6540SOL    HW120519   3.654   1.737   4.413
 6540SOL    HW220520   3.751   1.753   4.283
 6541SOL     OW20521   2.962   2.271   5.267
 6541SOL    HW120522   2.892   2.293   5.199
 6541SOL    HW220523   3.052   2.291   5.228
 6542SOL     OW20524   6.282   5.197   3.316
 6542SOL    HW120525   6.196   5.152   3.290
 6542SOL    HW220526   6.353   5.128   3.328
 6543SOL     OW20527   6.117   5.313   6.883
 6543SOL    HW120528   6.043   5.291   6.819
 6543SOL    HW220529   6.080   5.324   6.975
 6544SOL     OW20530   0.077   6.319   4.281
 6544SOL    HW120531   0.075   6.375   4.198
 6544SOL    HW220532   7.017   6.334   4.333
 6545SOL     OW20533   5.222   1.232   6.079
 6545SOL    HW120534   5.139   1.271   6.120
 6545SOL    HW220535   5.202   1.200   5.987
 6546SOL     OW20536   4.278   4.213   6.163
 6546SOL    HW120537   4.200   4.272   6.142
 6546SOL    HW220538   4.283   4.198   6.262
 6547SOL     OW20539   4.381   1.994   6.040
 6547SOL    HW120540   4.350   2.029   6.129
 6547SOL    HW220541   4.321   2.028   5.968
 6548SOL     OW20542   0.388   4.577   6.042
 6548SOL    HW120543   0.403   4.673   6.064
 6548SOL    HW220544   0.310   4.569   5.980
 6549SOL     OW20545   4.045   1.910   1.270
 6549SOL    HW120546   4.037   1.811   1.265
 6549SOL    HW220547   3.963   1.953   1.233
 6550SOL     OW20548   0.457   5.621   3.555
 6550SOL    HW120549   0.505   5.587   3.474
 6550SOL    HW220550   0.406   5.703   3.531
 6551SOL     OW20551   2.423   4.406   1.715
 6551SOL    HW120552   2.523   4.409   1.705
 6551SOL    HW220553   2.400   4.370   1.805
 6552SOL     OW20554   2.555   5.599   5.644
 6552SOL    HW120555   2.583   5.666   5.713
 6552SOL    HW220556   2.633   5.543   5.619
 6553SOL     OW20557   0.398   3.038   1.454
 6553SOL    HW120558   0.479   3.017   1.508
 6553SOL    HW220559   0.404   2.990   1.366
 6554SOL     OW20560   6.022   1.525   5.958
 6554SOL    HW120561   5.952   1.513   6.029
 6554SOL    HW220562   5.986   1.497   5.870
 6555SOL     OW20563   1.675   0.524   2.218
 6555SOL    HW120564   1.643   0.478   2.136
 6555SOL    HW220565   1.711   0.614   2.194
 6556SOL     OW20566   4.685   4.776   5.003
 6556SOL    HW120567   4.641   4.865   5.015
 6556SOL    HW220568   4.775   4.788   4.960
 6557SOL     OW20569   5.985   5.799   0.618
 6557SOL    HW120570   5.905   5.811   0.560
 6557SOL    HW220571   6.055   5.746   0.569
 6558SOL     OW20572   6.359   5.826   0.705
 6558SOL    HW120573   6.284   5.883   0.737
 6558SOL    HW220574   6.398   5.775   0.782
 6559SOL     OW20575   4.755   3.553   0.904
 6559SOL    HW120576   4.822   3.531   0.975
 6559SOL    HW220577   4.714   3.642   0.922
 6560SOL     OW20578   3.815   2.979   1.185
 6560SOL    HW120579   3.754   3.050   1.150
 6560SOL    HW220580   3.910   3.006   1.168
 6561SOL     OW20581   4.043   3.705   2.457
 6561SOL    HW120582   4.135   3.743   2.466
 6561SOL    HW220583   3.979   3.762   2.508
 6562SOL     OW20584   6.773   4.545   6.063
 6562SOL    HW120585   6.776   4.569   6.160
 6562SOL    HW220586   6.679   4.530   6.035
 6563SOL     OW20587   0.318   5.804   0.027
 6563SOL    HW120588   0.276   5.885   7.010
 6563SOL    HW220589   0.394   5.831   0.085
 6564SOL     OW20590   0.988   3.464   2.317
 6564SOL    HW120591   1.042   3.526   2.260
 6564SOL    HW220592   0.891   3.483   2.304
 6565SOL     OW20593   5.215   2.260   4.982
 6565SOL    HW120594   5.312   2.260   5.007
 6565SOL    HW220595   5.191   2.348   4.941
 6566SOL     OW20596   3.434   0.380   1.327
 6566SOL    HW120597   3.460   0.313   1.257
 6566SOL    HW220598   3.375   0.450   1.286
 6567SOL     OW20599   5.177   2.824   1.404
 6567SOL    HW120600   5.114   2.809   1.328
 6567SOL    HW220601   5.188   2.739   1.455
 6568SOL     OW20602   4.749   4.727   1.747
 6568SOL    HW120603   4.730   4.668   1.826
 6568SOL    HW220604   4.663   4.760   1.709
 6569SOL     OW20605   2.631   5.384   0.737
 6569SOL    HW120606   2.618   5.464   0.796
 6569SOL    HW220607   2.558   5.381   0.669
 6570SOL     OW20608   4.874   0.137   2.152
 6570SOL    HW120609   4.945   0.199   2.184
 6570SOL    HW220610   4.786   0.165   2.190
 6571SOL     OW20611   2.484   6.263   3.091
 6571SOL    HW120612   2.455   6.291   3.183
 6571SOL    HW220613   2.417   6.199   3.053
 6572SOL     OW20614   5.968   4.213   5.347
 6572SOL    HW120615   6.005   4.123   5.367
 6572SOL    HW220616   6.043   4.279   5.336
 6573SOL     OW20617   3.610   0.994   2.542
 6573SOL    HW120618   3.561   1.025   2.624
 6573SOL    HW220619   3.707   1.018   2.550
 6574SOL     OW20620   2.211   6.396   2.164
 6574SOL    HW120621   2.112   6.404   2.153
 6574SOL    HW220622   2.232   6.374   2.260
 6575SOL     OW20623   0.841   1.346   1.745
 6575SOL    HW120624   0.795   1.275   1.797
 6575SOL    HW220625   0.876   1.307   1.660
 6576SOL     OW20626   1.333   5.923   6.603
 6576SOL    HW120627   1.245   5.884   6.575
 6576SOL    HW220628   1.342   5.916   6.703
 6577SOL     OW20629   0.658   1.577   3.969
 6577SOL    HW120630   0.633   1.627   3.886
 6577SOL    HW220631   0.596   1.500   3.981
 6578SOL     OW20632   6.065   5.343   3.649
 6578SOL    HW120633   6.012   5.320   3.568
 6578SOL    HW220634   6.163   5.343   3.626
 6579SOL     OW20635   6.937   3.695   3.834
 6579SOL    HW120636   6.876   3.651   3.768
 6579SOL    HW220637   6.898   3.784   3.860
 6580SOL     OW20638   5.895   0.535   1.284
 6580SOL    HW120639   5.864   0.537   1.379
 6580SOL    HW220640   5.919   0.628   1.255
 6581SOL     OW20641   3.812   1.593   5.508
 6581SOL    HW120642   3.855   1.673   5.465
 6581SOL    HW220643   3.856   1.510   5.476
 6582SOL     OW20644   0.825   0.102   2.620
 6582SOL    HW120645   0.773   0.033   2.671
 6582SOL    HW220646   0.853   0.064   2.532
 6583SOL     OW20647   5.464   1.678   6.709
 6583SOL    HW120648   5.471   1.767   6.664
 6583SOL    HW220649   5.468   1.606   6.640
 6584SOL     OW20650   5.692   1.706   6.486
 6584SOL    HW120651   5.658   1.613   6.504
 6584SOL    HW220652   5.674   1.764   6.565
 6585SOL     OW20653   0.076   1.460   0.200
 6585SOL    HW120654   0.109   1.494   0.287
 6585SOL    HW220655   0.154   1.435   0.142
 6586SOL     OW20656   6.426   2.402   5.816
 6586SOL    HW120657   6.526   2.395   5.818
 6586SOL    HW220658   6.399   2.491   5.854
 6587SOL     OW20659   2.457   5.647   4.247
 6587SOL    HW120660   2.427   5.717   4.182
 6587SOL    HW220661   2.463   5.558   4.201
 6588SOL     OW20662   1.595   3.946   0.757
 6588SOL    HW120663   1.627   4.041   0.760
 6588SOL    HW220664   1.663   3.887   0.801
 6589SOL     OW20665   4.722   0.349   6.604
 6589SOL    HW120666   4.665   0.428   6.625
 6589SOL    HW220667   4.677   0.294   6.533
 6590SOL     OW20668   0.367   1.512   4.664
 6590SOL    HW120669   0.460   1.519   4.629
 6590SOL    HW220670   0.309   1.579   4.618
 6591SOL     OW20671   5.630   6.898   2.662
 6591SOL    HW120672   5.623   6.990   2.699
 6591SOL    HW220673   5.563   6.838   2.708
 6592SOL     OW20674   4.152   0.559   4.628
 6592SOL    HW120675   4.176   0.480   4.684
 6592SOL    HW220676   4.185   0.544   4.534
 6593SOL     OW20677   2.588   2.427   3.803
 6593SOL    HW120678   2.530   2.345   3.798
 6593SOL    HW220679   2.653   2.418   3.878
 6594SOL     OW20680   4.636   0.992   7.007
 6594SOL    HW120681   4.653   0.895   7.023
 6594SOL    HW220682   4.670   1.045   0.060
 6595SOL     OW20683   1.526   4.007   1.556
 6595SOL    HW120684   1.454   3.961   1.505
 6595SOL    HW220685   1.593   4.045   1.493
 6596SOL     OW20686   4.153   0.619   5.966
 6596SOL    HW120687   4.087   0.669   6.022
 6596SOL    HW220688   4.188   0.679   5.894
 6597SOL     OW20689   0.565   6.474   4.490
 6597SOL    HW120690   0.586   6.396   4.431
 6597SOL    HW220691   0.467   6.495   4.483
 6598SOL     OW20692   1.378   5.195   4.810
 6598SOL    HW120693   1.449   5.261   4.783
 6598SOL    HW220694   1.310   5.189   4.738
 6599SOL     OW20695   4.059   4.719   5.904
 6599SOL    HW120696   4.096   4.732   5.996
 6599SOL    HW220697   4.026   4.807   5.869
 6600SOL     OW20698   4.909   4.854   4.860
 6600SOL    HW120699   4.942   4.935   4.909
 6600SOL    HW220700   4.899   4.875   4.763
 6601SOL     OW20701   0.538   0.342   0.170
 6601SOL    HW120702   0.620   0.337   0.113
 6601SOL    HW220703   0.489   0.427   0.151
 6602SOL     OW20704   0.635   2.710   1.113
 6602SOL    HW120705   0.662   2.779   1.046
 6602SOL    HW220706   0.631   2.621   1.068
 6603SOL     OW20707   2.099   3.282   3.877
 6603SOL    HW120708   2.151   3.226   3.942
 6603SOL    HW220709   2.102   3.241   3.787
 6604SOL     OW20710   2.525   5.783   1.808
 6604SOL    HW120711   2.590   5.711   1.833
 6604SOL    HW220712   2.528   5.855   1.878
 6605SOL     OW20713   5.507   5.801   0.519
 6605SOL    HW120714   5.430   5.864   0.517
 6605SOL    HW220715   5.507   5.752   0.606
 6606SOL     OW20716   4.711   0.566   2.428
 6606SOL    HW120717   4.640   0.498   2.413
 6606SOL    HW220718   4.692   0.617   2.512
 6607SOL     OW20719   2.134   1.319   2.004
 6607SOL    HW120720   2.094   1.259   1.935
 6607SOL    HW220721   2.074   1.324   2.084
 6608SOL     OW20722   5.601   3.359   2.874
 6608SOL    HW120723   5.574   3.425   2.803
 6608SOL    HW220724   5.560   3.386   2.961
 6609SOL     OW20725   5.354   0.581   0.020
 6609SOL    HW120726   5.262   0.542   0.018
 6609SOL    HW220727   5.349   0.679   0.037
 6610SOL     OW20728   1.805   0.409   6.995
 6610SOL    HW120729   1.859   0.376   0.048
 6610SOL    HW220730   1.839   0.499   6.967
 6611SOL     OW20731   6.727   2.429   3.076
 6611SOL    HW120732   6.809   2.480   3.101
 6611SOL    HW220733   6.669   2.418   3.157
 6612SOL     OW20734   1.416   5.158   6.520
 6612SOL    HW120735   1.513   5.171   6.497
 6612SOL    HW220736   1.378   5.084   6.463
 6613SOL     OW20737   5.424   5.318   3.122
 6613SOL    HW120738   5.371   5.233   3.118
 6613SOL    HW220739   5.509   5.305   3.070
 6614SOL     OW20740   4.963   6.363   5.918
 6614SOL    HW120741   5.006   6.348   5.829
 6614SOL    HW220742   4.966   6.278   5.971
 6615SOL     OW20743   0.113   3.410   5.024
 6615SOL    HW120744   0.076   3.323   4.991
 6615SOL    HW220745   0.038   3.474   5.041
 6616SOL     OW20746   4.443   1.542   5.814
 6616SOL    HW120747   4.517   1.563   5.750
 6616SOL    HW220748   4.452   1.448   5.846
 6617SOL     OW20749   3.535   6.873   3.802
 6617SOL    HW120750   3.524   6.969   3.830
 6617SOL    HW220751   3.449   6.824   3.817
 6618SOL     OW20752   0.756   3.554   2.198
 6618SOL    HW120753   0.774   3.558   2.100
 6618SOL    HW220754   0.657   3.551   2.213
 6619SOL     OW20755   4.275   6.831   4.027
 6619SOL    HW120756   4.373   6.845   4.019
 6619SOL    HW220757   4.230   6.917   4.052
 6620SOL     OW20758   1.626   2.756   5.821
 6620SOL    HW120759   1.688   2.794   5.890
 6620SOL    HW220760   1.679   2.720   5.744
 6621SOL     OW20761   2.766   4.010   0.292
 6621SOL    HW120762   2.720   3.975   0.374
 6621SOL    HW220763   2.783   4.108   0.303
 6622SOL     OW20764   6.427   6.048   1.067
 6622SOL    HW120765   6.447   6.113   0.994
 6622SOL    HW220766   6.334   6.063   1.101
 6623SOL     OW20767   3.653   3.295   2.002
 6623SOL    HW120768   3.702   3.290   1.915
 6623SOL    HW220769   3.585   3.221   2.006
 6624SOL     OW20770   2.915   5.849   4.865
 6624SOL    HW120771   2.907   5.752   4.888
 6624SOL    HW220772   2.854   5.870   4.788
 6625SOL     OW20773   5.849   1.176   6.695
 6625SOL    HW120774   5.838   1.135   6.785
 6625SOL    HW220775   5.899   1.114   6.635
 6626SOL     OW20776   3.373   5.792   3.040
 6626SOL    HW120777   3.449   5.739   3.077
 6626SOL    HW220778   3.293   5.733   3.030
 6627SOL     OW20779   2.025   0.598   6.106
 6627SOL    HW120780   2.089   0.551   6.046
 6627SOL    HW220781   2.031   0.559   6.198
 6628SOL     OW20782   4.991   4.900   2.572
 6628SOL    HW120783   4.898   4.912   2.536
 6628SOL    HW220784   5.015   4.803   2.571
 6629SOL     OW20785   3.219   6.147   1.229
 6629SOL    HW120786   3.239   6.070   1.170
 6629SOL    HW220787   3.304   6.188   1.260
 6630SOL     OW20788   3.396   1.284   0.226
 6630SOL    HW120789   3.363   1.212   0.287
 6630SOL    HW220790   3.495   1.272   0.212
 6631SOL     OW20791   4.510   0.351   2.031
 6631SOL    HW120792   4.426   0.391   2.067
 6631SOL    HW220793   4.573   0.424   2.004
 6632SOL     OW20794   0.037   1.763   1.072
 6632SOL    HW120795   6.990   1.812   1.121
 6632SOL    HW220796   0.005   1.741   0.980
 6633SOL     OW20797   1.112   5.783   6.506
 6633SOL    HW120798   1.118   5.743   6.414
 6633SOL    HW220799   1.067   5.873   6.499
 6634SOL     OW20800   6.317   3.177   6.131
 6634SOL    HW120801   6.415   3.173   6.114
 6634SOL    HW220802   6.283   3.267   6.106
 6635SOL     OW20803   4.185   5.207   3.302
 6635SOL    HW120804   4.222   5.117   3.280
 6635SOL    HW220805   4.095   5.197   3.345
 6636SOL     OW20806   1.115   3.491   5.627
 6636SOL    HW120807   1.114   3.562   5.556
 6636SOL    HW220808   1.207   3.484   5.666
 6637SOL     OW20809   1.125   0.518   0.235
 6637SOL    HW120810   1.076   0.603   0.220
 6637SOL    HW220811   1.134   0.502   0.333
 6638SOL     OW20812   2.877   5.277   4.880
 6638SOL    HW120813   2.882   5.240   4.973
 6638SOL    HW220814   2.847   5.206   4.817
 6639SOL     OW20815   5.723   5.395   6.167
 6639SOL    HW120816   5.700   5.319   6.228
 6639SOL    HW220817   5.782   5.460   6.216
 6640SOL     OW20818   6.923   1.465   4.328
 6640SOL    HW120819   6.832   1.506   4.326
 6640SOL    HW220820   6.969   1.493   4.412
 6641SOL     OW20821   3.300   3.852   6.591
 6641SOL    HW120822   3.351   3.890   6.514
 6641SOL    HW220823   3.211   3.897   6.599
 6642SOL     OW20824   2.059   5.282   6.917
 6642SOL    HW120825   2.090   5.299   6.824
 6642SOL    HW220826   1.982   5.218   6.916
 6643SOL     OW20827   6.257   4.438   6.400
 6643SOL    HW120828   6.272   4.449   6.498
 6643SOL    HW220829   6.323   4.371   6.364
 6644SOL     OW20830   3.035   4.783   1.852
 6644SOL    HW120831   2.984   4.698   1.852
 6644SOL    HW220832   2.995   4.846   1.919
 6645SOL     OW20833   6.980   4.964   0.079
 6645SOL    HW120834   0.040   4.915   0.103
 6645SOL    HW220835   6.964   4.958   7.005
 6646SOL     OW20836   4.116   5.511   4.201
 6646SOL    HW120837   4.018   5.531   4.195
 6646SOL    HW220838   4.167   5.581   4.151
 6647SOL     OW20839   2.911   0.548   2.715
 6647SOL    HW120840   2.979   0.551   2.642
 6647SOL    HW220841   2.822   0.579   2.680
 6648SOL     OW20842   3.958   5.781   2.896
 6648SOL    HW120843   4.021   5.792   2.972
 6648SOL    HW220844   3.975   5.694   2.850
 6649SOL     OW20845   5.321   2.213   6.133
 6649SOL    HW120846   5.369   2.272   6.198
 6649SOL    HW220847   5.309   2.261   6.046
 6650SOL     OW20848   4.024   0.988   3.121
 6650SOL    HW120849   3.983   0.902   3.088
 6650SOL    HW220850   4.029   1.053   3.045
 6651SOL     OW20851   1.790   2.165   0.487
 6651SOL    HW120852   1.825   2.226   0.416
 6651SOL    HW220853   1.821   2.072   0.468
 6652SOL     OW20854   6.665   4.079   1.384
 6652SOL    HW120855   6.761   4.068   1.356
 6652SOL    HW220856   6.645   4.177   1.396
 6653SOL     OW20857   3.665   4.078   3.209
 6653SOL    HW120858   3.632   4.094   3.302
 6653SOL    HW220859   3.602   4.120   3.144
 6654SOL     OW20860   1.808   2.619   1.113
 6654SOL    HW120861   1.720   2.622   1.161
 6654SOL    HW220862   1.793   2.628   1.015
 6655SOL     OW20863   2.882   6.758   1.812
 6655SOL    HW120864   2.840   6.839   1.854
 6655SOL    HW220865   2.974   6.746   1.850
 6656SOL     OW20866   6.669   0.721   2.770
 6656SOL    HW120867   6.760   0.754   2.794
 6656SOL    HW220868   6.663   0.708   2.671
 6657SOL     OW20869   4.306   7.006   6.219
 6657SOL    HW120870   4.380   6.964   6.166
 6657SOL    HW220871   4.344   0.051   6.280
 6658SOL     OW20872   5.997   0.756   5.085
 6658SOL    HW120873   6.049   0.700   5.021
 6658SOL    HW220874   6.060   0.810   5.141
 6659SOL     OW20875   2.885   2.750   0.279
 6659SOL    HW120876   2.875   2.755   0.379
 6659SOL    HW220877   2.815   2.807   0.236
 6660SOL     OW20878   0.154   6.762   1.862
 6660SOL    HW120879   0.067   6.780   1.908
 6660SOL    HW220880   0.146   6.786   1.765
 6661SOL     OW20881   6.424   4.991   3.871
 6661SOL    HW120882   6.359   5.039   3.930
 6661SOL    HW220883   6.475   5.057   3.816
 6662SOL     OW20884   1.824   1.081   0.354
 6662SOL    HW120885   1.770   1.008   0.313
 6662SOL    HW220886   1.913   1.086   0.309
 6663SOL     OW20887   6.639   5.593   3.484
 6663SOL    HW120888   6.547   5.592   3.522
 6663SOL    HW220889   6.635   5.607   3.385
 6664SOL     OW20890   1.728   0.206   1.609
 6664SOL    HW120891   1.681   0.119   1.596
 6664SOL    HW220892   1.662   0.281   1.607
 6665SOL     OW20893   0.739   6.912   3.346
 6665SOL    HW120894   0.774   6.886   3.256
 6665SOL    HW220895   0.643   6.886   3.354
 6666SOL     OW20896   6.391   1.531   4.957
 6666SOL    HW120897   6.430   1.612   4.915
 6666SOL    HW220898   6.465   1.470   4.986
 6667SOL     OW20899   6.116   5.313   5.195
 6667SOL    HW120900   6.193   5.299   5.133
 6667SOL    HW220901   6.130   5.397   5.247
 6668SOL     OW20902   0.153   5.514   2.087
 6668SOL    HW120903   0.230   5.569   2.119
 6668SOL    HW220904   0.154   5.425   2.133
 6669SOL     OW20905   2.095   4.992   3.395
 6669SOL    HW120906   2.069   5.012   3.489
 6669SOL    HW220907   2.063   4.900   3.370
 6670SOL     OW20908   3.519   4.702   6.728
 6670SOL    HW120909   3.511   4.649   6.644
 6670SOL    HW220910   3.612   4.739   6.735
 6671SOL     OW20911   5.858   4.848   6.921
 6671SOL    HW120912   5.785   4.845   6.853
 6671SOL    HW220913   5.906   4.760   6.922
 6672SOL     OW20914   1.441   0.698   5.795
 6672SOL    HW120915   1.368   0.739   5.849
 6672SOL    HW220916   1.506   0.769   5.767
 6673SOL     OW20917   5.178   5.748   2.727
 6673SOL    HW120918   5.251   5.687   2.697
 6673SOL    HW220919   5.095   5.730   2.674
 6674SOL     OW20920   0.779   5.815   5.827
 6674SOL    HW120921   0.691   5.808   5.780
 6674SOL    HW220922   0.772   5.879   5.903
 6675SOL     OW20923   5.457   3.802   0.650
 6675SOL    HW120924   5.475   3.706   0.629
 6675SOL    HW220925   5.495   3.825   0.739
 6676SOL     OW20926   0.800   3.403   5.230
 6676SOL    HW120927   0.769   3.334   5.295
 6676SOL    HW220928   0.841   3.357   5.151
 6677SOL     OW20929   0.112   3.139   0.019
 6677SOL    HW120930   0.050   3.073   0.063
 6677SOL    HW220931   0.103   3.228   0.064
 6678SOL     OW20932   1.146   3.070   6.534
 6678SOL    HW120933   1.214   3.072   6.461
 6678SOL    HW220934   1.184   3.114   6.616
 6679SOL     OW20935   1.376   1.957   4.955
 6679SOL    HW120936   1.351   1.889   4.886
 6679SOL    HW220937   1.307   1.956   5.028
 6680SOL     OW20938   3.747   5.567   6.178
 6680SOL    HW120939   3.796   5.602   6.259
 6680SOL    HW220940   3.735   5.642   6.113
 6681SOL     OW20941   5.337   5.664   6.796
 6681SOL    HW120942   5.419   5.623   6.837
 6681SOL    HW220943   5.298   5.600   6.730
 6682SOL     OW20944   0.323   4.692   2.679
 6682SOL    HW120945   0.232   4.650   2.676
 6682SOL    HW220946   0.314   4.792   2.676
 6683SOL     OW20947   5.081   2.294   5.312
 6683SOL    HW120948   5.042   2.234   5.383
 6683SOL    HW220949   5.181   2.292   5.319
 6684SOL     OW20950   1.945   6.831   2.655
 6684SOL    HW120951   1.865   6.773   2.670
 6684SOL    HW220952   1.990   6.805   2.570
 6685SOL     OW20953   5.730   2.228   6.526
 6685SOL    HW120954   5.781   2.185   6.600
 6685SOL    HW220955   5.731   2.167   6.446
 6686SOL     OW20956   6.138   4.024   4.456
 6686SOL    HW120957   6.178   3.934   4.438
 6686SOL    HW220958   6.074   4.047   4.383
 6687SOL     OW20959   1.403   1.565   1.120
 6687SOL    HW120960   1.413   1.617   1.204
 6687SOL    HW220961   1.306   1.545   1.104
 6688SOL     OW20962   0.347   4.442   2.821
 6688SOL    HW120963   0.277   4.478   2.883
 6688SOL    HW220964   0.373   4.514   2.756
 6689SOL     OW20965   4.745   3.269   1.191
 6689SOL    HW120966   4.776   3.364   1.203
 6689SOL    HW220967   4.726   3.229   1.281
 6690SOL     OW20968   2.551   2.570   1.523
 6690SOL    HW120969   2.637   2.599   1.480
 6690SOL    HW220970   2.527   2.634   1.596
 6691SOL     OW20971   2.381   5.583   1.076
 6691SOL    HW120972   2.472   5.554   1.105
 6691SOL    HW220973   2.320   5.589   1.156
 6692SOL     OW20974   2.947   4.247   5.297
 6692SOL    HW120975   3.041   4.271   5.322
 6692SOL    HW220976   2.903   4.325   5.254
 6693SOL     OW20977   4.844   3.488   6.119
 6693SOL    HW120978   4.898   3.512   6.200
 6693SOL    HW220979   4.747   3.498   6.140
 6694SOL     OW20980   4.573   6.234   0.632
 6694SOL    HW120981   4.659   6.229   0.582
 6694SOL    HW220982   4.526   6.320   0.610
 6695SOL     OW20983   0.830   1.348   6.733
 6695SOL    HW120984   0.839   1.329   6.831
 6695SOL    HW220985   0.756   1.413   6.719
 6696SOL     OW20986   2.079   2.711   1.585
 6696SOL    HW120987   2.169   2.731   1.545
 6696SOL    HW220988   2.037   2.796   1.617
 6697SOL     OW20989   4.855   1.394   2.582
 6697SOL    HW120990   4.765   1.431   2.559
 6697SOL    HW220991   4.916   1.402   2.503
 6698SOL     OW20992   4.063   2.851   0.593
 6698SOL    HW120993   4.095   2.898   0.510
 6698SOL    HW220994   4.046   2.755   0.572
 6699SOL     OW20995   3.791   4.757   6.730
 6699SOL    HW120996   3.840   4.761   6.643
 6699SOL    HW220997   3.841   4.810   6.799
 6700SOL     OW20998   0.504   5.614   1.216
 6700SOL    HW120999   0.419   5.664   1.232
 6700SOL    HW221000   0.580   5.666   1.254
 6701SOL     OW21001   6.516   1.947   1.090
 6701SOL    HW121002   6.462   2.026   1.061
 6701SOL    HW221003   6.578   1.921   1.015
 6702SOL     OW21004   3.071   1.858   0.324
 6702SOL    HW121005   3.104   1.855   0.418
 6702SOL    HW221006   3.105   1.778   0.274
 6703SOL     OW21007   6.326   1.817   6.786
 6703SOL    HW121008   6.232   1.785   6.803
 6703SOL    HW221009   6.382   1.739   6.757
 6704SOL     OW21010   4.414   2.333   2.389
 6704SOL    HW121011   4.480   2.392   2.344
 6704SOL    HW221012   4.359   2.286   2.321
 6705SOL     OW21013   6.704   2.317   1.867
 6705SOL    HW121014   6.736   2.410   1.847
 6705SOL    HW221015   6.621   2.298   1.815
 6706SOL     OW21016   0.869   3.603   0.613
 6706SOL    HW121017   0.928   3.525   0.628
 6706SOL    HW221018   0.830   3.633   0.700
 6707SOL     OW21019   6.328   6.007   4.704
 6707SOL    HW121020   6.302   5.967   4.617
 6707SOL    HW221021   6.269   6.085   4.725
 6708SOL     OW21022   1.447   5.453   2.104
 6708SOL    HW121023   1.420   5.538   2.149
 6708SOL    HW221024   1.546   5.456   2.085
 6709SOL     OW21025   3.803   6.571   1.917
 6709SOL    HW121026   3.861   6.555   1.837
 6709SOL    HW221027   3.711   6.537   1.898
 6710SOL     OW21028   2.962   2.373   6.335
 6710SOL    HW121029   2.862   2.378   6.336
 6710SOL    HW221030   2.999   2.458   6.297
 6711SOL     OW21031   5.026   4.058   6.457
 6711SOL    HW121032   5.048   4.147   6.497
 6711SOL    HW221033   5.062   4.053   6.364
 6712SOL     OW21034   3.986   5.536   0.325
 6712SOL    HW121035   4.079   5.569   0.313
 6712SOL    HW221036   3.986   5.458   0.388
 6713SOL     OW21037   2.667   1.990   1.674
 6713SOL    HW121038   2.594   2.039   1.627
 6713SOL    HW221039   2.703   2.046   1.748
 6714SOL     OW21040   5.081   0.333   5.078
 6714SOL    HW121041   4.992   0.289   5.067
 6714SOL    HW221042   5.118   0.311   5.168
 6715SOL     OW21043   0.920   1.950   0.441
 6715SOL    HW121044   0.906   1.851   0.446
 6715SOL    HW221045   0.928   1.978   0.345
 6716SOL     OW21046   1.960   6.168   1.210
 6716SOL    HW121047   2.019   6.137   1.136
 6716SOL    HW221048   2.016   6.193   1.289
 6717SOL     OW21049   3.378   4.169   0.384
 6717SOL    HW121050   3.340   4.240   0.326
 6717SOL    HW221051   3.477   4.182   0.392
 6718SOL     OW21052   3.670   5.997   6.499
 6718SOL    HW121053   3.625   5.947   6.572
 6718SOL    HW221054   3.606   6.012   6.424
 6719SOL     OW21055   0.487   6.641   5.733
 6719SOL    HW121056   0.459   6.636   5.829
 6719SOL    HW221057   0.406   6.642   5.675
 6720SOL     OW21058   1.935   5.991   1.913
 6720SOL    HW121059   1.850   5.948   1.942
 6720SOL    HW221060   2.008   5.922   1.908
 6721SOL     OW21061   5.323   6.361   4.559
 6721SOL    HW121062   5.369   6.272   4.549
 6721SOL    HW221063   5.234   6.357   4.513
 6722SOL     OW21064   4.831   3.003   0.302
 6722SOL    HW121065   4.865   2.918   0.342
 6722SOL    HW221066   4.878   3.021   0.216
 6723SOL     OW21067   2.328   6.625   3.180
 6723SOL    HW121068   2.381   6.675   3.249
 6723SOL    HW221069   2.324   6.678   3.096
 6724SOL     OW21070   2.700   4.547   5.777
 6724SOL    HW121071   2.728   4.499   5.694
 6724SOL    HW221072   2.613   4.510   5.809
 6725SOL     OW21073   1.151   4.748   2.510
 6725SOL    HW121074   1.083   4.740   2.583
 6725SOL    HW221075   1.211   4.668   2.512
 6726SOL     OW21076   2.087   3.111   4.603
 6726SOL    HW121077   2.114   3.088   4.697
 6726SOL    HW221078   2.008   3.172   4.605
 6727SOL     OW21079   5.045   3.527   6.598
 6727SOL    HW121080   5.004   3.616   6.617
 6727SOL    HW221081   5.086   3.528   6.506
 6728SOL     OW21082   3.747   2.026   4.483
 6728SOL    HW121083   3.837   2.017   4.440
 6728SOL    HW221084   3.677   2.034   4.412
 6729SOL     OW21085   6.839   0.476   2.800
 6729SOL    HW121086   6.831   0.575   2.796
 6729SOL    HW221087   6.857   0.440   2.709
 6730SOL     OW21088   2.643   0.332   0.152
 6730SOL    HW121089   2.665   0.363   0.060
 6730SOL    HW221090   2.728   0.320   0.205
 6731SOL     OW21091   2.631   4.359   1.348
 6731SOL    HW121092   2.568   4.283   1.357
 6731SOL    HW221093   2.721   4.333   1.383
 6732SOL     OW21094   2.346   6.486   0.636
 6732SOL    HW121095   2.346   6.506   0.538
 6732SOL    HW221096   2.312   6.566   0.686
 6733SOL     OW21097   4.309   5.587   5.859
 6733SOL    HW121098   4.277   5.501   5.899
 6733SOL    HW221099   4.231   5.635   5.817
 6734SOL     OW21100   1.145   3.493   5.939
 6734SOL    HW121101   1.231   3.502   5.889
 6734SOL    HW221102   1.069   3.526   5.882
 6735SOL     OW21103   0.055   4.820   5.803
 6735SOL    HW121104   7.016   4.848   5.731
 6735SOL    HW221105   0.017   4.742   5.853
 6736SOL     OW21106   2.720   3.165   1.672
 6736SOL    HW121107   2.790   3.135   1.736
 6736SOL    HW221108   2.647   3.097   1.669
 6737SOL     OW21109   1.932   1.530   2.234
 6737SOL    HW121110   1.908   1.575   2.148
 6737SOL    HW221111   1.858   1.468   2.260
 6738SOL     OW21112   2.323   1.924   2.374
 6738SOL    HW121113   2.373   1.894   2.455
 6738SOL    HW221114   2.230   1.887   2.377
 6739SOL     OW21115   4.104   6.208   4.991
 6739SOL    HW121116   4.077   6.214   5.087
 6739SOL    HW221117   4.025   6.224   4.933
 6740SOL     OW21118   1.479   1.040   4.504
 6740SOL    HW121119   1.550   1.091   4.552
 6740SOL    HW221120   1.438   0.973   4.565
 6741SOL     OW21121   5.870   0.857   6.125
 6741SOL    HW121122   5.899   0.927   6.190
 6741SOL    HW221123   5.914   0.874   6.036
 6742SOL     OW21124   6.635   5.707   5.389
 6742SOL    HW121125   6.572   5.750   5.454
 6742SOL    HW221126   6.664   5.774   5.322
 6743SOL     OW21127   3.841   3.546   1.216
 6743SOL    HW121128   3.929   3.592   1.200
 6743SOL    HW221129   3.853   3.474   1.285
 6744SOL     OW21130   4.317   4.429   5.549
 6744SOL    HW121131   4.272   4.507   5.591
 6744SOL    HW221132   4.416   4.437   5.562
 6745SOL     OW21133   0.733   5.109   2.939
 6745SOL    HW121134   0.740   5.047   3.017
 6745SOL    HW221135   0.756   5.202   2.967
 6746SOL     OW21136   0.736   1.973   1.330
 6746SOL    HW121137   0.742   2.072   1.321
 6746SOL    HW221138   0.640   1.947   1.347
 6747SOL     OW21139   5.272   5.793   4.938
 6747SOL    HW121140   5.191   5.765   4.990
 6747SOL    HW221141   5.259   5.886   4.903
 6748SOL     OW21142   0.848   0.498   2.421
 6748SOL    HW121143   0.767   0.532   2.373
 6748SOL    HW221144   0.911   0.574   2.436
 6749SOL     OW21145   3.959   0.582   6.928
 6749SOL    HW121146   3.945   0.681   6.941
 6749SOL    HW221147   3.974   0.539   7.017
 6750SOL     OW21148   2.727   2.382   4.755
 6750SOL    HW121149   2.652   2.442   4.728
 6750SOL    HW221150   2.809   2.406   4.702
 6751SOL     OW21151   2.434   2.436   4.735
 6751SOL    HW121152   2.405   2.343   4.712
 6751SOL    HW221153   2.401   2.499   4.664
 6752SOL     OW21154   5.552   3.077   0.845
 6752SOL    HW121155   5.478   3.011   0.834
 6752SOL    HW221156   5.575   3.085   0.942
 6753SOL     OW21157   4.116   1.791   6.591
 6753SOL    HW121158   4.078   1.709   6.548
 6753SOL    HW221159   4.216   1.790   6.584
 6754SOL     OW21160   6.128   1.543   6.482
 6754SOL    HW121161   6.133   1.561   6.384
 6754SOL    HW221162   6.183   1.462   6.503
 6755SOL     OW21163   5.124   2.057   3.538
 6755SOL    HW121164   5.116   1.960   3.514
 6755SOL    HW221165   5.186   2.102   3.474
 6756SOL     OW21166   4.936   4.856   4.097
 6756SOL    HW121167   5.027   4.880   4.063
 6756SOL    HW221168   4.929   4.757   4.107
 6757SOL     OW21169   5.456   6.207   1.850
 6757SOL    HW121170   5.421   6.244   1.936
 6757SOL    HW221171   5.521   6.134   1.868
 6758SOL     OW21172   5.109   3.262   2.165
 6758SOL    HW121173   5.136   3.347   2.211
 6758SOL    HW221174   5.188   3.200   2.161
 6759SOL     OW21175   1.379   4.983   2.816
 6759SOL    HW121176   1.475   4.956   2.816
 6759SOL    HW221177   1.350   5.001   2.722
 6760SOL     OW21178   6.775   4.210   4.143
 6760SOL    HW121179   6.739   4.226   4.052
 6760SOL    HW221180   6.812   4.296   4.179
 6761SOL     OW21181   5.004   2.950   5.610
 6761SOL    HW121182   5.058   2.866   5.600
 6761SOL    HW221183   4.940   2.939   5.686
 6762SOL     OW21184   6.591   4.264   3.418
 6762SOL    HW121185   6.652   4.335   3.384
 6762SOL    HW221186   6.543   4.221   3.341
 6763SOL     OW21187   6.214   6.722   5.469
 6763SOL    HW121188   6.238   6.819   5.466
 6763SOL    HW221189   6.119   6.711   5.441
 6764SOL     OW21190   3.005   3.873   6.617
 6764SOL    HW121191   2.957   3.892   6.531
 6764SOL    HW221192   2.980   3.782   6.649
 6765SOL     OW21193   6.181   3.919   2.448
 6765SOL    HW121194   6.229   3.848   2.397
 6765SOL    HW221195   6.220   4.008   2.426
 6766SOL     OW21196   2.182   0.708   5.226
 6766SOL    HW121197   2.249   0.780   5.203
 6766SOL    HW221198   2.090   0.746   5.218
 6767SOL     OW21199   0.811   2.723   6.337
 6767SOL    HW121200   0.768   2.740   6.425
 6767SOL    HW221201   0.899   2.676   6.351
 6768SOL     OW21202   0.467   0.034   4.221
 6768SOL    HW121203   0.493   7.007   4.302
 6768SOL    HW221204   0.447   0.129   4.246
 6769SOL     OW21205   2.033   2.682   5.362
 6769SOL    HW121206   1.936   2.660   5.351
 6769SOL    HW221207   2.045   2.735   5.445
 6770SOL     OW21208   0.510   1.427   3.374
 6770SOL    HW121209   0.446   1.421   3.450
 6770SOL    HW221210   0.548   1.520   3.369
 6771SOL     OW21211   3.790   2.050   3.532
 6771SOL    HW121212   3.801   1.980   3.603
 6771SOL    HW221213   3.692   2.067   3.518
 6772SOL     OW21214   6.787   1.754   2.474
 6772SOL    HW121215   6.842   1.780   2.395
 6772SOL    HW221216   6.845   1.710   2.542
 6773SOL     OW21217   0.538   5.975   2.055
 6773SOL    HW121218   0.536   6.074   2.072
 6773SOL    HW221219   0.465   5.950   1.992
 6774SOL     OW21220   2.290   2.655   5.710
 6774SOL    HW121221   2.335   2.741   5.687
 6774SOL    HW221222   2.268   2.654   5.808
 6775SOL     OW21223   0.647   2.420   5.058
 6775SOL    HW121224   0.641   2.328   5.097
 6775SOL    HW221225   0.590   2.424   4.976
 6776SOL     OW21226   3.702   4.125   2.750
 6776SOL    HW121227   3.733   4.075   2.832
 6776SOL    HW221228   3.711   4.223   2.766
 6777SOL     OW21229   5.678   5.223   0.583
 6777SOL    HW121230   5.744   5.257   0.650
 6777SOL    HW221231   5.701   5.258   0.493
 6778SOL     OW21232   7.020   4.924   2.409
 6778SOL    HW121233   0.012   5.020   2.432
 6778SOL    HW221234   6.998   4.916   2.312
 6779SOL     OW21235   5.826   4.116   5.963
 6779SOL    HW121236   5.749   4.067   6.004
 6779SOL    HW221237   5.823   4.212   5.991
 6780SOL     OW21238   3.011   2.120   2.827
 6780SOL    HW121239   2.970   2.084   2.744
 6780SOL    HW221240   3.110   2.123   2.817
 6781SOL     OW21241   7.000   1.239   4.230
 6781SOL    HW121242   6.945   1.244   4.147
 6781SOL    HW221243   7.001   1.329   4.274
 6782SOL     OW21244   6.893   1.720   3.288
 6782SOL    HW121245   6.873   1.769   3.204
 6782SOL    HW221246   6.958   1.773   3.343
 6783SOL     OW21247   1.688   4.905   5.023
 6783SOL    HW121248   1.698   4.935   5.118
 6783SOL    HW221249   1.761   4.944   4.968
 6784SOL     OW21250   2.251   4.043   1.363
 6784SOL    HW121251   2.177   4.063   1.428
 6784SOL    HW221252   2.217   4.053   1.270
 6785SOL     OW21253   5.047   5.170   4.264
 6785SOL    HW121254   5.002   5.092   4.308
 6785SOL    HW221255   5.004   5.255   4.294
 6786SOL     OW21256   6.568   2.539   6.953
 6786SOL    HW121257   6.563   2.639   6.955
 6786SOL    HW221258   6.568   2.508   6.858
 6787SOL     OW21259   3.917   1.962   6.405
 6787SOL    HW121260   3.845   2.027   6.379
 6787SOL    HW221261   3.877   1.881   6.447
 6788SOL     OW21262   6.347   4.034   2.922
 6788SOL    HW121263   6.356   4.123   2.965
 6788SOL    HW221264   6.268   4.033   2.861
 6789SOL     OW21265   6.136   3.912   3.923
 6789SOL    HW121266   6.188   3.929   4.007
 6789SOL    HW221267   6.129   3.813   3.909
 6790SOL     OW21268   0.792   5.147   5.994
 6790SOL    HW121269   0.718   5.171   5.931
 6790SOL    HW221270   0.867   5.212   5.984
 6791SOL     OW21271   3.616   0.468   3.479
 6791SOL    HW121272   3.527   0.462   3.525
 6791SOL    HW221273   3.662   0.552   3.507
 6792SOL     OW21274   4.087   6.877   5.544
 6792SOL    HW121275   4.158   6.948   5.542
 6792SOL    HW221276   4.000   6.919   5.567
 6793SOL     OW21277   1.810   3.655   0.100
 6793SOL    HW121278   1.870   3.645   0.021
 6793SOL    HW221279   1.865   3.660   0.183
 6794SOL     OW21280   5.070   1.789   5.520
 6794SOL    HW121281   5.138   1.843   5.569
 6794SOL    HW221282   5.112   1.704   5.487
 6795SOL     OW21283   1.103   1.101   1.157
 6795SOL    HW121284   1.093   1.158   1.076
 6795SOL    HW221285   1.187   1.048   1.150
 6796SOL     OW21286   6.712   0.928   3.015
 6796SOL    HW121287   6.776   0.987   2.966
 6796SOL    HW221288   6.627   0.977   3.033
 6797SOL     OW21289   1.002   2.691   1.235
 6797SOL    HW121290   0.919   2.716   1.285
 6797SOL    HW221291   1.039   2.772   1.189
 6798SOL     OW21292   5.348   0.454   1.506
 6798SOL    HW121293   5.447   0.467   1.514
 6798SOL    HW221294   5.307   0.532   1.460
 6799SOL     OW21295   5.983   0.581   3.411
 6799SOL    HW121296   6.036   0.512   3.361
 6799SOL    HW221297   5.904   0.537   3.455
 6800SOL     OW21298   0.234   2.093   1.647
 6800SOL    HW121299   0.175   2.173   1.644
 6800SOL    HW221300   0.218   2.036   1.567
 6801SOL     OW21301   0.851   5.766   5.403
 6801SOL    HW121302   0.788   5.823   5.456
 6801SOL    HW221303   0.879   5.687   5.458
 6802SOL     OW21304   2.973   4.805   2.274
 6802SOL    HW121305   2.959   4.712   2.241
 6802SOL    HW221306   2.889   4.836   2.320
 6803SOL     OW21307   5.088   5.029   5.833
 6803SOL    HW121308   5.162   4.964   5.815
 6803SOL    HW221309   5.001   4.980   5.838
 6804SOL     OW21310   3.298   4.960   3.096
 6804SOL    HW121311   3.255   5.015   3.167
 6804SOL    HW221312   3.290   5.006   3.008
 6805SOL     OW21313   7.015   4.199   5.400
 6805SOL    HW121314   0.017   4.103   5.411
 6805SOL    HW221315   6.915   4.204   5.393
 6806SOL     OW21316   0.015   2.129   2.416
 6806SOL    HW121317   6.997   2.160   2.502
 6806SOL    HW221318   0.020   2.030   2.415
 6807SOL     OW21319   3.034   4.053   1.869
 6807SOL    HW121320   3.025   4.089   1.961
 6807SOL    HW221321   3.018   3.954   1.870
 6808SOL     OW21322   3.409   1.314   4.374
 6808SOL    HW121323   3.473   1.390   4.358
 6808SOL    HW221324   3.362   1.293   4.288
 6809SOL     OW21325   5.552   3.224   1.304
 6809SOL    HW121326   5.490   3.303   1.302
 6809SOL    HW221327   5.498   3.140   1.293
 6810SOL     OW21328   2.544   0.391   3.966
 6810SOL    HW121329   2.536   0.297   3.934
 6810SOL    HW221330   2.637   0.408   3.997
 6811SOL     OW21331   6.753   1.393   1.337
 6811SOL    HW121332   6.718   1.338   1.262
 6811SOL    HW221333   6.853   1.392   1.337
 6812SOL     OW21334   3.657   3.894   5.011
 6812SOL    HW121335   3.593   3.968   4.989
 6812SOL    HW221336   3.680   3.898   5.108
 6813SOL     OW21337   6.031   3.902   1.797
 6813SOL    HW121338   6.038   3.976   1.863
 6813SOL    HW221339   5.936   3.893   1.767
 6814SOL     OW21340   5.210   1.095   6.821
 6814SOL    HW121341   5.150   1.070   6.745
 6814SOL    HW221342   5.170   1.064   6.907
 6815SOL     OW21343   1.947   4.991   5.716
 6815SOL    HW121344   1.964   4.924   5.643
 6815SOL    HW221345   1.952   5.083   5.679
 6816SOL     OW21346   0.677   0.751   3.119
 6816SOL    HW121347   0.730   0.668   3.136
 6816SOL    HW221348   0.726   0.830   3.155
 6817SOL     OW21349   3.748   2.074   2.283
 6817SOL    HW121350   3.724   2.140   2.212
 6817SOL    HW221351   3.698   1.989   2.267
 6818SOL     OW21352   1.931   0.048   5.457
 6818SOL    HW121353   1.929   0.147   5.474
 6818SOL    HW221354   1.946   7.024   5.543
 6819SOL     OW21355   5.043   4.555   1.386
 6819SOL    HW121356   5.057   4.462   1.351
 6819SOL    HW221357   5.042   4.552   1.486
 6820SOL     OW21358   2.925   5.969   1.565
 6820SOL    HW121359   2.999   5.902   1.570
 6820SOL    HW221360   2.899   5.996   1.657
 6821SOL     OW21361   4.080   2.607   5.327
 6821SOL    HW121362   4.105   2.547   5.251
 6821SOL    HW221363   4.115   2.569   5.412
 6822SOL     OW21364   6.550   2.678   6.323
 6822SOL    HW121365   6.646   2.675   6.349
 6822SOL    HW221366   6.528   2.770   6.290
 6823SOL     OW21367   5.948   3.285   6.184
 6823SOL    HW121368   5.873   3.349   6.202
 6823SOL    HW221369   6.034   3.335   6.175
 6824SOL     OW21370   0.736   0.966   5.689
 6824SOL    HW121371   0.648   0.919   5.685
 6824SOL    HW221372   0.729   1.043   5.751
 6825SOL     OW21373   5.936   4.747   1.250
 6825SOL    HW121374   5.904   4.734   1.157
 6825SOL    HW221375   5.929   4.661   1.301
 6826SOL     OW21376   6.882   3.973   3.573
 6826SOL    HW121377   6.945   4.037   3.529
 6826SOL    HW221378   6.913   3.879   3.557
 6827SOL     OW21379   4.138   5.553   4.684
 6827SOL    HW121380   4.201   5.611   4.735
 6827SOL    HW221381   4.072   5.610   4.635
 6828SOL     OW21382   2.905   2.020   2.580
 6828SOL    HW121383   2.841   1.952   2.545
 6828SOL    HW221384   2.906   2.100   2.519
 6829SOL     OW21385   4.279   0.008   4.552
 6829SOL    HW121386   4.241   0.097   4.578
 6829SOL    HW221387   4.255   7.013   4.456
 6830SOL     OW21388   5.014   0.323   3.211
 6830SOL    HW121389   4.983   0.250   3.150
 6830SOL    HW221390   5.064   0.283   3.288
 6831SOL     OW21391   1.464   1.540   6.233
 6831SOL    HW121392   1.451   1.455   6.181
 6831SOL    HW221393   1.548   1.585   6.202
 6832SOL     OW21394   3.142   2.757   0.190
 6832SOL    HW121395   3.191   2.674   0.218
 6832SOL    HW221396   3.052   2.759   0.233
 6833SOL     OW21397   3.290   4.775   5.954
 6833SOL    HW121398   3.320   4.760   5.860
 6833SOL    HW221399   3.215   4.713   5.975
 6834SOL     OW21400   5.692   0.169   0.826
 6834SOL    HW121401   5.652   0.239   0.886
 6834SOL    HW221402   5.760   0.116   0.877
 6835SOL     OW21403   2.447   1.667   4.726
 6835SOL    HW121404   2.540   1.661   4.691
 6835SOL    HW221405   2.382   1.648   4.652
 6836SOL     OW21406   2.202   4.330   5.955
 6836SOL    HW121407   2.144   4.334   6.036
 6836SOL    HW221408   2.193   4.239   5.912
 6837SOL     OW21409   0.869   0.090   1.680
 6837SOL    HW121410   0.936   0.139   1.625
 6837SOL    HW221411   0.778   0.102   1.641
 6838SOL     OW21412   2.867   3.846   5.136
 6838SOL    HW121413   2.876   3.784   5.214
 6838SOL    HW221414   2.950   3.900   5.126
 6839SOL     OW21415   5.839   2.718   3.911
 6839SOL    HW121416   5.897   2.799   3.917
 6839SOL    HW221417   5.747   2.739   3.944
 6840SOL     OW21418   2.634   6.782   5.911
 6840SOL    HW121419   2.567   6.845   5.871
 6840SOL    HW221420   2.720   6.830   5.926
 6841SOL     OW21421   4.110   5.866   1.369
 6841SOL    HW121422   4.134   5.934   1.300
 6841SOL    HW221423   4.013   5.876   1.393
 6842SOL     OW21424   0.239   3.850   6.226
 6842SOL    HW121425   0.339   3.855   6.228
 6842SOL    HW221426   0.211   3.759   6.194
 6843SOL     OW21427   3.437   2.057   2.279
 6843SOL    HW121428   3.469   2.147   2.249
 6843SOL    HW221429   3.472   1.987   2.217
 6844SOL     OW21430   4.612   4.994   4.052
 6844SOL    HW121431   4.688   5.046   4.013
 6844SOL    HW221432   4.539   5.058   4.080
 6845SOL     OW21433   4.947   4.671   2.362
 6845SOL    HW121434   4.873   4.729   2.396
 6845SOL    HW221435   4.932   4.577   2.392
 6846SOL     OW21436   3.190   3.040   2.378
 6846SOL    HW121437   3.112   3.094   2.347
 6846SOL    HW221438   3.200   2.960   2.318
 6847SOL     OW21439   6.321   3.261   1.472
 6847SOL    HW121440   6.352   3.259   1.377
 6847SOL    HW221441   6.302   3.356   1.498
 6848SOL     OW21442   0.972   6.225   3.650
 6848SOL    HW121443   0.935   6.314   3.621
 6848SOL    HW221444   0.972   6.220   3.750
 6849SOL     OW21445   3.721   6.382   3.676
 6849SOL    HW121446   3.656   6.430   3.617
 6849SOL    HW221447   3.794   6.445   3.702
 6850SOL     OW21448   5.447   3.131   2.755
 6850SOL    HW121449   5.485   3.205   2.810
 6850SOL    HW221450   5.349   3.126   2.769
 6851SOL     OW21451   1.672   5.301   5.431
 6851SOL    HW121452   1.691   5.299   5.529
 6851SOL    HW221453   1.697   5.390   5.393
 6852SOL     OW21454   0.848   4.167   1.728
 6852SOL    HW121455   0.759   4.205   1.754
 6852SOL    HW221456   0.834   4.091   1.665
 6853SOL     OW21457   0.755   4.322   4.962
 6853SOL    HW121458   0.660   4.305   4.935
 6853SOL    HW221459   0.764   4.311   5.061
 6854SOL     OW21460   6.309   2.588   6.478
 6854SOL    HW121461   6.347   2.496   6.479
 6854SOL    HW221462   6.376   2.652   6.440
 6855SOL     OW21463   2.784   6.997   1.904
 6855SOL    HW121464   2.834   0.043   1.853
 6855SOL    HW221465   2.690   0.003   1.919
 6856SOL     OW21466   5.727   4.038   5.040
 6856SOL    HW121467   5.707   3.941   5.050
 6856SOL    HW221468   5.823   4.055   5.062
 6857SOL     OW21469   4.088   1.674   5.664
 6857SOL    HW121470   4.017   1.722   5.715
 6857SOL    HW221471   4.174   1.678   5.714
 6858SOL     OW21472   3.873   3.053   4.969
 6858SOL    HW121473   3.874   2.991   5.048
 6858SOL    HW221474   3.921   3.137   4.991
 6859SOL     OW21475   3.579   0.781   0.833
 6859SOL    HW121476   3.601   0.862   0.779
 6859SOL    HW221477   3.506   0.802   0.897
 6860SOL     OW21478   5.276   3.892   0.464
 6860SOL    HW121479   5.332   3.882   0.547
 6860SOL    HW221480   5.287   3.810   0.407
 6861SOL     OW21481   6.255   4.900   0.112
 6861SOL    HW121482   6.158   4.875   0.117
 6861SOL    HW221483   6.311   4.819   0.129
 6862SOL     OW21484   3.298   5.494   3.976
 6862SOL    HW121485   3.381   5.525   3.930
 6862SOL    HW221486   3.218   5.525   3.925
 6863SOL     OW21487   5.566   2.776   4.481
 6863SOL    HW121488   5.627   2.741   4.552
 6863SOL    HW221489   5.589   2.871   4.461
 6864SOL     OW21490   3.347   6.334   4.820
 6864SOL    HW121491   3.258   6.332   4.865
 6864SOL    HW221492   3.374   6.241   4.796
 6865SOL     OW21493   6.688   4.214   3.869
 6865SOL    HW121494   6.590   4.194   3.870
 6865SOL    HW221495   6.707   4.284   3.801
 6866SOL     OW21496   0.046   3.474   2.296
 6866SOL    HW121497   6.982   3.441   2.261
 6866SOL    HW221498   0.078   3.413   2.368
 6867SOL     OW21499   2.184   4.119   2.086
 6867SOL    HW121500   2.144   4.047   2.028
 6867SOL    HW221501   2.113   4.182   2.115
 6868SOL     OW21502   2.052   5.584   4.558
 6868SOL    HW121503   2.005   5.639   4.489
 6868SOL    HW221504   2.126   5.532   4.516
 6869SOL     OW21505   5.562   2.696   5.507
 6869SOL    HW121506   5.632   2.657   5.446
 6869SOL    HW221507   5.471   2.675   5.471
 6870SOL     OW21508   5.821   3.631   3.135
 6870SOL    HW121509   5.878   3.612   3.054
 6870SOL    HW221510   5.797   3.727   3.137
 6871SOL     OW21511   5.251   5.722   1.082
 6871SOL    HW121512   5.226   5.635   1.039
 6871SOL    HW221513   5.240   5.796   1.016
 6872SOL     OW21514   2.169   3.766   6.798
 6872SOL    HW121515   2.208   3.760   6.890
 6872SOL    HW221516   2.242   3.760   6.730
 6873SOL     OW21517   6.099   3.675   6.374
 6873SOL    HW121518   6.035   3.739   6.416
 6873SOL    HW221519   6.075   3.581   6.402
 6874SOL     OW21520   0.199   2.629   4.697
 6874SOL    HW121521   0.285   2.663   4.736
 6874SOL    HW221522   0.142   2.707   4.669
 6875SOL     OW21523   2.541   1.398   3.182
 6875SOL    HW121524   2.633   1.414   3.147
 6875SOL    HW221525   2.485   1.479   3.168
 6876SOL     OW21526   3.932   6.086   0.044
 6876SOL    HW121527   3.973   6.172   0.012
 6876SOL    HW221528   3.923   6.089   0.143
 6877SOL     OW21529   2.139   3.917   0.095
 6877SOL    HW121530   2.206   3.982   0.058
 6877SOL    HW221531   2.151   3.828   0.052
 6878SOL     OW21532   1.985   1.602   5.871
 6878SOL    HW121533   1.939   1.677   5.825
 6878SOL    HW221534   1.974   1.518   5.818
 6879SOL     OW21535   1.351   2.229   6.305
 6879SOL    HW121536   1.343   2.160   6.233
 6879SOL    HW221537   1.274   2.220   6.369
 6880SOL     OW21538   2.200   4.016   4.731
 6880SOL    HW121539   2.192   3.923   4.695
 6880SOL    HW221540   2.248   4.015   4.818
 6881SOL     OW21541   0.260   3.807   2.152
 6881SOL    HW121542   0.325   3.764   2.090
 6881SOL    HW221543   0.294   3.801   2.246
 6882SOL     OW21544   2.092   0.460   5.133
 6882SOL    HW121545   2.142   0.390   5.186
 6882SOL    HW221546   2.121   0.551   5.163
 6883SOL     OW21547   4.149   0.403   1.439
 6883SOL    HW121548   4.131   0.308   1.412
 6883SOL    HW221549   4.241   0.409   1.478
 6884SOL     OW21550   1.988   5.299   3.953
 6884SOL    HW121551   2.063   5.313   3.889
 6884SOL    HW221552   1.985   5.375   4.018
 6885SOL     OW21553   2.752   5.635   4.176
 6885SOL    HW121554   2.745   5.561   4.110
 6885SOL    HW221555   2.738   5.722   4.130
 6886SOL     OW21556   5.889   1.018   2.534
 6886SOL    HW121557   5.812   1.020   2.598
 6886SOL    HW221558   5.971   0.984   2.581
 6887SOL     OW21559   5.754   0.879   4.475
 6887SOL    HW121560   5.733   0.799   4.418
 6887SOL    HW221561   5.719   0.864   4.567
 6888SOL     OW21562   5.719   0.119   4.821
 6888SOL    HW121563   5.706   0.034   4.872
 6888SOL    HW221564   5.630   0.161   4.803
 6889SOL     OW21565   1.530   4.358   5.792
 6889SOL    HW121566   1.472   4.278   5.780
 6889SOL    HW221567   1.571   4.384   5.705
 6890SOL     OW21568   2.173   6.603   1.477
 6890SOL    HW121569   2.194   6.698   1.456
 6890SOL    HW221570   2.101   6.571   1.416
 6891SOL     OW21571   1.494   4.070   3.744
 6891SOL    HW121572   1.452   3.979   3.738
 6891SOL    HW221573   1.550   4.086   3.663
 6892SOL     OW21574   3.034   0.263   4.032
 6892SOL    HW121575   2.991   0.173   4.025
 6892SOL    HW221576   3.074   0.274   4.123
 6893SOL     OW21577   4.593   6.202   3.013
 6893SOL    HW121578   4.590   6.296   2.978
 6893SOL    HW221579   4.579   6.138   2.938
 6894SOL     OW21580   6.234   5.068   6.635
 6894SOL    HW121581   6.297   5.050   6.559
 6894SOL    HW221582   6.287   5.076   6.720
 6895SOL     OW21583   2.746   4.652   6.629
 6895SOL    HW121584   2.797   4.626   6.547
 6895SOL    HW221585   2.649   4.636   6.615
 6896SOL     OW21586   3.573   0.502   2.881
 6896SOL    HW121587   3.571   0.459   2.791
 6896SOL    HW221588   3.495   0.472   2.935
 6897SOL     OW21589   3.476   3.812   0.748
 6897SOL    HW121590   3.431   3.890   0.791
 6897SOL    HW221591   3.561   3.791   0.797
 6898SOL     OW21592   4.209   1.809   2.108
 6898SOL    HW121593   4.114   1.822   2.081
 6898SOL    HW221594   4.252   1.741   2.049
 6899SOL     OW21595   4.514   6.407   6.813
 6899SOL    HW121596   4.418   6.409   6.787
 6899SOL    HW221597   4.570   6.415   6.730
 6900SOL     OW21598   5.085   0.399   6.383
 6900SOL    HW121599   5.168   0.454   6.390
 6900SOL    HW221600   5.110   0.302   6.388
 6901SOL     OW21601   1.424   6.965   6.609
 6901SOL    HW121602   1.520   6.979   6.581
 6901SOL    HW221603   1.399   0.011   6.675
 6902SOL     OW21604   7.006   6.247   0.317
 6902SOL    HW121605   0.063   6.284   0.362
 6902SOL    HW221606   6.984   6.302   0.237
 6903SOL     OW21607   4.446   5.004   0.485
 6903SOL    HW121608   4.414   5.054   0.565
 6903SOL    HW221609   4.502   4.926   0.514
 6904SOL     OW21610   6.436   1.349   3.643
 6904SOL    HW121611   6.414   1.437   3.687
 6904SOL    HW221612   6.460   1.282   3.714
 6905SOL     OW21613   5.908   6.861   0.882
 6905SOL    HW121614   5.902   6.806   0.965
 6905SOL    HW221615   5.906   6.802   0.801
 6906SOL     OW21616   3.973   0.602   2.882
 6906SOL    HW121617   3.914   0.640   2.810
 6906SOL    HW221618   3.931   0.520   2.919
 6907SOL     OW21619   3.518   1.668   1.550
 6907SOL    HW121620   3.608   1.698   1.583
 6907SOL    HW221621   3.450   1.683   1.621
 6908SOL     OW21622   1.550   6.494   5.173
 6908SOL    HW121623   1.596   6.518   5.087
 6908SOL    HW221624   1.615   6.453   5.236
 6909SOL     OW21625   4.634   4.259   0.488
 6909SOL    HW121626   4.602   4.192   0.554
 6909SOL    HW221627   4.593   4.241   0.398
 6910SOL     OW21628   6.284   1.389   1.694
 6910SOL    HW121629   6.367   1.362   1.743
 6910SOL    HW221630   6.290   1.486   1.670
 6911SOL     OW21631   3.981   1.318   5.061
 6911SOL    HW121632   4.050   1.247   5.052
 6911SOL    HW221633   3.898   1.280   5.103
 6912SOL     OW21634   5.444   4.931   0.684
 6912SOL    HW121635   5.390   4.951   0.766
 6912SOL    HW221636   5.516   4.865   0.707
 6913SOL     OW21637   5.267   4.928   4.930
 6913SOL    HW121638   5.214   4.978   4.861
 6913SOL    HW221639   5.364   4.948   4.919
 6914SOL     OW21640   6.128   5.446   0.668
 6914SOL    HW121641   6.104   5.469   0.573
 6914SOL    HW221642   6.045   5.423   0.719
 6915SOL     OW21643   0.499   4.979   2.865
 6915SOL    HW121644   0.571   5.046   2.883
 6915SOL    HW221645   0.537   4.887   2.872
 6916SOL     OW21646   6.402   3.173   0.007
 6916SOL    HW121647   6.499   3.191   7.018
 6916SOL    HW221648   6.391   3.093   0.066
 6917SOL     OW21649   4.932   6.508   5.569
 6917SOL    HW121650   4.941   6.539   5.474
 6917SOL    HW221651   4.972   6.417   5.578
 6918SOL     OW21652   0.007   3.203   3.777
 6918SOL    HW121653   0.075   3.254   3.724
 6918SOL    HW221654   0.022   3.218   3.875
 6919SOL     OW21655   2.210   6.006   2.669
 6919SOL    HW121656   2.236   5.978   2.576
 6919SOL    HW221657   2.205   6.105   2.673
 6920SOL     OW21658   5.030   6.459   4.224
 6920SOL    HW121659   5.005   6.527   4.155
 6920SOL    HW221660   4.998   6.369   4.196
 6921SOL     OW21661   6.943   0.705   3.439
 6921SOL    HW121662   6.997   0.718   3.356
 6921SOL    HW221663   6.871   0.638   3.423
 6922SOL     OW21664   2.570   6.651   0.828
 6922SOL    HW121665   2.611   6.742   0.837
 6922SOL    HW221666   2.641   6.584   0.808
 6923SOL     OW21667   4.645   0.814   3.662
 6923SOL    HW121668   4.666   0.880   3.734
 6923SOL    HW221669   4.642   0.862   3.574
 6924SOL     OW21670   0.151   5.370   1.466
 6924SOL    HW121671   0.067   5.404   1.509
 6924SOL    HW221672   0.218   5.445   1.460
 6925SOL     OW21673   4.462   6.121   2.741
 6925SOL    HW121674   4.414   6.209   2.733
 6925SOL    HW221675   4.449   6.068   2.657
 6926SOL     OW21676   2.939   3.570   4.282
 6926SOL    HW121677   2.941   3.477   4.318
 6926SOL    HW221678   2.962   3.569   4.185
 6927SOL     OW21679   4.778   3.920   6.198
 6927SOL    HW121680   4.719   3.920   6.117
 6927SOL    HW221681   4.814   4.012   6.214
 6928SOL     OW21682   4.767   0.955   6.485
 6928SOL    HW121683   4.746   1.022   6.414
 6928SOL    HW221684   4.848   0.902   6.458
 6929SOL     OW21685   4.199   5.988   0.339
 6929SOL    HW121686   4.157   5.899   0.321
 6929SOL    HW221687   4.167   6.023   0.426
 6930SOL     OW21688   0.389   0.149   2.740
 6930SOL    HW121689   0.362   0.159   2.836
 6930SOL    HW221690   0.320   0.192   2.682
 6931SOL     OW21691   1.734   1.208   1.777
 6931SOL    HW121692   1.735   1.273   1.700
 6931SOL    HW221693   1.814   1.224   1.835
 6932SOL     OW21694   2.821   1.891   0.174
 6932SOL    HW121695   2.742   1.929   0.221
 6932SOL    HW221696   2.901   1.894   0.234
 6933SOL     OW21697   4.188   5.357   5.987
 6933SOL    HW121698   4.090   5.358   6.007
 6933SOL    HW221699   4.224   5.265   6.003
 6934SOL     OW21700   5.092   3.114   6.902
 6934SOL    HW121701   5.158   3.048   6.865
 6934SOL    HW221702   5.117   3.206   6.873
 6935SOL     OW21703   4.587   6.142   3.583
 6935SOL    HW121704   4.517   6.131   3.513
 6935SOL    HW221705   4.621   6.236   3.583
 6936SOL     OW21706   1.311   3.283   1.370
 6936SOL    HW121707   1.325   3.189   1.339
 6936SOL    HW221708   1.348   3.347   1.302
 6937SOL     OW21709   4.505   6.951   6.017
 6937SOL    HW121710   4.494   6.865   5.967
 6937SOL    HW221711   4.464   0.001   5.964
 6938SOL     OW21712   5.202   2.890   5.351
 6938SOL    HW121713   5.112   2.853   5.328
 6938SOL    HW221714   5.190   2.972   5.408
 6939SOL     OW21715   6.768   4.571   2.525
 6939SOL    HW121716   6.739   4.640   2.459
 6939SOL    HW221717   6.825   4.503   2.479
 6940SOL     OW21718   4.894   0.906   5.843
 6940SOL    HW121719   4.869   0.809   5.843
 6940SOL    HW221720   4.821   0.959   5.799
 6941SOL     OW21721   4.109   3.306   3.584
 6941SOL    HW121722   4.140   3.282   3.675
 6941SOL    HW221723   4.035   3.244   3.557
 6942SOL     OW21724   6.719   2.715   0.454
 6942SOL    HW121725   6.668   2.799   0.473
 6942SOL    HW221726   6.703   2.649   0.526
 6943SOL     OW21727   5.768   5.909   5.857
 6943SOL    HW121728   5.730   5.906   5.950
 6943SOL    HW221729   5.844   5.845   5.850
 6944SOL     OW21730   1.041   5.559   6.253
 6944SOL    HW121731   1.136   5.564   6.282
 6944SOL    HW221732   1.027   5.618   6.173
 6945SOL     OW21733   6.542   2.529   6.101
 6945SOL    HW121734   6.451   2.497   6.125
 6945SOL    HW221735   6.573   2.596   6.168
 6946SOL     OW21736   5.597   4.094   2.738
 6946SOL    HW121737   5.522   4.120   2.798
 6946SOL    HW221738   5.585   4.138   2.649
 6947SOL     OW21739   3.342   6.685   2.771
 6947SOL    HW121740   3.338   6.757   2.841
 6947SOL    HW221741   3.432   6.642   2.773
 6948SOL     OW21742   4.544   0.858   6.630
 6948SOL    HW121743   4.450   0.886   6.608
 6948SOL    HW221744   4.607   0.898   6.564
 6949SOL     OW21745   5.290   6.622   3.270
 6949SOL    HW121746   5.191   6.611   3.275
 6949SOL    HW221747   5.325   6.567   3.193
 6950SOL     OW21748   2.208   1.552   2.896
 6950SOL    HW121749   2.270   1.491   2.848
 6950SOL    HW221750   2.260   1.628   2.936
 6951SOL     OW21751   6.458   5.614   5.991
 6951SOL    HW121752   6.411   5.549   6.051
 6951SOL    HW221753   6.547   5.577   5.965
 6952SOL     OW21754   0.452   5.191   4.653
 6952SOL    HW121755   0.357   5.167   4.634
 6952SOL    HW221756   0.504   5.108   4.676
 6953SOL     OW21757   4.459   1.292   5.889
 6953SOL    HW121758   4.463   1.275   5.987
 6953SOL    HW221759   4.532   1.241   5.843
 6954SOL     OW21760   6.601   3.085   4.339
 6954SOL    HW121761   6.639   3.086   4.431
 6954SOL    HW221762   6.583   3.178   4.308
 6955SOL     OW21763   0.415   6.330   1.849
 6955SOL    HW121764   0.408   6.425   1.879
 6955SOL    HW221765   0.324   6.288   1.851
 6956SOL     OW21766   4.529   5.278   1.700
 6956SOL    HW121767   4.623   5.307   1.681
 6956SOL    HW221768   4.500   5.211   1.632
 6957SOL     OW21769   0.123   4.826   1.966
 6957SOL    HW121770   0.046   4.868   1.917
 6957SOL    HW221771   0.118   4.726   1.955
 6958SOL     OW21772   2.326   2.811   6.224
 6958SOL    HW121773   2.376   2.726   6.212
 6958SOL    HW221774   2.301   2.822   6.321
 6959SOL     OW21775   3.753   1.632   4.838
 6959SOL    HW121776   3.703   1.589   4.762
 6959SOL    HW221777   3.806   1.709   4.804
 6960SOL     OW21778   0.108   4.381   6.901
 6960SOL    HW121779   0.070   4.437   6.975
 6960SOL    HW221780   0.203   4.356   6.923
 6961SOL     OW21781   1.265   1.203   3.354
 6961SOL    HW121782   1.350   1.252   3.335
 6961SOL    HW221783   1.229   1.233   3.443
 6962SOL     OW21784   5.042   4.486   1.676
 6962SOL    HW121785   4.971   4.554   1.695
 6962SOL    HW221786   5.051   4.425   1.755
 6963SOL     OW21787   0.736   4.920   1.973
 6963SOL    HW121788   0.639   4.917   1.998
 6963SOL    HW221789   0.784   4.844   2.016
 6964SOL     OW21790   4.353   5.368   4.909
 6964SOL    HW121791   4.338   5.285   4.855
 6964SOL    HW221792   4.385   5.441   4.849
 6965SOL     OW21793   6.859   2.857   5.857
 6965SOL    HW121794   6.828   2.951   5.871
 6965SOL    HW221795   6.861   2.810   5.945
 6966SOL     OW21796   4.879   2.323   2.589
 6966SOL    HW121797   4.842   2.286   2.504
 6966SOL    HW221798   4.978   2.310   2.591
 6967SOL     OW21799   1.300   1.938   5.813
 6967SOL    HW121800   1.292   1.849   5.767
 6967SOL    HW221801   1.224   1.949   5.877
 6968SOL     OW21802   4.366   5.862   1.388
 6968SOL    HW121803   4.402   5.951   1.414
 6968SOL    HW221804   4.266   5.862   1.399
 6969SOL     OW21805   3.346   1.878   0.504
 6969SOL    HW121806   3.421   1.821   0.538
 6969SOL    HW221807   3.301   1.924   0.580
 6970SOL     OW21808   4.426   4.523   0.490
 6970SOL    HW121809   4.455   4.468   0.412
 6970SOL    HW221810   4.446   4.474   0.575
 6971SOL     OW21811   6.025   2.508   2.013
 6971SOL    HW121812   5.989   2.486   1.923
 6971SOL    HW221813   6.034   2.424   2.067
 6972SOL     OW21814   5.478   4.598   4.624
 6972SOL    HW121815   5.430   4.672   4.671
 6972SOL    HW221816   5.431   4.512   4.641
 6973SOL     OW21817   2.260   5.298   4.223
 6973SOL    HW121818   2.230   5.212   4.182
 6973SOL    HW221819   2.341   5.333   4.175
 6974SOL     OW21820   3.148   3.998   3.804
 6974SOL    HW121821   3.212   3.941   3.753
 6974SOL    HW221822   3.198   4.071   3.851
 6975SOL     OW21823   4.012   0.610   5.578
 6975SOL    HW121824   3.915   0.617   5.556
 6975SOL    HW221825   4.023   0.560   5.664
 6976SOL     OW21826   2.635   5.067   6.428
 6976SOL    HW121827   2.541   5.089   6.401
 6976SOL    HW221828   2.644   5.074   6.527
 6977SOL     OW21829   3.563   1.496   2.566
 6977SOL    HW121830   3.602   1.419   2.616
 6977SOL    HW221831   3.463   1.492   2.569
 6978SOL     OW21832   0.504   0.757   1.764
 6978SOL    HW121833   0.521   0.779   1.668
 6978SOL    HW221834   0.440   0.824   1.802
 6979SOL     OW21835   0.571   4.594   2.576
 6979SOL    HW121836   0.492   4.650   2.599
 6979SOL    HW221837   0.558   4.552   2.486
 6980SOL     OW21838   2.449   1.090   4.090
 6980SOL    HW121839   2.491   1.156   4.152
 6980SOL    HW221840   2.502   1.005   4.091
 6981SOL     OW21841   2.328   4.946   0.694
 6981SOL    HW121842   2.419   4.984   0.710
 6981SOL    HW221843   2.281   4.934   0.782
 6982SOL     OW21844   1.135   6.975   3.973
 6982SOL    HW121845   1.048   7.024   3.978
 6982SOL    HW221846   1.190   7.011   3.898
 6983SOL     OW21847   6.620   0.375   4.673
 6983SOL    HW121848   6.653   0.460   4.632
 6983SOL    HW221849   6.628   0.301   4.606
 6984SOL     OW21850   2.035   2.060   5.785
 6984SOL    HW121851   2.033   2.143   5.730
 6984SOL    HW221852   2.128   2.023   5.786
 6985SOL     OW21853   4.165   5.701   2.374
 6985SOL    HW121854   4.127   5.752   2.451
 6985SOL    HW221855   4.177   5.605   2.401
 6986SOL     OW21856   1.945   6.134   5.686
 6986SOL    HW121857   1.903   6.145   5.596
 6986SOL    HW221858   1.878   6.096   5.750
 6987SOL     OW21859   0.195   2.675   6.377
 6987SOL    HW121860   0.204   2.697   6.280
 6987SOL    HW221861   0.286   2.655   6.415
 6988SOL     OW21862   5.177   1.513   3.880
 6988SOL    HW121863   5.225   1.429   3.854
 6988SOL    HW221864   5.107   1.492   3.948
 6989SOL     OW21865   1.115   1.817   3.569
 6989SOL    HW121866   1.173   1.882   3.619
 6989SOL    HW221867   1.034   1.797   3.623
 6990SOL     OW21868   4.524   3.310   7.016
 6990SOL    HW121869   4.478   3.379   0.048
 6990SOL    HW221870   4.455   3.250   6.975
 6991SOL     OW21871   2.561   4.744   5.451
 6991SOL    HW121872   2.493   4.676   5.425
 6991SOL    HW221873   2.653   4.706   5.435
 6992SOL     OW21874   6.105   6.241   4.368
 6992SOL    HW121875   6.069   6.309   4.304
 6992SOL    HW221876   6.109   6.281   4.460
 6993SOL     OW21877   0.047   0.627   3.176
 6993SOL    HW121878   6.996   0.577   3.133
 6993SOL    HW221879   0.029   0.725   3.171
 6994SOL     OW21880   1.554   3.028   5.954
 6994SOL    HW121881   1.622   3.048   6.025
 6994SOL    HW221882   1.465   3.010   5.998
 6995SOL     OW21883   5.444   5.486   3.716
 6995SOL    HW121884   5.412   5.521   3.804
 6995SOL    HW221885   5.462   5.388   3.723
 6996SOL     OW21886   2.849   0.429   5.254
 6996SOL    HW121887   2.831   0.515   5.303
 6996SOL    HW221888   2.779   0.362   5.278
 6997SOL     OW21889   4.536   6.054   4.877
 6997SOL    HW121890   4.582   5.968   4.856
 6997SOL    HW221891   4.576   6.093   4.961
 6998SOL     OW21892   1.691   3.519   2.501
 6998SOL    HW121893   1.631   3.491   2.426
 6998SOL    HW221894   1.649   3.493   2.588
 6999SOL     OW21895   3.066   1.954   6.098
 6999SOL    HW121896   3.117   1.965   6.184
 6999SOL    HW221897   3.063   2.042   6.051
 7000SOL     OW21898   0.720   6.621   2.980
 7000SOL    HW121899   0.647   6.675   2.939
 7000SOL    HW221900   0.725   6.532   2.935
 7001SOL     OW21901   2.417   2.908   5.753
 7001SOL    HW121902   2.385   2.965   5.677
 7001SOL    HW221903   2.384   2.946   5.839
 7002SOL     OW21904   0.784   5.275   3.460
 7002SOL    HW121905   0.878   5.302   3.480
 7002SOL    HW221906   0.731   5.355   3.432
 7003SOL     OW21907   3.203   6.790   0.842
 7003SOL    HW121908   3.232   6.799   0.747
 7003SOL    HW221909   3.281   6.765   0.899
 7004SOL     OW21910   1.467   4.161   1.211
 7004SOL    HW121911   1.485   4.233   1.144
 7004SOL    HW221912   1.548   4.147   1.268
 7005SOL     OW21913   5.314   6.411   6.868
 7005SOL    HW121914   5.257   6.485   6.834
 7005SOL    HW221915   5.361   6.440   6.951
 7006SOL     OW21916   4.780   4.445   4.655
 7006SOL    HW121917   4.694   4.487   4.684
 7006SOL    HW221918   4.840   4.514   4.614
 7007SOL     OW21919   4.494   6.608   2.928
 7007SOL    HW121920   4.431   6.610   3.005
 7007SOL    HW221921   4.573   6.552   2.951
 7008SOL     OW21922   2.038   5.129   4.813
 7008SOL    HW121923   1.972   5.064   4.776
 7008SOL    HW221924   2.101   5.157   4.741
 7009SOL     OW21925   6.507   5.501   2.350
 7009SOL    HW121926   6.476   5.582   2.300
 7009SOL    HW221927   6.474   5.419   2.303
 7010SOL     OW21928   3.633   4.853   6.410
 7010SOL    HW121929   3.602   4.900   6.327
 7010SOL    HW221930   3.715   4.899   6.444
 7011SOL     OW21931   2.446   6.750   5.696
 7011SOL    HW121932   2.454   6.833   5.642
 7011SOL    HW221933   2.354   6.745   5.737
 7012SOL     OW21934   1.080   0.474   1.964
 7012SOL    HW121935   0.987   0.500   1.989
 7012SOL    HW221936   1.135   0.463   2.047
 7013SOL     OW21937   0.866   0.019   1.287
 7013SOL    HW121938   0.876   6.953   1.330
 7013SOL    HW221939   0.953   0.046   1.246
 7014SOL     OW21940   2.773   4.554   1.171
 7014SOL    HW121941   2.817   4.587   1.255
 7014SOL    HW221942   2.722   4.470   1.191
 7015SOL     OW21943   4.699   2.804   2.239
 7015SOL    HW121944   4.699   2.854   2.325
 7015SOL    HW221945   4.748   2.856   2.170
 7016SOL     OW21946   4.269   4.948   1.378
 7016SOL    HW121947   4.205   4.916   1.448
 7016SOL    HW221948   4.259   5.047   1.366
 7017SOL     OW21949   3.157   1.741   3.459
 7017SOL    HW121950   3.107   1.820   3.424
 7017SOL    HW221951   3.114   1.709   3.543
 7018SOL     OW21952   0.296   3.973   4.540
 7018SOL    HW121953   0.202   3.970   4.574
 7018SOL    HW221954   0.302   3.922   4.454
 7019SOL     OW21955   3.010   5.298   6.532
 7019SOL    HW121956   2.926   5.342   6.499
 7019SOL    HW221957   2.986   5.224   6.596
 7020SOL     OW21958   5.804   0.346   6.523
 7020SOL    HW121959   5.902   0.341   6.506
 7020SOL    HW221960   5.763   0.256   6.507
 7021SOL     OW21961   2.190   1.065   5.275
 7021SOL    HW121962   2.279   1.018   5.274
 7021SOL    HW221963   2.144   1.045   5.362
 7022SOL     OW21964   5.236   3.614   0.324
 7022SOL    HW121965   5.292   3.542   0.284
 7022SOL    HW221966   5.236   3.605   0.424
 7023SOL     OW21967   6.193   2.107   1.758
 7023SOL    HW121968   6.094   2.110   1.774
 7023SOL    HW221969   6.223   2.193   1.717
 7024SOL     OW21970   1.647   6.050   6.734
 7024SOL    HW121971   1.629   6.003   6.648
 7024SOL    HW221972   1.739   6.091   6.731
 7025SOL     OW21973   3.348   2.069   6.629
 7025SOL    HW121974   3.370   2.124   6.709
 7025SOL    HW221975   3.317   2.129   6.555
 7026SOL     OW21976   3.691   2.075   1.511
 7026SOL    HW121977   3.594   2.052   1.503
 7026SOL    HW221978   3.742   2.030   1.437
 7027SOL     OW21979   4.101   5.567   3.840
 7027SOL    HW121980   4.088   5.499   3.768
 7027SOL    HW221981   4.158   5.642   3.804
 7028SOL     OW21982   4.509   6.649   3.612
 7028SOL    HW121983   4.489   6.578   3.680
 7028SOL    HW221984   4.452   6.635   3.531
 7029SOL     OW21985   3.761   6.405   0.232
 7029SOL    HW121986   3.810   6.492   0.240
 7029SOL    HW221987   3.822   6.329   0.255
 7030SOL     OW21988   0.072   3.157   5.386
 7030SOL    HW121989   0.048   3.185   5.479
 7030SOL    HW221990   0.171   3.165   5.374
 7031SOL     OW21991   2.043   5.493   4.164
 7031SOL    HW121992   2.108   5.423   4.195
 7031SOL    HW221993   2.084   5.584   4.176
 7032SOL     OW21994   5.708   0.502   2.909
 7032SOL    HW121995   5.641   0.452   2.963
 7032SOL    HW221996   5.789   0.446   2.896
 7033SOL     OW21997   0.385   1.145   3.960
 7033SOL    HW121998   0.414   1.062   3.912
 7033SOL    HW221999   0.438   1.154   4.044
 7034SOL     OW22000   5.763   0.316   3.282
 7034SOL    HW122001   5.727   0.407   3.304
 7034SOL    HW222002   5.819   0.283   3.358
 7035SOL     OW22003   7.013   6.047   2.862
 7035SOL    HW122004   0.001   6.141   2.830
 7035SOL    HW222005   6.944   6.002   2.806
 7036SOL     OW22006   6.596   5.410   1.625
 7036SOL    HW122007   6.630   5.504   1.635
 7036SOL    HW222008   6.654   5.348   1.677
 7037SOL     OW22009   0.909   6.166   5.614
 7037SOL    HW122010   0.904   6.225   5.533
 7037SOL    HW222011   0.853   6.084   5.599
 7038SOL     OW22012   1.187   4.530   3.727
 7038SOL    HW122013   1.221   4.487   3.811
 7038SOL    HW222014   1.265   4.555   3.670
 7039SOL     OW22015   3.795   1.046   6.319
 7039SOL    HW122016   3.885   1.080   6.293
 7039SOL    HW222017   3.789   1.040   6.419
 7040SOL     OW22018   4.264   2.494   6.620
 7040SOL    HW122019   4.332   2.567   6.621
 7040SOL    HW222020   4.242   2.470   6.526
 7041SOL     OW22021   1.534   1.461   2.940
 7041SOL    HW122022   1.505   1.550   2.906
 7041SOL    HW222023   1.523   1.393   2.868
 7042SOL     OW22024   4.143   5.422   6.678
 7042SOL    HW122025   4.240   5.436   6.697
 7042SOL    HW222026   4.133   5.363   6.598
 7043SOL     OW22027   1.775   1.924   3.496
 7043SOL    HW122028   1.787   1.830   3.464
 7043SOL    HW222029   1.686   1.934   3.541
 7044SOL     OW22030   4.817   4.456   2.817
 7044SOL    HW122031   4.752   4.381   2.833
 7044SOL    HW222032   4.812   4.484   2.721
 7045SOL     OW22033   5.600   6.228   1.071
 7045SOL    HW122034   5.501   6.241   1.071
 7045SOL    HW222035   5.640   6.281   1.146
 7046SOL     OW22036   3.805   0.756   4.683
 7046SOL    HW122037   3.849   0.738   4.595
 7046SOL    HW222038   3.859   0.715   4.756
 7047SOL     OW22039   0.712   1.100   3.980
 7047SOL    HW122040   0.811   1.092   3.981
 7047SOL    HW222041   0.679   1.114   4.074
 7048SOL     OW22042   6.773   6.365   1.210
 7048SOL    HW122043   6.710   6.298   1.250
 7048SOL    HW222044   6.746   6.385   1.116
 7049SOL     OW22045   2.346   1.359   1.071
 7049SOL    HW122046   2.328   1.285   1.137
 7049SOL    HW222047   2.444   1.378   1.069
 7050SOL     OW22048   3.232   4.086   4.390
 7050SOL    HW122049   3.202   4.175   4.424
 7050SOL    HW222050   3.258   4.028   4.467
 7051SOL     OW22051   0.307   0.186   1.417
 7051SOL    HW122052   0.294   0.087   1.409
 7051SOL    HW222053   0.404   0.208   1.412
 7052SOL     OW22054   6.970   1.930   4.484
 7052SOL    HW122055   0.010   1.901   4.556
 7052SOL    HW222056   7.015   1.922   4.395
 7053SOL     OW22057   0.440   4.028   6.542
 7053SOL    HW122058   0.486   3.977   6.615
 7053SOL    HW222059   0.343   4.004   6.542
 7054SOL     OW22060   6.089   6.899   1.277
 7054SOL    HW122061   6.080   6.866   1.371
 7054SOL    HW222062   6.080   6.999   1.276
 7055SOL     OW22063   4.586   0.271   5.285
 7055SOL    HW122064   4.579   0.177   5.318
 7055SOL    HW222065   4.682   0.299   5.285
 7056SOL     OW22066   5.779   4.912   3.435
 7056SOL    HW122067   5.766   4.904   3.337
 7056SOL    HW222068   5.705   4.864   3.483
 7057SOL     OW22069   0.507   4.398   3.544
 7057SOL    HW122070   0.478   4.322   3.602
 7057SOL    HW222071   0.604   4.389   3.522
 7058SOL     OW22072   0.524   5.165   5.035
 7058SOL    HW122073   0.572   5.120   4.959
 7058SOL    HW222074   0.548   5.262   5.036
 7059SOL     OW22075   0.750   0.348   2.103
 7059SOL    HW122076   0.664   0.318   2.063
 7059SOL    HW222077   0.742   0.444   2.132
 7060SOL     OW22078   3.303   6.630   1.498
 7060SOL    HW122079   3.343   6.545   1.532
 7060SOL    HW222080   3.262   6.680   1.574
 7061SOL     OW22081   0.421   1.385   3.118
 7061SOL    HW122082   0.443   1.300   3.069
 7061SOL    HW222083   0.487   1.398   3.192
 7062SOL     OW22084   5.949   1.776   5.335
 7062SOL    HW122085   5.938   1.875   5.330
 7062SOL    HW222086   6.042   1.754   5.365
 7063SOL     OW22087   1.968   6.641   1.296
 7063SOL    HW122088   1.883   6.648   1.243
 7063SOL    HW222089   2.046   6.662   1.237
 7064SOL     OW22090   4.355   2.068   2.255
 7064SOL    HW122091   4.261   2.072   2.222
 7064SOL    HW222092   4.358   2.022   2.344
 7065SOL     OW22093   4.302   3.855   1.503
 7065SOL    HW122094   4.337   3.823   1.591
 7065SOL    HW222095   4.358   3.819   1.429
 7066SOL     OW22096   3.823   0.273   0.729
 7066SOL    HW122097   3.788   0.271   0.822
 7066SOL    HW222098   3.748   0.256   0.665
 7067SOL     OW22099   0.899   3.850   5.848
 7067SOL    HW122100   0.871   3.766   5.802
 7067SOL    HW222101   0.975   3.892   5.797
 7068SOL     OW22102   1.397   1.985   3.358
 7068SOL    HW122103   1.456   1.923   3.306
 7068SOL    HW222104   1.301   1.965   3.338
 7069SOL     OW22105   6.444   4.021   5.314
 7069SOL    HW122106   6.442   3.951   5.243
 7069SOL    HW222107   6.535   4.064   5.316
 7070SOL     OW22108   6.465   4.836   5.248
 7070SOL    HW122109   6.461   4.737   5.256
 7070SOL    HW222110   6.394   4.867   5.185
 7071SOL     OW22111   1.360   5.760   5.390
 7071SOL    HW122112   1.414   5.817   5.452
 7071SOL    HW222113   1.400   5.760   5.299
 7072SOL     OW22114   6.513   6.260   5.722
 7072SOL    HW122115   6.455   6.312   5.659
 7072SOL    HW222116   6.574   6.322   5.771
 7073SOL     OW22117   0.042   1.044   5.534
 7073SOL    HW122118   0.062   1.126   5.480
 7073SOL    HW222119   0.028   1.069   5.629
 7074SOL     OW22120   3.278   2.485   1.666
 7074SOL    HW122121   3.223   2.477   1.583
 7074SOL    HW222122   3.367   2.442   1.653
 7075SOL     OW22123   1.945   6.105   4.173
 7075SOL    HW122124   1.967   6.042   4.099
 7075SOL    HW222125   1.862   6.074   4.220
 7076SOL     OW22126   3.814   1.648   6.460
 7076SOL    HW122127   3.774   1.601   6.381
 7076SOL    HW222128   3.903   1.609   6.481
 7077SOL     OW22129   2.208   5.910   5.369
 7077SOL    HW122130   2.177   5.816   5.384
 7077SOL    HW222131   2.178   5.968   5.444
 7078SOL     OW22132   6.244   6.885   3.495
 7078SOL    HW122133   6.291   6.908   3.410
 7078SOL    HW222134   6.284   6.802   3.534
 7079SOL     OW22135   6.502   5.886   6.308
 7079SOL    HW122136   6.582   5.863   6.252
 7079SOL    HW222137   6.430   5.923   6.249
 7080SOL     OW22138   4.204   2.298   4.118
 7080SOL    HW122139   4.112   2.293   4.079
 7080SOL    HW222140   4.271   2.285   4.045
 7081SOL     OW22141   3.163   1.418   5.326
 7081SOL    HW122142   3.151   1.498   5.269
 7081SOL    HW222143   3.239   1.363   5.293
 7082SOL     OW22144   5.639   1.313   6.797
 7082SOL    HW122145   5.574   1.243   6.825
 7082SOL    HW222146   5.717   1.271   6.751
 7083SOL     OW22147   3.142   0.995   6.102
 7083SOL    HW122148   3.236   0.962   6.115
 7083SOL    HW222149   3.133   1.036   6.012
 7084SOL     OW22150   6.808   6.417   5.851
 7084SOL    HW122151   6.824   6.369   5.765
 7084SOL    HW222152   6.730   6.479   5.841
 7085SOL     OW22153   2.431   2.239   3.459
 7085SOL    HW122154   2.505   2.254   3.394
 7085SOL    HW222155   2.468   2.197   3.542
 7086SOL     OW22156   5.009   0.923   6.688
 7086SOL    HW122157   5.030   0.964   6.599
 7086SOL    HW222158   4.938   0.978   6.733
 7087SOL     OW22159   0.730   3.682   4.424
 7087SOL    HW122160   0.739   3.583   4.412
 7087SOL    HW222161   0.639   3.702   4.461
 7088SOL     OW22162   5.237   3.092   4.286
 7088SOL    HW122163   5.262   3.069   4.380
 7088SOL    HW222164   5.142   3.125   4.285
 7089SOL     OW22165   3.550   2.399   6.254
 7089SOL    HW122166   3.616   2.381   6.328
 7089SOL    HW222167   3.487   2.471   6.281
 7090SOL     OW22168   1.742   1.754   5.486
 7090SOL    HW122169   1.829   1.799   5.465
 7090SOL    HW222170   1.757   1.681   5.553
 7091SOL     OW22171   0.635   1.007   0.388
 7091SOL    HW122172   0.709   1.064   0.351
 7091SOL    HW222173   0.635   1.014   0.488
 7092SOL     OW22174   3.753   4.022   0.191
 7092SOL    HW122175   3.785   4.013   0.096
 7092SOL    HW222176   3.699   3.941   0.216
 7093SOL     OW22177   3.187   3.902   4.183
 7093SOL    HW122178   3.189   3.970   4.256
 7093SOL    HW222179   3.280   3.890   4.146
 7094SOL     OW22180   0.712   6.394   6.037
 7094SOL    HW122181   0.672   6.401   5.946
 7094SOL    HW222182   0.691   6.304   6.076
 7095SOL     OW22183   1.978   3.073   6.867
 7095SOL    HW122184   1.897   3.061   6.924
 7095SOL    HW222185   1.973   3.162   6.822
 7096SOL     OW22186   4.905   2.093   4.100
 7096SOL    HW122187   4.807   2.074   4.110
 7096SOL    HW222188   4.947   2.020   4.045
 7097SOL     OW22189   6.961   0.880   2.050
 7097SOL    HW122190   6.870   0.921   2.053
 7097SOL    HW222191   7.016   0.926   1.981
 7098SOL     OW22192   1.791   6.010   5.864
 7098SOL    HW122193   1.703   5.963   5.876
 7098SOL    HW222194   1.842   6.006   5.950
 7099SOL     OW22195   1.608   1.361   4.975
 7099SOL    HW122196   1.522   1.371   5.024
 7099SOL    HW222197   1.594   1.382   4.878
 7100SOL     OW22198   4.767   3.952   1.121
 7100SOL    HW122199   4.847   3.896   1.098
 7100SOL    HW222200   4.684   3.905   1.091
 7101SOL     OW22201   3.142   0.493   4.590
 7101SOL    HW122202   3.096   0.581   4.584
 7101SOL    HW222203   3.074   0.421   4.602
 7102SOL     OW22204   4.447   1.333   1.059
 7102SOL    HW122205   4.460   1.242   1.019
 7102SOL    HW222206   4.456   1.402   0.988
 7103SOL     OW22207   3.832   6.361   7.000
 7103SOL    HW122208   3.748   6.379   6.950
 7103SOL    HW222209   3.818   6.383   0.073
 7104SOL     OW22210   1.697   2.739   3.218
 7104SOL    HW122211   1.795   2.721   3.211
 7104SOL    HW222212   1.667   2.724   3.312
 7105SOL     OW22213   3.261   3.337   4.557
 7105SOL    HW122214   3.163   3.317   4.552
 7105SOL    HW222215   3.283   3.410   4.492
 7106SOL     OW22216   3.642   2.932   4.910
 7106SOL    HW122217   3.740   2.950   4.912
 7106SOL    HW222218   3.615   2.884   4.993
 7107SOL     OW22219   2.840   1.218   0.271
 7107SOL    HW122220   2.751   1.188   0.237
 7107SOL    HW222221   2.904   1.142   0.268
 7108SOL     OW22222   5.424   6.351   1.435
 7108SOL    HW122223   5.459   6.356   1.342
 7108SOL    HW222224   5.446   6.261   1.474
 7109SOL     OW22225   3.368   0.311   6.483
 7109SOL    HW122226   3.417   0.318   6.570
 7109SOL    HW222227   3.312   0.229   6.482
 7110SOL     OW22228   5.266   5.172   4.053
 7110SOL    HW122229   5.285   5.252   3.995
 7110SOL    HW222230   5.183   5.188   4.105
 7111SOL     OW22231   1.494   3.717   4.305
 7111SOL    HW122232   1.446   3.732   4.391
 7111SOL    HW222233   1.472   3.791   4.241
 7112SOL     OW22234   1.249   6.090   4.008
 7112SOL    HW122235   1.309   6.084   3.928
 7112SOL    HW222236   1.305   6.092   4.091
 7113SOL     OW22237   3.848   4.092   4.220
 7113SOL    HW122238   3.817   4.012   4.271
 7113SOL    HW222239   3.865   4.167   4.283
 7114SOL     OW22240   4.050   0.616   1.801
 7114SOL    HW122241   4.050   0.535   1.742
 7114SOL    HW222242   3.957   0.635   1.831
 7115SOL     OW22243   4.965   1.964   1.331
 7115SOL    HW122244   4.908   2.035   1.371
 7115SOL    HW222245   4.987   1.896   1.401
 7116SOL     OW22246   5.514   4.204   3.994
 7116SOL    HW122247   5.496   4.107   4.012
 7116SOL    HW222248   5.605   4.228   4.029
 7117SOL     OW22249   6.507   5.926   3.361
 7117SOL    HW122250   6.491   5.885   3.271
 7117SOL    HW222251   6.561   6.009   3.351
 7118SOL     OW22252   5.270   3.863   1.229
 7118SOL    HW122253   5.249   3.921   1.308
 7118SOL    HW222254   5.201   3.877   1.158
 7119SOL     OW22255   5.977   1.422   2.879
 7119SOL    HW122256   6.033   1.473   2.943
 7119SOL    HW222257   6.022   1.420   2.790
 7120SOL     OW22258   5.184   1.579   3.576
 7120SOL    HW122259   5.203   1.555   3.671
 7120SOL    HW222260   5.239   1.523   3.515
 7121SOL     OW22261   2.500   6.693   3.871
 7121SOL    HW122262   2.513   6.650   3.782
 7121SOL    HW222263   2.411   6.667   3.907
 7122SOL     OW22264   6.626   0.949   0.277
 7122SOL    HW122265   6.609   1.002   0.193
 7122SOL    HW222266   6.713   0.900   0.268
 7123SOL     OW22267   2.966   5.703   1.868
 7123SOL    HW122268   2.944   5.801   1.867
 7123SOL    HW222269   3.064   5.691   1.881
 7124SOL     OW22270   0.733   4.948   0.432
 7124SOL    HW122271   0.650   4.962   0.485
 7124SOL    HW222272   0.794   5.027   0.443
 7125SOL     OW22273   6.264   6.573   2.023
 7125SOL    HW122274   6.336   6.615   1.967
 7125SOL    HW222275   6.208   6.514   1.966
 7126SOL     OW22276   2.500   4.076   0.476
 7126SOL    HW122277   2.479   4.016   0.554
 7126SOL    HW222278   2.430   4.064   0.406
 7127SOL     OW22279   3.872   5.584   4.001
 7127SOL    HW122280   3.813   5.503   4.008
 7127SOL    HW222281   3.953   5.561   3.947
 7128SOL     OW22282   3.631   4.812   0.453
 7128SOL    HW122283   3.558   4.749   0.425
 7128SOL    HW222284   3.704   4.760   0.498
 7129SOL     OW22285   3.077   0.680   1.073
 7129SOL    HW122286   2.985   0.665   1.111
 7129SOL    HW222287   3.069   0.701   0.976
 7130SOL     OW22288   3.183   4.971   3.973
 7130SOL    HW122289   3.276   4.935   3.980
 7130SOL    HW222290   3.186   5.060   3.927
 7131SOL     OW22291   2.979   1.616   2.396
 7131SOL    HW122292   2.934   1.574   2.317
 7131SOL    HW222293   2.999   1.712   2.377
 7132SOL     OW22294   4.149   3.431   3.062
 7132SOL    HW122295   4.113   3.454   3.152
 7132SOL    HW222296   4.198   3.509   3.025
 7133SOL     OW22297   4.468   5.720   3.139
 7133SOL    HW122298   4.377   5.739   3.176
 7133SOL    HW222299   4.463   5.641   3.078
 7134SOL     OW22300   5.969   6.040   3.992
 7134SOL    HW122301   6.030   6.057   3.914
 7134SOL    HW222302   5.961   5.942   4.007
 7135SOL     OW22303   1.296   0.689   4.344
 7135SOL    HW122304   1.281   0.784   4.370
 7135SOL    HW222305   1.208   0.647   4.322
 7136SOL     OW22306   2.107   1.235   0.527
 7136SOL    HW122307   2.096   1.212   0.430
 7136SOL    HW222308   2.145   1.326   0.537
 7137SOL     OW22309   4.600   1.083   4.913
 7137SOL    HW122310   4.634   1.165   4.868
 7137SOL    HW222311   4.633   1.002   4.864
 7138SOL     OW22312   3.382   2.957   1.049
 7138SOL    HW122313   3.284   2.972   1.036
 7138SOL    HW222314   3.424   3.040   1.087
 7139SOL     OW22315   4.827   3.049   1.680
 7139SOL    HW122316   4.903   3.108   1.707
 7139SOL    HW222317   4.770   3.029   1.760
 7140SOL     OW22318   6.042   3.818   4.704
 7140SOL    HW122319   6.068   3.724   4.682
 7140SOL    HW222320   6.121   3.878   4.694
 7141SOL     OW22321   3.005   0.209   0.919
 7141SOL    HW122322   2.960   0.219   1.007
 7141SOL    HW222323   2.990   0.291   0.864
 7142SOL     OW22324   4.368   6.414   3.704
 7142SOL    HW122325   4.321   6.410   3.792
 7142SOL    HW222326   4.370   6.323   3.662
 7143SOL     OW22327   1.802   4.376   5.877
 7143SOL    HW122328   1.717   4.343   5.836
 7143SOL    HW222329   1.829   4.462   5.833
 7144SOL     OW22330   0.589   1.236   2.829
 7144SOL    HW122331   0.540   1.238   2.742
 7144SOL    HW222332   0.530   1.198   2.900
 7145SOL     OW22333   4.395   6.838   6.907
 7145SOL    HW122334   4.397   6.931   6.943
 7145SOL    HW222335   4.322   6.786   6.952
 7146SOL     OW22336   3.127   6.315   0.505
 7146SOL    HW122337   3.176   6.228   0.498
 7146SOL    HW222338   3.084   6.322   0.595
 7147SOL     OW22339   6.650   0.084   3.390
 7147SOL    HW122340   6.666   7.018   3.430
 7147SOL    HW222341   6.713   0.150   3.431
 7148SOL     OW22342   1.240   6.417   1.745
 7148SOL    HW122343   1.257   6.391   1.840
 7148SOL    HW222344   1.143   6.406   1.724
 7149SOL     OW22345   6.196   0.988   3.859
 7149SOL    HW122346   6.123   0.929   3.894
 7149SOL    HW222347   6.245   0.941   3.786
 7150SOL     OW22348   5.313   2.953   0.800
 7150SOL    HW122349   5.293   2.970   0.896
 7150SOL    HW222350   5.233   2.976   0.745
 7151SOL     OW22351   1.980   5.785   1.310
 7151SOL    HW122352   2.065   5.828   1.339
 7151SOL    HW222353   1.983   5.766   1.212
 7152SOL     OW22354   0.355   3.252   4.583
 7152SOL    HW122355   0.445   3.282   4.613
 7152SOL    HW222356   0.299   3.332   4.558
 7153SOL     OW22357   4.252   0.102   5.206
 7153SOL    HW122358   4.296   0.192   5.199
 7153SOL    HW222359   4.267   0.051   5.122
 7154SOL     OW22360   3.766   5.801   4.166
 7154SOL    HW122361   3.842   5.854   4.203
 7154SOL    HW222362   3.801   5.732   4.102
 7155SOL     OW22363   1.157   6.103   2.203
 7155SOL    HW122364   1.139   6.009   2.231
 7155SOL    HW222365   1.210   6.103   2.119
 7156SOL     OW22366   6.805   5.176   5.359
 7156SOL    HW122367   6.905   5.172   5.356
 7156SOL    HW222368   6.768   5.143   5.273
 7157SOL     OW22369   5.867   5.746   0.194
 7157SOL    HW122370   5.887   5.832   0.146
 7157SOL    HW222371   5.838   5.677   0.129
 7158SOL     OW22372   6.747   6.620   3.000
 7158SOL    HW122373   6.674   6.627   3.068
 7158SOL    HW222374   6.740   6.697   2.936
 7159SOL     OW22375   0.231   5.164   1.332
 7159SOL    HW122376   0.204   5.236   1.397
 7159SOL    HW222377   0.318   5.190   1.289
 7160SOL     OW22378   6.553   6.893   1.632
 7160SOL    HW122379   6.511   6.966   1.686
 7160SOL    HW222380   6.484   6.825   1.608
 7161SOL     OW22381   3.485   2.995   3.783
 7161SOL    HW122382   3.471   3.091   3.762
 7161SOL    HW222383   3.546   2.987   3.862
 7162SOL     OW22384   3.607   5.009   4.515
 7162SOL    HW122385   3.514   4.980   4.536
 7162SOL    HW222386   3.616   5.022   4.416
 7163SOL     OW22387   3.754   7.000   3.487
 7163SOL    HW122388   3.706   0.057   3.521
 7163SOL    HW222389   3.697   6.919   3.502
 7164SOL     OW22390   2.130   1.530   3.361
 7164SOL    HW122391   2.222   1.492   3.354
 7164SOL    HW222392   2.110   1.552   3.457
 7165SOL     OW22393   6.035   1.176   0.374
 7165SOL    HW122394   5.941   1.202   0.351
 7165SOL    HW222395   6.080   1.253   0.421
 7166SOL     OW22396   4.791   4.325   1.265
 7166SOL    HW122397   4.890   4.338   1.274
 7166SOL    HW222398   4.750   4.317   1.356
 7167SOL     OW22399   4.763   3.798   5.278
 7167SOL    HW122400   4.759   3.720   5.215
 7167SOL    HW222401   4.670   3.831   5.295
 7168SOL     OW22402   1.349   1.320   4.141
 7168SOL    HW122403   1.343   1.396   4.077
 7168SOL    HW222404   1.401   1.245   4.101
 7169SOL     OW22405   1.579   3.255   5.805
 7169SOL    HW122406   1.564   3.182   5.872
 7169SOL    HW222407   1.646   3.225   5.738
 7170SOL     OW22408   5.040   4.992   3.025
 7170SOL    HW122409   4.983   5.010   3.105
 7170SOL    HW222410   5.060   4.894   3.020
 7171SOL     OW22411   4.497   3.122   5.524
 7171SOL    HW122412   4.466   3.039   5.477
 7171SOL    HW222413   4.482   3.112   5.622
 7172SOL     OW22414   1.542   6.288   0.500
 7172SOL    HW122415   1.532   6.376   0.546
 7172SOL    HW222416   1.528   6.299   0.402
 7173SOL     OW22417   6.777   5.250   4.253
 7173SOL    HW122418   6.715   5.177   4.223
 7173SOL    HW222419   6.724   5.323   4.295
 7174SOL     OW22420   2.078   5.023   0.190
 7174SOL    HW122421   2.144   5.071   0.133
 7174SOL    HW222422   2.111   4.930   0.207
 7175SOL     OW22423   5.286   3.540   0.617
 7175SOL    HW122424   5.377   3.503   0.596
 7175SOL    HW222425   5.284   3.569   0.713
 7176SOL     OW22426   6.889   4.568   2.187
 7176SOL    HW122427   6.923   4.529   2.102
 7176SOL    HW222428   6.961   4.568   2.256
 7177SOL     OW22429   1.211   5.784   3.621
 7177SOL    HW122430   1.148   5.712   3.595
 7177SOL    HW222431   1.300   5.769   3.577
 7178SOL     OW22432   1.428   3.170   5.218
 7178SOL    HW122433   1.504   3.174   5.284
 7178SOL    HW222434   1.348   3.131   5.263
 7179SOL     OW22435   2.892   3.465   5.731
 7179SOL    HW122436   2.947   3.527   5.788
 7179SOL    HW222437   2.806   3.509   5.707
 7180SOL     OW22438   0.912   5.976   6.924
 7180SOL    HW122439   1.005   6.003   6.898
 7180SOL    HW222440   0.909   5.877   6.938
 7181SOL     OW22441   3.846   0.852   1.000
 7181SOL    HW122442   3.901   0.843   1.083
 7181SOL    HW222443   3.771   0.786   1.003
 7182SOL     OW22444   1.946   4.410   5.210
 7182SOL    HW122445   2.040   4.442   5.222
 7182SOL    HW222446   1.946   4.310   5.202
 7183SOL     OW22447   1.677   5.108   2.436
 7183SOL    HW122448   1.736   5.028   2.427
 7183SOL    HW222449   1.605   5.105   2.367
 7184SOL     OW22450   1.319   6.522   4.135
 7184SOL    HW122451   1.265   6.599   4.099
 7184SOL    HW222452   1.382   6.491   4.064
 7185SOL     OW22453   4.950   2.959   6.651
 7185SOL    HW122454   4.881   3.025   6.620
 7185SOL    HW222455   4.935   2.938   6.748
 7186SOL     OW22456   6.759   6.539   5.530
 7186SOL    HW122457   6.833   6.606   5.523
 7186SOL    HW222458   6.710   6.553   5.616
 7187SOL     OW22459   1.328   4.847   1.661
 7187SOL    HW122460   1.425   4.871   1.672
 7187SOL    HW222461   1.296   4.801   1.744
 7188SOL     OW22462   5.559   0.300   2.341
 7188SOL    HW122463   5.595   0.336   2.427
 7188SOL    HW222464   5.498   0.368   2.300
 7189SOL     OW22465   6.611   1.036   6.089
 7189SOL    HW122466   6.656   1.001   6.171
 7189SOL    HW222467   6.627   1.134   6.081
 7190SOL     OW22468   5.352   4.198   3.250
 7190SOL    HW122469   5.430   4.170   3.193
 7190SOL    HW222470   5.299   4.267   3.201
 7191SOL     OW22471   1.012   3.492   3.031
 7191SOL    HW122472   1.089   3.441   2.992
 7191SOL    HW222473   0.966   3.437   3.100
 7192SOL     OW22474   2.452   5.005   5.992
 7192SOL    HW122475   2.355   5.009   5.969
 7192SOL    HW222476   2.497   5.087   5.956
 7193SOL     OW22477   2.973   1.994   4.660
 7193SOL    HW122478   3.050   2.024   4.603
 7193SOL    HW222479   2.983   2.032   4.752
 7194SOL     OW22480   2.568   1.527   1.332
 7194SOL    HW122481   2.647   1.582   1.305
 7194SOL    HW222482   2.488   1.586   1.341
 7195SOL     OW22483   6.902   5.335   0.473
 7195SOL    HW122484   6.867   5.256   0.422
 7195SOL    HW222485   6.925   5.409   0.409
 7196SOL     OW22486   2.912   3.321   3.066
 7196SOL    HW122487   2.971   3.249   3.103
 7196SOL    HW222488   2.946   3.410   3.096
 7197SOL     OW22489   6.955   1.774   4.753
 7197SOL    HW122490   6.970   1.858   4.806
 7197SOL    HW222491   6.918   1.703   4.812
 7198SOL     OW22492   1.837   6.637   5.673
 7198SOL    HW122493   1.738   6.654   5.677
 7198SOL    HW222494   1.864   6.576   5.747
 7199SOL     OW22495   6.921   0.806   2.768
 7199SOL    HW122496   6.936   0.905   2.764
 7199SOL    HW222497   7.009   0.759   2.757
 7200SOL     OW22498   2.406   1.043   0.472
 7200SOL    HW122499   2.349   0.977   0.520
 7200SOL    HW222500   2.442   1.002   0.388
 7201SOL     OW22501   1.653   4.877   2.593
 7201SOL    HW122502   1.683   4.907   2.683
 7201SOL    HW222503   1.619   4.955   2.541
 7202SOL     OW22504   3.803   0.220   6.353
 7202SOL    HW122505   3.818   0.146   6.419
 7202SOL    HW222506   3.840   0.193   6.264
 7203SOL     OW22507   6.390   0.403   0.645
 7203SOL    HW122508   6.406   0.501   0.639
 7203SOL    HW222509   6.371   0.378   0.740
 7204SOL     OW22510   6.347   0.829   3.685
 7204SOL    HW122511   6.441   0.831   3.651
 7204SOL    HW222512   6.285   0.809   3.609
 7205SOL     OW22513   1.607   5.343   2.810
 7205SOL    HW122514   1.525   5.400   2.806
 7205SOL    HW222515   1.650   5.339   2.720
 7206SOL     OW22516   6.919   1.499   1.049
 7206SOL    HW122517   6.848   1.568   1.066
 7206SOL    HW222518   6.950   1.462   1.137
 7207SOL     OW22519   3.672   6.639   1.177
 7207SOL    HW122520   3.705   6.671   1.266
 7207SOL    HW222521   3.676   6.539   1.174
 7208SOL     OW22522   3.814   6.985   4.598
 7208SOL    HW122523   3.768   0.031   4.652
 7208SOL    HW222524   3.833   6.905   4.655
 7209SOL     OW22525   4.084   3.379   4.197
 7209SOL    HW122526   3.986   3.378   4.216
 7209SOL    HW222527   4.104   3.314   4.123
 7210SOL     OW22528   4.751   1.270   3.626
 7210SOL    HW122529   4.729   1.367   3.638
 7210SOL    HW222530   4.682   1.215   3.672
 7211SOL     OW22531   1.219   6.523   4.479
 7211SOL    HW122532   1.171   6.585   4.541
 7211SOL    HW222533   1.252   6.574   4.399
 7212SOL     OW22534   6.707   5.487   4.840
 7212SOL    HW122535   6.693   5.529   4.750
 7212SOL    HW222536   6.675   5.550   4.911
 7213SOL     OW22537   5.370   0.297   5.645
 7213SOL    HW122538   5.279   0.281   5.685
 7213SOL    HW222539   5.402   0.388   5.670
 7214SOL     OW22540   2.428   5.573   4.625
 7214SOL    HW122541   2.483   5.615   4.553
 7214SOL    HW222542   2.486   5.551   4.703
 7215SOL     OW22543   1.053   3.215   4.146
 7215SOL    HW122544   1.128   3.270   4.110
 7215SOL    HW222545   1.089   3.139   4.200
 7216SOL     OW22546   2.596   6.242   7.023
 7216SOL    HW122547   2.670   6.274   0.059
 7216SOL    HW222548   2.549   6.165   0.042
 7217SOL     OW22549   1.726   4.271   2.567
 7217SOL    HW122550   1.810   4.286   2.620
 7217SOL    HW222551   1.733   4.321   2.481
 7218SOL     OW22552   4.789   2.001   5.678
 7218SOL    HW122553   4.858   1.930   5.690
 7218SOL    HW222554   4.718   1.990   5.748
 7219SOL     OW22555   4.418   6.666   3.360
 7219SOL    HW122556   4.369   6.747   3.327
 7219SOL    HW222557   4.514   6.673   3.334
 7220SOL     OW22558   6.422   1.055   2.740
 7220SOL    HW122559   6.344   1.076   2.680
 7220SOL    HW222560   6.421   0.957   2.761
 7221SOL     OW22561   5.903   4.521   5.537
 7221SOL    HW122562   5.912   4.603   5.480
 7221SOL    HW222563   5.958   4.531   5.619
 7222SOL     OW22564   6.499   6.604   0.868
 7222SOL    HW122565   6.404   6.580   0.888
 7222SOL    HW222566   6.560   6.543   0.917
 7223SOL     OW22567   3.326   1.538   6.468
 7223SOL    HW122568   3.285   1.515   6.556
 7223SOL    HW222569   3.365   1.630   6.472
 7224SOL     OW22570   5.947   0.918   4.739
 7224SOL    HW122571   5.859   0.876   4.759
 7224SOL    HW222572   5.937   0.981   4.662
 7225SOL     OW22573   1.789   5.713   0.285
 7225SOL    HW122574   1.822   5.800   0.247
 7225SOL    HW222575   1.759   5.654   0.210
 7226SOL     OW22576   0.468   6.644   0.290
 7226SOL    HW122577   0.469   6.668   0.387
 7226SOL    HW222578   0.473   6.727   0.234
 7227SOL     OW22579   0.575   1.904   0.197
 7227SOL    HW122580   0.667   1.880   0.167
 7227SOL    HW222581   0.532   1.963   0.128
 7228SOL     OW22582   6.913   6.866   1.930
 7228SOL    HW122583   6.860   6.835   1.850
 7228SOL    HW222584   6.854   6.919   1.990
 7229SOL     OW22585   1.257   0.248   4.264
 7229SOL    HW122586   1.276   0.207   4.353
 7229SOL    HW222587   1.326   0.218   4.198
 7230SOL     OW22588   4.614   5.366   3.790
 7230SOL    HW122589   4.663   5.379   3.876
 7230SOL    HW222590   4.607   5.454   3.743
 7231SOL     OW22591   5.952   1.759   6.435
 7231SOL    HW122592   5.856   1.769   6.461
 7231SOL    HW222593   5.984   1.668   6.459
 7232SOL     OW22594   4.405   4.545   2.477
 7232SOL    HW122595   4.397   4.534   2.378
 7232SOL    HW222596   4.343   4.616   2.508
 7233SOL     OW22597   0.223   2.807   5.431
 7233SOL    HW122598   0.155   2.818   5.504
 7233SOL    HW222599   0.205   2.873   5.359
 7234SOL     OW22600   6.304   1.657   1.648
 7234SOL    HW122601   6.269   1.697   1.564
 7234SOL    HW222602   6.379   1.714   1.683
 7235SOL     OW22603   5.135   3.664   4.558
 7235SOL    HW122604   5.086   3.666   4.645
 7235SOL    HW222605   5.219   3.717   4.565
 7236SOL     OW22606   3.926   1.567   3.188
 7236SOL    HW122607   3.954   1.659   3.163
 7236SOL    HW222608   4.007   1.511   3.205
 7237SOL     OW22609   6.068   5.980   5.687
 7237SOL    HW122610   6.153   6.031   5.675
 7237SOL    HW222611   6.042   5.982   5.784
 7238SOL     OW22612   2.640   2.062   2.293
 7238SOL    HW122613   2.644   2.041   2.195
 7238SOL    HW222614   2.660   1.980   2.346
 7239SOL     OW22615   1.891   1.043   2.544
 7239SOL    HW122616   1.829   0.989   2.601
 7239SOL    HW222617   1.926   1.120   2.597
 7240SOL     OW22618   2.960   4.198   0.459
 7240SOL    HW122619   2.873   4.247   0.462
 7240SOL    HW222620   3.020   4.230   0.532
 7241SOL     OW22621   3.563   0.191   5.366
 7241SOL    HW122622   3.476   0.167   5.324
 7241SOL    HW222623   3.566   0.155   5.459
 7242SOL     OW22624   5.986   4.713   6.585
 7242SOL    HW122625   6.002   4.618   6.557
 7242SOL    HW222626   6.056   4.740   6.651
 7243SOL     OW22627   0.870   5.699   6.939
 7243SOL    HW122628   0.894   5.625   6.876
 7243SOL    HW222629   0.791   5.670   6.994
 7244SOL     OW22630   5.932   2.123   1.594
 7244SOL    HW122631   5.942   2.194   1.525
 7244SOL    HW222632   5.865   2.152   1.663
 7245SOL     OW22633   0.290   1.940   4.754
 7245SOL    HW122634   0.220   1.999   4.713
 7245SOL    HW222635   0.367   1.931   4.692
 7246SOL     OW22636   5.982   0.211   4.718
 7246SOL    HW122637   5.988   0.116   4.687
 7246SOL    HW222638   5.886   0.239   4.721
 7247SOL     OW22639   2.531   6.011   1.965
 7247SOL    HW122640   2.454   6.055   2.011
 7247SOL    HW222641   2.588   6.081   1.921
 7248SOL     OW22642   4.085   1.261   3.973
 7248SOL    HW122643   4.028   1.183   3.998
 7248SOL    HW222644   4.165   1.229   3.923
 7249SOL     OW22645   5.836   4.492   0.141
 7249SOL    HW122646   5.849   4.492   0.240
 7249SOL    HW222647   5.739   4.504   0.120
 7250SOL     OW22648   2.794   4.715   6.071
 7250SOL    HW122649   2.780   4.813   6.055
 7250SOL    HW222650   2.867   4.682   6.012
 7251SOL     OW22651   6.972   6.695   4.563
 7251SOL    HW122652   6.935   6.779   4.603
 7251SOL    HW222653   0.042   6.710   4.534
 7252SOL     OW22654   3.484   3.137   4.806
 7252SOL    HW122655   3.421   3.060   4.802
 7252SOL    HW222656   3.578   3.103   4.802
 7253SOL     OW22657   3.268   6.221   0.909
 7253SOL    HW122658   3.276   6.122   0.897
 7253SOL    HW222659   3.229   6.240   1.000
 7254SOL     OW22660   4.045   5.931   4.002
 7254SOL    HW122661   4.039   6.030   4.018
 7254SOL    HW222662   4.010   5.910   3.911
 7255SOL     OW22663   3.211   3.576   2.114
 7255SOL    HW122664   3.310   3.565   2.124
 7255SOL    HW222665   3.172   3.491   2.077
 7256SOL     OW22666   4.329   4.690   3.981
 7256SOL    HW122667   4.339   4.594   3.955
 7256SOL    HW222668   4.416   4.737   3.972
 7257SOL     OW22669   5.632   2.418   3.280
 7257SOL    HW122670   5.606   2.423   3.376
 7257SOL    HW222671   5.608   2.328   3.242
 7258SOL     OW22672   3.470   0.428   5.005
 7258SOL    HW122673   3.529   0.509   5.012
 7258SOL    HW222674   3.398   0.445   4.938
 7259SOL     OW22675   2.325   4.107   0.068
 7259SOL    HW122676   2.424   4.098   0.058
 7259SOL    HW222677   2.301   4.204   0.077
 7260SOL     OW22678   3.274   2.164   2.736
 7260SOL    HW122679   3.274   2.117   2.647
 7260SOL    HW222680   3.290   2.262   2.722
 7261SOL     OW22681   2.051   3.290   2.031
 7261SOL    HW122682   2.056   3.209   1.973
 7261SOL    HW222683   2.139   3.338   2.028
 7262SOL     OW22684   5.517   1.925   4.996
 7262SOL    HW122685   5.440   1.864   5.012
 7262SOL    HW222686   5.497   2.015   5.035
 7263SOL     OW22687   1.458   6.105   1.316
 7263SOL    HW122688   1.428   6.156   1.397
 7263SOL    HW222689   1.553   6.126   1.297
 7264SOL     OW22690   6.637   0.875   6.343
 7264SOL    HW122691   6.596   0.784   6.353
 7264SOL    HW222692   6.735   0.869   6.359
 7265SOL     OW22693   4.547   4.795   5.576
 7265SOL    HW122694   4.447   4.802   5.579
 7265SOL    HW222695   4.575   4.708   5.616
 7266SOL     OW22696   4.682   0.572   2.050
 7266SOL    HW122697   4.764   0.607   2.094
 7266SOL    HW222698   4.620   0.648   2.029
 7267SOL     OW22699   0.072   3.950   4.694
 7267SOL    HW122700   0.026   3.861   4.684
 7267SOL    HW222701   0.044   3.992   4.780
 7268SOL     OW22702   4.259   6.675   1.423
 7268SOL    HW122703   4.209   6.601   1.379
 7268SOL    HW222704   4.235   6.762   1.379
 7269SOL     OW22705   1.061   5.857   2.240
 7269SOL    HW122706   1.093   5.762   2.233
 7269SOL    HW222707   0.965   5.861   2.212
 7270SOL     OW22708   2.374   1.364   2.779
 7270SOL    HW122709   2.417   1.304   2.847
 7270SOL    HW222710   2.445   1.418   2.733
 7271SOL     OW22711   0.021   3.875   3.068
 7271SOL    HW122712   0.098   3.923   3.111
 7271SOL    HW222713   6.964   3.885   3.126
 7272SOL     OW22714   4.661   2.503   2.571
 7272SOL    HW122715   4.755   2.478   2.594
 7272SOL    HW222716   4.653   2.515   2.472
 7273SOL     OW22717   5.816   4.302   0.797
 7273SOL    HW122718   5.806   4.308   0.896
 7273SOL    HW222719   5.773   4.382   0.755
 7274SOL     OW22720   6.878   4.901   5.657
 7274SOL    HW122721   6.934   4.983   5.647
 7274SOL    HW222722   6.803   4.903   5.590
 7275SOL     OW22723   0.044   0.516   0.631
 7275SOL    HW122724   0.030   0.445   0.562
 7275SOL    HW222725   0.131   0.561   0.616
 7276SOL     OW22726   2.129   2.696   4.222
 7276SOL    HW122727   2.185   2.700   4.140
 7276SOL    HW222728   2.048   2.752   4.210
 7277SOL     OW22729   4.465   1.884   4.885
 7277SOL    HW122730   4.418   1.800   4.856
 7277SOL    HW222731   4.460   1.952   4.812
 7278SOL     OW22732   3.273   1.389   3.307
 7278SOL    HW122733   3.292   1.487   3.301
 7278SOL    HW222734   3.328   1.349   3.381
 7279SOL     OW22735   4.898   4.995   0.287
 7279SOL    HW122736   4.969   4.999   0.357
 7279SOL    HW222737   4.833   4.922   0.310
 7280SOL     OW22738   5.469   2.184   5.068
 7280SOL    HW122739   5.415   2.138   5.138
 7280SOL    HW222740   5.558   2.208   5.106
 7281SOL     OW22741   3.780   6.725   2.142
 7281SOL    HW122742   3.766   6.673   2.058
 7281SOL    HW222743   3.755   6.668   2.221
 7282SOL     OW22744   6.896   5.639   2.060
 7282SOL    HW122745   6.844   5.664   2.142
 7282SOL    HW222746   6.994   5.645   2.080
 7283SOL     OW22747   4.113   5.084   2.318
 7283SOL    HW122748   4.121   5.081   2.418
 7283SOL    HW222749   4.027   5.041   2.290
 7284SOL     OW22750   6.499   1.752   3.603
 7284SOL    HW122751   6.475   1.756   3.506
 7284SOL    HW222752   6.418   1.730   3.657
 7285SOL     OW22753   4.807   3.040   2.341
 7285SOL    HW122754   4.791   3.121   2.398
 7285SOL    HW222755   4.769   3.055   2.250
 7286SOL     OW22756   0.684   1.064   0.974
 7286SOL    HW122757   0.725   1.150   0.942
 7286SOL    HW222758   0.743   1.023   1.044
 7287SOL     OW22759   1.341   2.610   3.908
 7287SOL    HW122760   1.295   2.621   3.996
 7287SOL    HW222761   1.407   2.684   3.896
 7288SOL     OW22762   3.213   2.098   3.399
 7288SOL    HW122763   3.129   2.046   3.380
 7288SOL    HW222764   3.214   2.123   3.496
 7289SOL     OW22765   5.975   2.361   1.402
 7289SOL    HW122766   6.024   2.409   1.475
 7289SOL    HW222767   6.040   2.309   1.347
 7290SOL     OW22768   3.295   1.513   4.825
 7290SOL    HW122769   3.348   1.521   4.741
 7290SOL    HW222770   3.207   1.469   4.805
 7291SOL     OW22771   4.431   1.070   0.377
 7291SOL    HW122772   4.395   1.153   0.418
 7291SOL    HW222773   4.357   1.020   0.333
 7292SOL     OW22774   2.096   6.980   2.840
 7292SOL    HW122775   2.024   7.009   2.903
 7292SOL    HW222776   2.054   6.934   2.761
 7293SOL     OW22777   1.503   0.735   5.141
 7293SOL    HW122778   1.565   0.757   5.066
 7293SOL    HW222779   1.434   0.808   5.150
 7294SOL     OW22780   2.585   5.892   1.214
 7294SOL    HW122781   2.624   5.918   1.302
 7294SOL    HW222782   2.491   5.925   1.209
 7295SOL     OW22783   6.340   5.281   2.256
 7295SOL    HW122784   6.300   5.190   2.261
 7295SOL    HW222785   6.398   5.287   2.174
 7296SOL     OW22786   4.877   5.174   1.905
 7296SOL    HW122787   4.783   5.195   1.931
 7296SOL    HW222788   4.879   5.090   1.852
 7297SOL     OW22789   3.803   6.189   1.385
 7297SOL    HW122790   3.783   6.276   1.431
 7297SOL    HW222791   3.879   6.144   1.432
 7298SOL     OW22792   5.162   5.840   6.682
 7298SOL    HW122793   5.104   5.823   6.762
 7298SOL    HW222794   5.255   5.808   6.700
 7299SOL     OW22795   1.532   2.875   0.046
 7299SOL    HW122796   1.609   2.827   0.006
 7299SOL    HW222797   1.451   2.862   7.013
 7300SOL     OW22798   0.691   5.129   1.780
 7300SOL    HW122799   0.714   5.051   1.839
 7300SOL    HW222800   0.696   5.101   1.685
 7301SOL     OW22801   5.112   6.640   5.773
 7301SOL    HW122802   5.051   6.644   5.853
 7301SOL    HW222803   5.075   6.574   5.707
 7302SOL     OW22804   5.116   2.085   6.246
 7302SOL    HW122805   5.192   2.139   6.208
 7302SOL    HW222806   5.111   1.997   6.198
 7303SOL     OW22807   2.954   1.418   1.233
 7303SOL    HW122808   2.911   1.503   1.260
 7303SOL    HW222809   2.892   1.341   1.251
 7304SOL     OW22810   2.832   5.634   1.589
 7304SOL    HW122811   2.781   5.598   1.667
 7304SOL    HW222812   2.856   5.729   1.606
 7305SOL     OW22813   6.268   2.012   0.630
 7305SOL    HW122814   6.201   1.968   0.569
 7305SOL    HW222815   6.229   2.021   0.721
 7306SOL     OW22816   2.327   2.045   1.131
 7306SOL    HW122817   2.384   1.964   1.115
 7306SOL    HW222818   2.350   2.086   1.219
 7307SOL     OW22819   1.817   6.681   1.602
 7307SOL    HW122820   1.822   6.654   1.506
 7307SOL    HW222821   1.813   6.780   1.608
 7308SOL     OW22822   5.244   1.176   2.628
 7308SOL    HW122823   5.223   1.098   2.687
 7308SOL    HW222824   5.341   1.199   2.637
 7309SOL     OW22825   1.684   5.598   3.349
 7309SOL    HW122826   1.674   5.503   3.318
 7309SOL    HW222827   1.777   5.629   3.329
 7310SOL     OW22828   2.279   3.129   0.186
 7310SOL    HW122829   2.303   3.111   0.281
 7310SOL    HW222830   2.210   3.200   0.181
 7311SOL     OW22831   6.686   6.585   6.408
 7311SOL    HW122832   6.692   6.496   6.455
 7311SOL    HW222833   6.715   6.575   6.313
 7312SOL     OW22834   6.798   2.355   5.148
 7312SOL    HW122835   6.708   2.340   5.191
 7312SOL    HW222836   6.830   2.269   5.107
 7313SOL     OW22837   2.984   0.925   1.975
 7313SOL    HW122838   2.995   0.892   1.881
 7313SOL    HW222839   2.913   0.996   1.977
 7314SOL     OW22840   0.389   4.006   0.269
 7314SOL    HW122841   0.325   4.056   0.212
 7314SOL    HW222842   0.466   4.066   0.294
 7315SOL     OW22843   1.475   4.343   2.580
 7315SOL    HW122844   1.423   4.271   2.624
 7315SOL    HW222845   1.573   4.321   2.583
 7316SOL     OW22846   3.700   2.199   0.767
 7316SOL    HW122847   3.601   2.216   0.766
 7316SOL    HW222848   3.722   2.129   0.698
 7317SOL     OW22849   3.939   1.844   1.696
 7317SOL    HW122850   3.927   1.943   1.687
 7317SOL    HW222851   3.979   1.807   1.612
 7318SOL     OW22852   4.108   6.773   0.652
 7318SOL    HW122853   4.015   6.745   0.626
 7318SOL    HW222854   4.123   6.756   0.749
 7319SOL     OW22855   6.355   4.508   7.011
 7319SOL    HW122856   6.328   4.422   6.970
 7319SOL    HW222857   6.384   4.572   6.940
 7320SOL     OW22858   6.815   2.714   0.894
 7320SOL    HW122859   6.904   2.672   0.912
 7320SOL    HW222860   6.772   2.740   0.981
 7321SOL     OW22861   1.385   0.161   6.820
 7321SOL    HW122862   1.299   0.198   6.854
 7321SOL    HW222863   1.461   0.211   6.862
 7322SOL     OW22864   0.391   2.852   2.737
 7322SOL    HW122865   0.359   2.795   2.660
 7322SOL    HW222866   0.394   2.948   2.708
 7323SOL     OW22867   1.166   1.955   1.651
 7323SOL    HW122868   1.120   2.039   1.681
 7323SOL    HW222869   1.261   1.958   1.679
 7324SOL     OW22870   5.589   4.774   3.591
 7324SOL    HW122871   5.534   4.800   3.511
 7324SOL    HW222872   5.573   4.677   3.612
 7325SOL     OW22873   4.456   0.853   6.280
 7325SOL    HW122874   4.449   0.753   6.276
 7325SOL    HW222875   4.526   0.884   6.216
 7326SOL     OW22876   2.429   0.584   6.958
 7326SOL    HW122877   2.418   0.485   6.947
 7326SOL    HW222878   2.494   0.619   6.891
 7327SOL     OW22879   6.988   3.727   2.633
 7327SOL    HW122880   6.934   3.653   2.594
 7327SOL    HW222881   6.968   3.812   2.583
 7328SOL     OW22882   4.275   4.926   4.980
 7328SOL    HW122883   4.259   4.835   4.942
 7328SOL    HW222884   4.196   4.984   4.961
 7329SOL     OW22885   2.907   3.024   0.886
 7329SOL    HW122886   2.816   2.985   0.870
 7329SOL    HW222887   2.897   3.121   0.911
 7330SOL     OW22888   3.416   3.418   0.862
 7330SOL    HW122889   3.349   3.490   0.843
 7330SOL    HW222890   3.392   3.372   0.948
 7331SOL     OW22891   4.967   0.540   3.010
 7331SOL    HW122892   5.007   0.539   3.102
 7331SOL    HW222893   4.879   0.494   3.011
 7332SOL     OW22894   2.833   4.343   6.599
 7332SOL    HW122895   2.782   4.418   6.556
 7332SOL    HW222896   2.804   4.256   6.559
 7333SOL     OW22897   6.830   2.495   1.150
 7333SOL    HW122898   6.763   2.424   1.133
 7333SOL    HW222899   6.785   2.584   1.149
 7334SOL     OW22900   3.069   0.274   5.167
 7334SOL    HW122901   2.995   0.329   5.206
 7334SOL    HW222902   3.067   0.182   5.206
 7335SOL     OW22903   6.946   2.695   2.500
 7335SOL    HW122904   6.904   2.721   2.586
 7335SOL    HW222905   6.992   2.774   2.459
 7336SOL     OW22906   1.196   6.226   1.054
 7336SOL    HW122907   1.236   6.163   0.988
 7336SOL    HW222908   1.145   6.173   1.123
 7337SOL     OW22909   2.186   2.416   2.626
 7337SOL    HW122910   2.139   2.399   2.712
 7337SOL    HW222911   2.272   2.364   2.624
 7338SOL     OW22912   5.778   3.178   1.867
 7338SOL    HW122913   5.720   3.136   1.936
 7338SOL    HW222914   5.809   3.109   1.802
 7339SOL     OW22915   6.794   5.214   4.794
 7339SOL    HW122916   6.786   5.313   4.805
 7339SOL    HW222917   6.704   5.172   4.803
 7340SOL     OW22918   2.907   0.259   0.281
 7340SOL    HW122919   2.934   0.166   0.307
 7340SOL    HW222920   2.988   0.310   0.250
 7341SOL     OW22921   6.469   4.790   3.706
 7341SOL    HW122922   6.437   4.701   3.738
 7341SOL    HW222923   6.466   4.856   3.781
 7342SOL     OW22924   6.691   0.166   0.915
 7342SOL    HW122925   6.776   0.213   0.941
 7342SOL    HW222926   6.711   0.097   0.845
 7343SOL     OW22927   6.197   3.994   2.135
 7343SOL    HW122928   6.282   3.952   2.105
 7343SOL    HW222929   6.217   4.060   2.208
 7344SOL     OW22930   1.482   6.320   0.242
 7344SOL    HW122931   1.545   6.342   0.168
 7344SOL    HW222932   1.431   6.237   0.219
 7345SOL     OW22933   4.110   5.312   6.414
 7345SOL    HW122934   4.018   5.350   6.413
 7345SOL    HW222935   4.107   5.216   6.387
 7346SOL     OW22936   3.954   4.852   1.912
 7346SOL    HW122937   4.006   4.771   1.937
 7346SOL    HW222938   4.010   4.934   1.929
 7347SOL     OW22939   6.374   1.498   2.207
 7347SOL    HW122940   6.344   1.530   2.118
 7347SOL    HW222941   6.473   1.510   2.215
 7348SOL     OW22942   1.353   1.720   3.487
 7348SOL    HW122943   1.255   1.731   3.500
 7348SOL    HW222944   1.401   1.797   3.530
 7349SOL     OW22945   3.619   1.749   0.591
 7349SOL    HW122946   3.632   1.712   0.499
 7349SOL    HW222947   3.704   1.739   0.642
 7350SOL     OW22948   1.708   2.281   3.231
 7350SOL    HW122949   1.628   2.327   3.191
 7350SOL    HW222950   1.708   2.185   3.203
 7351SOL     OW22951   4.794   4.706   6.925
 7351SOL    HW122952   4.751   4.706   7.015
 7351SOL    HW222953   4.868   4.639   6.923
 7352SOL     OW22954   0.664   1.822   2.806
 7352SOL    HW122955   0.593   1.828   2.736
 7352SOL    HW222956   0.724   1.745   2.786
 7353SOL     OW22957   5.667   1.745   4.471
 7353SOL    HW122958   5.624   1.810   4.408
 7353SOL    HW222959   5.732   1.688   4.420
 7354SOL     OW22960   6.273   5.766   5.884
 7354SOL    HW122961   6.341   5.701   5.917
 7354SOL    HW222962   6.258   5.753   5.786
 7355SOL     OW22963   1.454   5.531   1.515
 7355SOL    HW122964   1.432   5.447   1.467
 7355SOL    HW222965   1.482   5.510   1.608
 7356SOL     OW22966   6.403   1.827   6.087
 7356SOL    HW122967   6.339   1.802   6.014
 7356SOL    HW222968   6.352   1.850   6.170
 7357SOL     OW22969   6.226   2.103   6.981
 7357SOL    HW122970   6.302   2.159   6.948
 7357SOL    HW222971   6.262   2.023   0.005
 7358SOL     OW22972   3.164   1.355   4.561
 7358SOL    HW122973   3.233   1.293   4.599
 7358SOL    HW222974   3.140   1.326   4.468
 7359SOL     OW22975   3.759   3.120   3.161
 7359SOL    HW122976   3.737   3.162   3.248
 7359SOL    HW222977   3.843   3.065   3.170
 7360SOL     OW22978   0.902   2.944   5.190
 7360SOL    HW122979   0.965   2.891   5.132
 7360SOL    HW222980   0.932   2.939   5.285
 7361SOL     OW22981   5.147   6.131   2.051
 7361SOL    HW122982   5.209   6.112   2.127
 7361SOL    HW222983   5.089   6.210   2.074
 7362SOL     OW22984   2.272   5.654   5.659
 7362SOL    HW122985   2.371   5.660   5.649
 7362SOL    HW222986   2.231   5.743   5.639
 7363SOL     OW22987   4.869   3.068   0.028
 7363SOL    HW122988   4.828   3.158   0.043
 7363SOL    HW222989   4.944   3.077   6.986
 7364SOL     OW22990   4.426   6.162   1.292
 7364SOL    HW122991   4.499   6.173   1.359
 7364SOL    HW222992   4.412   6.249   1.244
 7365SOL     OW22993   2.520   0.047   1.965
 7365SOL    HW122994   2.435   0.095   1.986
 7365SOL    HW222995   2.512   6.976   1.994
 7366SOL     OW22996   0.291   4.971   6.852
 7366SOL    HW122997   0.381   4.949   6.814
 7366SOL    HW222998   0.232   5.005   6.779
 7367SOL     OW22999   4.787   3.942   1.940
 7367SOL    HW123000   4.839   3.860   1.917
 7367SOL    HW223001   4.786   3.954   2.039
 7368SOL     OW23002   3.169   3.179   4.859
 7368SOL    HW123003   3.220   3.096   4.881
 7368SOL    HW223004   3.103   3.198   4.932
 7369SOL     OW23005   5.085   3.706   0.840
 7369SOL    HW123006   5.156   3.635   0.851
 7369SOL    HW223007   5.094   3.748   0.749
 7370SOL     OW23008   2.816   6.978   0.577
 7370SOL    HW123009   2.876   6.989   0.656
 7370SOL    HW223010   2.803   6.880   0.559
 7371SOL     OW23011   3.019   5.077   4.280
 7371SOL    HW123012   3.109   5.054   4.243
 7371SOL    HW223013   2.951   5.014   4.243
 7372SOL     OW23014   3.283   0.334   5.516
 7372SOL    HW123015   3.307   0.241   5.545
 7372SOL    HW223016   3.358   0.397   5.539
 7373SOL     OW23017   3.638   1.041   2.269
 7373SOL    HW123018   3.644   1.015   2.366
 7373SOL    HW223019   3.562   1.105   2.256
 7374SOL     OW23020   1.308   3.065   6.894
 7374SOL    HW123021   1.352   2.986   6.852
 7374SOL    HW223022   1.347   3.149   6.856
 7375SOL     OW23023   1.120   0.484   4.245
 7375SOL    HW123024   1.125   0.385   4.252
 7375SOL    HW223025   1.050   0.519   4.308
 7376SOL     OW23026   2.572   3.194   0.119
 7376SOL    HW123027   2.572   3.174   0.022
 7376SOL    HW223028   2.480   3.179   0.156
 7377SOL     OW23029   4.662   4.516   1.909
 7377SOL    HW123030   4.748   4.469   1.887
 7377SOL    HW223031   4.598   4.450   1.948
 7378SOL     OW23032   6.775   1.193   5.156
 7378SOL    HW123033   6.733   1.167   5.069
 7378SOL    HW223034   6.788   1.112   5.212
 7379SOL     OW23035   4.064   1.427   2.216
 7379SOL    HW123036   4.030   1.514   2.252
 7379SOL    HW223037   4.048   1.423   2.118
 7380SOL     OW23038   7.010   3.479   5.826
 7380SOL    HW123039   7.006   3.577   5.806
 7380SOL    HW223040   0.071   3.459   5.875
 7381SOL     OW23041   4.606   2.103   2.173
 7381SOL    HW123042   4.606   2.053   2.086
 7381SOL    HW223043   4.513   2.107   2.209
 7382SOL     OW23044   6.905   4.635   4.478
 7382SOL    HW123045   6.899   4.730   4.446
 7382SOL    HW223046   6.979   4.628   4.545
 7383SOL     OW23047   6.981   6.284   3.267
 7383SOL    HW123048   6.960   6.372   3.224
 7383SOL    HW223049   0.014   6.229   3.206
 7384SOL     OW23050   5.361   6.605   2.305
 7384SOL    HW123051   5.416   6.534   2.348
 7384SOL    HW223052   5.325   6.667   2.375
 7385SOL     OW23053   4.941   6.128   1.318
 7385SOL    HW123054   5.040   6.118   1.306
 7385SOL    HW223055   4.923   6.213   1.366
 7386SOL     OW23056   0.814   2.289   5.535
 7386SOL    HW123057   0.741   2.346   5.495
 7386SOL    HW223058   0.889   2.281   5.470
 7387SOL     OW23059   3.970   5.384   3.625
 7387SOL    HW123060   3.963   5.287   3.602
 7387SOL    HW223061   4.048   5.423   3.577
 7388SOL     OW23062   6.596   4.427   3.648
 7388SOL    HW123063   6.603   4.356   3.578
 7388SOL    HW223064   6.501   4.456   3.656
 7389SOL     OW23065   1.704   4.735   7.015
 7389SOL    HW123066   1.636   4.742   6.942
 7389SOL    HW223067   1.761   4.817   7.015
 7390SOL     OW23068   1.059   0.962   5.716
 7390SOL    HW123069   0.964   0.950   5.688
 7390SOL    HW223070   1.081   0.898   5.789
 7391SOL     OW23071   6.311   3.407   6.416
 7391SOL    HW123072   6.231   3.443   6.465
 7391SOL    HW223073   6.313   3.308   6.426
 7392SOL     OW23074   1.458   4.985   4.385
 7392SOL    HW123075   1.493   4.963   4.294
 7392SOL    HW223076   1.363   4.954   4.393
 7393SOL     OW23077   6.929   5.317   2.170
 7393SOL    HW123078   0.005   5.312   2.166
 7393SOL    HW223079   6.901   5.413   2.174
 7394SOL     OW23080   3.783   3.536   6.280
 7394SOL    HW123081   3.757   3.513   6.373
 7394SOL    HW223082   3.726   3.611   6.246
 7395SOL     OW23083   0.708   6.996   0.273
 7395SOL    HW123084   0.763   6.926   0.320
 7395SOL    HW223085   0.753   7.021   0.188
 7396SOL     OW23086   1.394   0.179   6.420
 7396SOL    HW123087   1.489   0.147   6.412
 7396SOL    HW223088   1.386   0.240   6.499
 7397SOL     OW23089   6.751   4.764   5.125
 7397SOL    HW123090   6.848   4.741   5.117
 7397SOL    HW223091   6.709   4.708   5.196
 7398SOL     OW23092   4.522   4.484   4.080
 7398SOL    HW123093   4.558   4.570   4.116
 7398SOL    HW223094   4.507   4.420   4.156
 7399SOL     OW23095   5.259   3.934   5.913
 7399SOL    HW123096   5.331   3.999   5.940
 7399SOL    HW223097   5.295   3.841   5.916
 7400SOL     OW23098   3.001   4.864   6.638
 7400SOL    HW123099   2.908   4.856   6.603
 7400SOL    HW223100   3.060   4.800   6.588
 7401SOL     OW23101   0.165   1.730   4.182
 7401SOL    HW123102   0.170   1.639   4.222
 7401SOL    HW223103   0.182   1.725   4.084
 7402SOL     OW23104   2.590   0.346   3.505
 7402SOL    HW123105   2.639   0.388   3.429
 7402SOL    HW223106   2.591   0.247   3.494
 7403SOL     OW23107   2.016   3.165   2.877
 7403SOL    HW123108   1.942   3.099   2.889
 7403SOL    HW223109   1.998   3.245   2.934
 7404SOL     OW23110   1.427   0.629   1.274
 7404SOL    HW123111   1.484   0.618   1.193
 7404SOL    HW223112   1.338   0.667   1.247
 7405SOL     OW23113   2.821   5.229   5.486
 7405SOL    HW123114   2.792   5.160   5.553
 7405SOL    HW223115   2.859   5.183   5.405
 7406SOL     OW23116   1.259   4.127   2.198
 7406SOL    HW123117   1.175   4.182   2.199
 7406SOL    HW223118   1.324   4.164   2.264
 7407SOL     OW23119   1.395   6.239   5.539
 7407SOL    HW123120   1.357   6.237   5.632
 7407SOL    HW223121   1.329   6.202   5.475
 7408SOL     OW23122   1.383   4.496   5.405
 7408SOL    HW123123   1.436   4.573   5.441
 7408SOL    HW223124   1.386   4.499   5.305
 7409SOL     OW23125   1.607   0.458   4.661
 7409SOL    HW123126   1.539   0.440   4.590
 7409SOL    HW223127   1.606   0.382   4.727
 7410SOL     OW23128   6.828   5.636   1.267
 7410SOL    HW123129   6.741   5.618   1.313
 7410SOL    HW223130   6.902   5.595   1.319
 7411SOL     OW23131   2.631   6.116   4.808
 7411SOL    HW123132   2.538   6.088   4.833
 7411SOL    HW223133   2.643   6.213   4.826
 7412SOL     OW23134   1.906   1.169   1.094
 7412SOL    HW123135   1.921   1.127   1.184
 7412SOL    HW223136   1.876   1.099   1.029
 7413SOL     OW23137   5.754   3.846   4.433
 7413SOL    HW123138   5.726   3.851   4.337
 7413SOL    HW223139   5.757   3.938   4.472
 7414SOL     OW23140   6.520   6.593   2.269
 7414SOL    HW123141   6.466   6.654   2.327
 7414SOL    HW223142   6.466   6.566   2.189
 7415SOL     OW23143   1.956   3.357   3.065
 7415SOL    HW123144   2.006   3.443   3.059
 7415SOL    HW223145   1.987   3.306   3.145
 7416SOL     OW23146   3.844   1.050   4.325
 7416SOL    HW123147   3.769   1.079   4.384
 7416SOL    HW223148   3.911   1.124   4.318
 7417SOL     OW23149   1.468   6.822   0.042
 7417SOL    HW123150   1.505   6.776   6.985
 7417SOL    HW223151   1.486   6.766   0.123
 7418SOL     OW23152   2.719   3.947   1.336
 7418SOL    HW123153   2.692   3.977   1.427
 7418SOL    HW223154   2.655   3.985   1.268
 7419SOL     OW23155   5.759   1.591   5.277
 7419SOL    HW123156   5.764   1.595   5.177
 7419SOL    HW223157   5.826   1.654   5.316
 7420SOL     OW23158   6.558   6.055   2.169
 7420SOL    HW123159   6.522   5.970   2.132
 7420SOL    HW223160   6.513   6.132   2.124
 7421SOL     OW23161   3.982   3.693   1.709
 7421SOL    HW123162   3.891   3.719   1.675
 7421SOL    HW223163   4.025   3.771   1.753
 7422SOL     OW23164   0.131   3.454   0.407
 7422SOL    HW123165   0.049   3.499   0.442
 7422SOL    HW223166   0.191   3.430   0.483
 7423SOL     OW23167   1.910   4.683   5.870
 7423SOL    HW123168   1.996   4.635   5.850
 7423SOL    HW223169   1.910   4.772   5.825
 7424SOL     OW23170   5.203   0.821   4.635
 7424SOL    HW123171   5.253   0.799   4.719
 7424SOL    HW223172   5.246   0.775   4.557
 7425SOL     OW23173   3.839   4.659   6.044
 7425SOL    HW123174   3.770   4.730   6.031
 7425SOL    HW223175   3.925   4.687   6.002
 7426SOL     OW23176   1.031   1.448   6.029
 7426SOL    HW123177   1.052   1.423   6.124
 7426SOL    HW223178   0.943   1.408   6.003
 7427SOL     OW23179   3.095   6.008   4.978
 7427SOL    HW123180   3.136   5.959   5.056
 7427SOL    HW223181   3.025   5.951   4.936
 7428SOL     OW23182   3.737   2.517   5.884
 7428SOL    HW123183   3.783   2.558   5.963
 7428SOL    HW223184   3.638   2.518   5.900
 7429SOL     OW23185   0.179   0.777   2.754
 7429SOL    HW123186   0.189   0.724   2.838
 7429SOL    HW223187   0.256   0.758   2.693
 7430SOL     OW23188   6.281   3.580   5.232
 7430SOL    HW123189   6.185   3.600   5.212
 7430SOL    HW223190   6.338   3.656   5.200
 7431SOL     OW23191   0.513   3.398   1.989
 7431SOL    HW123192   0.453   3.420   2.066
 7431SOL    HW223193   0.466   3.422   1.903
 7432SOL     OW23194   0.035   6.540   4.115
 7432SOL    HW123195   0.088   6.610   4.163
 7432SOL    HW223196   0.068   6.532   4.021
 7433SOL     OW23197   6.321   5.280   0.759
 7433SOL    HW123198   6.256   5.354   0.741
 7433SOL    HW223199   6.283   5.219   0.829
 7434SOL     OW23200   3.129   1.872   6.578
 7434SOL    HW123201   3.190   1.934   6.628
 7434SOL    HW223202   3.092   1.804   6.641
 7435SOL     OW23203   2.905   6.209   6.741
 7435SOL    HW123204   2.808   6.228   6.759
 7435SOL    HW223205   2.915   6.170   6.650
 7436SOL     OW23206   5.376   3.183   6.657
 7436SOL    HW123207   5.305   3.140   6.600
 7436SOL    HW223208   5.442   3.114   6.686
 7437SOL     OW23209   0.427   5.717   6.009
 7437SOL    HW123210   0.475   5.762   6.084
 7437SOL    HW223211   0.468   5.746   5.922
 7438SOL     OW23212   0.479   4.548   2.332
 7438SOL    HW123213   0.382   4.526   2.320
 7438SOL    HW223214   0.522   4.561   2.243
 7439SOL     OW23215   2.212   6.737   3.668
 7439SOL    HW123216   2.115   6.715   3.676
 7439SOL    HW223217   2.239   6.797   3.743
 7440SOL     OW23218   1.084   2.805   4.223
 7440SOL    HW123219   1.142   2.738   4.176
 7440SOL    HW223220   1.065   2.774   4.316
 7441SOL     OW23221   5.482   1.115   4.233
 7441SOL    HW123222   5.390   1.076   4.232
 7441SOL    HW223223   5.513   1.123   4.328
 7442SOL     OW23224   1.212   1.683   6.237
 7442SOL    HW123225   1.292   1.624   6.253
 7442SOL    HW223226   1.237   1.758   6.176
 7443SOL     OW23227   1.084   1.336   6.272
 7443SOL    HW123228   1.036   1.334   6.360
 7443SOL    HW223229   1.182   1.352   6.288
 7444SOL     OW23230   0.273   3.432   5.906
 7444SOL    HW123231   0.263   3.351   5.963
 7444SOL    HW223232   0.334   3.411   5.829
 7445SOL     OW23233   5.193   1.400   1.722
 7445SOL    HW123234   5.124   1.328   1.731
 7445SOL    HW223235   5.272   1.365   1.672
 7446SOL     OW23236   6.802   3.829   1.106
 7446SOL    HW123237   6.749   3.789   1.181
 7446SOL    HW223238   6.811   3.927   1.120
 7447SOL     OW23239   1.339   4.097   0.111
 7447SOL    HW123240   1.264   4.034   0.130
 7447SOL    HW223241   1.420   4.070   0.163
 7448SOL     OW23242   5.524   0.150   5.424
 7448SOL    HW123243   5.587   0.221   5.391
 7448SOL    HW223244   5.457   0.191   5.485
 7449SOL     OW23245   4.968   2.296   2.117
 7449SOL    HW123246   5.047   2.304   2.056
 7449SOL    HW223247   4.973   2.210   2.167
 7450SOL     OW23248   4.503   1.971   2.828
 7450SOL    HW123249   4.466   1.881   2.852
 7450SOL    HW223250   4.470   1.998   2.738
 7451SOL     OW23251   1.829   0.925   4.640
 7451SOL    HW123252   1.874   0.921   4.550
 7451SOL    HW223253   1.755   0.858   4.644
 7452SOL     OW23254   2.068   6.900   4.621
 7452SOL    HW123255   2.149   6.849   4.594
 7452SOL    HW223256   2.081   6.997   4.597
 7453SOL     OW23257   5.830   6.385   5.245
 7453SOL    HW123258   5.818   6.460   5.180
 7453SOL    HW223259   5.828   6.298   5.196
 7454SOL     OW23260   0.674   3.753   1.710
 7454SOL    HW123261   0.645   3.666   1.671
 7454SOL    HW223262   0.739   3.798   1.648
 7455SOL     OW23263   5.012   2.700   0.396
 7455SOL    HW123264   5.053   2.622   0.444
 7455SOL    HW223265   4.917   2.709   0.425
 7456SOL     OW23266   1.263   3.464   4.826
 7456SOL    HW123267   1.230   3.429   4.914
 7456SOL    HW223268   1.185   3.493   4.770
 7457SOL     OW23269   5.807   0.954   5.105
 7457SOL    HW123270   5.842   0.866   5.074
 7457SOL    HW223271   5.764   1.002   5.029
 7458SOL     OW23272   3.211   0.708   6.782
 7458SOL    HW123273   3.195   0.626   6.727
 7458SOL    HW223274   3.222   0.682   6.878
 7459SOL     OW23275   4.720   0.341   5.572
 7459SOL    HW123276   4.632   0.375   5.539
 7459SOL    HW223277   4.786   0.342   5.496
 7460SOL     OW23278   0.987   4.550   0.651
 7460SOL    HW123279   1.006   4.538   0.553
 7460SOL    HW223280   0.921   4.624   0.663
 7461SOL     OW23281   5.364   1.088   5.286
 7461SOL    HW123282   5.294   1.112   5.354
 7461SOL    HW223283   5.371   0.988   5.280
 7462SOL     OW23284   2.279   2.085   2.147
 7462SOL    HW123285   2.317   2.014   2.087
 7462SOL    HW223286   2.290   2.056   2.242
 7463SOL     OW23287   4.178   3.096   1.779
 7463SOL    HW123288   4.173   3.120   1.876
 7463SOL    HW223289   4.199   3.179   1.726
 7464SOL     OW23290   4.782   6.313   0.911
 7464SOL    HW123291   4.804   6.276   0.821
 7464SOL    HW223292   4.769   6.238   0.976
 7465SOL     OW23293   2.565   0.302   1.669
 7465SOL    HW123294   2.613   0.354   1.740
 7465SOL    HW223295   2.490   0.356   1.632
 7466SOL     OW23296   0.539   0.114   6.962
 7466SOL    HW123297   0.456   0.103   7.016
 7466SOL    HW223298   0.598   0.183   7.004
 7467SOL     OW23299   0.295   2.099   1.166
 7467SOL    HW123300   0.354   2.147   1.231
 7467SOL    HW223301   0.199   2.111   1.193
 7468SOL     OW23302   5.474   1.672   3.101
 7468SOL    HW123303   5.414   1.597   3.127
 7468SOL    HW223304   5.517   1.652   3.013
 7469SOL     OW23305   1.090   1.020   0.329
 7469SOL    HW123306   1.144   1.083   0.274
 7469SOL    HW223307   1.129   0.928   0.324
 7470SOL     OW23308   0.404   2.193   1.869
 7470SOL    HW123309   0.333   2.148   1.815
 7470SOL    HW223310   0.482   2.131   1.880
 7471SOL     OW23311   6.447   6.583   5.186
 7471SOL    HW123312   6.429   6.535   5.271
 7471SOL    HW223313   6.381   6.658   5.175
 7472SOL     OW23314   4.175   0.212   4.341
 7472SOL    HW123315   4.158   0.278   4.414
 7472SOL    HW223316   4.131   0.125   4.364
 7473SOL     OW23317   6.903   3.518   4.270
 7473SOL    HW123318   6.976   3.562   4.217
 7473SOL    HW223319   6.944   3.462   4.342
 7474SOL     OW23320   3.554   0.998   3.922
 7474SOL    HW123321   3.652   0.980   3.935
 7474SOL    HW223322   3.513   0.925   3.867
 7475SOL     OW23323   3.846   0.495   1.280
 7475SOL    HW123324   3.933   0.539   1.303
 7475SOL    HW223325   3.854   0.445   1.194
 7476SOL     OW23326   3.968   5.757   4.594
 7476SOL    HW123327   3.952   5.854   4.575
 7476SOL    HW223328   3.886   5.718   4.637
 7477SOL     OW23329   4.394   1.002   3.549
 7477SOL    HW123330   4.368   0.914   3.509
 7477SOL    HW223331   4.344   1.076   3.504
 7478SOL     OW23332   2.512   4.065   6.630
 7478SOL    HW123333   2.539   4.060   6.726
 7478SOL    HW223334   2.427   4.117   6.622
 7479SOL     OW23335   4.462   0.654   0.215
 7479SOL    HW123336   4.525   0.688   0.144
 7479SOL    HW223337   4.514   0.604   0.284
 7480SOL     OW23338   5.902   5.782   1.310
 7480SOL    HW123339   5.996   5.802   1.339
 7480SOL    HW223340   5.839   5.844   1.358
 7481SOL     OW23341   6.150   4.624   0.635
 7481SOL    HW123342   6.099   4.556   0.581
 7481SOL    HW223343   6.242   4.634   0.597
 7482SOL     OW23344   4.908   0.857   2.691
 7482SOL    HW123345   4.854   0.774   2.707
 7482SOL    HW223346   4.888   0.924   2.762
 7483SOL     OW23347   3.503   1.530   4.260
 7483SOL    HW123348   3.467   1.561   4.172
 7483SOL    HW223349   3.579   1.589   4.288
 7484SOL     OW23350   1.831   6.256   1.744
 7484SOL    HW123351   1.863   6.196   1.817
 7484SOL    HW223352   1.847   6.351   1.770
 7485SOL     OW23353   3.524   5.731   5.867
 7485SOL    HW123354   3.605   5.686   5.904
 7485SOL    HW223355   3.466   5.762   5.943
 7486SOL     OW23356   3.372   6.217   5.098
 7486SOL    HW123357   3.313   6.291   5.065
 7486SOL    HW223358   3.407   6.240   5.188
 7487SOL     OW23359   3.116   6.560   3.273
 7487SOL    HW123360   3.119   6.609   3.186
 7487SOL    HW223361   3.022   6.562   3.309
 7488SOL     OW23362   3.096   6.881   5.456
 7488SOL    HW123363   3.195   6.881   5.471
 7488SOL    HW223364   3.059   6.791   5.476
 7489SOL     OW23365   4.583   2.607   4.079
 7489SOL    HW123366   4.662   2.546   4.066
 7489SOL    HW223367   4.613   2.692   4.121
 7490SOL     OW23368   6.671   1.272   1.067
 7490SOL    HW123369   6.750   1.283   1.008
 7490SOL    HW223370   6.625   1.186   1.047
 7491SOL     OW23371   0.006   5.638   6.281
 7491SOL    HW123372   0.016   5.732   6.248
 7491SOL    HW223373   0.097   5.600   6.298
 7492SOL     OW23374   2.147   2.940   5.222
 7492SOL    HW123375   2.081   2.913   5.152
 7492SOL    HW223376   2.232   2.971   5.178
 7493SOL     OW23377   5.660   4.024   6.155
 7493SOL    HW123378   5.592   4.086   6.194
 7493SOL    HW223379   5.622   3.931   6.151
 7494SOL     OW23380   5.782   0.701   1.890
 7494SOL    HW123381   5.716   0.630   1.912
 7494SOL    HW223382   5.856   0.699   1.958
 7495SOL     OW23383   2.583   1.631   0.409
 7495SOL    HW123384   2.670   1.588   0.432
 7495SOL    HW223385   2.590   1.730   0.422
 7496SOL     OW23386   0.970   5.087   6.238
 7496SOL    HW123387   0.877   5.123   6.251
 7496SOL    HW223388   1.037   5.158   6.262
 7497SOL     OW23389   2.215   4.753   2.566
 7497SOL    HW123390   2.230   4.660   2.598
 7497SOL    HW223391   2.128   4.788   2.600
 7498SOL     OW23392   2.475   1.210   4.917
 7498SOL    HW123393   2.492   1.304   4.947
 7498SOL    HW223394   2.516   1.147   4.982
 7499SOL     OW23395   5.320   6.585   4.678
 7499SOL    HW123396   5.311   6.501   4.624
 7499SOL    HW223397   5.264   6.578   4.760
 7500SOL     OW23398   4.624   5.707   2.125
 7500SOL    HW123399   4.703   5.678   2.179
 7500SOL    HW223400   4.629   5.665   2.034
 7501SOL     OW23401   1.199   3.394   3.729
 7501SOL    HW123402   1.139   3.317   3.751
 7501SOL    HW223403   1.178   3.471   3.789
 7502SOL     OW23404   2.400   0.920   4.956
 7502SOL    HW123405   2.355   0.849   4.901
 7502SOL    HW223406   2.401   1.006   4.904
 7503SOL     OW23407   2.750   0.866   6.778
 7503SOL    HW123408   2.758   0.929   6.855
 7503SOL    HW223409   2.830   0.875   6.719
 7504SOL     OW23410   3.775   6.443   3.307
 7504SOL    HW123411   3.757   6.420   3.211
 7504SOL    HW223412   3.689   6.458   3.354
 7505SOL     OW23413   1.629   1.105   5.159
 7505SOL    HW123414   1.727   1.112   5.182
 7505SOL    HW223415   1.619   1.099   5.059
 7506SOL     OW23416   3.334   1.052   2.310
 7506SOL    HW123417   3.383   0.972   2.276
 7506SOL    HW223418   3.315   1.040   2.408
 7507SOL     OW23419   0.289   6.282   6.237
 7507SOL    HW123420   0.303   6.263   6.140
 7507SOL    HW223421   0.352   6.355   6.266
 7508SOL     OW23422   5.476   6.805   3.345
 7508SOL    HW123423   5.571   6.785   3.319
 7508SOL    HW223424   5.418   6.727   3.323
 7509SOL     OW23425   5.383   3.880   6.466
 7509SOL    HW123426   5.336   3.825   6.535
 7509SOL    HW223427   5.337   3.869   6.378
 7510SOL     OW23428   3.348   3.932   4.593
 7510SOL    HW123429   3.359   3.842   4.551
 7510SOL    HW223430   3.417   3.944   4.665
 7511SOL     OW23431   1.670   0.153   2.256
 7511SOL    HW123432   1.726   0.080   2.217
 7511SOL    HW223433   1.711   0.183   2.342
 7512SOL     OW23434   2.679   3.261   1.324
 7512SOL    HW123435   2.619   3.337   1.350
 7512SOL    HW223436   2.743   3.242   1.399
 7513SOL     OW23437   1.580   2.345   5.898
 7513SOL    HW123438   1.590   2.270   5.834
 7513SOL    HW223439   1.666   2.396   5.904
 7514SOL     OW23440   2.775   6.143   1.825
 7514SOL    HW123441   2.833   6.224   1.826
 7514SOL    HW223442   2.818   6.071   1.881
 7515SOL     OW23443   0.267   0.186   2.991
 7515SOL    HW123444   0.188   0.217   3.044
 7515SOL    HW223445   0.338   0.257   2.993
 7516SOL     OW23446   6.943   0.305   4.626
 7516SOL    HW123447   6.947   0.381   4.691
 7516SOL    HW223448   7.012   0.237   4.651
 7517SOL     OW23449   0.274   3.684   1.166
 7517SOL    HW123450   0.283   3.724   1.075
 7517SOL    HW223451   0.226   3.597   1.159
 7518SOL     OW23452   4.068   5.597   3.162
 7518SOL    HW123453   4.067   5.500   3.136
 7518SOL    HW223454   4.153   5.617   3.210
 7519SOL     OW23455   1.291   6.491   4.791
 7519SOL    HW123456   1.294   6.398   4.752
 7519SOL    HW223457   1.201   6.530   4.775
 7520SOL     OW23458   1.504   6.572   3.596
 7520SOL    HW123459   1.453   6.624   3.527
 7520SOL    HW223460   1.465   6.590   3.686
 7521SOL     OW23461   4.638   4.387   4.996
 7521SOL    HW123462   4.727   4.401   5.039
 7521SOL    HW223463   4.582   4.326   5.053
 7522SOL     OW23464   2.082   1.281   7.000
 7522SOL    HW123465   1.982   1.291   7.000
 7522SOL    HW223466   2.121   1.343   0.044
 7523SOL     OW23467   5.726   0.232   5.816
 7523SOL    HW123468   5.752   0.220   5.720
 7523SOL    HW223469   5.694   0.326   5.830
 7524SOL     OW23470   0.467   1.800   5.473
 7524SOL    HW123471   0.537   1.735   5.502
 7524SOL    HW223472   0.450   1.866   5.546
 7525SOL     OW23473   1.733   0.867   0.247
 7525SOL    HW123474   1.656   0.813   0.213
 7525SOL    HW223475   1.819   0.827   0.214
 7526SOL     OW23476   3.709   2.987   4.580
 7526SOL    HW123477   3.693   3.075   4.535
 7526SOL    HW223478   3.630   2.963   4.636
 7527SOL     OW23479   5.238   4.142   2.561
 7527SOL    HW123480   5.299   4.066   2.537
 7527SOL    HW223481   5.235   4.208   2.486
 7528SOL     OW23482   4.503   2.820   0.333
 7528SOL    HW123483   4.519   2.890   0.402
 7528SOL    HW223484   4.553   2.844   0.249
 7529SOL     OW23485   4.341   1.190   3.918
 7529SOL    HW123486   4.391   1.245   3.985
 7529SOL    HW223487   4.405   1.159   3.847
 7530SOL     OW23488   6.956   3.971   2.414
 7530SOL    HW123489   0.030   3.962   2.424
 7530SOL    HW223490   6.926   3.926   2.330
 7531SOL     OW23491   4.379   1.980   4.018
 7531SOL    HW123492   4.352   1.885   4.031
 7531SOL    HW223493   4.464   1.998   4.068
 7532SOL     OW23494   5.624   6.094   2.056
 7532SOL    HW123495   5.672   6.009   2.036
 7532SOL    HW223496   5.636   6.118   2.152
 7533SOL     OW23497   3.200   1.283   4.172
 7533SOL    HW123498   3.209   1.355   4.104
 7533SOL    HW223499   3.229   1.196   4.133
 7534SOL     OW23500   3.953   6.155   5.267
 7534SOL    HW123501   3.999   6.244   5.261
 7534SOL    HW223502   3.867   6.158   5.217
 7535SOL     OW23503   2.973   2.432   5.756
 7535SOL    HW123504   2.880   2.469   5.753
 7535SOL    HW223505   3.001   2.404   5.664
 7536SOL     OW23506   4.284   5.452   4.470
 7536SOL    HW123507   4.248   5.468   4.562
 7536SOL    HW223508   4.219   5.488   4.403
 7537SOL     OW23509   1.895   4.643   4.494
 7537SOL    HW123510   1.849   4.563   4.532
 7537SOL    HW223511   1.838   4.724   4.508
 7538SOL     OW23512   3.198   3.603   2.751
 7538SOL    HW123513   3.209   3.684   2.808
 7538SOL    HW223514   3.101   3.580   2.745
 7539SOL     OW23515   1.951   3.274   5.269
 7539SOL    HW123516   2.040   3.317   5.249
 7539SOL    HW223517   1.920   3.223   5.189
 7540SOL     OW23518   2.741   1.340   6.931
 7540SOL    HW123519   2.652   1.361   6.972
 7540SOL    HW223520   2.765   1.410   6.865
 7541SOL     OW23521   5.798   2.441   5.890
 7541SOL    HW123522   5.739   2.516   5.860
 7541SOL    HW223523   5.872   2.477   5.947
 7542SOL     OW23524   1.012   0.097   5.876
 7542SOL    HW123525   1.067   0.030   5.828
 7542SOL    HW223526   0.986   0.061   5.966
 7543SOL     OW23527   4.241   3.189   0.483
 7543SOL    HW123528   4.245   3.208   0.385
 7543SOL    HW223529   4.147   3.165   0.509
 7544SOL     OW23530   1.481   2.020   2.975
 7544SOL    HW123531   1.406   1.960   2.948
 7544SOL    HW223532   1.445   2.111   2.994
 7545SOL     OW23533   4.682   0.037   2.688
 7545SOL    HW123534   4.616   7.010   2.742
 7545SOL    HW223535   4.689   0.131   2.722
 7546SOL     OW23536   5.175   0.776   0.214
 7546SOL    HW123537   5.250   0.782   0.147
 7546SOL    HW223538   5.198   0.831   0.294
 7547SOL     OW23539   3.924   0.529   0.442
 7547SOL    HW123540   3.848   0.594   0.435
 7547SOL    HW223541   3.897   0.451   0.498
 7548SOL     OW23542   2.598   1.495   1.601
 7548SOL    HW123543   2.572   1.586   1.632
 7548SOL    HW223544   2.576   1.484   1.504
 7549SOL     OW23545   5.385   1.528   2.634
 7549SOL    HW123546   5.433   1.510   2.548
 7549SOL    HW223547   5.318   1.455   2.651
 7550SOL     OW23548   2.133   6.075   2.383
 7550SOL    HW123549   2.169   6.023   2.305
 7550SOL    HW223550   2.033   6.080   2.376
 7551SOL     OW23551   4.355   3.619   6.718
 7551SOL    HW123552   4.271   3.565   6.725
 7551SOL    HW223553   4.368   3.671   6.803
 7552SOL     OW23554   2.277   5.571   3.914
 7552SOL    HW123555   2.252   5.652   3.861
 7552SOL    HW223556   2.266   5.489   3.858
 7553SOL     OW23557   3.950   4.936   6.055
 7553SOL    HW123558   3.919   4.960   5.963
 7553SOL    HW223559   3.922   5.008   6.119
 7554SOL     OW23560   4.782   1.419   0.799
 7554SOL    HW123561   4.787   1.429   0.699
 7554SOL    HW223562   4.856   1.360   0.830
 7555SOL     OW23563   0.380   5.538   5.493
 7555SOL    HW123564   0.299   5.532   5.551
 7555SOL    HW223565   0.409   5.445   5.467
 7556SOL     OW23566   0.569   3.423   4.682
 7556SOL    HW123567   0.554   3.472   4.768
 7556SOL    HW223568   0.609   3.486   4.615
 7557SOL     OW23569   5.166   4.063   6.177
 7557SOL    HW123570   5.134   3.980   6.132
 7557SOL    HW223571   5.111   4.141   6.146
 7558SOL     OW23572   1.978   2.718   3.885
 7558SOL    HW123573   2.058   2.771   3.854
 7558SOL    HW223574   1.955   2.649   3.817
 7559SOL     OW23575   6.630   4.837   0.809
 7559SOL    HW123576   6.695   4.781   0.758
 7559SOL    HW223577   6.559   4.871   0.748
 7560SOL     OW23578   5.347   6.748   0.984
 7560SOL    HW123579   5.286   6.823   1.013
 7560SOL    HW223580   5.427   6.787   0.940
 7561SOL     OW23581   0.254   3.422   0.663
 7561SOL    HW123582   0.304   3.340   0.691
 7561SOL    HW223583   0.312   3.502   0.674
 7562SOL     OW23584   5.370   6.463   5.392
 7562SOL    HW123585   5.390   6.405   5.471
 7562SOL    HW223586   5.286   6.431   5.348
 7563SOL     OW23587   3.224   0.350   1.497
 7563SOL    HW123588   3.292   0.335   1.425
 7563SOL    HW223589   3.241   0.439   1.540
 7564SOL     OW23590   5.224   6.870   2.919
 7564SOL    HW123591   5.281   6.926   2.859
 7564SOL    HW223592   5.242   6.895   3.014
 7565SOL     OW23593   4.706   5.047   6.669
 7565SOL    HW123594   4.699   5.093   6.758
 7565SOL    HW223595   4.683   4.951   6.680
 7566SOL     OW23596   0.005   5.337   4.210
 7566SOL    HW123597   6.944   5.293   4.237
 7566SOL    HW223598   7.016   5.384   4.122
 7567SOL     OW23599   2.480   4.467   5.879
 7567SOL    HW123600   2.458   4.399   5.950
 7567SOL    HW223601   2.460   4.558   5.914
 7568SOL     OW23602   5.493   5.802   3.321
 7568SOL    HW123603   5.566   5.771   3.382
 7568SOL    HW223604   5.412   5.745   3.335
 7569SOL     OW23605   4.278   5.783   6.789
 7569SOL    HW123606   4.267   5.829   6.877
 7569SOL    HW223607   4.369   5.804   6.752
 7570SOL     OW23608   5.930   5.048   4.233
 7570SOL    HW123609   5.921   5.136   4.279
 7570SOL    HW223610   5.895   4.975   4.291
 7571SOL     OW23611   5.757   3.870   1.721
 7571SOL    HW123612   5.730   3.780   1.684
 7571SOL    HW223613   5.702   3.941   1.677
 7572SOL     OW23614   4.284   0.896   4.155
 7572SOL    HW123615   4.318   0.986   4.182
 7572SOL    HW223616   4.351   0.851   4.096
 7573SOL     OW23617   0.025   5.531   4.747
 7573SOL    HW123618   0.107   5.586   4.760
 7573SOL    HW223619   0.010   5.516   4.649
 7574SOL     OW23620   5.871   1.241   3.730
 7574SOL    HW123621   5.810   1.168   3.700
 7574SOL    HW223622   5.966   1.211   3.722
 7575SOL     OW23623   3.831   1.221   5.817
 7575SOL    HW123624   3.859   1.316   5.828
 7575SOL    HW223625   3.896   1.174   5.757
 7576SOL     OW23626   6.023   4.241   0.142
 7576SOL    HW123627   6.088   4.301   0.190
 7576SOL    HW223628   5.941   4.294   0.119
 7577SOL     OW23629   6.362   1.200   4.935
 7577SOL    HW123630   6.346   1.237   5.026
 7577SOL    HW223631   6.283   1.146   4.906
 7578SOL     OW23632   2.123   6.573   4.543
 7578SOL    HW123633   2.035   6.595   4.501
 7578SOL    HW223634   2.108   6.530   4.632
 7579SOL     OW23635   3.980   2.044   2.429
 7579SOL    HW123636   3.901   2.080   2.379
 7579SOL    HW223637   3.980   2.080   2.522
 7580SOL     OW23638   2.048   4.157   2.879
 7580SOL    HW123639   1.991   4.077   2.899
 7580SOL    HW223640   2.123   4.130   2.818
 7581SOL     OW23641   5.632   1.215   0.549
 7581SOL    HW123642   5.576   1.261   0.480
 7581SOL    HW223643   5.627   1.267   0.635
 7582SOL     OW23644   3.468   1.732   0.821
 7582SOL    HW123645   3.541   1.736   0.753
 7582SOL    HW223646   3.471   1.813   0.879
 7583SOL     OW23647   5.990   3.829   2.134
 7583SOL    HW123648   6.071   3.887   2.137
 7583SOL    HW223649   5.923   3.862   2.201
 7584SOL     OW23650   2.649   6.484   1.106
 7584SOL    HW123651   2.632   6.572   1.151
 7584SOL    HW223652   2.577   6.466   1.039
 7585SOL     OW23653   1.872   4.208   6.535
 7585SOL    HW123654   1.902   4.303   6.539
 7585SOL    HW223655   1.926   4.153   6.599
 7586SOL     OW23656   2.735   0.231   2.967
 7586SOL    HW123657   2.761   0.164   2.897
 7586SOL    HW223658   2.687   0.308   2.924
 7587SOL     OW23659   1.406   1.838   0.226
 7587SOL    HW123660   1.481   1.855   0.290
 7587SOL    HW223661   1.433   1.767   0.161
 7588SOL     OW23662   0.802   5.165   2.069
 7588SOL    HW123663   0.751   5.225   2.007
 7588SOL    HW223664   0.783   5.070   2.046
 7589SOL     OW23665   5.985   6.092   0.273
 7589SOL    HW123666   5.920   6.053   0.208
 7589SOL    HW223667   5.937   6.152   0.337
 7590SOL     OW23668   2.601   1.854   5.763
 7590SOL    HW123669   2.632   1.895   5.677
 7590SOL    HW223670   2.513   1.894   5.788
 7591SOL     OW23671   0.408   5.143   0.027
 7591SOL    HW123672   0.367   5.085   6.981
 7591SOL    HW223673   0.380   5.110   0.117
 7592SOL     OW23674   6.372   5.314   6.990
 7592SOL    HW123675   6.411   5.396   6.947
 7592SOL    HW223676   6.277   5.304   6.962
 7593SOL     OW23677   5.294   2.292   6.902
 7593SOL    HW123678   5.294   2.389   6.926
 7593SOL    HW223679   5.212   2.249   6.939
 7594SOL     OW23680   0.942   5.658   3.296
 7594SOL    HW123681   1.024   5.612   3.261
 7594SOL    HW223682   0.967   5.718   3.372
 7595SOL     OW23683   0.023   3.136   6.133
 7595SOL    HW123684   0.021   3.209   6.201
 7595SOL    HW223685   0.016   3.048   6.180
 7596SOL     OW23686   5.307   4.507   2.545
 7596SOL    HW123687   5.364   4.570   2.492
 7596SOL    HW223688   5.266   4.440   2.484
 7597SOL     OW23689   3.213   5.692   1.938
 7597SOL    HW123690   3.252   5.601   1.938
 7597SOL    HW223691   3.285   5.760   1.922
 7598SOL     OW23692   6.789   0.080   3.154
 7598SOL    HW123693   6.753   0.110   3.066
 7598SOL    HW223694   6.719   0.094   3.225
 7599SOL     OW23695   6.089   1.606   3.065
 7599SOL    HW123696   6.022   1.651   3.125
 7599SOL    HW223697   6.155   1.674   3.033
 7600SOL     OW23698   1.458   0.078   2.423
 7600SOL    HW123699   1.396   0.139   2.473
 7600SOL    HW223700   1.495   0.125   2.343
 7601SOL     OW23701   2.236   6.145   3.373
 7601SOL    HW123702   2.293   6.227   3.377
 7601SOL    HW223703   2.141   6.169   3.396
 7602SOL     OW23704   2.389   4.393   4.662
 7602SOL    HW123705   2.433   4.450   4.732
 7602SOL    HW223706   2.399   4.297   4.688
 7603SOL     OW23707   0.680   6.114   6.935
 7603SOL    HW123708   0.773   6.078   6.941
 7603SOL    HW223709   0.677   6.206   6.975
 7604SOL     OW23710   3.489   5.870   4.095
 7604SOL    HW123711   3.499   5.883   3.996
 7604SOL    HW223712   3.580   5.859   4.136
 7605SOL     OW23713   1.012   4.995   6.767
 7605SOL    HW123714   1.079   4.944   6.712
 7605SOL    HW223715   0.921   4.986   6.726
 7606SOL     OW23716   0.395   3.022   1.883
 7606SOL    HW123717   0.414   2.966   1.803
 7606SOL    HW223718   0.479   3.066   1.914
 7607SOL     OW23719   5.050   0.129   0.302
 7607SOL    HW123720   5.029   0.080   0.387
 7607SOL    HW223721   5.021   0.073   0.224
 7608SOL     OW23722   3.003   3.483   3.370
 7608SOL    HW123723   3.026   3.528   3.284
 7608SOL    HW223724   3.000   3.552   3.443
 7609SOL     OW23725   0.375   3.429   4.266
 7609SOL    HW123726   0.301   3.472   4.317
 7609SOL    HW223727   0.445   3.397   4.330
 7610SOL     OW23728   5.712   0.806   1.333
 7610SOL    HW123729   5.685   0.723   1.284
 7610SOL    HW223730   5.745   0.782   1.424
 7611SOL     OW23731   1.347   1.980   6.874
 7611SOL    HW123732   1.277   1.917   6.906
 7611SOL    HW223733   1.437   1.936   6.876
 7612SOL     OW23734   3.927   1.744   3.925
 7612SOL    HW123735   3.941   1.646   3.907
 7612SOL    HW223736   4.011   1.794   3.905
 7613SOL     OW23737   4.736   1.189   1.203
 7613SOL    HW123738   4.740   1.160   1.298
 7613SOL    HW223739   4.724   1.108   1.144
 7614SOL     OW23740   3.891   2.064   1.980
 7614SOL    HW123741   3.867   2.095   1.888
 7614SOL    HW223742   3.816   2.083   2.043
 7615SOL     OW23743   4.339   5.110   6.763
 7615SOL    HW123744   4.240   5.124   6.767
 7615SOL    HW223745   4.377   5.161   6.685
 7616SOL     OW23746   0.474   3.953   4.062
 7616SOL    HW123747   0.403   3.916   4.122
 7616SOL    HW223748   0.489   3.891   3.986
 7617SOL     OW23749   3.108   5.649   3.232
 7617SOL    HW123750   3.093   5.571   3.172
 7617SOL    HW223751   3.196   5.638   3.279
 7618SOL     OW23752   1.148   2.400   6.581
 7618SOL    HW123753   1.139   2.320   6.522
 7618SOL    HW223754   1.229   2.391   6.639
 7619SOL     OW23755   5.706   2.891   5.147
 7619SOL    HW123756   5.606   2.889   5.152
 7619SOL    HW223757   5.741   2.798   5.132
 7620SOL     OW23758   3.600   6.903   0.675
 7620SOL    HW123759   3.560   6.817   0.707
 7620SOL    HW223760   3.576   6.976   0.739
 7621SOL     OW23761   1.314   0.922   0.689
 7621SOL    HW123762   1.233   0.885   0.735
 7621SOL    HW223763   1.333   0.869   0.606
 7622SOL     OW23764   4.707   2.858   1.517
 7622SOL    HW123765   4.675   2.774   1.560
 7622SOL    HW223766   4.748   2.918   1.586
 7623SOL     OW23767   4.408   5.998   6.531
 7623SOL    HW123768   4.451   5.917   6.492
 7623SOL    HW223769   4.476   6.071   6.541
 7624SOL     OW23770   0.652   1.836   3.164
 7624SOL    HW123771   0.659   1.795   3.073
 7624SOL    HW223772   0.607   1.771   3.226
 7625SOL     OW23773   5.604   0.783   0.995
 7625SOL    HW123774   5.698   0.803   1.022
 7625SOL    HW223775   5.571   0.702   1.043
 7626SOL     OW23776   0.990   6.916   5.121
 7626SOL    HW123777   0.908   6.944   5.171
 7626SOL    HW223778   0.969   6.909   5.023
 7627SOL     OW23779   6.275   3.182   0.885
 7627SOL    HW123780   6.264   3.275   0.922
 7627SOL    HW223781   6.240   3.180   0.792
 7628SOL     OW23782   2.815   0.495   1.568
 7628SOL    HW123783   2.827   0.396   1.566
 7628SOL    HW223784   2.897   0.538   1.606
 7629SOL     OW23785   6.494   6.318   2.522
 7629SOL    HW123786   6.408   6.267   2.515
 7629SOL    HW223787   6.530   6.335   2.430
 7630SOL     OW23788   6.435   6.825   2.408
 7630SOL    HW123789   6.356   6.826   2.345
 7630SOL    HW223790   6.490   6.908   2.393
 7631SOL     OW23791   1.080   1.613   5.622
 7631SOL    HW123792   1.038   1.688   5.570
 7631SOL    HW223793   1.026   1.530   5.609
 7632SOL     OW23794   4.158   2.225   1.017
 7632SOL    HW123795   4.199   2.267   1.099
 7632SOL    HW223796   4.137   2.296   0.950
 7633SOL     OW23797   5.346   3.789   6.729
 7633SOL    HW123798   5.402   3.852   6.782
 7633SOL    HW223799   5.262   3.836   6.699
 7634SOL     OW23800   1.493   0.832   2.554
 7634SOL    HW123801   1.394   0.834   2.566
 7634SOL    HW223802   1.527   0.739   2.569
 7635SOL     OW23803   2.655   5.773   5.812
 7635SOL    HW123804   2.585   5.820   5.867
 7635SOL    HW223805   2.701   5.705   5.869
 7636SOL     OW23806   1.301   1.520   3.919
 7636SOL    HW123807   1.217   1.574   3.925
 7636SOL    HW223808   1.314   1.488   3.825
 7637SOL     OW23809   1.367   6.952   4.150
 7637SOL    HW123810   1.269   6.959   4.130
 7637SOL    HW223811   1.380   6.906   4.238
 7638SOL     OW23812   5.912   5.828   1.800
 7638SOL    HW123813   5.935   5.731   1.791
 7638SOL    HW223814   5.815   5.838   1.824
 7639SOL     OW23815   0.970   1.696   6.344
 7639SOL    HW123816   0.911   1.618   6.322
 7639SOL    HW223817   1.061   1.680   6.306
 7640SOL     OW23818   2.658   2.700   1.100
 7640SOL    HW123819   2.728   2.640   1.063
 7640SOL    HW223820   2.590   2.646   1.151
 7641SOL     OW23821   0.325   4.786   2.290
 7641SOL    HW123822   0.402   4.724   2.307
 7641SOL    HW223823   0.240   4.733   2.288
 7642SOL     OW23824   2.835   1.767   2.786
 7642SOL    HW123825   2.793   1.848   2.827
 7642SOL    HW223826   2.763   1.704   2.757
 7643SOL     OW23827   4.468   2.530   3.542
 7643SOL    HW123828   4.398   2.459   3.537
 7643SOL    HW223829   4.486   2.553   3.637
 7644SOL     OW23830   6.750   2.857   2.637
 7644SOL    HW123831   6.699   2.788   2.689
 7644SOL    HW223832   6.688   2.931   2.611
 7645SOL     OW23833   4.786   5.156   6.911
 7645SOL    HW123834   4.721   5.093   6.955
 7645SOL    HW223835   4.777   5.247   6.953
 7646SOL     OW23836   1.689   1.885   2.077
 7646SOL    HW123837   1.596   1.850   2.089
 7646SOL    HW223838   1.730   1.901   2.166
 7647SOL     OW23839   1.857   3.522   2.064
 7647SOL    HW123840   1.883   3.427   2.044
 7647SOL    HW223841   1.938   3.572   2.096
 7648SOL     OW23842   4.394   1.489   3.470
 7648SOL    HW123843   4.328   1.415   3.480
 7648SOL    HW223844   4.459   1.486   3.547
 7649SOL     OW23845   1.386   0.658   2.298
 7649SOL    HW123846   1.340   0.570   2.288
 7649SOL    HW223847   1.482   0.648   2.271
 7650SOL     OW23848   6.363   2.906   2.237
 7650SOL    HW123849   6.297   2.837   2.206
 7650SOL    HW223850   6.435   2.916   2.168
 7651SOL     OW23851   2.362   0.341   6.898
 7651SOL    HW123852   2.401   0.270   6.840
 7651SOL    HW223853   2.348   0.305   6.990
 7652SOL     OW23854   6.345   3.499   3.842
 7652SOL    HW123855   6.254   3.484   3.804
 7652SOL    HW223856   6.397   3.414   3.837
 7653SOL     OW23857   2.669   1.795   0.773
 7653SOL    HW123858   2.613   1.712   0.764
 7653SOL    HW223859   2.755   1.782   0.724
 7654SOL     OW23860   4.691   2.334   3.501
 7654SOL    HW123861   4.771   2.302   3.552
 7654SOL    HW223862   4.670   2.427   3.528
 7655SOL     OW23863   3.828   0.164   4.111
 7655SOL    HW123864   3.799   0.121   4.196
 7655SOL    HW223865   3.915   0.212   4.126
 7656SOL     OW23866   0.335   6.021   5.361
 7656SOL    HW123867   0.238   6.034   5.384
 7656SOL    HW223868   0.343   5.966   5.278
 7657SOL     OW23869   2.939   2.272   3.232
 7657SOL    HW123870   3.029   2.256   3.272
 7657SOL    HW223871   2.949   2.296   3.136
 7658SOL     OW23872   4.387   0.580   6.239
 7658SOL    HW123873   4.458   0.524   6.283
 7658SOL    HW223874   4.359   0.537   6.154
 7659SOL     OW23875   6.223   6.861   0.969
 7659SOL    HW123876   6.247   6.953   0.939
 7659SOL    HW223877   6.130   6.839   0.939
 7660SOL     OW23878   5.389   5.380   3.382
 7660SOL    HW123879   5.305   5.327   3.398
 7660SOL    HW223880   5.425   5.357   3.292
 7661SOL     OW23881   5.730   2.330   4.346
 7661SOL    HW123882   5.808   2.355   4.402
 7661SOL    HW223883   5.668   2.408   4.338
 7662SOL     OW23884   1.616   2.742   2.197
 7662SOL    HW123885   1.550   2.748   2.271
 7662SOL    HW223886   1.610   2.651   2.155
 7663SOL     OW23887   0.199   5.455   6.821
 7663SOL    HW123888   0.291   5.422   6.802
 7663SOL    HW223889   0.147   5.385   6.870
 7664SOL     OW23890   3.312   6.435   2.414
 7664SOL    HW123891   3.232   6.379   2.435
 7664SOL    HW223892   3.296   6.530   2.441
 7665SOL     OW23893   2.775   0.307   4.120
 7665SOL    HW123894   2.749   0.321   4.216
 7665SOL    HW223895   2.874   0.303   4.112
 7666SOL     OW23896   0.468   6.689   1.348
 7666SOL    HW123897   0.382   6.646   1.319
 7666SOL    HW223898   0.545   6.643   1.304
 7667SOL     OW23899   4.770   6.764   6.682
 7667SOL    HW123900   4.762   6.696   6.609
 7667SOL    HW223901   4.770   6.718   6.771
 7668SOL     OW23902   3.362   4.376   1.566
 7668SOL    HW123903   3.318   4.331   1.643
 7668SOL    HW223904   3.439   4.321   1.535
 7669SOL     OW23905   4.778   0.950   4.773
 7669SOL    HW123906   4.826   0.874   4.729
 7669SOL    HW223907   4.721   0.998   4.706
 7670SOL     OW23908   1.179   5.580   6.649
 7670SOL    HW123909   1.178   5.666   6.598
 7670SOL    HW223910   1.087   5.541   6.650
 7671SOL     OW23911   4.701   1.439   4.491
 7671SOL    HW123912   4.618   1.428   4.436
 7671SOL    HW223913   4.691   1.518   4.551
 7672SOL     OW23914   6.114   0.394   3.691
 7672SOL    HW123915   6.124   0.321   3.758
 7672SOL    HW223916   6.205   0.422   3.660
 7673SOL     OW23917   1.146   4.698   0.860
 7673SOL    HW123918   1.222   4.651   0.905
 7673SOL    HW223919   1.153   4.685   0.761
 7674SOL     OW23920   6.463   1.778   4.887
 7674SOL    HW123921   6.521   1.804   4.964
 7674SOL    HW223922   6.519   1.766   4.805
 7675SOL     OW23923   4.931   0.437   1.921
 7675SOL    HW123924   4.845   0.446   1.972
 7675SOL    HW223925   5.004   0.409   1.983
 7676SOL     OW23926   1.250   1.404   6.815
 7676SOL    HW123927   1.328   1.454   6.776
 7676SOL    HW223928   1.248   1.420   6.914
 7677SOL     OW23929   1.688   3.123   2.236
 7677SOL    HW123930   1.724   3.212   2.265
 7677SOL    HW223931   1.761   3.054   2.241
 7678SOL     OW23932   1.272   0.695   6.510
 7678SOL    HW123933   1.329   0.767   6.548
 7678SOL    HW223934   1.216   0.654   6.582
 7679SOL     OW23935   0.915   5.273   5.010
 7679SOL    HW123936   1.007   5.244   5.039
 7679SOL    HW223937   0.922   5.324   4.924
 7680SOL     OW23938   3.120   3.369   6.600
 7680SOL    HW123939   3.166   3.397   6.684
 7680SOL    HW223940   3.186   3.362   6.526
 7681SOL     OW23941   2.991   1.028   0.503
 7681SOL    HW123942   2.962   1.025   0.599
 7681SOL    HW223943   2.965   0.943   0.458
 7682SOL     OW23944   2.579   6.517   1.893
 7682SOL    HW123945   2.554   6.605   1.853
 7682SOL    HW223946   2.497   6.461   1.904
 7683SOL     OW23947   6.517   2.597   2.970
 7683SOL    HW123948   6.580   2.534   3.015
 7683SOL    HW223949   6.426   2.557   2.968
 7684SOL     OW23950   5.129   2.233   6.491
 7684SOL    HW123951   5.103   2.143   6.456
 7684SOL    HW223952   5.120   2.301   6.418
 7685SOL     OW23953   3.715   2.639   0.414
 7685SOL    HW123954   3.760   2.574   0.352
 7685SOL    HW223955   3.632   2.598   0.452
 7686SOL     OW23956   4.667   0.315   2.758
 7686SOL    HW123957   4.766   0.328   2.758
 7686SOL    HW223958   4.625   0.372   2.829
 7687SOL     OW23959   5.076   5.567   5.679
 7687SOL    HW123960   5.133   5.631   5.627
 7687SOL    HW223961   5.011   5.523   5.617
 7688SOL     OW23962   6.606   6.582   5.746
 7688SOL    HW123963   6.614   6.672   5.790
 7688SOL    HW223964   6.510   6.565   5.723
 7689SOL     OW23965   4.586   6.063   4.577
 7689SOL    HW123966   4.541   5.996   4.518
 7689SOL    HW223967   4.554   6.050   4.671
 7690SOL     OW23968   5.332   5.025   3.114
 7690SOL    HW123969   5.256   5.017   3.049
 7690SOL    HW223970   5.296   5.028   3.207
 7691SOL     OW23971   4.784   2.924   3.915
 7691SOL    HW123972   4.725   2.868   3.972
 7691SOL    HW223973   4.870   2.875   3.897
 7692SOL     OW23974   1.310   6.416   1.270
 7692SOL    HW123975   1.280   6.357   1.194
 7692SOL    HW223976   1.339   6.359   1.347
 7693SOL     OW23977   4.272   1.175   6.706
 7693SOL    HW123978   4.257   1.081   6.734
 7693SOL    HW223979   4.343   1.178   6.635
 7694SOL     OW23980   0.624   4.511   3.948
 7694SOL    HW123981   0.544   4.520   4.008
 7694SOL    HW223982   0.597   4.530   3.854
 7695SOL     OW23983   4.103   0.242   0.666
 7695SOL    HW123984   4.127   0.337   0.685
 7695SOL    HW223985   4.019   0.218   0.716
 7696SOL     OW23986   6.707   1.967   4.491
 7696SOL    HW123987   6.804   1.942   4.494
 7696SOL    HW223988   6.692   2.030   4.415
 7697SOL     OW23989   2.587   1.833   3.568
 7697SOL    HW123990   2.503   1.800   3.525
 7697SOL    HW223991   2.662   1.771   3.547
 7698SOL     OW23992   6.478   2.758   4.932
 7698SOL    HW123993   6.380   2.763   4.915
 7698SOL    HW223994   6.497   2.683   4.996
 7699SOL     OW23995   2.020   5.705   0.016
 7699SOL    HW123996   2.064   5.682   6.953
 7699SOL    HW223997   1.991   5.621   0.061
 7700SOL     OW23998   4.599   0.004   5.395
 7700SOL    HW123999   4.513   7.017   5.445
 7700SOL    HW224000   4.676   7.012   5.456
 7701SOL     OW24001   6.393   0.916   5.937
 7701SOL    HW124002   6.476   0.953   5.979
 7701SOL    HW224003   6.411   0.895   5.841
 7702SOL     OW24004   3.269   6.653   6.120
 7702SOL    HW124005   3.256   6.602   6.205
 7702SOL    HW224006   3.218   6.739   6.124
 7703SOL     OW24007   0.016   1.224   5.096
 7703SOL    HW124008   0.023   1.314   5.138
 7703SOL    HW224009   6.953   1.182   5.120
 7704SOL     OW24010   4.323   4.403   0.237
 7704SOL    HW124011   4.248   4.450   0.284
 7704SOL    HW224012   4.320   4.425   0.139
 7705SOL     OW24013   3.573   4.949   5.290
 7705SOL    HW124014   3.511   4.979   5.218
 7705SOL    HW224015   3.649   4.899   5.250
 7706SOL     OW24016   5.742   6.668   5.202
 7706SOL    HW124017   5.763   6.765   5.193
 7706SOL    HW224018   5.647   6.657   5.232
 7707SOL     OW24019   0.320   5.295   6.116
 7707SOL    HW124020   0.281   5.349   6.042
 7707SOL    HW224021   0.274   5.206   6.119
 7708SOL     OW24022   4.667   5.833   4.799
 7708SOL    HW124023   4.629   5.800   4.713
 7708SOL    HW224024   4.671   5.758   4.865
 7709SOL     OW24025   4.559   2.355   2.079
 7709SOL    HW124026   4.465   2.381   2.102
 7709SOL    HW224027   4.573   2.258   2.101
 7710SOL     OW24028   2.684   0.192   0.657
 7710SOL    HW124029   2.730   0.116   0.613
 7710SOL    HW224030   2.699   0.276   0.604
 7711SOL     OW24031   5.790   6.347   6.109
 7711SOL    HW124032   5.854   6.271   6.097
 7711SOL    HW224033   5.761   6.381   6.019
 7712SOL     OW24034   6.093   4.950   1.331
 7712SOL    HW124035   6.021   4.895   1.288
 7712SOL    HW224036   6.068   5.047   1.325
 7713SOL     OW24037   1.789   4.136   0.127
 7713SOL    HW124038   1.820   4.082   0.205
 7713SOL    HW224039   1.737   4.078   0.065
 7714SOL     OW24040   6.201   4.079   4.701
 7714SOL    HW124041   6.169   4.053   4.610
 7714SOL    HW224042   6.171   4.172   4.721
 7715SOL     OW24043   5.166   0.673   1.136
 7715SOL    HW124044   5.196   0.579   1.120
 7715SOL    HW224045   5.219   0.735   1.078
 7716SOL     OW24046   4.620   2.533   2.302
 7716SOL    HW124047   4.643   2.483   2.218
 7716SOL    HW224048   4.649   2.628   2.293
 7717SOL     OW24049   2.854   1.467   5.054
 7717SOL    HW124050   2.792   1.523   4.999
 7717SOL    HW224051   2.888   1.520   5.131
 7718SOL     OW24052   1.942   1.530   2.819
 7718SOL    HW124053   2.037   1.560   2.832
 7718SOL    HW224054   1.905   1.498   2.906
 7719SOL     OW24055   6.905   2.891   4.885
 7719SOL    HW124056   6.920   2.832   4.965
 7719SOL    HW224057   6.819   2.865   4.840
 7720SOL     OW24058   6.641   6.379   0.943
 7720SOL    HW124059   6.710   6.367   0.871
 7720SOL    HW224060   6.562   6.321   0.922
 7721SOL     OW24061   2.259   4.517   3.566
 7721SOL    HW124062   2.184   4.516   3.632
 7721SOL    HW224063   2.346   4.520   3.615
 7722SOL     OW24064   6.458   5.350   3.163
 7722SOL    HW124065   6.407   5.403   3.096
 7722SOL    HW224066   6.395   5.303   3.224
 7723SOL     OW24067   6.946   3.167   0.486
 7723SOL    HW124068   6.922   3.248   0.433
 7723SOL    HW224069   6.990   3.100   0.426
 7724SOL     OW24070   1.809   4.360   1.634
 7724SOL    HW124071   1.880   4.396   1.574
 7724SOL    HW224072   1.726   4.341   1.581
 7725SOL     OW24073   5.323   2.487   3.263
 7725SOL    HW124074   5.421   2.467   3.256
 7725SOL    HW224075   5.289   2.518   3.175
 7726SOL     OW24076   0.342   4.630   3.051
 7726SOL    HW124077   0.386   4.568   3.116
 7726SOL    HW224078   0.379   4.722   3.063
 7727SOL     OW24079   6.228   2.036   4.085
 7727SOL    HW124080   6.304   2.101   4.075
 7727SOL    HW224081   6.160   2.074   4.148
 7728SOL     OW24082   1.531   3.282   2.997
 7728SOL    HW124083   1.511   3.189   2.968
 7728SOL    HW224084   1.466   3.310   3.067
 7729SOL     OW24085   5.414   2.199   0.888
 7729SOL    HW124086   5.472   2.210   0.807
 7729SOL    HW224087   5.352   2.277   0.895
 7730SOL     OW24088   4.719   6.459   2.927
 7730SOL    HW124089   4.746   6.415   2.841
 7730SOL    HW224090   4.760   6.409   3.004
 7731SOL     OW24091   6.367   0.867   0.311
 7731SOL    HW124092   6.458   0.906   0.295
 7731SOL    HW224093   6.341   0.879   0.406
 7732SOL     OW24094   5.125   5.903   0.776
 7732SOL    HW124095   5.220   5.891   0.748
 7732SOL    HW224096   5.065   5.873   0.702
 7733SOL     OW24097   4.120   0.155   1.301
 7733SOL    HW124098   4.030   0.154   1.256
 7733SOL    HW224099   4.142   0.063   1.334
 7734SOL     OW24100   1.477   3.222   3.311
 7734SOL    HW124101   1.418   3.297   3.280
 7734SOL    HW224102   1.431   3.134   3.293
 7735SOL     OW24103   5.285   4.293   6.864
 7735SOL    HW124104   5.362   4.339   6.820
 7735SOL    HW224105   5.252   4.348   6.940
 7736SOL     OW24106   5.343   4.614   0.409
 7736SOL    HW124107   5.432   4.569   0.402
 7736SOL    HW224108   5.297   4.585   0.493
 7737SOL     OW24109   4.933   2.031   0.977
 7737SOL    HW124110   4.847   2.028   0.926
 7737SOL    HW224111   4.913   2.032   1.075
 7738SOL     OW24112   3.040   6.070   0.274
 7738SOL    HW124113   2.943   6.085   0.293
 7738SOL    HW224114   3.069   5.982   0.312
 7739SOL     OW24115   1.126   2.499   0.550
 7739SOL    HW124116   1.074   2.507   0.635
 7739SOL    HW224117   1.064   2.492   0.472
 7740SOL     OW24118   6.928   0.092   2.560
 7740SOL    HW124119   6.994   0.044   2.502
 7740SOL    HW224120   6.973   0.122   2.644
 7741SOL     OW24121   1.902   5.905   3.979
 7741SOL    HW124122   1.872   5.975   3.914
 7741SOL    HW224123   1.822   5.867   4.026
 7742SOL     OW24124   6.187   1.991   2.761
 7742SOL    HW124125   6.138   2.073   2.789
 7742SOL    HW224126   6.283   2.000   2.787
 7743SOL     OW24127   4.533   3.381   5.772
 7743SOL    HW124128   4.494   3.359   5.682
 7743SOL    HW224129   4.472   3.443   5.821
 7744SOL     OW24130   6.691   6.544   3.883
 7744SOL    HW124131   6.724   6.487   3.957
 7744SOL    HW224132   6.753   6.622   3.870
 7745SOL     OW24133   3.774   2.658   6.238
 7745SOL    HW124134   3.732   2.705   6.315
 7745SOL    HW224135   3.719   2.671   6.156
 7746SOL     OW24136   1.926   0.203   0.542
 7746SOL    HW124137   1.852   0.146   0.508
 7746SOL    HW224138   2.010   0.182   0.492
 7747SOL     OW24139   5.130   6.563   0.942
 7747SOL    HW124140   5.108   6.527   1.033
 7747SOL    HW224141   5.220   6.605   0.943
 7748SOL     OW24142   2.014   3.601   6.169
 7748SOL    HW124143   2.043   3.618   6.075
 7748SOL    HW224144   2.057   3.667   6.230
 7749SOL     OW24145   4.808   3.235   6.038
 7749SOL    HW124146   4.724   3.246   5.984
 7749SOL    HW224147   4.842   3.324   6.066
 7750SOL     OW24148   0.873   6.485   2.021
 7750SOL    HW124149   0.797   6.422   2.005
 7750SOL    HW224150   0.839   6.579   2.022
 7751SOL     OW24151   0.927   1.894   1.524
 7751SOL    HW124152   0.888   1.927   1.439
 7751SOL    HW224153   1.018   1.935   1.537
 7752SOL     OW24154   4.880   0.742   4.340
 7752SOL    HW124155   4.920   0.818   4.290
 7752SOL    HW224156   4.786   0.726   4.309
 7753SOL     OW24157   2.187   1.463   5.225
 7753SOL    HW124158   2.251   1.386   5.232
 7753SOL    HW224159   2.110   1.437   5.167
 7754SOL     OW24160   4.265   6.335   1.625
 7754SOL    HW124161   4.190   6.398   1.601
 7754SOL    HW224162   4.327   6.381   1.689
 7755SOL     OW24163   2.039   4.308   6.202
 7755SOL    HW124164   2.027   4.406   6.191
 7755SOL    HW224165   1.982   4.260   6.135
 7756SOL     OW24166   2.631   6.101   1.449
 7756SOL    HW124167   2.725   6.105   1.483
 7756SOL    HW224168   2.592   6.012   1.469
 7757SOL     OW24169   0.538   4.512   3.261
 7757SOL    HW124170   0.443   4.485   3.277
 7757SOL    HW224171   0.594   4.489   3.340
 7758SOL     OW24172   1.251   0.860   5.244
 7758SOL    HW124173   1.203   0.848   5.331
 7758SOL    HW224174   1.273   0.956   5.231
 7759SOL     OW24175   3.045   2.212   6.599
 7759SOL    HW124176   3.078   2.161   6.679
 7759SOL    HW224177   2.976   2.158   6.551
 7760SOL     OW24178   4.272   2.409   1.851
 7760SOL    HW124179   4.185   2.433   1.807
 7760SOL    HW224180   4.347   2.450   1.800
 7761SOL     OW24181   4.572   5.513   4.236
 7761SOL    HW124182   4.487   5.556   4.207
 7761SOL    HW224183   4.552   5.439   4.301
 7762SOL     OW24184   0.227   0.725   3.956
 7762SOL    HW124185   0.257   0.653   3.893
 7762SOL    HW224186   0.244   0.814   3.913
 7763SOL     OW24187   2.525   0.151   4.750
 7763SOL    HW124188   2.485   0.073   4.798
 7763SOL    HW224189   2.526   0.231   4.810
 7764SOL     OW24190   3.315   3.924   5.227
 7764SOL    HW124191   3.378   3.999   5.208
 7764SOL    HW224192   3.323   3.897   5.323
 7765SOL     OW24193   6.506   3.300   4.576
 7765SOL    HW124194   6.590   3.247   4.578
 7765SOL    HW224195   6.434   3.250   4.626
 7766SOL     OW24196   0.637   4.763   6.956
 7766SOL    HW124197   0.687   4.847   6.976
 7766SOL    HW224198   0.701   4.686   6.950
 7767SOL     OW24199   2.490   0.816   2.921
 7767SOL    HW124200   2.499   0.801   2.823
 7767SOL    HW224201   2.581   0.826   2.961
 7768SOL     OW24202   4.268   4.642   3.041
 7768SOL    HW124203   4.265   4.542   3.048
 7768SOL    HW224204   4.363   4.671   3.028
 7769SOL     OW24205   3.414   2.361   5.333
 7769SOL    HW124206   3.330   2.356   5.279
 7769SOL    HW224207   3.469   2.279   5.316
 7770SOL     OW24208   1.013   3.456   4.670
 7770SOL    HW124209   0.974   3.502   4.750
 7770SOL    HW224210   0.962   3.372   4.652
 7771SOL     OW24211   3.271   2.815   6.054
 7771SOL    HW124212   3.323   2.828   5.970
 7771SOL    HW224213   3.329   2.833   6.134
 7772SOL     OW24214   5.244   0.677   1.396
 7772SOL    HW124215   5.231   0.658   1.298
 7772SOL    HW224216   5.269   0.772   1.408
 7773SOL     OW24217   3.437   6.194   0.041
 7773SOL    HW124218   3.481   6.131   0.105
 7773SOL    HW224219   3.464   6.288   0.062
 7774SOL     OW24220   4.661   1.607   2.932
 7774SOL    HW124221   4.683   1.666   3.010
 7774SOL    HW224222   4.714   1.636   2.853
 7775SOL     OW24223   3.314   0.665   0.023
 7775SOL    HW124224   3.317   0.612   0.107
 7775SOL    HW224225   3.395   0.647   6.993
 7776SOL     OW24226   1.392   0.030   5.397
 7776SOL    HW124227   1.394   0.106   5.462
 7776SOL    HW224228   1.483   0.020   5.355
 7777SOL     OW24229   5.150   5.423   3.121
 7777SOL    HW124230   5.230   5.414   3.179
 7777SOL    HW224231   5.173   5.480   3.042
 7778SOL     OW24232   5.733   4.361   2.765
 7778SOL    HW124233   5.728   4.445   2.817
 7778SOL    HW224234   5.680   4.289   2.811
 7779SOL     OW24235   3.317   5.945   2.043
 7779SOL    HW124236   3.233   5.919   2.092
 7779SOL    HW224237   3.383   5.982   2.108
 7780SOL     OW24238   6.238   6.184   5.624
 7780SOL    HW124239   6.267   6.222   5.536
 7780SOL    HW224240   6.317   6.144   5.671
 7781SOL     OW24241   1.613   2.590   0.431
 7781SOL    HW124242   1.699   2.599   0.481
 7781SOL    HW224243   1.554   2.524   0.478
 7782SOL     OW24244   6.051   4.587   3.713
 7782SOL    HW124245   6.046   4.496   3.673
 7782SOL    HW224246   5.961   4.630   3.709
 7783SOL     OW24247   1.115   0.667   5.118
 7783SOL    HW124248   1.034   0.685   5.061
 7783SOL    HW224249   1.152   0.753   5.152
 7784SOL     OW24250   2.417   2.565   2.936
 7784SOL    HW124251   2.413   2.611   2.847
 7784SOL    HW224252   2.355   2.610   3.000
 7785SOL     OW24253   0.892   6.444   2.509
 7785SOL    HW124254   0.907   6.354   2.469
 7785SOL    HW224255   0.940   6.450   2.597
 7786SOL     OW24256   4.601   0.211   6.137
 7786SOL    HW124257   4.561   0.200   6.046
 7786SOL    HW224258   4.640   0.124   6.167
 7787SOL     OW24259   2.935   2.725   1.397
 7787SOL    HW124260   2.943   2.690   1.490
 7787SOL    HW224261   3.022   2.712   1.349
 7788SOL     OW24262   0.175   4.468   1.526
 7788SOL    HW124263   0.242   4.505   1.461
 7788SOL    HW224264   0.207   4.379   1.559
 7789SOL     OW24265   3.578   0.860   6.290
 7789SOL    HW124266   3.618   0.772   6.265
 7789SOL    HW224267   3.646   0.932   6.278
 7790SOL     OW24268   5.183   4.544   2.175
 7790SOL    HW124269   5.130   4.514   2.096
 7790SOL    HW224270   5.146   4.631   2.209
 7791SOL     OW24271   2.657   5.375   2.021
 7791SOL    HW124272   2.619   5.302   2.077
 7791SOL    HW224273   2.756   5.375   2.030
 7792SOL     OW24274   1.005   1.800   2.214
 7792SOL    HW124275   0.922   1.822   2.267
 7792SOL    HW224276   1.063   1.880   2.210
 7793SOL     OW24277   4.742   1.078   6.782
 7793SOL    HW124278   4.697   1.036   6.861
 7793SOL    HW224279   4.715   1.030   6.699
 7794SOL     OW24280   0.496   5.773   2.777
 7794SOL    HW124281   0.548   5.763   2.862
 7794SOL    HW224282   0.402   5.798   2.799
 7795SOL     OW24283   3.079   5.226   6.237
 7795SOL    HW124284   3.145   5.259   6.305
 7795SOL    HW224285   3.108   5.136   6.205
 7796SOL     OW24286   3.489   3.095   6.042
 7796SOL    HW124287   3.391   3.096   6.020
 7796SOL    HW224288   3.513   3.009   6.087
 7797SOL     OW24289   1.044   5.985   3.212
 7797SOL    HW124290   1.127   5.973   3.159
 7797SOL    HW224291   1.048   5.929   3.295
 7798SOL     OW24292   0.946   2.562   0.796
 7798SOL    HW124293   0.862   2.529   0.753
 7798SOL    HW224294   0.985   2.490   0.853
 7799SOL     OW24295   2.538   6.231   3.535
 7799SOL    HW124296   2.568   6.301   3.600
 7799SOL    HW224297   2.618   6.185   3.497
 7800SOL     OW24298   0.314   6.403   1.451
 7800SOL    HW124299   0.393   6.428   1.507
 7800SOL    HW224300   0.335   6.320   1.399
 7801SOL     OW24301   1.592   2.400   2.412
 7801SOL    HW124302   1.553   2.469   2.351
 7801SOL    HW224303   1.638   2.330   2.357
 7802SOL     OW24304   6.757   3.653   5.312
 7802SOL    HW124305   6.752   3.721   5.239
 7802SOL    HW224306   6.748   3.561   5.272
 7803SOL     OW24307   4.922   2.178   5.477
 7803SOL    HW124308   4.878   2.109   5.536
 7803SOL    HW224309   4.895   2.161   5.382
 7804SOL     OW24310   2.646   2.045   5.165
 7804SOL    HW124311   2.686   2.137   5.160
 7804SOL    HW224312   2.711   1.979   5.127
 7805SOL     OW24313   5.709   3.146   1.077
 7805SOL    HW124314   5.661   3.183   1.157
 7805SOL    HW224315   5.805   3.134   1.100
 7806SOL     OW24316   0.170   2.058   5.630
 7806SOL    HW124317   0.083   2.022   5.664
 7806SOL    HW224318   0.234   2.066   5.706
 7807SOL     OW24319   2.170   5.010   5.913
 7807SOL    HW124320   2.142   4.919   5.943
 7807SOL    HW224321   2.127   5.030   5.824
 7808SOL     OW24322   5.502   3.881   2.991
 7808SOL    HW124323   5.532   3.832   2.909
 7808SOL    HW224324   5.404   3.871   3.002
 7809SOL     OW24325   4.615   5.262   3.367
 7809SOL    HW124326   4.686   5.300   3.426
 7809SOL    HW224327   4.562   5.194   3.418
 7810SOL     OW24328   4.022   6.466   5.685
 7810SOL    HW124329   4.105   6.471   5.630
 7810SOL    HW224330   4.013   6.550   5.738
 7811SOL     OW24331   1.208   5.546   2.528
 7811SOL    HW124332   1.223   5.628   2.582
 7811SOL    HW224333   1.157   5.479   2.582
 7812SOL     OW24334   2.489   2.308   5.930
 7812SOL    HW124335   2.392   2.325   5.941
 7812SOL    HW224336   2.505   2.252   5.849
 7813SOL     OW24337   6.060   1.466   0.766
 7813SOL    HW124338   6.095   1.560   0.772
 7813SOL    HW224339   6.137   1.403   0.752
 7814SOL     OW24340   0.091   3.145   2.317
 7814SOL    HW124341   0.114   3.210   2.388
 7814SOL    HW224342   0.152   3.157   2.239
 7815SOL     OW24343   5.743   2.625   5.029
 7815SOL    HW124344   5.833   2.644   4.988
 7815SOL    HW224345   5.694   2.559   4.972
 7816SOL     OW24346   0.442   1.329   4.976
 7816SOL    HW124347   0.418   1.239   4.942
 7816SOL    HW224348   0.376   1.396   4.942
 7817SOL     OW24349   2.857   3.394   6.515
 7817SOL    HW124350   2.940   3.365   6.562
 7817SOL    HW224351   2.875   3.402   6.417
 7818SOL     OW24352   5.208   0.908   2.135
 7818SOL    HW124353   5.209   0.944   2.229
 7818SOL    HW224354   5.301   0.900   2.101
 7819SOL     OW24355   1.209   3.601   4.012
 7819SOL    HW124356   1.178   3.658   4.088
 7819SOL    HW224357   1.210   3.505   4.040
 7820SOL     OW24358   1.832   0.345   5.774
 7820SOL    HW124359   1.865   0.274   5.712
 7820SOL    HW224360   1.794   0.420   5.721
 7821SOL     OW24361   5.962   5.489   6.610
 7821SOL    HW124362   5.963   5.405   6.665
 7821SOL    HW224363   6.053   5.505   6.572
 7822SOL     OW24364   1.057   0.784   4.604
 7822SOL    HW124365   1.104   0.873   4.611
 7822SOL    HW224366   1.098   0.720   4.668
 7823SOL     OW24367   1.333   4.370   7.012
 7823SOL    HW124368   1.381   4.423   0.057
 7823SOL    HW224369   1.333   4.274   0.013
 7824SOL     OW24370   5.019   2.642   2.362
 7824SOL    HW124371   5.029   2.563   2.422
 7824SOL    HW224372   5.002   2.724   2.417
 7825SOL     OW24373   3.445   3.434   1.747
 7825SOL    HW124374   3.356   3.421   1.792
 7825SOL    HW224375   3.496   3.348   1.751
 7826SOL     OW24376   6.935   0.641   0.427
 7826SOL    HW124377   7.017   0.634   0.370
 7826SOL    HW224378   6.954   0.605   0.518
 7827SOL     OW24379   5.527   5.015   1.100
 7827SOL    HW124380   5.480   5.097   1.069
 7827SOL    HW224381   5.582   4.977   1.026
 7828SOL     OW24382   0.412   6.462   1.008
 7828SOL    HW124383   0.418   6.546   0.954
 7828SOL    HW224384   0.321   6.421   0.996
 7829SOL     OW24385   3.469   2.825   1.750
 7829SOL    HW124386   3.539   2.818   1.821
 7829SOL    HW224387   3.445   2.733   1.718
 7830SOL     OW24388   5.731   3.008   6.946
 7830SOL    HW124389   5.708   2.919   6.907
 7830SOL    HW224390   5.751   3.073   6.873
 7831SOL     OW24391   1.040   3.284   0.280
 7831SOL    HW124392   1.065   3.214   0.346
 7831SOL    HW224393   1.088   3.268   0.194
 7832SOL     OW24394   2.526   2.312   5.421
 7832SOL    HW124395   2.456   2.336   5.354
 7832SOL    HW224396   2.609   2.365   5.403
 7833SOL     OW24397   0.612   6.902   0.658
 7833SOL    HW124398   0.597   6.940   0.567
 7833SOL    HW224399   0.535   6.844   0.683
 7834SOL     OW24400   0.958   0.673   1.295
 7834SOL    HW124401   1.054   0.679   1.270
 7834SOL    HW224402   0.950   0.648   1.392
 7835SOL     OW24403   2.162   3.072   4.876
 7835SOL    HW124404   2.125   3.164   4.868
 7835SOL    HW224405   2.255   3.077   4.914
 7836SOL     OW24406   2.495   6.472   6.897
 7836SOL    HW124407   2.557   6.550   6.910
 7836SOL    HW224408   2.538   6.389   6.932
 7837SOL     OW24409   6.084   6.824   3.026
 7837SOL    HW124410   6.093   6.763   2.947
 7837SOL    HW224411   6.066   6.769   3.108
 7838SOL     OW24412   4.200   6.524   4.875
 7838SOL    HW124413   4.253   6.452   4.919
 7838SOL    HW224414   4.248   6.554   4.792
 7839SOL     OW24415   6.566   5.097   4.750
 7839SOL    HW124416   6.569   5.041   4.833
 7839SOL    HW224417   6.598   5.043   4.673
 7840SOL     OW24418   5.300   2.774   4.261
 7840SOL    HW124419   5.218   2.821   4.294
 7840SOL    HW224420   5.378   2.838   4.264
 7841SOL     OW24421   0.456   1.365   6.479
 7841SOL    HW124422   0.399   1.418   6.415
 7841SOL    HW224423   0.430   1.269   6.474
 7842SOL     OW24424   1.955   1.256   2.679
 7842SOL    HW124425   2.053   1.252   2.660
 7842SOL    HW224426   1.937   1.327   2.747
 7843SOL     OW24427   5.308   3.539   0.921
 7843SOL    HW124428   5.380   3.557   0.989
 7843SOL    HW224429   5.252   3.462   0.952
 7844SOL     OW24430   4.289   0.593   3.271
 7844SOL    HW124431   4.357   0.663   3.291
 7844SOL    HW224432   4.270   0.591   3.173
 7845SOL     OW24433   6.158   1.316   4.595
 7845SOL    HW124434   6.061   1.292   4.591
 7845SOL    HW224435   6.167   1.413   4.615
 7846SOL     OW24436   3.237   0.161   1.685
 7846SOL    HW124437   3.220   0.239   1.624
 7846SOL    HW224438   3.237   0.077   1.631
 7847SOL     OW24439   6.845   0.494   0.784
 7847SOL    HW124440   6.779   0.457   0.719
 7847SOL    HW224441   6.930   0.518   0.736
 7848SOL     OW24442   4.406   3.796   1.742
 7848SOL    HW124443   4.408   3.768   1.838
 7848SOL    HW224444   4.477   3.865   1.726
 7849SOL     OW24445   5.905   2.930   4.657
 7849SOL    HW124446   5.931   2.958   4.564
 7849SOL    HW224447   5.857   2.842   4.652
 7850SOL     OW24448   0.746   0.650   5.448
 7850SOL    HW124449   0.687   0.726   5.419
 7850SOL    HW224450   0.772   0.596   5.368
 7851SOL     OW24451   6.146   6.898   0.280
 7851SOL    HW124452   6.236   6.921   0.316
 7851SOL    HW224453   6.131   6.946   0.193
 7852SOL     OW24454   2.990   6.462   6.912
 7852SOL    HW124455   2.981   6.550   6.867
 7852SOL    HW224456   3.086   6.435   6.915
 7853SOL     OW24457   2.671   2.915   0.212
 7853SOL    HW124458   2.658   3.011   0.189
 7853SOL    HW224459   2.583   2.867   0.210
 7854SOL     OW24460   3.628   4.018   2.052
 7854SOL    HW124461   3.683   3.957   2.108
 7854SOL    HW224462   3.660   4.112   2.065
 7855SOL     OW24463   4.302   5.706   6.298
 7855SOL    HW124464   4.328   5.611   6.279
 7855SOL    HW224465   4.261   5.711   6.389
 7856SOL     OW24466   5.638   3.587   5.129
 7856SOL    HW124467   5.568   3.520   5.107
 7856SOL    HW224468   5.609   3.678   5.101
 7857SOL     OW24469   6.198   1.758   5.919
 7857SOL    HW124470   6.136   1.682   5.936
 7857SOL    HW224471   6.145   1.844   5.917
 7858SOL     OW24472   6.055   3.714   3.552
 7858SOL    HW124473   5.973   3.752   3.509
 7858SOL    HW224474   6.114   3.675   3.482
 7859SOL     OW24475   1.192   4.664   5.927
 7859SOL    HW124476   1.121   4.710   5.874
 7859SOL    HW224477   1.178   4.682   6.024
 7860SOL     OW24478   4.008   6.947   1.669
 7860SOL    HW124479   3.913   6.976   1.681
 7860SOL    HW224480   4.053   6.939   1.758
 7861SOL     OW24481   4.723   5.019   0.899
 7861SOL    HW124482   4.652   5.053   0.962
 7861SOL    HW224483   4.773   5.097   0.862
 7862SOL     OW24484   2.879   4.266   1.424
 7862SOL    HW124485   2.931   4.345   1.457
 7862SOL    HW224486   2.903   4.185   1.477
 7863SOL     OW24487   6.474   5.766   2.242
 7863SOL    HW124488   6.396   5.791   2.298
 7863SOL    HW224489   6.554   5.819   2.271
 7864SOL     OW24490   0.819   5.384   4.471
 7864SOL    HW124491   0.852   5.376   4.377
 7864SOL    HW224492   0.827   5.295   4.517
 7865SOL     OW24493   3.425   6.803   3.025
 7865SOL    HW124494   3.509   6.854   3.045
 7865SOL    HW224495   3.360   6.816   3.100
 7866SOL     OW24496   2.727   2.122   3.893
 7866SOL    HW124497   2.631   2.126   3.865
 7866SOL    HW224498   2.741   2.043   3.953
 7867SOL     OW24499   6.081   4.518   1.998
 7867SOL    HW124500   6.136   4.441   1.965
 7867SOL    HW224501   6.139   4.581   2.049
 7868SOL     OW24502   5.416   6.206   0.584
 7868SOL    HW124503   5.452   6.135   0.645
 7868SOL    HW224504   5.342   6.254   0.630
 7869SOL     OW24505   0.625   2.984   1.587
 7869SOL    HW124506   0.682   3.049   1.537
 7869SOL    HW224507   0.672   2.955   1.670
 7870SOL     OW24508   6.968   4.930   4.164
 7870SOL    HW124509   6.993   5.019   4.126
 7870SOL    HW224510   0.027   4.882   4.192
 7871SOL     OW24511   5.308   3.423   3.226
 7871SOL    HW124512   5.276   3.408   3.132
 7871SOL    HW224513   5.232   3.412   3.290
 7872SOL     OW24514   0.098   3.449   2.756
 7872SOL    HW124515   0.010   3.408   2.733
 7872SOL    HW224516   0.084   3.530   2.813
 7873SOL     OW24517   0.313   5.795   5.179
 7873SOL    HW124518   0.286   5.699   5.179
 7873SOL    HW224519   0.411   5.803   5.194
 7874SOL     OW24520   6.015   1.710   0.213
 7874SOL    HW124521   6.021   1.695   0.114
 7874SOL    HW224522   6.045   1.803   0.234
 7875SOL     OW24523   4.351   3.007   6.143
 7875SOL    HW124524   4.358   2.960   6.055
 7875SOL    HW224525   4.442   3.009   6.186
 7876SOL     OW24526   6.603   0.330   3.676
 7876SOL    HW124527   6.576   0.259   3.741
 7876SOL    HW224528   6.615   0.417   3.724
 7877SOL     OW24529   0.108   2.268   3.087
 7877SOL    HW124530   0.101   2.353   3.140
 7877SOL    HW224531   0.066   2.282   2.997
 7878SOL     OW24532   4.668   4.480   2.550
 7878SOL    HW124533   4.691   4.569   2.591
 7878SOL    HW224534   4.569   4.469   2.548
 7879SOL     OW24535   4.792   0.107   3.918
 7879SOL    HW124536   4.811   0.203   3.895
 7879SOL    HW224537   4.720   0.072   3.859
 7880SOL     OW24538   0.120   6.563   6.452
 7880SOL    HW124539   0.100   6.542   6.547
 7880SOL    HW224540   0.060   6.636   6.420
 7881SOL     OW24541   6.957   4.069   4.901
 7881SOL    HW124542   6.886   4.003   4.874
 7881SOL    HW224543   6.915   4.158   4.916
 7882SOL     OW24544   0.165   3.106   2.836
 7882SOL    HW124545   0.239   3.133   2.773
 7882SOL    HW224546   0.150   3.181   2.901
 7883SOL     OW24547   2.959   1.262   3.083
 7883SOL    HW124548   3.056   1.270   3.058
 7883SOL    HW224549   2.909   1.342   3.051
 7884SOL     OW24550   1.285   4.328   3.908
 7884SOL    HW124551   1.303   4.367   3.998
 7884SOL    HW224552   1.369   4.286   3.873
 7885SOL     OW24553   6.013   5.635   2.872
 7885SOL    HW124554   6.087   5.581   2.913
 7885SOL    HW224555   6.028   5.732   2.893
 7886SOL     OW24556   4.610   2.778   1.765
 7886SOL    HW124557   4.626   2.720   1.845
 7886SOL    HW224558   4.612   2.874   1.792
 7887SOL     OW24559   3.393   3.473   0.415
 7887SOL    HW124560   3.439   3.522   0.488
 7887SOL    HW224561   3.365   3.538   0.343
 7888SOL     OW24562   5.993   1.486   4.064
 7888SOL    HW124563   6.021   1.553   3.995
 7888SOL    HW224564   5.922   1.427   4.025
 7889SOL     OW24565   6.122   4.885   0.777
 7889SOL    HW124566   6.052   4.944   0.736
 7889SOL    HW224567   6.123   4.797   0.729
 7890SOL     OW24568   1.070   3.077   4.508
 7890SOL    HW124569   1.107   3.008   4.571
 7890SOL    HW224570   0.992   3.122   4.551
 7891SOL     OW24571   0.130   2.043   3.987
 7891SOL    HW124572   0.132   2.005   4.080
 7891SOL    HW224573   0.099   2.138   3.991
 7892SOL     OW24574   0.889   3.382   6.091
 7892SOL    HW124575   0.924   3.341   6.175
 7892SOL    HW224576   0.957   3.372   6.019
 7893SOL     OW24577   6.416   0.888   1.812
 7893SOL    HW124578   6.494   0.912   1.870
 7893SOL    HW224579   6.386   0.795   1.834
 7894SOL     OW24580   2.441   1.063   5.867
 7894SOL    HW124581   2.501   1.107   5.934
 7894SOL    HW224582   2.485   1.064   5.777
 7895SOL     OW24583   3.706   6.064   3.211
 7895SOL    HW124584   3.627   6.122   3.190
 7895SOL    HW224585   3.790   6.112   3.184
 7896SOL     OW24586   4.303   2.521   1.320
 7896SOL    HW124587   4.360   2.603   1.309
 7896SOL    HW224588   4.211   2.548   1.349
 7897SOL     OW24589   3.702   3.962   6.946
 7897SOL    HW124590   3.645   3.898   6.996
 7897SOL    HW224591   3.679   3.959   6.849
 7898SOL     OW24592   4.945   0.485   4.274
 7898SOL    HW124593   4.934   0.583   4.289
 7898SOL    HW224594   4.974   0.442   4.359
 7899SOL     OW24595   5.356   4.575   1.276
 7899SOL    HW124596   5.398   4.663   1.298
 7899SOL    HW224597   5.257   4.587   1.268
 7900SOL     OW24598   0.645   3.435   0.477
 7900SOL    HW124599   0.644   3.480   0.566
 7900SOL    HW224600   0.565   3.463   0.424
 7901SOL     OW24601   5.595   1.157   6.224
 7901SOL    HW124602   5.616   1.246   6.264
 7901SOL    HW224603   5.594   1.165   6.124
 7902SOL     OW24604   0.524   6.647   2.768
 7902SOL    HW124605   0.561   6.650   2.675
 7902SOL    HW224606   0.474   6.561   2.782
 7903SOL     OW24607   1.974   1.811   4.490
 7903SOL    HW124608   1.902   1.870   4.452
 7903SOL    HW224609   1.938   1.759   4.567
 7904SOL     OW24610   5.791   0.698   2.484
 7904SOL    HW124611   5.862   0.721   2.418
 7904SOL    HW224612   5.778   0.775   2.548
 7905SOL     OW24613   5.961   0.266   0.113
 7905SOL    HW124614   5.931   0.264   0.018
 7905SOL    HW224615   6.031   0.336   0.124
 7906SOL     OW24616   1.253   5.040   0.881
 7906SOL    HW124617   1.347   5.006   0.878
 7906SOL    HW224618   1.203   4.994   0.954
 7907SOL     OW24619   6.263   0.165   3.620
 7907SOL    HW124620   6.216   0.246   3.585
 7907SOL    HW224621   6.294   0.109   3.543
 7908SOL     OW24622   0.611   0.118   6.420
 7908SOL    HW124623   0.521   0.124   6.376
 7908SOL    HW224624   0.682   0.149   6.357
 7909SOL     OW24625   5.633   3.784   2.224
 7909SOL    HW124626   5.707   3.846   2.250
 7909SOL    HW224627   5.672   3.701   2.183
 7910SOL     OW24628   2.042   3.586   0.760
 7910SOL    HW124629   2.110   3.527   0.717
 7910SOL    HW224630   1.951   3.547   0.747
 7911SOL     OW24631   1.442   4.299   0.389
 7911SOL    HW124632   1.428   4.215   0.337
 7911SOL    HW224633   1.427   4.281   0.486
 7912SOL     OW24634   5.816   5.282   0.136
 7912SOL    HW124635   5.738   5.289   0.198
 7912SOL    HW224636   5.900   5.266   0.188
 7913SOL     OW24637   0.349   3.673   0.698
 7913SOL    HW124638   0.349   3.719   0.787
 7913SOL    HW224639   0.270   3.704   0.644
 7914SOL     OW24640   6.307   5.243   4.991
 7914SOL    HW124641   6.389   5.295   5.015
 7914SOL    HW224642   6.282   5.263   4.896
 7915SOL     OW24643   3.623   0.132   2.716
 7915SOL    HW124644   3.570   0.215   2.735
 7915SOL    HW224645   3.693   0.152   2.647
 7916SOL     OW24646   1.467   0.505   4.419
 7916SOL    HW124647   1.484   0.464   4.329
 7916SOL    HW224648   1.418   0.591   4.407
 7917SOL     OW24649   3.718   3.252   6.903
 7917SOL    HW124650   3.623   3.277   6.926
 7917SOL    HW224651   3.717   3.170   6.845
 7918SOL     OW24652   2.109   0.962   4.744
 7918SOL    HW124653   2.024   0.960   4.692
 7918SOL    HW224654   2.155   1.051   4.730
 7919SOL     OW24655   0.766   5.060   2.671
 7919SOL    HW124656   0.737   4.971   2.637
 7919SOL    HW224657   0.737   5.070   2.766
 7920SOL     OW24658   4.579   0.471   0.747
 7920SOL    HW124659   4.618   0.379   0.744
 7920SOL    HW224660   4.525   0.481   0.831
 7921SOL     OW24661   4.945   1.260   1.488
 7921SOL    HW124662   4.952   1.354   1.524
 7921SOL    HW224663   5.014   1.246   1.417
 7922SOL     OW24664   0.695   5.706   0.751
 7922SOL    HW124665   0.731   5.651   0.675
 7922SOL    HW224666   0.677   5.646   0.829
 7923SOL     OW24667   3.547   1.263   6.892
 7923SOL    HW124668   3.459   1.299   6.925
 7923SOL    HW224669   3.542   1.248   6.794
 7924SOL     OW24670   6.440   0.197   1.491
 7924SOL    HW124671   6.449   0.131   1.416
 7924SOL    HW224672   6.370   0.166   1.555
 7925SOL     OW24673   2.403   6.478   0.961
 7925SOL    HW124674   2.413   6.534   0.878
 7925SOL    HW224675   2.339   6.523   1.023
 7926SOL     OW24676   4.987   6.380   6.267
 7926SOL    HW124677   5.054   6.399   6.340
 7926SOL    HW224678   4.977   6.461   6.210
 7927SOL     OW24679   5.213   6.771   2.490
 7927SOL    HW124680   5.213   6.739   2.585
 7927SOL    HW224681   5.232   6.869   2.488
 7928SOL     OW24682   6.382   1.368   3.393
 7928SOL    HW124683   6.282   1.377   3.399
 7928SOL    HW224684   6.422   1.377   3.484
 7929SOL     OW24685   4.122   4.035   5.999
 7929SOL    HW124686   4.125   4.075   5.908
 7929SOL    HW224687   4.190   4.080   6.057
 7930SOL     OW24688   3.915   5.849   5.283
 7930SOL    HW124689   3.897   5.826   5.379
 7930SOL    HW224690   3.921   5.948   5.274
 7931SOL     OW24691   2.883   2.306   0.773
 7931SOL    HW124692   2.968   2.301   0.721
 7931SOL    HW224693   2.805   2.303   0.709
 7932SOL     OW24694   0.312   5.575   1.483
 7932SOL    HW124695   0.337   5.644   1.414
 7932SOL    HW224696   0.294   5.620   1.570
 7933SOL     OW24697   7.002   1.264   6.137
 7933SOL    HW124698   6.920   1.291   6.088
 7933SOL    HW224699   0.055   1.319   6.106
 7934SOL     OW24700   1.117   4.356   0.814
 7934SOL    HW124701   1.166   4.278   0.775
 7934SOL    HW224702   1.088   4.418   0.741
 7935SOL     OW24703   5.612   3.827   2.748
 7935SOL    HW124704   5.590   3.923   2.737
 7935SOL    HW224705   5.700   3.808   2.704
 7936SOL     OW24706   3.449   6.280   3.971
 7936SOL    HW124707   3.548   6.274   3.963
 7936SOL    HW224708   3.417   6.214   4.038
 7937SOL     OW24709   2.711   5.607   6.243
 7937SOL    HW124710   2.623   5.572   6.212
 7937SOL    HW224711   2.784   5.572   6.185
 7938SOL     OW24712   4.211   6.866   4.764
 7938SOL    HW124713   4.144   6.807   4.720
 7938SOL    HW224714   4.248   6.931   4.697
 7939SOL     OW24715   0.524   1.695   5.072
 7939SOL    HW124716   0.497   1.781   5.029
 7939SOL    HW224717   0.485   1.618   5.021
 7940SOL     OW24718   5.170   1.324   2.922
 7940SOL    HW124719   5.261   1.330   2.881
 7940SOL    HW224720   5.112   1.265   2.866
 7941SOL     OW24721   4.197   6.584   1.910
 7941SOL    HW124722   4.117   6.568   1.852
 7941SOL    HW224723   4.192   6.675   1.951
 7942SOL     OW24724   0.767   3.970   1.520
 7942SOL    HW124725   0.853   3.964   1.470
 7942SOL    HW224726   0.692   3.937   1.463
 7943SOL     OW24727   2.394   5.095   6.244
 7943SOL    HW124728   2.335   5.041   6.304
 7943SOL    HW224729   2.414   5.043   6.161
 7944SOL     OW24730   1.122   2.905   1.133
 7944SOL    HW124731   1.049   2.972   1.132
 7944SOL    HW224732   1.189   2.928   1.204
 7945SOL     OW24733   5.514   5.137   2.638
 7945SOL    HW124734   5.435   5.076   2.628
 7945SOL    HW224735   5.580   5.096   2.701
 7946SOL     OW24736   4.153   1.372   5.586
 7946SOL    HW124737   4.156   1.279   5.622
 7946SOL    HW224738   4.154   1.437   5.663
 7947SOL     OW24739   1.001   2.769   4.983
 7947SOL    HW124740   1.067   2.751   4.910
 7947SOL    HW224741   0.909   2.753   4.949
 7948SOL     OW24742   1.758   5.162   2.114
 7948SOL    HW124743   1.706   5.084   2.078
 7948SOL    HW224744   1.822   5.130   2.184
 7949SOL     OW24745   4.128   4.832   6.519
 7949SOL    HW124746   4.189   4.760   6.552
 7949SOL    HW224747   4.181   4.901   6.469
 7950SOL     OW24748   5.879   5.127   5.574
 7950SOL    HW124749   5.931   5.210   5.554
 7950SOL    HW224750   5.857   5.079   5.489
 7951SOL     OW24751   3.135   5.519   2.646
 7951SOL    HW124752   3.162   5.423   2.652
 7951SOL    HW224753   3.035   5.526   2.641
 7952SOL     OW24754   5.400   3.445   0.003
 7952SOL    HW124755   5.312   3.398   7.023
 7952SOL    HW224756   5.445   3.438   6.938
 7953SOL     OW24757   3.734   2.006   0.547
 7953SOL    HW124758   3.672   1.929   0.559
 7953SOL    HW224759   3.820   1.975   0.507
 7954SOL     OW24760   3.859   2.867   0.330
 7954SOL    HW124761   3.889   2.910   0.416
 7954SOL    HW224762   3.831   2.773   0.348
 7955SOL     OW24763   1.587   1.518   6.503
 7955SOL    HW124764   1.639   1.444   6.461
 7955SOL    HW224765   1.517   1.550   6.439
 7956SOL     OW24766   6.850   0.508   1.210
 7956SOL    HW124767   6.754   0.523   1.233
 7956SOL    HW224768   6.907   0.520   1.291
 7957SOL     OW24769   4.605   0.305   4.969
 7957SOL    HW124770   4.635   0.397   4.997
 7957SOL    HW224771   4.589   0.249   5.051
 7958SOL     OW24772   5.750   3.396   6.629
 7958SOL    HW124773   5.671   3.414   6.571
 7958SOL    HW224774   5.764   3.473   6.692
 7959SOL     OW24775   5.140   1.045   5.831
 7959SOL    HW124776   5.110   1.136   5.806
 7959SOL    HW224777   5.061   0.984   5.837
 7960SOL     OW24778   0.009   0.826   6.691
 7960SOL    HW124779   7.024   0.774   6.606
 7960SOL    HW224780   6.995   0.917   6.680
 7961SOL     OW24781   6.564   0.587   0.130
 7961SOL    HW124782   6.471   0.568   0.162
 7961SOL    HW224783   6.599   0.508   0.080
 7962SOL     OW24784   6.353   6.501   5.627
 7962SOL    HW124785   6.336   6.472   5.533
 7962SOL    HW224786   6.274   6.480   5.684
 7963SOL     OW24787   6.593   5.078   4.127
 7963SOL    HW124788   6.657   5.109   4.058
 7963SOL    HW224789   6.502   5.069   4.087
 7964SOL     OW24790   6.327   3.529   1.800
 7964SOL    HW124791   6.332   3.445   1.853
 7964SOL    HW224792   6.236   3.569   1.809
 7965SOL     OW24793   4.169   1.871   0.038
 7965SOL    HW124794   4.115   1.955   0.047
 7965SOL    HW224795   4.112   1.799   0.000
 7966SOL     OW24796   4.415   4.254   5.372
 7966SOL    HW124797   4.368   4.311   5.440
 7966SOL    HW224798   4.404   4.294   5.281
 7967SOL     OW24799   1.320   5.026   1.994
 7967SOL    HW124800   1.283   4.948   2.045
 7967SOL    HW224801   1.418   5.034   2.012
 7968SOL     OW24802   6.667   1.841   4.180
 7968SOL    HW124803   6.760   1.806   4.171
 7968SOL    HW224804   6.670   1.935   4.213
 7969SOL     OW24805   4.662   6.249   0.052
 7969SOL    HW124806   4.757   6.247   0.021
 7969SOL    HW224807   4.633   6.157   0.079
 7970SOL     OW24808   6.339   3.354   2.556
 7970SOL    HW124809   6.284   3.356   2.639
 7970SOL    HW224810   6.329   3.264   2.512
 7971SOL     OW24811   3.275   1.548   0.847
 7971SOL    HW124812   3.353   1.591   0.803
 7971SOL    HW224813   3.260   1.458   0.807
 7972SOL     OW24814   3.775   3.013   2.640
 7972SOL    HW124815   3.832   3.091   2.668
 7972SOL    HW224816   3.705   3.044   2.576
 7973SOL     OW24817   6.303   3.572   2.956
 7973SOL    HW124818   6.239   3.572   3.033
 7973SOL    HW224819   6.352   3.485   2.952
 7974SOL     OW24820   6.216   1.726   5.420
 7974SOL    HW124821   6.254   1.766   5.504
 7974SOL    HW224822   6.269   1.758   5.341
 7975SOL     OW24823   5.265   1.532   0.697
 7975SOL    HW124824   5.239   1.442   0.731
 7975SOL    HW224825   5.255   1.599   0.771
 7976SOL     OW24826   1.317   7.020   0.381
 7976SOL    HW124827   1.327   0.025   0.476
 7976SOL    HW224828   1.272   6.931   0.379
 7977SOL     OW24829   5.345   6.200   3.041
 7977SOL    HW124830   5.355   6.152   3.128
 7977SOL    HW224831   5.376   6.140   2.967
 7978SOL     OW24832   0.075   4.793   0.863
 7978SOL    HW124833   0.093   4.879   0.912
 7978SOL    HW224834   0.115   4.717   0.915
 7979SOL     OW24835   1.464   3.641   4.752
 7979SOL    HW124836   1.406   3.689   4.686
 7979SOL    HW224837   1.409   3.576   4.804
 7980SOL     OW24838   3.569   4.787   5.964
 7980SOL    HW124839   3.475   4.819   5.975
 7980SOL    HW224840   3.609   4.826   5.881
 7981SOL     OW24841   1.787   5.297   3.299
 7981SOL    HW124842   1.803   5.339   3.388
 7981SOL    HW224843   1.725   5.219   3.309
 7982SOL     OW24844   1.317   1.937   6.135
 7982SOL    HW124845   1.242   2.002   6.128
 7982SOL    HW224846   1.387   1.958   6.067
 7983SOL     OW24847   5.302   0.838   0.981
 7983SOL    HW124848   5.269   0.896   0.907
 7983SOL    HW224849   5.402   0.838   0.981
 7984SOL     OW24850   1.128   1.685   1.791
 7984SOL    HW124851   1.127   1.610   1.725
 7984SOL    HW224852   1.158   1.769   1.746
 7985SOL     OW24853   2.162   2.475   5.507
 7985SOL    HW124854   2.089   2.523   5.458
 7985SOL    HW224855   2.231   2.541   5.537
 7986SOL     OW24856   3.309   1.084   4.048
 7986SOL    HW124857   3.405   1.055   4.039
 7986SOL    HW224858   3.257   1.053   3.969
 7987SOL     OW24859   1.244   3.421   1.053
 7987SOL    HW124860   1.180   3.446   0.980
 7987SOL    HW224861   1.334   3.458   1.031
 7988SOL     OW24862   0.287   1.402   1.364
 7988SOL    HW124863   0.312   1.497   1.350
 7988SOL    HW224864   0.289   1.380   1.462
 7989SOL     OW24865   1.016   4.392   0.402
 7989SOL    HW124866   1.089   4.434   0.348
 7989SOL    HW224867   1.054   4.318   0.457
 7990SOL     OW24868   3.177   5.775   5.569
 7990SOL    HW124869   3.187   5.833   5.650
 7990SOL    HW224870   3.218   5.821   5.490
 7991SOL     OW24871   5.509   1.369   5.402
 7991SOL    HW124872   5.412   1.347   5.399
 7991SOL    HW224873   5.529   1.442   5.337
 7992SOL     OW24874   2.418   0.479   0.418
 7992SOL    HW124875   2.465   0.408   0.365
 7992SOL    HW224876   2.450   0.477   0.513
 7993SOL     OW24877   6.799   6.387   1.497
 7993SOL    HW124878   6.828   6.478   1.526
 7993SOL    HW224879   6.828   6.371   1.402
 7994SOL     OW24880   5.543   1.018   3.246
 7994SOL    HW124881   5.477   1.093   3.254
 7994SOL    HW224882   5.579   1.015   3.153
 7995SOL     OW24883   0.484   4.498   1.911
 7995SOL    HW124884   0.391   4.527   1.888
 7995SOL    HW224885   0.493   4.487   2.010
 7996SOL     OW24886   3.671   6.890   3.144
 7996SOL    HW124887   3.679   6.971   3.203
 7996SOL    HW224888   3.741   6.895   3.072
 7997SOL     OW24889   0.761   2.272   6.626
 7997SOL    HW124890   0.815   2.205   6.677
 7997SOL    HW224891   0.764   2.251   6.529
 7998SOL     OW24892   2.820   0.768   0.259
 7998SOL    HW124893   2.730   0.740   0.227
 7998SOL    HW224894   2.848   0.852   0.212
 7999SOL     OW24895   1.395   1.404   5.126
 7999SOL    HW124896   1.378   1.460   5.208
 7999SOL    HW224897   1.389   1.307   5.150
 8000SOL     OW24898   5.494   6.411   6.627
 8000SOL    HW124899   5.447   6.362   6.554
 8000SOL    HW224900   5.433   6.418   6.707
 8001SOL     OW24901   5.069   0.339   1.050
 8001SOL    HW124902   5.018   0.274   0.994
 8001SOL    HW224903   5.029   0.343   1.142
 8002SOL     OW24904   0.137   0.581   6.018
 8002SOL    HW124905   0.183   0.524   6.086
 8002SOL    HW224906   0.181   0.568   5.929
 8003SOL     OW24907   1.782   6.551   2.784
 8003SOL    HW124908   1.718   6.620   2.751
 8003SOL    HW224909   1.731   6.480   2.833
 8004SOL     OW24910   0.809   2.704   4.108
 8004SOL    HW124911   0.859   2.740   4.187
 8004SOL    HW224912   0.749   2.630   4.138
 8005SOL     OW24913   2.484   0.422   3.220
 8005SOL    HW124914   2.422   0.391   3.149
 8005SOL    HW224915   2.571   0.373   3.212
 8006SOL     OW24916   3.648   5.026   4.892
 8006SOL    HW124917   3.556   5.005   4.857
 8006SOL    HW224918   3.666   4.970   4.973
 8007SOL     OW24919   6.217   1.257   6.452
 8007SOL    HW124920   6.224   1.158   6.449
 8007SOL    HW224921   6.178   1.290   6.366
 8008SOL     OW24922   4.370   6.587   0.203
 8008SOL    HW124923   4.463   6.551   0.195
 8008SOL    HW224924   4.360   6.638   0.289
 8009SOL     OW24925   4.706   1.457   0.537
 8009SOL    HW124926   4.714   1.531   0.470
 8009SOL    HW224927   4.610   1.447   0.565
 8010SOL     OW24928   2.665   2.513   5.230
 8010SOL    HW124929   2.618   2.589   5.184
 8010SOL    HW224930   2.717   2.549   5.308
 8011SOL     OW24931   3.408   1.806   2.108
 8011SOL    HW124932   3.377   1.744   2.181
 8011SOL    HW224933   3.332   1.865   2.081
 8012SOL     OW24934   0.948   3.263   5.580
 8012SOL    HW124935   1.024   3.327   5.586
 8012SOL    HW224936   0.957   3.193   5.650
 8013SOL     OW24937   1.657   2.251   3.666
 8013SOL    HW124938   1.743   2.216   3.628
 8013SOL    HW224939   1.647   2.218   3.760
 8014SOL     OW24940   2.223   0.866   3.193
 8014SOL    HW124941   2.293   0.925   3.234
 8014SOL    HW224942   2.132   0.902   3.215
 8015SOL     OW24943   2.405   6.971   5.489
 8015SOL    HW124944   2.350   6.987   5.407
 8015SOL    HW224945   2.500   6.996   5.472
 8016SOL     OW24946   4.643   1.786   5.372
 8016SOL    HW124947   4.590   1.840   5.438
 8016SOL    HW224948   4.586   1.768   5.292
 8017SOL     OW24949   6.941   0.283   0.504
 8017SOL    HW124950   6.910   0.260   0.412
 8017SOL    HW224951   6.861   0.298   0.563
 8018SOL     OW24952   4.080   1.303   0.477
 8018SOL    HW124953   4.158   1.315   0.416
 8018SOL    HW224954   4.103   1.237   0.549
 8019SOL     OW24955   3.221   3.633   0.810
 8019SOL    HW124956   3.220   3.721   0.761
 8019SOL    HW224957   3.215   3.650   0.908
 8020SOL     OW24958   6.533   0.057   5.026
 8020SOL    HW124959   6.461   0.025   4.965
 8020SOL    HW224960   6.577   7.003   5.069
 8021SOL     OW24961   1.687   2.130   2.351
 8021SOL    HW124962   1.754   2.146   2.424
 8021SOL    HW224963   1.605   2.089   2.390
 8022SOL     OW24964   5.112   1.166   2.088
 8022SOL    HW124965   5.123   1.253   2.135
 8022SOL    HW224966   5.184   1.103   2.117
 8023SOL     OW24967   5.240   6.314   3.437
 8023SOL    HW124968   5.307   6.288   3.508
 8023SOL    HW224969   5.282   6.378   3.374
 8024SOL     OW24970   1.807   6.198   6.424
 8024SOL    HW124971   1.709   6.203   6.407
 8024SOL    HW224972   1.834   6.266   6.492
 8025SOL     OW24973   2.218   5.127   1.485
 8025SOL    HW124974   2.246   5.063   1.413
 8025SOL    HW224975   2.269   5.212   1.475
 8026SOL     OW24976   0.762   5.156   6.477
 8026SOL    HW124977   0.736   5.093   6.550
 8026SOL    HW224978   0.691   5.157   6.407
 8027SOL     OW24979   4.040   6.303   6.286
 8027SOL    HW124980   4.132   6.290   6.324
 8027SOL    HW224981   3.972   6.287   6.357
 8028SOL     OW24982   3.274   5.781   4.625
 8028SOL    HW124983   3.267   5.706   4.691
 8028SOL    HW224984   3.243   5.750   4.536
 8029SOL     OW24985   6.062   1.060   1.383
 8029SOL    HW124986   6.104   1.033   1.470
 8029SOL    HW224987   6.134   1.087   1.319
 8030SOL     OW24988   6.350   4.737   1.017
 8030SOL    HW124989   6.259   4.776   1.008
 8030SOL    HW224990   6.409   4.800   1.068
 8031SOL     OW24991   6.078   0.590   3.040
 8031SOL    HW124992   6.080   0.537   2.955
 8031SOL    HW224993   6.057   0.530   3.117
 8032SOL     OW24994   5.362   2.672   0.889
 8032SOL    HW124995   5.380   2.663   0.987
 8032SOL    HW224996   5.326   2.763   0.870
 8033SOL     OW24997   3.750   4.425   0.599
 8033SOL    HW124998   3.796   4.375   0.526
 8033SOL    HW224999   3.776   4.522   0.594
 8034SOL     OW25000   5.803   6.926   5.136
 8034SOL    HW125001   5.730   6.956   5.075
 8034SOL    HW225002   5.844   7.006   5.180
 8035SOL     OW25003   4.955   1.501   3.283
 8035SOL    HW125004   4.967   1.591   3.242
 8035SOL    HW225005   4.932   1.511   3.380
 8036SOL     OW25006   6.209   2.769   4.040
 8036SOL    HW125007   6.295   2.779   3.989
 8036SOL    HW225008   6.171   2.678   4.025
 8037SOL     OW25009   1.366   3.081   6.367
 8037SOL    HW125010   1.402   3.158   6.421
 8037SOL    HW225011   1.435   3.010   6.360
 8038SOL     OW25012   6.040   6.445   2.466
 8038SOL    HW125013   5.992   6.370   2.421
 8038SOL    HW225014   6.121   6.470   2.413
 8039SOL     OW25015   1.067   2.086   5.588
 8039SOL    HW125016   1.041   2.142   5.666
 8039SOL    HW225017   1.163   2.059   5.596
 8040SOL     OW25018   1.626   5.586   5.617
 8040SOL    HW125019   1.643   5.517   5.687
 8040SOL    HW225020   1.652   5.551   5.528
 8041SOL     OW25021   3.658   1.850   3.041
 8041SOL    HW125022   3.575   1.905   3.044
 8041SOL    HW225023   3.661   1.797   2.957
 8042SOL     OW25024   4.405   4.450   6.034
 8042SOL    HW125025   4.369   4.359   6.056
 8042SOL    HW225026   4.481   4.470   6.096
 8043SOL     OW25027   5.289   4.340   1.097
 8043SOL    HW125028   5.273   4.242   1.089
 8043SOL    HW225029   5.387   4.358   1.099
 8044SOL     OW25030   3.631   3.661   0.923
 8044SOL    HW125031   3.641   3.736   0.988
 8044SOL    HW225032   3.563   3.596   0.956
 8045SOL     OW25033   0.560   1.065   2.389
 8045SOL    HW125034   0.529   1.107   2.474
 8045SOL    HW225035   0.603   0.977   2.408
 8046SOL     OW25036   0.156   5.247   2.196
 8046SOL    HW125037   0.156   5.230   2.295
 8046SOL    HW225038   0.195   5.168   2.149
 8047SOL     OW25039   3.867   7.022   5.598
 8047SOL    HW125040   3.818   0.007   5.685
 8047SOL    HW225041   3.877   0.088   5.557
 8048SOL     OW25042   3.273   3.710   0.261
 8048SOL    HW125043   3.178   3.739   0.272
 8048SOL    HW225044   3.331   3.758   0.327
 8049SOL     OW25045   1.722   6.990   0.673
 8049SOL    HW125046   1.665   0.009   0.743
 8049SOL    HW225047   1.704   0.007   0.584
 8050SOL     OW25048   1.622   4.201   3.911
 8050SOL    HW125049   1.682   4.126   3.939
 8050SOL    HW225050   1.557   4.168   3.843
 8051SOL     OW25051   3.820   6.071   4.250
 8051SOL    HW125052   3.776   6.034   4.168
 8051SOL    HW225053   3.888   6.139   4.224
 8052SOL     OW25054   2.032   1.866   1.976
 8052SOL    HW125055   1.998   1.772   1.980
 8052SOL    HW225056   2.008   1.914   2.061
 8053SOL     OW25057   2.610   3.424   6.158
 8053SOL    HW125058   2.576   3.362   6.230
 8053SOL    HW225059   2.642   3.370   6.081
 8054SOL     OW25060   5.441   4.148   4.848
 8054SOL    HW125061   5.515   4.211   4.871
 8054SOL    HW225062   5.458   4.106   4.759
 8055SOL     OW25063   0.246   0.243   5.623
 8055SOL    HW125064   0.264   0.251   5.722
 8055SOL    HW225065   0.147   0.238   5.608
 8056SOL     OW25066   2.422   0.683   3.638
 8056SOL    HW125067   2.413   0.696   3.737
 8056SOL    HW225068   2.436   0.772   3.594
 8057SOL     OW25069   2.516   2.726   1.793
 8057SOL    HW125070   2.462   2.705   1.875
 8057SOL    HW225071   2.604   2.680   1.798
 8058SOL     OW25072   2.966   6.927   3.366
 8058SOL    HW125073   2.868   6.932   3.351
 8058SOL    HW225074   3.003   7.019   3.377
 8059SOL     OW25075   2.675   2.744   6.438
 8059SOL    HW125076   2.756   2.801   6.430
 8059SOL    HW225077   2.646   2.739   6.533
 8060SOL     OW25078   6.974   0.190   6.279
 8060SOL    HW125079   7.020   0.101   6.270
 8060SOL    HW225080   6.945   0.221   6.188
 8061SOL     OW25081   0.344   0.885   2.072
 8061SOL    HW125082   0.441   0.900   2.088
 8061SOL    HW225083   0.322   0.906   1.977
 8062SOL     OW25084   4.273   5.798   5.357
 8062SOL    HW125085   4.221   5.735   5.415
 8062SOL    HW225086   4.242   5.892   5.373
 8063SOL     OW25087   3.539   0.744   2.746
 8063SOL    HW125088   3.562   0.661   2.798
 8063SOL    HW225089   3.469   0.796   2.796
 8064SOL     OW25090   6.236   3.331   0.157
 8064SOL    HW125091   6.281   3.282   0.083
 8064SOL    HW225092   6.282   3.310   0.244
 8065SOL     OW25093   3.442   0.117   4.578
 8065SOL    HW125094   3.451   0.021   4.601
 8065SOL    HW225095   3.528   0.164   4.596
 8066SOL     OW25096   0.048   1.027   4.873
 8066SOL    HW125097   0.055   1.061   4.967
 8066SOL    HW225098   6.990   1.062   4.830
 8067SOL     OW25099   4.856   2.992   3.257
 8067SOL    HW125100   4.792   2.959   3.327
 8067SOL    HW225101   4.945   3.012   3.299
 8068SOL     OW25102   6.762   4.342   1.412
 8068SOL    HW125103   6.780   4.431   1.455
 8068SOL    HW225104   6.828   4.327   1.338
 8069SOL     OW25105   3.026   5.184   2.370
 8069SOL    HW125106   3.096   5.126   2.329
 8069SOL    HW225107   2.937   5.164   2.329
 8070SOL     OW25108   5.072   4.528   0.706
 8070SOL    HW125109   5.102   4.501   0.797
 8070SOL    HW225110   5.009   4.459   0.670
 8071SOL     OW25111   3.892   6.845   5.976
 8071SOL    HW125112   3.819   6.895   6.021
 8071SOL    HW225113   3.980   6.888   5.998
 8072SOL     OW25114   2.267   3.149   6.708
 8072SOL    HW125115   2.208   3.109   6.778
 8072SOL    HW225116   2.211   3.200   6.643
 8073SOL     OW25117   2.840   0.037   6.433
 8073SOL    HW125118   2.873   6.986   6.375
 8073SOL    HW225119   2.848   0.123   6.383
 8074SOL     OW25120   2.162   2.057   0.448
 8074SOL    HW125121   2.155   2.006   0.534
 8074SOL    HW225122   2.153   1.993   0.371
 8075SOL     OW25123   6.938   6.412   0.115
 8075SOL    HW125124   6.980   6.490   0.068
 8075SOL    HW225125   6.838   6.424   0.114
 8076SOL     OW25126   6.755   6.940   6.868
 8076SOL    HW125127   6.844   6.965   6.906
 8076SOL    HW225128   6.700   6.894   6.938
 8077SOL     OW25129   4.158   5.699   1.725
 8077SOL    HW125130   4.242   5.726   1.772
 8077SOL    HW225131   4.179   5.636   1.651
 8078SOL     OW25132   1.062   1.222   0.905
 8078SOL    HW125133   0.962   1.216   0.900
 8078SOL    HW225134   1.092   1.308   0.864
 8079SOL     OW25135   1.214   1.287   4.790
 8079SOL    HW125136   1.309   1.309   4.765
 8079SOL    HW225137   1.181   1.354   4.857
 8080SOL     OW25138   1.445   3.293   2.455
 8080SOL    HW125139   1.411   3.365   2.395
 8080SOL    HW225140   1.464   3.211   2.400
 8081SOL     OW25141   5.998   4.859   4.850
 8081SOL    HW125142   6.053   4.799   4.908
 8081SOL    HW225143   5.923   4.898   4.903
 8082SOL     OW25144   2.603   1.494   2.439
 8082SOL    HW125145   2.600   1.410   2.385
 8082SOL    HW225146   2.553   1.566   2.391
 8083SOL     OW25147   5.319   2.356   4.372
 8083SOL    HW125148   5.328   2.320   4.465
 8083SOL    HW225149   5.265   2.293   4.317
 8084SOL     OW25150   2.220   0.112   6.207
 8084SOL    HW125151   2.172   0.024   6.213
 8084SOL    HW225152   2.238   0.146   6.299
 8085SOL     OW25153   0.570   4.993   3.985
 8085SOL    HW125154   0.576   5.092   3.997
 8085SOL    HW225155   0.554   4.972   3.888
 8086SOL     OW25156   0.708   1.141   1.885
 8086SOL    HW125157   0.670   1.081   1.955
 8086SOL    HW225158   0.640   1.157   1.814
 8087SOL     OW25159   1.094   0.543   6.936
 8087SOL    HW125160   1.135   0.611   6.996
 8087SOL    HW225161   1.129   0.452   6.959
 8088SOL     OW25162   5.232   6.760   6.503
 8088SOL    HW125163   5.331   6.775   6.499
 8088SOL    HW225164   5.200   6.725   6.415
 8089SOL     OW25165   5.859   2.693   6.380
 8089SOL    HW125166   5.829   2.603   6.348
 8089SOL    HW225167   5.835   2.763   6.312
 8090SOL     OW25168   3.910   1.752   0.022
 8090SOL    HW125169   3.878   1.706   0.105
 8090SOL    HW225170   3.945   1.684   6.981
 8091SOL     OW25171   1.655   4.265   4.335
 8091SOL    HW125172   1.572   4.258   4.392
 8091SOL    HW225173   1.642   4.338   4.267
 8092SOL     OW25174   4.904   1.877   5.314
 8092SOL    HW125175   4.972   1.861   5.385
 8092SOL    HW225176   4.827   1.815   5.326
 8093SOL     OW25177   2.951   6.236   2.952
 8093SOL    HW125178   2.989   6.169   2.888
 8093SOL    HW225179   2.875   6.195   3.002
 8094SOL     OW25180   1.283   3.464   4.528
 8094SOL    HW125181   1.318   3.557   4.541
 8094SOL    HW225182   1.191   3.457   4.566
 8095SOL     OW25183   1.218   4.145   5.148
 8095SOL    HW125184   1.309   4.162   5.184
 8095SOL    HW225185   1.163   4.229   5.154
 8096SOL     OW25186   1.744   6.826   1.877
 8096SOL    HW125187   1.685   6.864   1.806
 8096SOL    HW225188   1.717   6.863   1.966
 8097SOL     OW25189   3.349   0.111   5.225
 8097SOL    HW125190   3.391   0.121   5.134
 8097SOL    HW225191   3.278   0.041   5.221
 8098SOL     OW25192   0.566   6.045   3.677
 8098SOL    HW125193   0.517   5.963   3.704
 8098SOL    HW225194   0.504   6.108   3.631
 8099SOL     OW25195   3.713   5.458   3.684
 8099SOL    HW125196   3.706   5.527   3.611
 8099SOL    HW225197   3.798   5.406   3.673
 8100SOL     OW25198   5.970   1.058   6.336
 8100SOL    HW125199   6.065   1.028   6.334
 8100SOL    HW225200   5.961   1.148   6.293
 8101SOL     OW25201   2.415   6.092   0.610
 8101SOL    HW125202   2.482   6.134   0.671
 8101SOL    HW225203   2.325   6.134   0.625
 8102SOL     OW25204   0.904   3.194   4.711
 8102SOL    HW125205   0.957   3.154   4.786
 8102SOL    HW225206   0.807   3.173   4.725
 8103SOL     OW25207   3.807   1.262   2.447
 8103SOL    HW125208   3.809   1.274   2.546
 8103SOL    HW225209   3.886   1.208   2.418
 8104SOL     OW25210   1.882   6.376   5.843
 8104SOL    HW125211   1.917   6.317   5.771
 8104SOL    HW225212   1.797   6.339   5.879
 8105SOL     OW25213   6.448   1.811   3.044
 8105SOL    HW125214   6.436   1.746   3.119
 8105SOL    HW225215   6.421   1.768   2.958
 8106SOL     OW25216   2.695   6.239   4.151
 8106SOL    HW125217   2.735   6.301   4.219
 8106SOL    HW225218   2.708   6.144   4.181
 8107SOL     OW25219   1.978   5.720   4.345
 8107SOL    HW125220   1.891   5.738   4.298
 8107SOL    HW225221   2.030   5.805   4.353
 8108SOL     OW25222   0.037   1.305   6.586
 8108SOL    HW125223   6.998   1.370   6.628
 8108SOL    HW225224   0.078   1.247   6.657
 8109SOL     OW25225   6.710   3.587   6.586
 8109SOL    HW125226   6.807   3.574   6.568
 8109SOL    HW225227   6.681   3.529   6.663
 8110SOL     OW25228   4.494   4.631   1.148
 8110SOL    HW125229   4.436   4.712   1.142
 8110SOL    HW225230   4.560   4.642   1.222
 8111SOL     OW25231   5.754   1.098   3.486
 8111SOL    HW125232   5.700   1.015   3.477
 8111SOL    HW225233   5.785   1.128   3.396
 8112SOL     OW25234   0.470   2.968   4.949
 8112SOL    HW125235   0.555   2.961   5.001
 8112SOL    HW225236   0.453   2.882   4.901
 8113SOL     OW25237   6.436   2.844   1.099
 8113SOL    HW125238   6.442   2.747   1.123
 8113SOL    HW225239   6.507   2.895   1.147
 8114SOL     OW25240   1.529   4.642   2.146
 8114SOL    HW125241   1.484   4.585   2.078
 8114SOL    HW225242   1.566   4.585   2.219
 8115SOL     OW25243   3.168   6.954   6.847
 8115SOL    HW125244   3.128   6.982   6.934
 8115SOL    HW225245   3.267   6.969   6.849
 8116SOL     OW25246   3.592   5.470   0.617
 8116SOL    HW125247   3.548   5.502   0.533
 8116SOL    HW225248   3.672   5.415   0.594
 8117SOL     OW25249   2.255   6.761   2.928
 8117SOL    HW125250   2.221   6.851   2.900
 8117SOL    HW225251   2.187   6.691   2.908
 8118SOL     OW25252   6.206   4.040   6.568
 8118SOL    HW125253   6.165   4.022   6.479
 8118SOL    HW225254   6.297   3.999   6.572
 8119SOL     OW25255   5.501   6.196   5.831
 8119SOL    HW125256   5.476   6.100   5.841
 8119SOL    HW225257   5.596   6.204   5.802
 8120SOL     OW25258   2.197   5.665   0.695
 8120SOL    HW125259   2.270   5.601   0.669
 8120SOL    HW225260   2.110   5.634   0.656
 8121SOL     OW25261   1.074   4.055   3.276
 8121SOL    HW125262   1.025   4.134   3.314
 8121SOL    HW225263   1.079   3.983   3.345
 8122SOL     OW25264   0.981   4.732   2.740
 8122SOL    HW125265   1.033   4.649   2.758
 8122SOL    HW225266   1.016   4.807   2.797
 8123SOL     OW25267   0.771   1.928   6.776
 8123SOL    HW125268   0.826   1.873   6.713
 8123SOL    HW225269   0.817   2.015   6.794
 8124SOL     OW25270   5.437   5.872   4.105
 8124SOL    HW125271   5.436   5.968   4.133
 8124SOL    HW225272   5.358   5.825   4.143
 8125SOL     OW25273   0.785   0.774   2.781
 8125SOL    HW125274   0.798   0.691   2.836
 8125SOL    HW225275   0.696   0.815   2.803
 8126SOL     OW25276   4.061   4.805   3.651
 8126SOL    HW125277   4.123   4.884   3.652
 8126SOL    HW225278   4.066   4.757   3.738
 8127SOL     OW25279   2.506   2.540   0.093
 8127SOL    HW125280   2.498   2.443   0.068
 8127SOL    HW225281   2.602   2.564   0.101
 8128SOL     OW25282   3.330   2.554   1.275
 8128SOL    HW125283   3.299   2.470   1.318
 8128SOL    HW225284   3.269   2.629   1.301
 8129SOL     OW25285   1.438   2.147   0.228
 8129SOL    HW125286   1.398   2.056   0.242
 8129SOL    HW225287   1.493   2.146   0.145
 8130SOL     OW25288   1.323   5.483   0.168
 8130SOL    HW125289   1.309   5.516   0.074
 8130SOL    HW225290   1.343   5.560   0.228
 8131SOL     OW25291   3.048   2.680   1.074
 8131SOL    HW125292   2.988   2.657   0.998
 8131SOL    HW225293   3.072   2.777   1.070
 8132SOL     OW25294   6.502   6.920   3.947
 8132SOL    HW125295   6.569   6.893   3.878
 8132SOL    HW225296   6.541   6.908   4.038
 8133SOL     OW25297   3.955   5.382   2.066
 8133SOL    HW125298   3.891   5.433   2.009
 8133SOL    HW225299   3.907   5.304   2.106
 8134SOL     OW25300   6.185   1.116   6.004
 8134SOL    HW125301   6.204   1.193   6.065
 8134SOL    HW225302   6.268   1.063   5.990
 8135SOL     OW25303   2.101   0.233   1.905
 8135SOL    HW125304   2.017   0.236   1.851
 8135SOL    HW225305   2.128   0.326   1.931
 8136SOL     OW25306   5.411   5.613   2.540
 8136SOL    HW125307   5.439   5.521   2.516
 8136SOL    HW225308   5.486   5.661   2.586
 8137SOL     OW25309   3.330   1.474   5.578
 8137SOL    HW125310   3.289   1.561   5.552
 8137SOL    HW225311   3.258   1.407   5.596
 8138SOL     OW25312   5.403   1.290   1.606
 8138SOL    HW125313   5.497   1.275   1.636
 8138SOL    HW225314   5.402   1.322   1.511
 8139SOL     OW25315   0.584   1.561   2.429
 8139SOL    HW125316   0.623   1.537   2.518
 8139SOL    HW225317   0.570   1.479   2.375
 8140SOL     OW25318   4.453   1.235   4.526
 8140SOL    HW125319   4.460   1.291   4.443
 8140SOL    HW225320   4.362   1.195   4.532
 8141SOL     OW25321   3.925   5.152   5.565
 8141SOL    HW125322   3.966   5.226   5.618
 8141SOL    HW225323   3.830   5.174   5.544
 8142SOL     OW25324   6.426   4.602   0.571
 8142SOL    HW125325   6.455   4.697   0.555
 8142SOL    HW225326   6.449   4.547   0.491
 8143SOL     OW25327   6.045   4.355   6.145
 8143SOL    HW125328   5.955   4.391   6.120
 8143SOL    HW225329   6.036   4.289   6.219
 8144SOL     OW25330   5.349   6.845   6.918
 8144SOL    HW125331   5.368   6.941   6.901
 8144SOL    HW225332   5.344   6.829   7.017
 8145SOL     OW25333   5.820   5.946   2.881
 8145SOL    HW125334   5.756   5.872   2.862
 8145SOL    HW225335   5.774   6.016   2.936
 8146SOL     OW25336   3.358   0.713   5.635
 8146SOL    HW125337   3.340   0.810   5.653
 8146SOL    HW225338   3.404   0.704   5.547
 8147SOL     OW25339   4.568   1.830   3.548
 8147SOL    HW125340   4.509   1.867   3.620
 8147SOL    HW225341   4.518   1.826   3.462
 8148SOL     OW25342   5.617   3.055   2.556
 8148SOL    HW125343   5.704   3.020   2.591
 8148SOL    HW225344   5.555   3.073   2.633
 8149SOL     OW25345   3.566   5.820   2.450
 8149SOL    HW125346   3.618   5.804   2.533
 8149SOL    HW225347   3.480   5.769   2.454
 8150SOL     OW25348   0.131   4.785   0.580
 8150SOL    HW125349   0.109   4.785   0.677
 8150SOL    HW225350   0.102   4.871   0.539
 8151SOL     OW25351   0.792   2.402   3.859
 8151SOL    HW125352   0.730   2.402   3.938
 8151SOL    HW225353   0.876   2.452   3.883
 8152SOL     OW25354   2.102   1.408   3.110
 8152SOL    HW125355   2.104   1.477   3.182
 8152SOL    HW225356   2.140   1.446   3.026
 8153SOL     OW25357   3.056   0.506   1.944
 8153SOL    HW125358   2.958   0.491   1.959
 8153SOL    HW225359   3.069   0.571   1.869
 8154SOL     OW25360   2.426   6.265   4.024
 8154SOL    HW125361   2.509   6.230   4.066
 8154SOL    HW225362   2.380   6.326   4.088
 8155SOL     OW25363   3.154   3.011   1.958
 8155SOL    HW125364   3.166   2.946   1.883
 8155SOL    HW225365   3.172   2.965   2.045
 8156SOL     OW25366   5.663   0.819   5.296
 8156SOL    HW125367   5.703   0.877   5.225
 8156SOL    HW225368   5.718   0.826   5.379
 8157SOL     OW25369   5.993   4.450   6.457
 8157SOL    HW125370   6.013   4.368   6.510
 8157SOL    HW225371   6.072   4.472   6.399
 8158SOL     OW25372   1.256   5.913   1.295
 8158SOL    HW125373   1.284   5.858   1.217
 8158SOL    HW225374   1.314   5.994   1.301
 8159SOL     OW25375   2.323   5.509   2.239
 8159SOL    HW125376   2.259   5.445   2.197
 8159SOL    HW225377   2.278   5.557   2.315
 8160SOL     OW25378   4.959   2.457   0.806
 8160SOL    HW125379   4.871   2.467   0.760
 8160SOL    HW225380   4.944   2.448   0.905
 8161SOL     OW25381   4.680   1.049   0.788
 8161SOL    HW125382   4.643   1.004   0.707
 8161SOL    HW225383   4.723   1.135   0.761
 8162SOL     OW25384   6.101   0.194   0.794
 8162SOL    HW125385   6.161   0.133   0.744
 8162SOL    HW225386   6.155   0.255   0.852
 8163SOL     OW25387   2.385   4.278   5.279
 8163SOL    HW125388   2.401   4.186   5.241
 8163SOL    HW225389   2.446   4.343   5.234
 8164SOL     OW25390   5.136   2.410   1.257
 8164SOL    HW125391   5.141   2.454   1.347
 8164SOL    HW225392   5.186   2.324   1.259
 8165SOL     OW25393   1.785   4.446   1.174
 8165SOL    HW125394   1.769   4.544   1.158
 8165SOL    HW225395   1.713   4.410   1.233
 8166SOL     OW25396   2.468   0.506   1.960
 8166SOL    HW125397   2.424   0.430   1.912
 8166SOL    HW225398   2.537   0.470   2.022
 8167SOL     OW25399   5.918   2.674   3.634
 8167SOL    HW125400   5.895   2.677   3.731
 8167SOL    HW225401   5.858   2.608   3.588
 8168SOL     OW25402   3.732   1.267   3.192
 8168SOL    HW125403   3.723   1.241   3.096
 8168SOL    HW225404   3.722   1.366   3.202
 8169SOL     OW25405   4.383   3.943   0.133
 8169SOL    HW125406   4.432   4.018   0.089
 8169SOL    HW225407   4.409   3.939   0.230
 8170SOL     OW25408   0.962   5.818   4.109
 8170SOL    HW125409   1.048   5.860   4.080
 8170SOL    HW225410   0.967   5.794   4.206
 8171SOL     OW25411   0.617   1.506   6.639
 8171SOL    HW125412   0.660   1.583   6.591
 8171SOL    HW225413   0.564   1.451   6.574
 8172SOL     OW25414   0.175   0.192   0.571
 8172SOL    HW125415   0.202   0.195   0.667
 8172SOL    HW225416   0.078   0.168   0.564
 8173SOL     OW25417   3.662   2.503   6.987
 8173SOL    HW125418   3.643   2.406   6.999
 8173SOL    HW225419   3.753   2.524   7.023
 8174SOL     OW25420   5.547   1.417   1.126
 8174SOL    HW125421   5.634   1.367   1.129
 8174SOL    HW225422   5.564   1.514   1.140
 8175SOL     OW25423   0.588   2.423   6.258
 8175SOL    HW125424   0.624   2.397   6.169
 8175SOL    HW225425   0.552   2.343   6.304
 8176SOL     OW25426   2.708   5.595   1.874
 8176SOL    HW125427   2.690   5.500   1.900
 8176SOL    HW225428   2.798   5.621   1.907
 8177SOL     OW25429   0.955   6.736   4.320
 8177SOL    HW125430   0.980   6.815   4.376
 8177SOL    HW225431   1.029   6.715   4.257
 8178SOL     OW25432   1.550   6.673   6.863
 8178SOL    HW125433   1.645   6.680   6.833
 8178SOL    HW225434   1.509   6.592   6.821
 8179SOL     OW25435   3.215   3.019   0.203
 8179SOL    HW125436   3.204   2.920   0.209
 8179SOL    HW225437   3.227   3.057   0.295
 8180SOL     OW25438   0.074   6.896   4.432
 8180SOL    HW125439   0.032   6.983   4.404
 8180SOL    HW225440   0.167   6.913   4.465
 8181SOL     OW25441   2.773   2.005   2.951
 8181SOL    HW125442   2.688   2.058   2.959
 8181SOL    HW225443   2.844   2.062   2.908
 8182SOL     OW25444   3.320   2.129   5.687
 8182SOL    HW125445   3.375   2.090   5.614
 8182SOL    HW225446   3.348   2.223   5.704
 8183SOL     OW25447   0.894   3.602   4.881
 8183SOL    HW125448   0.943   3.576   4.964
 8183SOL    HW225449   0.803   3.633   4.905
 8184SOL     OW25450   0.153   0.494   5.303
 8184SOL    HW125451   0.147   0.579   5.356
 8184SOL    HW225452   0.161   0.416   5.366
 8185SOL     OW25453   3.317   1.451   2.706
 8185SOL    HW125454   3.247   1.521   2.695
 8185SOL    HW225455   3.292   1.369   2.655
 8186SOL     OW25456   3.160   5.925   5.836
 8186SOL    HW125457   3.079   5.979   5.858
 8186SOL    HW225458   3.238   5.985   5.822
 8187SOL     OW25459   1.383   2.098   5.583
 8187SOL    HW125460   1.370   2.031   5.655
 8187SOL    HW225461   1.468   2.148   5.597
 8188SOL     OW25462   5.703   2.077   2.613
 8188SOL    HW125463   5.612   2.036   2.618
 8188SOL    HW225464   5.724   2.122   2.699
 8189SOL     OW25465   5.810   4.660   2.871
 8189SOL    HW125466   5.801   4.686   2.967
 8189SOL    HW225467   5.880   4.717   2.827
 8190SOL     OW25468   5.055   3.070   3.428
 8190SOL    HW125469   4.989   3.074   3.503
 8190SOL    HW225470   5.135   3.017   3.457
 8191SOL     OW25471   0.884   4.989   3.743
 8191SOL    HW125472   0.929   5.075   3.768
 8191SOL    HW225473   0.814   5.007   3.674
 8192SOL     OW25474   2.548   5.606   2.155
 8192SOL    HW125475   2.460   5.559   2.164
 8192SOL    HW225476   2.611   5.550   2.101
 8193SOL     OW25477   4.598   6.627   5.359
 8193SOL    HW125478   4.641   6.542   5.390
 8193SOL    HW225479   4.661   6.703   5.370
 8194SOL     OW25480   6.980   0.840   6.975
 8194SOL    HW125481   6.989   0.799   6.884
 8194SOL    HW225482   6.934   0.929   6.966
 8195SOL     OW25483   6.808   0.266   0.244
 8195SOL    HW125484   6.725   0.230   0.287
 8195SOL    HW225485   6.877   0.195   0.239
 8196SOL     OW25486   3.423   6.491   6.706
 8196SOL    HW125487   3.428   6.558   6.780
 8196SOL    HW225488   3.330   6.454   6.701
 8197SOL     OW25489   6.860   0.655   6.236
 8197SOL    HW125490   6.817   0.688   6.152
 8197SOL    HW225491   6.834   0.560   6.252
 8198SOL     OW25492   2.454   6.803   3.395
 8198SOL    HW125493   2.360   6.837   3.397
 8198SOL    HW225494   2.513   6.870   3.350
 8199SOL     OW25495   0.269   3.594   0.079
 8199SOL    HW125496   0.241   3.673   0.134
 8199SOL    HW225497   0.202   3.521   0.089
 8200SOL     OW25498   5.050   4.283   1.318
 8200SOL    HW125499   5.095   4.231   1.390
 8200SOL    HW225500   5.047   4.228   1.234
 8201SOL     OW25501   5.890   0.112   3.860
 8201SOL    HW125502   5.839   0.153   3.935
 8201SOL    HW225503   5.833   0.109   3.778
 8202SOL     OW25504   1.512   4.508   2.995
 8202SOL    HW125505   1.470   4.418   2.988
 8202SOL    HW225506   1.571   4.511   3.076
 8203SOL     OW25507   5.312   4.116   1.735
 8203SOL    HW125508   5.219   4.079   1.728
 8203SOL    HW225509   5.353   4.086   1.821
 8204SOL     OW25510   3.181   0.002   2.304
 8204SOL    HW125511   3.275   6.992   2.299
 8204SOL    HW225512   3.139   7.023   2.214
 8205SOL     OW25513   5.691   5.411   1.616
 8205SOL    HW125514   5.739   5.348   1.554
 8205SOL    HW225515   5.596   5.419   1.587
 8206SOL     OW25516   4.127   1.960   5.386
 8206SOL    HW125517   4.059   2.030   5.408
 8206SOL    HW225518   4.082   1.872   5.373
 8207SOL     OW25519   3.482   5.021   6.221
 8207SOL    HW125520   3.484   5.078   6.303
 8207SOL    HW225521   3.387   5.000   6.197
 8208SOL     OW25522   1.572   4.616   1.313
 8208SOL    HW125523   1.496   4.559   1.283
 8208SOL    HW225524   1.564   4.633   1.411
 8209SOL     OW25525   1.315   0.503   5.052
 8209SOL    HW125526   1.400   0.544   5.086
 8209SOL    HW225527   1.237   0.554   5.089
 8210SOL     OW25528   2.156   1.459   0.187
 8210SOL    HW125529   2.196   1.375   0.224
 8210SOL    HW225530   2.223   1.534   0.194
 8211SOL     OW25531   3.136   3.054   4.244
 8211SOL    HW125532   3.191   3.013   4.317
 8211SOL    HW225533   3.159   3.011   4.157
 8212SOL     OW25534   2.786   0.210   1.561
 8212SOL    HW125535   2.703   0.259   1.588
 8212SOL    HW225536   2.762   0.118   1.532
 8213SOL     OW25537   4.274   4.281   1.533
 8213SOL    HW125538   4.260   4.371   1.574
 8213SOL    HW225539   4.237   4.210   1.594
 8214SOL     OW25540   3.175   5.766   4.062
 8214SOL    HW125541   3.256   5.709   4.074
 8214SOL    HW225542   3.189   5.854   4.107
 8215SOL     OW25543   4.495   6.732   6.661
 8215SOL    HW125544   4.441   6.772   6.735
 8215SOL    HW225545   4.593   6.741   6.682
 8216SOL     OW25546   4.684   5.785   1.703
 8216SOL    HW125547   4.783   5.779   1.698
 8216SOL    HW225548   4.656   5.876   1.734
 8217SOL     OW25549   2.705   5.333   3.188
 8217SOL    HW125550   2.624   5.339   3.246
 8217SOL    HW225551   2.739   5.239   3.186
 8218SOL     OW25552   1.586   0.505   5.276
 8218SOL    HW125553   1.536   0.588   5.251
 8218SOL    HW225554   1.640   0.474   5.198
 8219SOL     OW25555   3.857   3.946   0.786
 8219SOL    HW125556   3.840   3.874   0.719
 8219SOL    HW225557   3.773   3.998   0.801
 8220SOL     OW25558   3.640   3.651   4.088
 8220SOL    HW125559   3.716   3.634   4.151
 8220SOL    HW225560   3.614   3.566   4.042
 8221SOL     OW25561   6.042   3.099   3.597
 8221SOL    HW125562   6.057   3.078   3.694
 8221SOL    HW225563   6.113   3.055   3.542
 8222SOL     OW25564   6.381   2.569   1.266
 8222SOL    HW125565   6.326   2.569   1.350
 8222SOL    HW225566   6.328   2.527   1.192
 8223SOL     OW25567   0.314   6.138   4.887
 8223SOL    HW125568   0.271   6.207   4.830
 8223SOL    HW225569   0.407   6.166   4.910
 8224SOL     OW25570   5.618   1.718   0.285
 8224SOL    HW125571   5.684   1.643   0.291
 8224SOL    HW225572   5.540   1.698   0.345
 8225SOL     OW25573   5.066   1.942   0.231
 8225SOL    HW125574   5.105   2.022   0.277
 8225SOL    HW225575   5.087   1.859   0.283
 8226SOL     OW25576   3.652   0.213   0.538
 8226SOL    HW125577   3.643   0.292   0.478
 8226SOL    HW225578   3.604   0.135   0.498
 8227SOL     OW25579   4.834   2.011   2.499
 8227SOL    HW125580   4.787   2.097   2.478
 8227SOL    HW225581   4.846   2.003   2.598
 8228SOL     OW25582   1.838   0.683   5.464
 8228SOL    HW125583   1.793   0.626   5.533
 8228SOL    HW225584   1.789   0.675   5.378
 8229SOL     OW25585   4.077   4.689   1.154
 8229SOL    HW125586   4.151   4.755   1.139
 8229SOL    HW225587   4.113   4.608   1.201
 8230SOL     OW25588   4.659   0.860   5.665
 8230SOL    HW125589   4.623   0.775   5.705
 8230SOL    HW225590   4.669   0.848   5.566
 8231SOL     OW25591   2.834   1.493   3.054
 8231SOL    HW125592   2.880   1.549   2.985
 8231SOL    HW225593   2.854   1.530   3.145
 8232SOL     OW25594   4.001   6.525   2.696
 8232SOL    HW125595   4.004   6.625   2.694
 8232SOL    HW225596   3.958   6.491   2.613
 8233SOL     OW25597   0.811   0.635   5.758
 8233SOL    HW125598   0.910   0.641   5.751
 8233SOL    HW225599   0.770   0.651   5.667
 8234SOL     OW25600   1.749   2.314   0.730
 8234SOL    HW125601   1.833   2.294   0.780
 8234SOL    HW225602   1.754   2.274   0.638
 8235SOL     OW25603   6.865   5.591   0.566
 8235SOL    HW125604   6.901   5.499   0.582
 8235SOL    HW225605   6.768   5.593   0.589
 8236SOL     OW25606   0.847   6.553   6.987
 8236SOL    HW125607   0.891   6.637   7.020
 8236SOL    HW225608   0.913   6.478   6.988
 8237SOL     OW25609   4.401   5.363   6.634
 8237SOL    HW125610   4.486   5.408   6.662
 8237SOL    HW225611   4.399   5.354   6.535
 8238SOL     OW25612   1.533   4.657   0.513
 8238SOL    HW125613   1.583   4.578   0.550
 8238SOL    HW225614   1.556   4.668   0.416
 8239SOL     OW25615   0.576   1.218   5.197
 8239SOL    HW125616   0.532   1.223   5.287
 8239SOL    HW225617   0.539   1.290   5.138
 8240SOL     OW25618   3.466   3.607   4.461
 8240SOL    HW125619   3.461   3.584   4.364
 8240SOL    HW225620   3.382   3.654   4.488
 8241SOL     OW25621   1.875   4.159   6.033
 8241SOL    HW125622   1.849   4.225   5.962
 8241SOL    HW225623   1.895   4.070   5.990
 8242SOL     OW25624   0.415   2.975   4.070
 8242SOL    HW125625   0.348   2.957   3.998
 8242SOL    HW225626   0.368   2.995   4.156
 8243SOL     OW25627   0.692   4.555   4.753
 8243SOL    HW125628   0.653   4.556   4.844
 8243SOL    HW225629   0.777   4.501   4.754
 8244SOL     OW25630   1.406   0.466   4.122
 8244SOL    HW125631   1.321   0.496   4.166
 8244SOL    HW225632   1.411   0.366   4.125
 8245SOL     OW25633   5.429   1.393   4.160
 8245SOL    HW125634   5.453   1.296   4.160
 8245SOL    HW225635   5.511   1.447   4.178
 8246SOL     OW25636   1.620   4.825   6.333
 8246SOL    HW125637   1.647   4.735   6.299
 8246SOL    HW225638   1.657   4.896   6.273
 8247SOL     OW25639   3.347   5.313   2.967
 8247SOL    HW125640   3.422   5.296   3.031
 8247SOL    HW225641   3.347   5.243   2.896
 8248SOL     OW25642   0.802   5.345   3.142
 8248SOL    HW125643   0.749   5.422   3.178
 8248SOL    HW225644   0.899   5.359   3.162
 8249SOL     OW25645   2.931   2.084   6.395
 8249SOL    HW125646   2.996   2.009   6.380
 8249SOL    HW225647   2.973   2.170   6.366
 8250SOL     OW25648   1.862   1.404   6.383
 8250SOL    HW125649   1.952   1.361   6.386
 8250SOL    HW225650   1.810   1.368   6.305
 8251SOL     OW25651   0.104   2.122   4.616
 8251SOL    HW125652   0.076   2.209   4.657
 8251SOL    HW225653   0.051   2.108   4.532
 8252SOL     OW25654   1.392   2.264   6.677
 8252SOL    HW125655   1.460   2.199   6.643
 8252SOL    HW225656   1.310   2.215   6.707
 8253SOL     OW25657   4.305   5.859   0.720
 8253SOL    HW125658   4.287   5.791   0.791
 8253SOL    HW225659   4.375   5.922   0.752
 8254SOL     OW25660   5.252   5.212   6.786
 8254SOL    HW125661   5.231   5.305   6.755
 8254SOL    HW225662   5.167   5.163   6.803
 8255SOL     OW25663   0.802   6.398   6.497
 8255SOL    HW125664   0.857   6.346   6.431
 8255SOL    HW225665   0.830   6.374   6.590
 8256SOL     OW25666   1.913   5.754   3.286
 8256SOL    HW125667   2.001   5.799   3.296
 8256SOL    HW225668   1.887   5.752   3.189
 8257SOL     OW25669   4.909   3.746   3.209
 8257SOL    HW125670   4.913   3.763   3.110
 8257SOL    HW225671   4.942   3.654   3.228
 8258SOL     OW25672   6.501   3.116   2.055
 8258SOL    HW125673   6.555   3.141   1.976
 8258SOL    HW225674   6.558   3.116   2.137
 8259SOL     OW25675   4.436   1.775   4.281
 8259SOL    HW125676   4.348   1.764   4.235
 8259SOL    HW225677   4.422   1.775   4.380
 8260SOL     OW25678   4.136   1.443   1.261
 8260SOL    HW125679   4.216   1.501   1.272
 8260SOL    HW225680   4.164   1.347   1.256
 8261SOL     OW25681   5.504   0.366   3.065
 8261SOL    HW125682   5.502   0.274   3.104
 8261SOL    HW225683   5.432   0.375   2.997
 8262SOL     OW25684   6.508   4.052   2.152
 8262SOL    HW125685   6.501   4.097   2.241
 8262SOL    HW225686   6.572   3.975   2.158
 8263SOL     OW25687   0.474   2.226   6.395
 8263SOL    HW125688   0.377   2.223   6.417
 8263SOL    HW225689   0.527   2.226   6.480
 8264SOL     OW25690   2.692   6.819   2.660
 8264SOL    HW125691   2.650   6.821   2.751
 8264SOL    HW225692   2.622   6.838   2.591
 8265SOL     OW25693   5.772   0.554   0.459
 8265SOL    HW125694   5.764   0.654   0.460
 8265SOL    HW225695   5.846   0.526   0.521
 8266SOL     OW25696   2.598   0.668   3.390
 8266SOL    HW125697   2.690   0.672   3.430
 8266SOL    HW225698   2.602   0.698   3.295
 8267SOL     OW25699   1.303   4.194   3.562
 8267SOL    HW125700   1.278   4.283   3.600
 8267SOL    HW225701   1.326   4.204   3.465
 8268SOL     OW25702   3.210   4.688   6.582
 8268SOL    HW125703   3.277   4.687   6.508
 8268SOL    HW225704   3.160   4.602   6.583
 8269SOL     OW25705   5.337   2.222   3.416
 8269SOL    HW125706   5.352   2.299   3.355
 8269SOL    HW225707   5.317   2.140   3.362
 8270SOL     OW25708   3.426   0.567   5.854
 8270SOL    HW125709   3.426   0.636   5.782
 8270SOL    HW225710   3.363   0.493   5.830
 8271SOL     OW25711   3.846   6.633   5.814
 8271SOL    HW125712   3.759   6.665   5.778
 8271SOL    HW225713   3.888   6.705   5.870
 8272SOL     OW25714   1.048   0.239   1.529
 8272SOL    HW125715   1.008   0.264   1.441
 8272SOL    HW225716   1.089   0.321   1.571
 8273SOL     OW25717   2.810   0.175   6.930
 8273SOL    HW125718   2.883   0.110   6.951
 8273SOL    HW225719   2.724   0.125   6.919
 8274SOL     OW25720   5.461   6.251   6.235
 8274SOL    HW125721   5.491   6.343   6.259
 8274SOL    HW225722   5.403   6.256   6.153
 8275SOL     OW25723   5.337   0.225   4.355
 8275SOL    HW125724   5.272   0.228   4.279
 8275SOL    HW225725   5.421   0.180   4.325
 8276SOL     OW25726   0.303   2.527   6.071
 8276SOL    HW125727   0.227   2.466   6.094
 8276SOL    HW225728   0.313   2.532   5.971
 8277SOL     OW25729   1.338   5.924   6.301
 8277SOL    HW125730   1.361   5.939   6.397
 8277SOL    HW225731   1.422   5.923   6.247
 8278SOL     OW25732   3.786   1.303   0.711
 8278SOL    HW125733   3.826   1.212   0.718
 8278SOL    HW225734   3.797   1.337   0.618
 8279SOL     OW25735   5.160   5.289   5.778
 8279SOL    HW125736   5.121   5.210   5.825
 8279SOL    HW225737   5.098   5.318   5.705
 8280SOL     OW25738   5.265   2.912   6.809
 8280SOL    HW125739   5.229   2.841   6.749
 8280SOL    HW225740   5.362   2.927   6.788
 8281SOL     OW25741   2.373   5.000   6.796
 8281SOL    HW125742   2.401   4.910   6.831
 8281SOL    HW225743   2.443   5.067   6.818
 8282SOL     OW25744   3.310   2.504   0.704
 8282SOL    HW125745   3.254   2.497   0.787
 8282SOL    HW225746   3.252   2.537   0.628
 8283SOL     OW25747   0.361   5.349   2.758
 8283SOL    HW125748   0.372   5.267   2.702
 8283SOL    HW225749   0.417   5.423   2.720
 8284SOL     OW25750   2.462   2.212   2.466
 8284SOL    HW125751   2.425   2.155   2.539
 8284SOL    HW225752   2.523   2.157   2.409
 8285SOL     OW25753   3.723   4.440   6.205
 8285SOL    HW125754   3.794   4.477   6.144
 8285SOL    HW225755   3.633   4.464   6.168
 8286SOL     OW25756   5.610   0.824   5.617
 8286SOL    HW125757   5.631   0.815   5.714
 8286SOL    HW225758   5.569   0.914   5.600
 8287SOL     OW25759   1.972   0.536   3.273
 8287SOL    HW125760   1.879   0.501   3.275
 8287SOL    HW225761   2.003   0.545   3.179
 8288SOL     OW25762   1.434   1.233   2.761
 8288SOL    HW125763   1.487   1.170   2.818
 8288SOL    HW225764   1.336   1.220   2.779
 8289SOL     OW25765   6.503   1.742   5.777
 8289SOL    HW125766   6.435   1.749   5.851
 8289SOL    HW225767   6.467   1.787   5.695
 8290SOL     OW25768   4.125   2.103   1.810
 8290SOL    HW125769   4.112   2.195   1.772
 8290SOL    HW225770   4.087   2.101   1.903
 8291SOL     OW25771   5.345   5.302   6.077
 8291SOL    HW125772   5.355   5.342   5.986
 8291SOL    HW225773   5.257   5.329   6.117
 8292SOL     OW25774   0.839   3.868   4.206
 8292SOL    HW125775   0.803   3.820   4.287
 8292SOL    HW225776   0.802   3.960   4.203
 8293SOL     OW25777   3.143   5.242   3.902
 8293SOL    HW125778   3.064   5.295   3.872
 8293SOL    HW225779   3.158   5.256   4.000
 8294SOL     OW25780   5.406   3.692   5.849
 8294SOL    HW125781   5.352   3.617   5.812
 8294SOL    HW225782   5.478   3.717   5.784
 8295SOL     OW25783   4.843   4.288   1.898
 8295SOL    HW125784   4.808   4.281   1.991
 8295SOL    HW225785   4.828   4.201   1.850
 8296SOL     OW25786   4.002   6.542   1.693
 8296SOL    HW125787   3.985   6.600   1.613
 8296SOL    HW225788   3.961   6.452   1.679
 8297SOL     OW25789   5.347   4.213   2.806
 8297SOL    HW125790   5.360   4.312   2.812
 8297SOL    HW225791   5.292   4.192   2.726
 8298SOL     OW25792   6.198   0.440   6.022
 8298SOL    HW125793   6.200   0.530   5.980
 8298SOL    HW225794   6.252   0.376   5.967
 8299SOL     OW25795   1.454   3.487   1.252
 8299SOL    HW125796   1.454   3.536   1.165
 8299SOL    HW225797   1.409   3.543   1.322
 8300SOL     OW25798   5.662   5.143   2.869
 8300SOL    HW125799   5.750   5.106   2.838
 8300SOL    HW225800   5.630   5.091   2.948
 8301SOL     OW25801   4.406   6.482   0.625
 8301SOL    HW125802   4.365   6.524   0.543
 8301SOL    HW225803   4.471   6.546   0.666
 8302SOL     OW25804   3.767   6.751   5.385
 8302SOL    HW125805   3.791   6.808   5.463
 8302SOL    HW225806   3.729   6.808   5.312
 8303SOL     OW25807   0.093   6.118   3.105
 8303SOL    HW125808   0.184   6.080   3.117
 8303SOL    HW225809   0.058   6.094   3.014
 8304SOL     OW25810   5.396   3.478   3.565
 8304SOL    HW125811   5.360   3.559   3.518
 8304SOL    HW225812   5.426   3.503   3.657
 8305SOL     OW25813   5.067   5.842   4.510
 8305SOL    HW125814   5.063   5.821   4.412
 8305SOL    HW225815   5.126   5.921   4.525
 8306SOL     OW25816   6.931   0.664   2.279
 8306SOL    HW125817   6.932   0.753   2.232
 8306SOL    HW225818   7.017   0.651   2.328
 8307SOL     OW25819   1.866   4.408   3.118
 8307SOL    HW125820   1.962   4.413   3.147
 8307SOL    HW225821   1.847   4.484   3.056
 8308SOL     OW25822   1.011   5.411   0.364
 8308SOL    HW125823   1.109   5.406   0.383
 8308SOL    HW225824   0.960   5.403   0.449
 8309SOL     OW25825   6.051   4.346   4.261
 8309SOL    HW125826   6.129   4.352   4.324
 8309SOL    HW225827   5.993   4.270   4.288
 8310SOL     OW25828   1.103   6.735   0.558
 8310SOL    HW125829   1.130   6.649   0.602
 8310SOL    HW225830   1.118   6.728   0.460
 8311SOL     OW25831   5.528   0.168   3.279
 8311SOL    HW125832   5.514   0.102   3.353
 8311SOL    HW225833   5.619   0.208   3.286
 8312SOL     OW25834   5.478   1.610   6.975
 8312SOL    HW125835   5.477   1.643   6.881
 8312SOL    HW225836   5.398   1.643   7.024
 8313SOL     OW25837   4.882   1.964   4.865
 8313SOL    HW125838   4.901   2.038   4.929
 8313SOL    HW225839   4.967   1.918   4.840
 8314SOL     OW25840   4.923   6.220   5.324
 8314SOL    HW125841   4.851   6.289   5.324
 8314SOL    HW225842   4.891   6.139   5.274
 8315SOL     OW25843   3.623   3.972   4.730
 8315SOL    HW125844   3.697   3.923   4.684
 8315SOL    HW225845   3.645   3.981   4.827
 8316SOL     OW25846   1.818   2.821   6.262
 8316SOL    HW125847   1.791   2.735   6.306
 8316SOL    HW225848   1.867   2.878   6.327
 8317SOL     OW25849   2.344   1.301   3.372
 8317SOL    HW125850   2.410   1.315   3.298
 8317SOL    HW225851   2.328   1.203   3.385
 8318SOL     OW25852   4.084   6.926   6.671
 8318SOL    HW125853   4.130   7.011   6.697
 8318SOL    HW225854   4.107   6.903   6.576
 8319SOL     OW25855   1.180   6.904   6.518
 8319SOL    HW125856   1.119   6.969   6.563
 8319SOL    HW225857   1.274   6.923   6.545
 8320SOL     OW25858   2.985   3.575   4.712
 8320SOL    HW125859   2.974   3.647   4.643
 8320SOL    HW225860   2.930   3.597   4.792
 8321SOL     OW25861   6.828   6.616   0.791
 8321SOL    HW125862   6.739   6.651   0.820
 8321SOL    HW225863   6.816   6.531   0.741
 8322SOL     OW25864   1.099   0.115   6.686
 8322SOL    HW125865   1.036   0.171   6.739
 8322SOL    HW225866   1.191   0.122   6.725
 8323SOL     OW25867   5.066   4.454   0.977
 8323SOL    HW125868   5.016   4.367   0.972
 8323SOL    HW225869   5.158   4.436   1.014
 8324SOL     OW25870   4.956   6.140   6.098
 8324SOL    HW125871   4.967   6.214   6.163
 8324SOL    HW225872   4.875   6.086   6.123
 8325SOL     OW25873   1.557   5.892   5.943
 8325SOL    HW125874   1.502   5.812   5.967
 8325SOL    HW225875   1.581   5.942   6.026
 8326SOL     OW25876   1.632   3.845   1.962
 8326SOL    HW125877   1.691   3.812   2.036
 8326SOL    HW225878   1.654   3.941   1.943
 8327SOL     OW25879   1.027   0.013   4.382
 8327SOL    HW125880   1.102   0.038   4.442
 8327SOL    HW225881   0.942   0.008   4.435
 8328SOL     OW25882   1.630   0.024   0.010
 8328SOL    HW125883   1.573   6.967   0.022
 8328SOL    HW225884   1.573   0.106   0.007
 8329SOL     OW25885   1.357   2.803   5.202
 8329SOL    HW125886   1.331   2.897   5.225
 8329SOL    HW225887   1.296   2.739   5.248
 8330SOL     OW25888   3.177   1.543   6.241
 8330SOL    HW125889   3.156   1.455   6.199
 8330SOL    HW225890   3.222   1.528   6.329
 8331SOL     OW25891   1.825   2.353   6.777
 8331SOL    HW125892   1.733   2.381   6.749
 8331SOL    HW225893   1.826   2.334   6.876
 8332SOL     OW25894   5.929   5.524   1.756
 8332SOL    HW125895   5.842   5.481   1.734
 8332SOL    HW225896   6.003   5.457   1.748
 8333SOL     OW25897   2.660   5.103   1.450
 8333SOL    HW125898   2.618   5.131   1.536
 8333SOL    HW225899   2.756   5.080   1.466
 8334SOL     OW25900   4.112   2.017   6.206
 8334SOL    HW125901   4.028   2.011   6.259
 8334SOL    HW225902   4.190   2.031   6.268
 8335SOL     OW25903   5.041   3.791   6.145
 8335SOL    HW125904   5.026   3.747   6.056
 8335SOL    HW225905   4.952   3.820   6.182
 8336SOL     OW25906   1.003   3.723   3.587
 8336SOL    HW125907   1.096   3.753   3.567
 8336SOL    HW225908   1.002   3.673   3.674
 8337SOL     OW25909   1.049   1.395   4.605
 8337SOL    HW125910   1.104   1.414   4.524
 8337SOL    HW225911   1.107   1.360   4.679
 8338SOL     OW25912   4.649   5.635   2.735
 8338SOL    HW125913   4.711   5.704   2.774
 8338SOL    HW225914   4.652   5.641   2.635
 8339SOL     OW25915   6.284   0.030   0.621
 8339SOL    HW125916   6.380   0.022   0.649
 8339SOL    HW225917   6.248   6.964   0.597
 8340SOL     OW25918   6.076   2.402   0.223
 8340SOL    HW125919   6.037   2.482   0.270
 8340SOL    HW225920   6.164   2.426   0.183
 8341SOL     OW25921   3.430   1.441   0.550
 8341SOL    HW125922   3.357   1.376   0.571
 8341SOL    HW225923   3.493   1.446   0.627
 8342SOL     OW25924   4.970   0.403   0.282
 8342SOL    HW125925   4.872   0.404   0.259
 8342SOL    HW225926   5.011   0.317   0.251
 8343SOL     OW25927   6.259   3.862   3.669
 8343SOL    HW125928   6.244   3.924   3.746
 8343SOL    HW225929   6.177   3.807   3.654
 8344SOL     OW25930   1.138   4.896   4.969
 8344SOL    HW125931   1.119   4.836   5.047
 8344SOL    HW225932   1.135   4.991   4.998
 8345SOL     OW25933   4.466   0.775   3.345
 8345SOL    HW125934   4.543   0.711   3.355
 8345SOL    HW225935   4.483   0.836   3.268
 8346SOL     OW25936   5.203   3.058   5.039
 8346SOL    HW125937   5.135   3.025   5.104
 8346SOL    HW225938   5.212   3.158   5.047
 8347SOL     OW25939   2.642   0.265   6.391
 8347SOL    HW125940   2.603   0.261   6.483
 8347SOL    HW225941   2.652   0.360   6.363
 8348SOL     OW25942   3.442   6.723   2.038
 8348SOL    HW125943   3.474   6.750   1.947
 8348SOL    HW225944   3.513   6.743   2.106
 8349SOL     OW25945   1.101   6.359   2.013
 8349SOL    HW125946   1.029   6.428   2.017
 8349SOL    HW225947   1.071   6.277   2.061
 8350SOL     OW25948   2.431   0.212   0.268
 8350SOL    HW125949   2.463   0.140   0.330
 8350SOL    HW225950   2.506   0.242   0.210
 8351SOL     OW25951   6.518   3.917   2.643
 8351SOL    HW125952   6.545   3.851   2.712
 8351SOL    HW225953   6.420   3.908   2.625
 8352SOL     OW25954   2.675   5.681   1.385
 8352SOL    HW125955   2.734   5.641   1.455
 8352SOL    HW225956   2.723   5.756   1.339
 8353SOL     OW25957   1.400   4.465   1.972
 8353SOL    HW125958   1.332   4.393   1.983
 8353SOL    HW225959   1.478   4.431   1.920
 8354SOL     OW25960   3.447   0.526   3.691
 8354SOL    HW125961   3.391   0.451   3.727
 8354SOL    HW225962   3.524   0.542   3.753
 8355SOL     OW25963   2.246   5.752   5.981
 8355SOL    HW125964   2.238   5.653   5.993
 8355SOL    HW225965   2.341   5.775   5.961
 8356SOL     OW25966   1.720   5.243   1.020
 8356SOL    HW125967   1.746   5.324   0.968
 8356SOL    HW225968   1.703   5.269   1.115
 8357SOL     OW25969   4.370   6.089   5.903
 8357SOL    HW125970   4.448   6.098   5.965
 8357SOL    HW225971   4.372   6.164   5.836
 8358SOL     OW25972   0.933   1.846   5.153
 8358SOL    HW125973   1.010   1.910   5.145
 8358SOL    HW225974   0.855   1.881   5.102
 8359SOL     OW25975   2.949   2.037   5.409
 8359SOL    HW125976   2.993   1.954   5.374
 8359SOL    HW225977   2.944   2.106   5.336
 8360SOL     OW25978   5.186   0.500   0.842
 8360SOL    HW125979   5.124   0.463   0.910
 8360SOL    HW225980   5.276   0.516   0.883
 8361SOL     OW25981   3.363   0.366   7.005
 8361SOL    HW125982   3.452   0.406   6.985
 8361SOL    HW225983   3.376   0.272   0.013
 8362SOL     OW25984   6.556   3.975   1.758
 8362SOL    HW125985   6.637   3.933   1.717
 8362SOL    HW225986   6.552   4.072   1.732
 8363SOL     OW25987   2.484   3.032   6.601
 8363SOL    HW125988   2.572   3.067   6.633
 8363SOL    HW225989   2.410   3.076   6.652
 8364SOL     OW25990   6.788   2.841   4.485
 8364SOL    HW125991   6.716   2.812   4.547
 8364SOL    HW225992   6.822   2.763   4.433
 8365SOL     OW25993   1.714   2.617   2.760
 8365SOL    HW125994   1.691   2.677   2.684
 8365SOL    HW225995   1.683   2.659   2.846
 8366SOL     OW25996   5.227   5.600   2.146
 8366SOL    HW125997   5.311   5.643   2.180
 8366SOL    HW225998   5.170   5.669   2.101
 8367SOL     OW25999   4.078   4.839   4.283
 8367SOL    HW126000   4.045   4.811   4.373
 8367SOL    HW226001   4.164   4.792   4.264
 8368SOL     OW26002   6.935   6.921   0.562
 8368SOL    HW126003   6.998   6.866   0.507
 8368SOL    HW226004   6.986   6.966   0.635
 8369SOL     OW26005   2.221   0.702   0.297
 8369SOL    HW126006   2.145   0.659   0.346
 8369SOL    HW226007   2.294   0.724   0.361
 8370SOL     OW26008   2.855   3.057   0.476
 8370SOL    HW126009   2.876   2.962   0.497
 8370SOL    HW226010   2.926   3.094   0.415
 8371SOL     OW26011   2.036   4.561   6.201
 8371SOL    HW126012   2.072   4.632   6.141
 8371SOL    HW226013   1.937   4.571   6.210
 8372SOL     OW26014   2.447   5.763   2.349
 8372SOL    HW126015   2.512   5.805   2.412
 8372SOL    HW226016   2.495   5.707   2.282
 8373SOL     OW26017   0.107   0.790   4.376
 8373SOL    HW126018   0.147   0.807   4.466
 8373SOL    HW226019   0.115   0.872   4.319
 8374SOL     OW26020   1.795   0.400   4.400
 8374SOL    HW126021   1.877   0.450   4.372
 8374SOL    HW226022   1.734   0.461   4.451
 8375SOL     OW26023   4.003   1.245   4.495
 8375SOL    HW126024   3.972   1.196   4.576
 8375SOL    HW226025   3.946   1.326   4.481
 8376SOL     OW26026   2.154   0.982   2.946
 8376SOL    HW126027   2.199   0.925   3.015
 8376SOL    HW226028   2.088   1.043   2.992
 8377SOL     OW26029   4.882   5.875   6.950
 8377SOL    HW126030   4.965   5.827   6.981
 8377SOL    HW226031   4.802   5.818   6.970
 8378SOL     OW26032   6.124   5.906   3.652
 8378SOL    HW126033   6.052   5.841   3.678
 8378SOL    HW226034   6.192   5.911   3.724
 8379SOL     OW26035   6.046   1.098   1.796
 8379SOL    HW126036   6.043   1.171   1.727
 8379SOL    HW226037   5.999   1.128   1.879
 8380SOL     OW26038   6.341   5.623   0.080
 8380SOL    HW126039   6.411   5.649   0.013
 8380SOL    HW226040   6.274   5.697   0.089
 8381SOL     OW26041   6.908   1.653   2.220
 8381SOL    HW126042   6.881   1.749   2.210
 8381SOL    HW226043   7.006   1.648   2.235
 8382SOL     OW26044   2.228   0.642   0.651
 8382SOL    HW126045   2.324   0.670   0.661
 8382SOL    HW226046   2.213   0.557   0.703
 8383SOL     OW26047   2.511   5.894   5.986
 8383SOL    HW126048   2.437   5.957   6.011
 8383SOL    HW226049   2.582   5.896   6.055
 8384SOL     OW26050   0.938   2.833   0.786
 8384SOL    HW126051   1.020   2.834   0.729
 8384SOL    HW226052   0.918   2.739   0.815
 8385SOL     OW26053   3.942   4.126   0.968
 8385SOL    HW126054   3.862   4.156   1.020
 8385SOL    HW226055   3.914   4.102   0.875
 8386SOL     OW26056   2.115   5.693   1.643
 8386SOL    HW126057   2.041   5.647   1.594
 8386SOL    HW226058   2.099   5.792   1.642
 8387SOL     OW26059   1.477   1.363   2.334
 8387SOL    HW126060   1.427   1.278   2.347
 8387SOL    HW226061   1.466   1.394   2.239
 8388SOL     OW26062   3.453   6.905   1.133
 8388SOL    HW126063   3.524   6.847   1.172
 8388SOL    HW226064   3.395   6.941   1.206
 8389SOL     OW26065   0.718   2.483   4.252
 8389SOL    HW126066   0.645   2.440   4.304
 8389SOL    HW226067   0.797   2.421   4.247
 8390SOL     OW26068   2.255   0.916   5.587
 8390SOL    HW126069   2.307   0.833   5.610
 8390SOL    HW226070   2.162   0.890   5.562
 8391SOL     OW26071   5.050   5.711   1.499
 8391SOL    HW126072   5.119   5.638   1.499
 8391SOL    HW226073   5.007   5.716   1.589
 8392SOL     OW26074   5.541   6.182   5.365
 8392SOL    HW126075   5.446   6.152   5.380
 8392SOL    HW226076   5.603   6.119   5.412
 8393SOL     OW26077   0.342   6.005   3.110
 8393SOL    HW126078   0.394   6.083   3.144
 8393SOL    HW226079   0.368   5.923   3.161
 8394SOL     OW26080   1.019   1.744   2.947
 8394SOL    HW126081   0.958   1.672   2.914
 8394SOL    HW226082   0.981   1.833   2.923
 8395SOL     OW26083   0.062   6.183   5.143
 8395SOL    HW126084   0.011   6.269   5.134
 8395SOL    HW226085   0.142   6.186   5.084
 8396SOL     OW26086   4.687   4.181   2.601
 8396SOL    HW126087   4.737   4.268   2.600
 8396SOL    HW226088   4.613   4.185   2.534
 8397SOL     OW26089   2.007   6.146   2.908
 8397SOL    HW126090   1.992   6.147   3.006
 8397SOL    HW226091   1.944   6.082   2.865
 8398SOL     OW26092   4.295   1.360   0.326
 8398SOL    HW126093   4.330   1.298   0.255
 8398SOL    HW226094   4.261   1.443   0.283
 8399SOL     OW26095   5.841   6.194   0.478
 8399SOL    HW126096   5.816   6.142   0.560
 8399SOL    HW226097   5.813   6.289   0.490
 8400SOL     OW26098   0.007   0.123   2.802
 8400SOL    HW126099   0.066   0.194   2.839
 8400SOL    HW226100   0.027   0.036   2.848
 8401SOL     OW26101   3.665   4.192   6.459
 8401SOL    HW126102   3.735   4.135   6.416
 8401SOL    HW226103   3.692   4.288   6.455
 8402SOL     OW26104   4.387   1.878   6.813
 8402SOL    HW126105   4.296   1.860   6.851
 8402SOL    HW226106   4.436   1.791   6.803
 8403SOL     OW26107   1.457   1.320   4.694
 8403SOL    HW126108   1.456   1.412   4.657
 8403SOL    HW226109   1.536   1.270   4.659
 8404SOL     OW26110   4.754   5.341   5.643
 8404SOL    HW126111   4.760   5.380   5.734
 8404SOL    HW226112   4.817   5.390   5.581
 8405SOL     OW26113   0.676   2.127   6.087
 8405SOL    HW126114   0.629   2.190   6.025
 8405SOL    HW226115   0.733   2.064   6.034
 8406SOL     OW26116   5.355   2.074   1.485
 8406SOL    HW126117   5.317   2.114   1.568
 8406SOL    HW226118   5.292   2.088   1.409
 8407SOL     OW26119   4.906   4.003   3.318
 8407SOL    HW126120   4.892   3.910   3.284
 8407SOL    HW226121   4.950   4.000   3.408
 8408SOL     OW26122   4.679   1.956   3.870
 8408SOL    HW126123   4.645   2.002   3.788
 8408SOL    HW226124   4.645   2.002   3.951
 8409SOL     OW26125   1.389   1.633   4.197
 8409SOL    HW126126   1.352   1.593   4.113
 8409SOL    HW226127   1.320   1.632   4.268
 8410SOL     OW26128   4.198   6.949   1.468
 8410SOL    HW126129   4.125   6.947   1.538
 8410SOL    HW226130   4.287   6.947   1.513
 8411SOL     OW26131   2.028   4.382   4.425
 8411SOL    HW126132   2.088   4.304   4.442
 8411SOL    HW226133   2.018   4.435   4.510
 8412SOL     OW26134   5.049   2.653   2.741
 8412SOL    HW126135   4.991   2.575   2.763
 8412SOL    HW226136   4.999   2.738   2.761
 8413SOL     OW26137   3.869   4.691   0.585
 8413SOL    HW126138   3.892   4.717   0.679
 8413SOL    HW226139   3.943   4.717   0.523
 8414SOL     OW26140   4.035   6.585   3.137
 8414SOL    HW126141   3.951   6.564   3.187
 8414SOL    HW226142   4.035   6.682   3.110
 8415SOL     OW26143   6.080   3.962   3.122
 8415SOL    HW126144   6.076   3.956   3.022
 8415SOL    HW226145   6.157   3.908   3.155
 8416SOL     OW26146   5.232   3.778   2.678
 8416SOL    HW126147   5.142   3.752   2.644
 8416SOL    HW226148   5.274   3.701   2.726
 8417SOL     OW26149   2.059   6.037   6.304
 8417SOL    HW126150   2.071   6.130   6.270
 8417SOL    HW226151   1.993   6.038   6.379
 8418SOL     OW26152   6.469   5.535   2.610
 8418SOL    HW126153   6.552   5.527   2.664
 8418SOL    HW226154   6.492   5.531   2.512
 8419SOL     OW26155   4.548   0.655   2.987
 8419SOL    HW126156   4.454   0.689   2.994
 8419SOL    HW226157   4.572   0.604   3.070
 8420SOL     OW26158   3.681   0.572   5.931
 8420SOL    HW126159   3.706   0.665   5.903
 8420SOL    HW226160   3.582   0.560   5.923
 8421SOL     OW26161   1.839   6.612   2.373
 8421SOL    HW126162   1.863   6.703   2.407
 8421SOL    HW226163   1.872   6.542   2.436
 8422SOL     OW26164   4.697   6.760   1.083
 8422SOL    HW126165   4.768   6.780   1.150
 8422SOL    HW226166   4.627   6.832   1.086
 8423SOL     OW26167   3.362   4.537   0.788
 8423SOL    HW126168   3.264   4.536   0.811
 8423SOL    HW226169   3.373   4.519   0.691
 8424SOL     OW26170   3.624   1.565   3.228
 8424SOL    HW126171   3.673   1.646   3.197
 8424SOL    HW226172   3.563   1.589   3.304
 8425SOL     OW26173   6.042   5.232   1.042
 8425SOL    HW126174   6.003   5.188   1.123
 8425SOL    HW226175   6.102   5.168   0.995
 8426SOL     OW26176   3.823   3.189   3.579
 8426SOL    HW126177   3.780   3.161   3.493
 8426SOL    HW226178   3.789   3.280   3.605
 8427SOL     OW26179   2.180   3.715   6.354
 8427SOL    HW126180   2.132   3.777   6.416
 8427SOL    HW226181   2.262   3.759   6.319
 8428SOL     OW26182   0.418   4.190   2.034
 8428SOL    HW126183   0.435   4.135   2.116
 8428SOL    HW226184   0.388   4.130   1.959
 8429SOL     OW26185   1.748   5.948   3.687
 8429SOL    HW126186   1.755   6.042   3.721
 8429SOL    HW226187   1.741   5.949   3.587
 8430SOL     OW26188   4.313   4.764   2.727
 8430SOL    HW126189   4.283   4.729   2.816
 8430SOL    HW226190   4.413   4.770   2.725
 8431SOL     OW26191   3.390   4.866   1.301
 8431SOL    HW126192   3.297   4.843   1.274
 8431SOL    HW226193   3.394   4.961   1.331
 8432SOL     OW26194   3.822   6.278   6.466
 8432SOL    HW126195   3.762   6.348   6.426
 8432SOL    HW226196   3.766   6.203   6.501
 8433SOL     OW26197   1.416   2.568   5.937
 8433SOL    HW126198   1.497   2.622   5.915
 8433SOL    HW226199   1.430   2.473   5.909
 8434SOL     OW26200   4.572   5.909   5.288
 8434SOL    HW126201   4.472   5.901   5.299
 8434SOL    HW226202   4.612   5.818   5.278
 8435SOL     OW26203   4.413   2.163   1.725
 8435SOL    HW126204   4.316   2.152   1.749
 8435SOL    HW226205   4.470   2.136   1.802
 8436SOL     OW26206   4.393   4.522   1.823
 8436SOL    HW126207   4.386   4.422   1.829
 8436SOL    HW226208   4.488   4.549   1.831
 8437SOL     OW26209   0.873   1.679   0.544
 8437SOL    HW126210   0.852   1.713   0.635
 8437SOL    HW226211   0.919   1.591   0.551
 8438SOL     OW26212   1.891   4.935   2.407
 8438SOL    HW126213   1.925   4.905   2.496
 8438SOL    HW226214   1.880   4.857   2.346
 8439SOL     OW26215   6.789   5.615   2.297
 8439SOL    HW126216   6.708   5.560   2.313
 8439SOL    HW226217   6.860   5.590   2.362
 8440SOL     OW26218   0.912   0.943   1.848
 8440SOL    HW126219   0.997   0.964   1.801
 8440SOL    HW226220   0.842   1.010   1.821
 8441SOL     OW26221   4.742   5.619   6.351
 8441SOL    HW126222   4.826   5.648   6.305
 8441SOL    HW226223   4.711   5.532   6.313
 8442SOL     OW26224   2.029   4.670   6.922
 8442SOL    HW126225   1.957   4.653   6.989
 8442SOL    HW226226   2.044   4.768   6.914
 8443SOL     OW26227   1.356   0.529   2.791
 8443SOL    HW126228   1.327   0.451   2.846
 8443SOL    HW226229   1.295   0.607   2.807
 8444SOL     OW26230   4.088   6.275   3.622
 8444SOL    HW126231   4.157   6.348   3.618
 8444SOL    HW226232   4.045   6.264   3.532
 8445SOL     OW26233   3.631   4.954   2.758
 8445SOL    HW126234   3.566   4.887   2.722
 8445SOL    HW226235   3.655   5.019   2.687
 8446SOL     OW26236   5.209   5.045   2.649
 8446SOL    HW126237   5.130   4.988   2.627
 8446SOL    HW226238   5.178   5.132   2.688
 8447SOL     OW26239   4.764   2.213   1.918
 8447SOL    HW126240   4.835   2.242   1.983
 8447SOL    HW226241   4.728   2.294   1.870
 8448SOL     OW26242   0.426   3.558   6.508
 8448SOL    HW126243   0.366   3.634   6.484
 8448SOL    HW226244   0.377   3.494   6.567
 8449SOL     OW26245   0.687   3.051   5.084
 8449SOL    HW126246   0.730   3.133   5.047
 8449SOL    HW226247   0.755   2.997   5.134
 8450SOL     OW26248   2.163   6.292   2.724
 8450SOL    HW126249   2.233   6.349   2.766
 8450SOL    HW226250   2.116   6.239   2.794
 8451SOL     OW26251   3.851   3.084   1.529
 8451SOL    HW126252   3.829   3.159   1.592
 8451SOL    HW226253   3.769   3.031   1.510
 8452SOL     OW26254   6.988   0.156   1.263
 8452SOL    HW126255   7.021   0.210   1.341
 8452SOL    HW226256   6.898   0.189   1.236
 8453SOL     OW26257   6.402   4.119   5.987
 8453SOL    HW126258   6.392   4.071   6.074
 8453SOL    HW226259   6.314   4.161   5.962
 8454SOL     OW26260   1.455   6.846   3.924
 8454SOL    HW126261   1.435   6.887   4.013
 8454SOL    HW226262   1.461   6.917   3.854
 8455SOL     OW26263   4.792   1.720   0.811
 8455SOL    HW126264   4.724   1.777   0.857
 8455SOL    HW226265   4.786   1.626   0.846
 8456SOL     OW26266   5.586   5.156   3.419
 8456SOL    HW126267   5.556   5.251   3.415
 8456SOL    HW226268   5.681   5.152   3.450
 8457SOL     OW26269   6.941   6.663   5.919
 8457SOL    HW126270   6.925   6.564   5.917
 8457SOL    HW226271   6.980   6.689   6.007
 8458SOL     OW26272   1.911   2.065   0.205
 8458SOL    HW126273   1.972   1.985   0.209
 8458SOL    HW226274   1.966   2.147   0.189
 8459SOL     OW26275   3.534   5.546   2.193
 8459SOL    HW126276   3.610   5.577   2.136
 8459SOL    HW226277   3.460   5.612   2.188
 8460SOL     OW26278   4.346   1.991   0.395
 8460SOL    HW126279   4.394   1.992   0.482
 8460SOL    HW226280   4.261   2.044   0.403
 8461SOL     OW26281   0.184   3.872   1.363
 8461SOL    HW126282   0.216   3.796   1.306
 8461SOL    HW226283   0.097   3.847   1.406
 8462SOL     OW26284   3.456   4.011   6.405
 8462SOL    HW126285   3.537   4.061   6.433
 8462SOL    HW226286   3.406   4.063   6.336
 8463SOL     OW26287   0.218   1.929   7.016
 8463SOL    HW126288   0.197   1.850   6.958
 8463SOL    HW226289   0.134   1.970   0.025
 8464SOL     OW26290   0.233   2.852   0.093
 8464SOL    HW126291   0.299   2.798   0.145
 8464SOL    HW226292   0.163   2.887   0.155
 8465SOL     OW26293   3.920   2.663   0.964
 8465SOL    HW126294   3.879   2.740   1.012
 8465SOL    HW226295   3.879   2.656   0.872
 8466SOL     OW26296   5.493   0.732   5.084
 8466SOL    HW126297   5.574   0.674   5.078
 8466SOL    HW226298   5.503   0.797   5.160
 8467SOL     OW26299   3.199   1.114   0.995
 8467SOL    HW126300   3.101   1.132   1.000
 8467SOL    HW226301   3.238   1.164   0.917
 8468SOL     OW26302   6.109   3.598   6.809
 8468SOL    HW126303   6.192   3.585   6.754
 8468SOL    HW226304   6.129   3.579   6.905
 8469SOL     OW26305   3.877   2.364   5.624
 8469SOL    HW126306   3.837   2.428   5.690
 8469SOL    HW226307   3.808   2.337   5.558
 8470SOL     OW26308   0.767   4.835   1.100
 8470SOL    HW126309   0.686   4.881   1.062
 8470SOL    HW226310   0.829   4.903   1.138
 8471SOL     OW26311   3.112   1.043   5.227
 8471SOL    HW126312   3.080   0.960   5.179
 8471SOL    HW226313   3.053   1.120   5.202
 8472SOL     OW26314   5.381   1.311   6.428
 8472SOL    HW126315   5.419   1.335   6.517
 8472SOL    HW226316   5.447   1.256   6.377
 8473SOL     OW26317   4.966   4.496   6.904
 8473SOL    HW126318   4.986   4.519   6.809
 8473SOL    HW226319   5.051   4.478   6.953
 8474SOL     OW26320   3.005   3.755   2.210
 8474SOL    HW126321   3.032   3.852   2.213
 8474SOL    HW226322   3.081   3.700   2.176
 8475SOL     OW26323   6.969   3.184   1.348
 8475SOL    HW126324   6.989   3.161   1.253
 8475SOL    HW226325   6.871   3.202   1.359
 8476SOL     OW26326   6.255   0.109   1.684
 8476SOL    HW126327   6.172   0.058   1.710
 8476SOL    HW226328   6.285   0.166   1.761
 8477SOL     OW26329   5.465   6.641   1.230
 8477SOL    HW126330   5.399   6.649   1.155
 8477SOL    HW226331   5.429   6.687   1.311
 8478SOL     OW26332   0.405   6.970   5.607
 8478SOL    HW126333   0.338   0.018   5.587
 8478SOL    HW226334   0.411   6.908   5.530
 8479SOL     OW26335   1.821   2.214   1.365
 8479SOL    HW126336   1.843   2.123   1.331
 8479SOL    HW226337   1.782   2.207   1.457
 8480SOL     OW26338   4.916   3.657   6.996
 8480SOL    HW126339   4.989   3.656   6.927
 8480SOL    HW226340   4.939   3.723   0.043
 8481SOL     OW26341   3.844   2.106   4.119
 8481SOL    HW126342   3.910   2.083   4.048
 8481SOL    HW226343   3.888   2.100   4.209
 8482SOL     OW26344   4.678   1.079   0.257
 8482SOL    HW126345   4.594   1.095   0.309
 8482SOL    HW226346   4.735   1.012   0.305
 8483SOL     OW26347   3.426   6.057   3.674
 8483SOL    HW126348   3.381   6.105   3.749
 8483SOL    HW226349   3.525   6.071   3.680
 8484SOL     OW26350   6.488   5.794   4.557
 8484SOL    HW126351   6.566   5.746   4.518
 8484SOL    HW226352   6.521   5.863   4.622
 8485SOL     OW26353   3.150   2.461   0.234
 8485SOL    HW126354   3.099   2.376   0.249
 8485SOL    HW226355   3.218   2.447   0.163
 8486SOL     OW26356   1.308   1.163   2.506
 8486SOL    HW126357   1.374   1.179   2.579
 8486SOL    HW226358   1.229   1.222   2.520
 8487SOL     OW26359   5.638   2.078   5.773
 8487SOL    HW126360   5.708   2.008   5.788
 8487SOL    HW226361   5.656   2.157   5.831
 8488SOL     OW26362   5.288   6.064   2.292
 8488SOL    HW126363   5.339   5.982   2.320
 8488SOL    HW226364   5.352   6.129   2.249
 8489SOL     OW26365   5.443   1.005   1.343
 8489SOL    HW126366   5.483   1.006   1.434
 8489SOL    HW226367   5.493   0.940   1.285
 8490SOL     OW26368   2.208   6.894   6.895
 8490SOL    HW126369   2.166   6.824   6.839
 8490SOL    HW226370   2.299   6.863   6.926
 8491SOL     OW26371   2.747   6.052   2.310
 8491SOL    HW126372   2.726   6.149   2.299
 8491SOL    HW226373   2.711   6.001   2.231
 8492SOL     OW26374   5.806   4.023   4.731
 8492SOL    HW126375   5.797   4.005   4.829
 8492SOL    HW226376   5.897   3.998   4.700
 8493SOL     OW26377   3.501   0.822   0.278
 8493SOL    HW126378   3.523   0.837   0.182
 8493SOL    HW226379   3.406   0.851   0.296
 8494SOL     OW26380   5.960   5.033   2.019
 8494SOL    HW126381   5.979   4.949   1.967
 8494SOL    HW226382   5.903   5.094   1.964
 8495SOL     OW26383   6.225   5.728   0.491
 8495SOL    HW126384   6.277   5.769   0.566
 8495SOL    HW226385   6.285   5.672   0.435
 8496SOL     OW26386   5.100   1.456   2.110
 8496SOL    HW126387   5.004   1.431   2.090
 8496SOL    HW226388   5.147   1.476   2.024
 8497SOL     OW26389   6.763   0.751   3.878
 8497SOL    HW126390   6.794   0.781   3.968
 8497SOL    HW226391   6.842   0.740   3.818
 8498SOL     OW26392   4.666   6.907   4.282
 8498SOL    HW126393   4.700   6.813   4.292
 8498SOL    HW226394   4.623   6.936   4.367
 8499SOL     OW26395   6.879   6.057   6.825
 8499SOL    HW126396   6.819   6.065   6.905
 8499SOL    HW226397   6.974   6.048   6.855
 8500SOL     OW26398   1.707   0.623   5.702
 8500SOL    HW126399   1.632   0.594   5.760
 8500SOL    HW226400   1.781   0.661   5.759
 8501SOL     OW26401   0.593   1.413   0.216
 8501SOL    HW126402   0.650   1.341   0.256
 8501SOL    HW226403   0.617   1.501   0.257
 8502SOL     OW26404   0.473   2.992   6.645
 8502SOL    HW126405   0.468   2.997   6.744
 8502SOL    HW226406   0.535   2.919   6.618
 8503SOL     OW26407   6.291   5.995   4.378
 8503SOL    HW126408   6.212   6.049   4.347
 8503SOL    HW226409   6.373   6.053   4.377
 8504SOL     OW26410   2.487   5.505   2.488
 8504SOL    HW126411   2.578   5.464   2.475
 8504SOL    HW226412   2.440   5.510   2.399
 8505SOL     OW26413   5.270   3.496   2.682
 8505SOL    HW126414   5.280   3.454   2.592
 8505SOL    HW226415   5.354   3.544   2.706
 8506SOL     OW26416   2.259   0.740   0.054
 8506SOL    HW126417   2.245   0.718   0.151
 8506SOL    HW226418   2.321   0.673   0.014
 8507SOL     OW26419   4.761   6.681   5.682
 8507SOL    HW126420   4.819   6.609   5.644
 8507SOL    HW226421   4.767   6.762   5.623
 8508SOL     OW26422   4.364   1.781   0.223
 8508SOL    HW126423   4.300   1.817   0.155
 8508SOL    HW226424   4.380   1.850   0.293
 8509SOL     OW26425   5.868   0.332   3.547
 8509SOL    HW126426   5.836   0.239   3.564
 8509SOL    HW226427   5.930   0.361   3.620
 8510SOL     OW26428   5.529   2.520   4.324
 8510SOL    HW126429   5.456   2.453   4.333
 8510SOL    HW226430   5.515   2.594   4.390
 8511SOL     OW26431   5.688   2.966   2.041
 8511SOL    HW126432   5.737   2.901   1.983
 8511SOL    HW226433   5.656   2.919   2.123
 8512SOL     OW26434   2.286   0.127   4.185
 8512SOL    HW126435   2.366   0.182   4.161
 8512SOL    HW226436   2.204   0.184   4.184
 8513SOL     OW26437   6.274   6.262   0.174
 8513SOL    HW126438   6.231   6.266   0.264
 8513SOL    HW226439   6.338   6.186   0.171
 8514SOL     OW26440   3.000   6.336   3.896
 8514SOL    HW126441   3.090   6.294   3.889
 8514SOL    HW226442   2.994   6.387   3.982
 8515SOL     OW26443   5.597   1.698   1.213
 8515SOL    HW126444   5.663   1.723   1.142
 8515SOL    HW226445   5.544   1.779   1.238
 8516SOL     OW26446   6.363   2.313   2.273
 8516SOL    HW126447   6.438   2.251   2.293
 8516SOL    HW226448   6.400   2.401   2.241
 8517SOL     OW26449   1.526   2.823   6.333
 8517SOL    HW126450   1.443   2.804   6.279
 8517SOL    HW226451   1.591   2.748   6.320
 8518SOL     OW26452   3.388   5.477   0.139
 8518SOL    HW126453   3.383   5.523   0.051
 8518SOL    HW226454   3.403   5.379   0.125
 8519SOL     OW26455   1.172   5.373   2.139
 8519SOL    HW126456   1.114   5.292   2.131
 8519SOL    HW226457   1.257   5.358   2.088
 8520SOL     OW26458   4.299   0.882   0.226
 8520SOL    HW126459   4.311   0.896   0.128
 8520SOL    HW226460   4.342   0.796   0.253
 8521SOL     OW26461   1.352   6.091   5.981
 8521SOL    HW126462   1.294   6.085   5.900
 8521SOL    HW226463   1.422   6.019   5.978
 8522SOL     OW26464   1.380   6.044   4.976
 8522SOL    HW126465   1.447   6.119   4.974
 8522SOL    HW226466   1.289   6.081   4.993
 8523SOL     OW26467   1.167   6.775   7.006
 8523SOL    HW126468   1.266   6.764   7.003
 8523SOL    HW226469   1.127   6.734   6.924
 8524SOL     OW26470   1.289   3.165   5.860
 8524SOL    HW126471   1.268   3.167   5.957
 8524SOL    HW226472   1.367   3.224   5.840
 8525SOL     OW26473   6.166   3.336   2.773
 8525SOL    HW126474   6.085   3.391   2.791
 8525SOL    HW226475   6.162   3.252   2.828
 8526SOL     OW26476   2.273   2.749   2.761
 8526SOL    HW126477   2.323   2.737   2.675
 8526SOL    HW226478   2.273   2.846   2.786
 8527SOL     OW26479   4.594   0.995   4.570
 8527SOL    HW126480   4.521   1.063   4.566
 8527SOL    HW226481   4.556   0.905   4.546
 8528SOL     OW26482   4.548   2.739   6.136
 8528SOL    HW126483   4.590   2.705   6.221
 8528SOL    HW226484   4.449   2.731   6.143
 8529SOL     OW26485   1.415   5.046   6.786
 8529SOL    HW126486   1.402   5.086   6.695
 8529SOL    HW226487   1.340   5.076   6.846
 8530SOL     OW26488   1.596   3.884   4.831
 8530SOL    HW126489   1.559   3.795   4.804
 8530SOL    HW226490   1.695   3.883   4.824
 8531SOL     OW26491   5.335   5.001   2.399
 8531SOL    HW126492   5.298   5.011   2.491
 8531SOL    HW226493   5.264   4.966   2.338
 8532SOL     OW26494   3.249   4.481   5.519
 8532SOL    HW126495   3.348   4.472   5.532
 8532SOL    HW226496   3.202   4.408   5.569
 8533SOL     OW26497   3.272   1.214   4.928
 8533SOL    HW126498   3.303   1.156   5.004
 8533SOL    HW226499   3.342   1.217   4.857
 8534SOL     OW26500   1.179   2.926   2.619
 8534SOL    HW126501   1.118   2.960   2.547
 8534SOL    HW226502   1.259   2.986   2.626
 8535SOL     OW26503   0.148   1.987   4.286
 8535SOL    HW126504   0.230   2.043   4.273
 8535SOL    HW226505   0.168   1.892   4.262
 8536SOL     OW26506   7.008   1.513   5.662
 8536SOL    HW126507   0.011   1.593   5.609
 8536SOL    HW226508   0.065   1.466   5.695
 8537SOL     OW26509   5.524   0.582   1.678
 8537SOL    HW126510   5.576   0.665   1.697
 8537SOL    HW226511   5.450   0.573   1.745
 8538SOL     OW26512   6.349   0.588   4.998
 8538SOL    HW126513   6.348   0.502   4.947
 8538SOL    HW226514   6.280   0.650   4.960
 8539SOL     OW26515   0.374   2.781   1.692
 8539SOL    HW126516   0.427   2.824   1.619
 8539SOL    HW226517   0.436   2.729   1.752
 8540SOL     OW26518   3.558   0.340   0.295
 8540SOL    HW126519   3.492   0.408   0.326
 8540SOL    HW226520   3.635   0.386   0.250
 8541SOL     OW26521   2.933   1.147   4.606
 8541SOL    HW126522   2.917   1.206   4.527
 8541SOL    HW226523   2.964   1.202   4.684
 8542SOL     OW26524   2.261   4.967   6.547
 8542SOL    HW126525   2.316   4.989   6.627
 8542SOL    HW226526   2.190   4.901   6.572
 8543SOL     OW26527   2.320   1.983   5.724
 8543SOL    HW126528   2.366   2.062   5.684
 8543SOL    HW226529   2.304   1.914   5.653
 8544SOL     OW26530   5.167   4.128   5.320
 8544SOL    HW126531   5.194   4.218   5.286
 8544SOL    HW226532   5.095   4.138   5.389
 8545SOL     OW26533   3.081   0.146   5.789
 8545SOL    HW126534   3.045   0.238   5.803
 8545SOL    HW226535   3.005   0.083   5.773
 8546SOL     OW26536   5.721   0.390   1.588
 8546SOL    HW126537   5.642   0.435   1.631
 8546SOL    HW226538   5.700   0.368   1.493
 8547SOL     OW26539   5.964   6.128   6.060
 8547SOL    HW126540   6.028   6.171   5.997
 8547SOL    HW226541   5.976   6.029   6.058
 8548SOL     OW26542   0.587   3.061   5.866
 8548SOL    HW126543   0.638   3.063   5.952
 8548SOL    HW226544   0.518   2.989   5.870
 8549SOL     OW26545   1.850   0.731   2.934
 8549SOL    HW126546   1.763   0.688   2.959
 8549SOL    HW226547   1.926   0.674   2.965
 8550SOL     OW26548   0.924   4.245   6.862
 8550SOL    HW126549   0.998   4.295   6.819
 8550SOL    HW226550   0.911   4.278   6.956
 8551SOL     OW26551   2.136   1.731   6.103
 8551SOL    HW126552   2.070   1.689   6.041
 8551SOL    HW226553   2.093   1.807   6.153
 8552SOL     OW26554   2.408   1.621   3.162
 8552SOL    HW126555   2.495   1.646   3.205
 8552SOL    HW226556   2.335   1.679   3.200
 8553SOL     OW26557   5.175   2.912   0.512
 8553SOL    HW126558   5.138   2.828   0.472
 8553SOL    HW226559   5.118   2.940   0.589
 8554SOL     OW26560   1.132   6.980   0.659
 8554SOL    HW126561   1.098   6.899   0.610
 8554SOL    HW226562   1.069   7.002   0.733
 8555SOL     OW26563   4.716   0.908   4.142
 8555SOL    HW126564   4.697   0.991   4.196
 8555SOL    HW226565   4.668   0.831   4.184
 8556SOL     OW26566   1.929   6.369   0.364
 8556SOL    HW126567   1.882   6.311   0.430
 8556SOL    HW226568   1.888   6.460   0.363
 8557SOL     OW26569   0.623   0.873   7.013
 8557SOL    HW126570   0.595   0.850   6.920
 8557SOL    HW226571   0.630   0.973   7.022
 8558SOL     OW26572   3.118   4.886   3.470
 8558SOL    HW126573   3.197   4.931   3.513
 8558SOL    HW226574   3.128   4.889   3.370
 8559SOL     OW26575   0.691   5.369   2.641
 8559SOL    HW126576   0.682   5.271   2.621
 8559SOL    HW226577   0.733   5.380   2.731
 8560SOL     OW26578   2.932   4.058   1.594
 8560SOL    HW126579   2.980   3.981   1.553
 8560SOL    HW226580   2.979   4.086   1.678
 8561SOL     OW26581   4.643   6.928   2.173
 8561SOL    HW126582   4.700   6.911   2.093
 8561SOL    HW226583   4.645   0.002   2.194
 8562SOL     OW26584   4.362   0.945   6.977
 8562SOL    HW126585   4.364   0.859   6.926
 8562SOL    HW226586   4.454   0.982   6.986
 8563SOL     OW26587   1.704   5.513   2.337
 8563SOL    HW126588   1.694   5.604   2.376
 8563SOL    HW226589   1.793   5.476   2.362
 8564SOL     OW26590   4.439   0.654   6.920
 8564SOL    HW126591   4.480   0.631   6.832
 8564SOL    HW226592   4.342   0.628   6.920
 8565SOL     OW26593   3.118   5.496   1.189
 8565SOL    HW126594   3.191   5.469   1.252
 8565SOL    HW226595   3.030   5.468   1.226
 8566SOL     OW26596   3.487   1.123   2.770
 8566SOL    HW126597   3.563   1.161   2.823
 8566SOL    HW226598   3.405   1.120   2.828
 8567SOL     OW26599   2.081   2.194   2.009
 8567SOL    HW126600   1.997   2.143   1.989
 8567SOL    HW226601   2.143   2.136   2.063
 8568SOL     OW26602   0.153   1.140   6.758
 8568SOL    HW126603   0.159   1.040   6.756
 8568SOL    HW226604   0.092   1.168   6.832
 8569SOL     OW26605   4.696   2.298   6.723
 8569SOL    HW126606   4.598   2.298   6.743
 8569SOL    HW226607   4.734   2.208   6.744
 8570SOL     OW26608   1.592   3.095   3.939
 8570SOL    HW126609   1.658   3.028   3.972
 8570SOL    HW226610   1.631   3.147   3.863
 8571SOL     OW26611   1.539   0.569   3.441
 8571SOL    HW126612   1.509   0.480   3.477
 8571SOL    HW226613   1.481   0.641   3.479
 8572SOL     OW26614   2.970   3.881   5.607
 8572SOL    HW126615   2.925   3.967   5.583
 8572SOL    HW226616   2.977   3.874   5.707
 8573SOL     OW26617   3.592   6.174   0.906
 8573SOL    HW126618   3.577   6.256   0.850
 8573SOL    HW226619   3.531   6.101   0.875
 8574SOL     OW26620   6.294   6.407   5.381
 8574SOL    HW126621   6.318   6.310   5.375
 8574SOL    HW226622   6.204   6.422   5.340
 8575SOL     OW26623   3.307   6.428   2.925
 8575SOL    HW126624   3.253   6.364   2.979
 8575SOL    HW226625   3.257   6.452   2.842
 8576SOL     OW26626   0.851   4.122   3.439
 8576SOL    HW126627   0.878   4.100   3.533
 8576SOL    HW226628   0.825   4.039   3.392
 8577SOL     OW26629   2.050   1.661   6.809
 8577SOL    HW126630   2.092   1.575   6.780
 8577SOL    HW226631   2.066   1.731   6.739
 8578SOL     OW26632   6.281   6.965   5.394
 8578SOL    HW126633   6.258   6.960   5.297
 8578SOL    HW226634   6.207   7.008   5.444
 8579SOL     OW26635   3.193   5.974   2.502
 8579SOL    HW126636   3.239   5.887   2.484
 8579SOL    HW226637   3.245   6.027   2.569
 8580SOL     OW26638   1.800   0.309   1.350
 8580SOL    HW126639   1.762   0.386   1.402
 8580SOL    HW226640   1.769   0.223   1.390
 8581SOL     OW26641   3.700   4.847   0.890
 8581SOL    HW126642   3.748   4.927   0.854
 8581SOL    HW226643   3.759   4.767   0.885
 8582SOL     OW26644   3.769   4.263   5.294
 8582SOL    HW126645   3.796   4.192   5.359
 8582SOL    HW226646   3.768   4.225   5.201
 8583SOL     OW26647   4.260   0.639   2.997
 8583SOL    HW126648   4.317   0.569   2.956
 8583SOL    HW226649   4.170   0.640   2.953
 8584SOL     OW26650   6.655   1.005   4.423
 8584SOL    HW126651   6.561   0.980   4.443
 8584SOL    HW226652   6.680   0.970   4.333
 8585SOL     OW26653   5.398   1.913   1.803
 8585SOL    HW126654   5.463   1.842   1.777
 8585SOL    HW226655   5.420   1.998   1.755
 8586SOL     OW26656   5.856   5.777   1.046
 8586SOL    HW126657   5.860   5.873   1.016
 8586SOL    HW226658   5.860   5.774   1.146
 8587SOL     OW26659   1.804   0.999   5.730
 8587SOL    HW126660   1.767   1.040   5.646
 8587SOL    HW226661   1.733   0.942   5.772
 8588SOL     OW26662   3.070   1.671   6.803
 8588SOL    HW126663   3.036   1.720   6.882
 8588SOL    HW226664   3.164   1.640   6.820
 8589SOL     OW26665   0.140   3.115   5.873
 8589SOL    HW126666   0.228   3.068   5.871
 8589SOL    HW226667   0.106   3.118   5.967
 8590SOL     OW26668   1.137   1.353   2.487
 8590SOL    HW126669   1.120   1.345   2.585
 8590SOL    HW226670   1.133   1.449   2.460
 8591SOL     OW26671   6.612   5.181   0.236
 8591SOL    HW126672   6.555   5.179   0.318
 8591SOL    HW226673   6.603   5.271   0.192
 8592SOL     OW26674   1.808   2.190   6.380
 8592SOL    HW126675   1.798   2.247   6.298
 8592SOL    HW226676   1.904   2.168   6.393
 8593SOL     OW26677   3.308   0.827   6.499
 8593SOL    HW126678   3.386   0.828   6.562
 8593SOL    HW226679   3.283   0.921   6.476
 8594SOL     OW26680   6.394   2.678   5.947
 8594SOL    HW126681   6.468   2.641   6.004
 8594SOL    HW226682   6.360   2.763   5.988
 8595SOL     OW26683   5.066   6.433   2.568
 8595SOL    HW126684   4.974   6.452   2.533
 8595SOL    HW226685   5.104   6.517   2.608
 8596SOL     OW26686   0.457   2.739   3.465
 8596SOL    HW126687   0.532   2.684   3.429
 8596SOL    HW226688   0.480   2.770   3.557
 8597SOL     OW26689   5.968   3.094   1.155
 8597SOL    HW126690   6.025   3.025   1.110
 8597SOL    HW226691   6.026   3.168   1.189
 8598SOL     OW26692   5.286   0.551   4.503
 8598SOL    HW126693   5.198   0.531   4.546
 8598SOL    HW226694   5.294   0.496   4.420
 8599SOL     OW26695   1.555   2.751   3.829
 8599SOL    HW126696   1.618   2.823   3.856
 8599SOL    HW226697   1.595   2.696   3.756
 8600SOL     OW26698   4.077   2.925   1.360
 8600SOL    HW126699   3.990   2.964   1.392
 8600SOL    HW226700   4.136   2.907   1.439
 8601SOL     OW26701   0.762   0.117   3.556
 8601SOL    HW126702   0.677   0.112   3.609
 8601SOL    HW226703   0.761   0.048   3.484
 8602SOL     OW26704   2.463   6.681   4.176
 8602SOL    HW126705   2.560   6.659   4.174
 8602SOL    HW226706   2.410   6.605   4.138
 8603SOL     OW26707   6.919   0.942   0.498
 8603SOL    HW126708   6.900   0.897   0.411
 8603SOL    HW226709   6.871   0.894   0.572
 8604SOL     OW26710   0.304   4.128   6.329
 8604SOL    HW126711   0.252   4.052   6.291
 8604SOL    HW226712   0.359   4.096   6.406
 8605SOL     OW26713   6.902   4.893   4.423
 8605SOL    HW126714   6.908   4.906   4.324
 8605SOL    HW226715   6.901   4.982   4.468
 8606SOL     OW26716   2.191   2.333   6.899
 8606SOL    HW126717   2.217   2.343   6.803
 8606SOL    HW226718   2.191   2.423   6.943
 8607SOL     OW26719   2.441   4.748   1.395
 8607SOL    HW126720   2.373   4.820   1.398
 8607SOL    HW226721   2.426   4.690   1.315
 8608SOL     OW26722   2.592   4.985   3.434
 8608SOL    HW126723   2.499   4.996   3.399
 8608SOL    HW226724   2.640   4.915   3.381
 8609SOL     OW26725   4.531   1.122   3.752
 8609SOL    HW126726   4.596   1.056   3.791
 8609SOL    HW226727   4.480   1.078   3.678
 8610SOL     OW26728   0.622   6.934   2.985
 8610SOL    HW126729   0.706   6.894   3.023
 8610SOL    HW226730   0.621   6.923   2.886
 8611SOL     OW26731   2.826   1.691   4.029
 8611SOL    HW126732   2.854   1.689   4.125
 8611SOL    HW226733   2.795   1.783   4.005
 8612SOL     OW26734   4.021   3.092   3.329
 8612SOL    HW126735   3.947   3.046   3.378
 8612SOL    HW226736   4.090   3.123   3.393
 8613SOL     OW26737   3.331   2.934   0.756
 8613SOL    HW126738   3.393   2.919   0.833
 8613SOL    HW226739   3.380   2.916   0.670
 8614SOL     OW26740   1.442   2.502   1.925
 8614SOL    HW126741   1.410   2.588   1.967
 8614SOL    HW226742   1.462   2.518   1.828
 8615SOL     OW26743   3.979   1.471   3.853
 8615SOL    HW126744   4.027   1.399   3.903
 8615SOL    HW226745   3.993   1.458   3.755
 8616SOL     OW26746   4.278   4.802   2.458
 8616SOL    HW126747   4.259   4.897   2.432
 8616SOL    HW226748   4.286   4.796   2.557
 8617SOL     OW26749   4.340   0.503   4.416
 8617SOL    HW126750   4.366   0.481   4.322
 8617SOL    HW226751   4.369   0.428   4.477
 8618SOL     OW26752   5.416   3.621   1.256
 8618SOL    HW126753   5.371   3.711   1.256
 8618SOL    HW226754   5.503   3.628   1.305
 8619SOL     OW26755   5.871   4.517   1.376
 8619SOL    HW126756   5.827   4.561   1.454
 8619SOL    HW226757   5.815   4.440   1.346
 8620SOL     OW26758   1.934   0.897   4.397
 8620SOL    HW126759   1.883   0.818   4.363
 8620SOL    HW226760   2.009   0.918   4.335
 8621SOL     OW26761   5.026   2.440   1.789
 8621SOL    HW126762   5.049   2.535   1.806
 8621SOL    HW226763   4.926   2.428   1.791
 8622SOL     OW26764   6.521   5.182   2.959
 8622SOL    HW126765   6.590   5.111   2.972
 8622SOL    HW226766   6.509   5.233   3.044
 8623SOL     OW26767   6.380   3.111   5.004
 8623SOL    HW126768   6.466   3.066   5.027
 8623SOL    HW226769   6.305   3.064   5.048
 8624SOL     OW26770   2.637   3.720   6.082
 8624SOL    HW126771   2.659   3.626   6.105
 8624SOL    HW226772   2.716   3.779   6.100
 8625SOL     OW26773   4.272   1.653   5.407
 8625SOL    HW126774   4.316   1.740   5.429
 8625SOL    HW226775   4.210   1.628   5.481
 8626SOL     OW26776   4.548   4.070   0.661
 8626SOL    HW126777   4.561   4.121   0.745
 8626SOL    HW226778   4.513   3.978   0.682
 8627SOL     OW26779   1.783   0.818   2.679
 8627SOL    HW126780   1.806   0.773   2.765
 8627SOL    HW226781   1.828   0.770   2.603
 8628SOL     OW26782   0.654   6.401   0.273
 8628SOL    HW126783   0.710   6.410   0.355
 8628SOL    HW226784   0.582   6.470   0.275
 8629SOL     OW26785   0.144   0.135   4.709
 8629SOL    HW126786   0.152   0.040   4.740
 8629SOL    HW226787   0.234   0.177   4.707
 8630SOL     OW26788   5.168   3.039   2.550
 8630SOL    HW126789   5.110   2.960   2.529
 8630SOL    HW226790   5.203   3.031   2.643
 8631SOL     OW26791   2.870   5.862   6.834
 8631SOL    HW126792   2.937   5.917   6.884
 8631SOL    HW226793   2.878   5.881   6.736
 8632SOL     OW26794   4.692   4.533   5.242
 8632SOL    HW126795   4.779   4.581   5.243
 8632SOL    HW226796   4.701   4.447   5.292
 8633SOL     OW26797   5.609   3.776   5.692
 8633SOL    HW126798   5.612   3.875   5.682
 8633SOL    HW226799   5.622   3.733   5.602
 8634SOL     OW26800   5.443   4.693   0.976
 8634SOL    HW126801   5.369   4.759   0.967
 8634SOL    HW226802   5.463   4.677   1.073
 8635SOL     OW26803   5.885   2.577   6.648
 8635SOL    HW126804   5.951   2.627   6.705
 8635SOL    HW226805   5.866   2.631   6.565
 8636SOL     OW26806   5.201   6.383   1.215
 8636SOL    HW126807   5.236   6.307   1.270
 8636SOL    HW226808   5.180   6.460   1.275
 8637SOL     OW26809   2.426   2.168   6.490
 8637SOL    HW126810   2.426   2.145   6.588
 8637SOL    HW226811   2.502   2.122   6.445
 8638SOL     OW26812   4.492   2.843   5.437
 8638SOL    HW126813   4.536   2.819   5.350
 8638SOL    HW226814   4.394   2.824   5.432
 8639SOL     OW26815   4.202   3.026   6.373
 8639SOL    HW126816   4.255   3.019   6.288
 8639SOL    HW226817   4.242   3.096   6.432
 8640SOL     OW26818   2.814   3.579   1.493
 8640SOL    HW126819   2.763   3.585   1.407
 8640SOL    HW226820   2.752   3.596   1.570
 8641SOL     OW26821   4.404   5.966   2.523
 8641SOL    HW126822   4.487   5.967   2.467
 8641SOL    HW226823   4.351   5.883   2.503
 8642SOL     OW26824   1.497   6.637   4.673
 8642SOL    HW126825   1.408   6.595   4.691
 8642SOL    HW226826   1.495   6.732   4.706
 8643SOL     OW26827   3.246   0.238   0.720
 8643SOL    HW126828   3.147   0.245   0.707
 8643SOL    HW226829   3.289   0.326   0.701
 8644SOL     OW26830   6.107   1.289   6.840
 8644SOL    HW126831   6.054   1.258   6.762
 8644SOL    HW226832   6.049   1.288   6.922
 8645SOL     OW26833   5.855   4.273   2.158
 8645SOL    HW126834   5.880   4.366   2.185
 8645SOL    HW226835   5.892   4.254   2.067
 8646SOL     OW26836   0.270   1.692   5.707
 8646SOL    HW126837   0.257   1.771   5.647
 8646SOL    HW226838   0.250   1.718   5.802
 8647SOL     OW26839   2.364   4.803   1.717
 8647SOL    HW126840   2.459   4.805   1.748
 8647SOL    HW226841   2.349   4.721   1.662
 8648SOL     OW26842   5.602   5.274   0.925
 8648SOL    HW126843   5.632   5.179   0.912
 8648SOL    HW226844   5.646   5.333   0.857
 8649SOL     OW26845   4.555   6.680   0.742
 8649SOL    HW126846   4.550   6.726   0.653
 8649SOL    HW226847   4.645   6.698   0.783
 8650SOL     OW26848   1.955   6.749   3.943
 8650SOL    HW126849   1.959   6.651   3.958
 8650SOL    HW226850   2.019   6.795   4.005
 8651SOL     OW26851   3.242   1.748   1.058
 8651SOL    HW126852   3.195   1.703   1.134
 8651SOL    HW226853   3.295   1.681   1.006
 8652SOL     OW26854   1.800   3.957   3.899
 8652SOL    HW126855   1.893   3.921   3.902
 8652SOL    HW226856   1.735   3.882   3.914
 8653SOL     OW26857   0.181   1.424   6.060
 8653SOL    HW126858   0.135   1.480   5.992
 8653SOL    HW226859   0.218   1.483   6.132
 8654SOL     OW26860   0.969   4.743   1.762
 8654SOL    HW126861   1.002   4.836   1.750
 8654SOL    HW226862   0.870   4.740   1.748
 8655SOL     OW26863   6.809   0.964   5.374
 8655SOL    HW126864   6.871   0.918   5.311
 8655SOL    HW226865   6.862   1.017   5.440
 8656SOL     OW26866   5.207   0.243   1.368
 8656SOL    HW126867   5.111   0.272   1.375
 8656SOL    HW226868   5.266   0.324   1.370
 8657SOL     OW26869   5.466   0.807   2.472
 8657SOL    HW126870   5.369   0.790   2.456
 8657SOL    HW226871   5.516   0.796   2.386
 8658SOL     OW26872   6.800   5.201   0.856
 8658SOL    HW126873   6.900   5.197   0.860
 8658SOL    HW226874   6.769   5.150   0.776
 8659SOL     OW26875   4.816   1.328   2.096
 8659SOL    HW126876   4.760   1.315   2.014
 8659SOL    HW226877   4.778   1.402   2.151
 8660SOL     OW26878   0.625   3.333   1.285
 8660SOL    HW126879   0.535   3.299   1.259
 8660SOL    HW226880   0.630   3.431   1.268
 8661SOL     OW26881   6.150   3.704   2.740
 8661SOL    HW126882   6.106   3.657   2.664
 8661SOL    HW226883   6.212   3.642   2.787
 8662SOL     OW26884   3.078   5.191   2.984
 8662SOL    HW126885   3.050   5.109   2.936
 8662SOL    HW226886   3.155   5.233   2.937
 8663SOL     OW26887   3.607   5.798   3.236
 8663SOL    HW126888   3.647   5.890   3.237
 8663SOL    HW226889   3.681   5.731   3.247
 8664SOL     OW26890   2.650   5.574   3.066
 8664SOL    HW126891   2.676   5.490   3.114
 8664SOL    HW226892   2.727   5.605   3.010
 8665SOL     OW26893   5.971   3.619   6.050
 8665SOL    HW126894   6.001   3.713   6.030
 8665SOL    HW226895   6.045   3.555   6.025
 8666SOL     OW26896   4.813   7.012   3.278
 8666SOL    HW126897   4.827   6.979   3.371
 8666SOL    HW226898   4.863   6.953   3.214
 8667SOL     OW26899   4.898   1.748   4.174
 8667SOL    HW126900   4.973   1.804   4.140
 8667SOL    HW226901   4.853   1.794   4.250
 8668SOL     OW26902   4.967   2.866   5.081
 8668SOL    HW126903   4.920   2.861   5.169
 8668SOL    HW226904   5.002   2.775   5.056
 8669SOL     OW26905   6.131   6.334   6.405
 8669SOL    HW126906   6.199   6.379   6.347
 8669SOL    HW226907   6.042   6.378   6.394
 8670SOL     OW26908   6.298   4.581   5.935
 8670SOL    HW126909   6.283   4.517   5.859
 8670SOL    HW226910   6.349   4.660   5.902
 8671SOL     OW26911   0.190   1.966   2.734
 8671SOL    HW126912   0.109   2.021   2.715
 8671SOL    HW226913   0.199   1.952   2.833
 8672SOL     OW26914   0.001   0.984   3.757
 8672SOL    HW126915   0.030   0.889   3.748
 8672SOL    HW226916   6.944   0.990   3.815
 8673SOL     OW26917   1.008   2.142   0.647
 8673SOL    HW126918   0.975   2.084   0.572
 8673SOL    HW226919   1.106   2.130   0.658
 8674SOL     OW26920   6.892   4.818   2.648
 8674SOL    HW126921   6.904   4.860   2.558
 8674SOL    HW226922   6.870   4.721   2.636
 8675SOL     OW26923   4.117   2.051   5.698
 8675SOL    HW126924   4.096   1.996   5.779
 8675SOL    HW226925   4.064   2.017   5.620
 8676SOL     OW26926   5.931   0.725   0.977
 8676SOL    HW126927   5.941   0.775   0.891
 8676SOL    HW226928   6.001   0.755   1.042
 8677SOL     OW26929   1.558   6.678   5.765
 8677SOL    HW126930   1.505   6.599   5.735
 8677SOL    HW226931   1.527   6.760   5.715
 8678SOL     OW26932   2.053   0.738   1.111
 8678SOL    HW126933   2.011   0.650   1.132
 8678SOL    HW226934   1.995   0.788   1.046
 8679SOL     OW26935   2.368   1.418   4.476
 8679SOL    HW126936   2.286   1.362   4.485
 8679SOL    HW226937   2.344   1.505   4.434
 8680SOL     OW26938   6.901   2.222   6.203
 8680SOL    HW126939   6.900   2.320   6.226
 8680SOL    HW226940   6.808   2.186   6.210
 8681SOL     OW26941   5.591   5.719   1.058
 8681SOL    HW126942   5.556   5.732   1.151
 8681SOL    HW226943   5.688   5.742   1.056
 8682SOL     OW26944   0.576   0.557   1.040
 8682SOL    HW126945   0.516   0.636   1.028
 8682SOL    HW226946   0.576   0.502   0.956
 8683SOL     OW26947   2.111   4.449   4.676
 8683SOL    HW126948   2.114   4.460   4.776
 8683SOL    HW226949   2.199   4.413   4.645
 8684SOL     OW26950   0.270   3.591   4.732
 8684SOL    HW126951   0.291   3.664   4.796
 8684SOL    HW226952   0.317   3.507   4.760
 8685SOL     OW26953   4.834   2.426   5.562
 8685SOL    HW126954   4.860   2.332   5.540
 8685SOL    HW226955   4.737   2.439   5.545
 8686SOL     OW26956   6.766   5.921   2.767
 8686SOL    HW126957   6.778   5.865   2.685
 8686SOL    HW226958   6.719   6.006   2.744
 8687SOL     OW26959   6.062   3.368   3.547
 8687SOL    HW126960   6.089   3.406   3.636
 8687SOL    HW226961   6.016   3.280   3.561
 8688SOL     OW26962   1.137   3.984   6.425
 8688SOL    HW126963   1.183   3.908   6.471
 8688SOL    HW226964   1.142   4.066   6.482
 8689SOL     OW26965   4.404   3.717   6.976
 8689SOL    HW126966   4.365   3.640   0.001
 8689SOL    HW226967   4.396   3.800   0.008
 8690SOL     OW26968   2.009   1.995   3.325
 8690SOL    HW126969   1.993   2.062   3.253
 8690SOL    HW226970   1.926   1.940   3.338
 8691SOL     OW26971   2.755   2.305   5.072
 8691SOL    HW126972   2.734   2.314   4.975
 8691SOL    HW226973   2.707   2.377   5.123
 8692SOL     OW26974   4.321   2.168   5.827
 8692SOL    HW126975   4.343   2.263   5.804
 8692SOL    HW226976   4.239   2.140   5.777
 8693SOL     OW26977   6.283   0.835   6.197
 8693SOL    HW126978   6.336   0.870   6.119
 8693SOL    HW226979   6.334   0.761   6.241
 8694SOL     OW26980   5.769   3.357   4.145
 8694SOL    HW126981   5.795   3.445   4.107
 8694SOL    HW226982   5.760   3.364   4.245
 8695SOL     OW26983   3.856   4.054   6.321
 8695SOL    HW126984   3.918   4.041   6.398
 8695SOL    HW226985   3.909   4.058   6.236
 8696SOL     OW26986   3.204   5.652   5.860
 8696SOL    HW126987   3.241   5.636   5.952
 8696SOL    HW226988   3.170   5.746   5.855
 8697SOL     OW26989   1.494   4.072   5.683
 8697SOL    HW126990   1.527   4.079   5.589
 8697SOL    HW226991   1.402   4.112   5.689
 8698SOL     OW26992   5.196   6.021   5.196
 8698SOL    HW126993   5.171   6.044   5.102
 8698SOL    HW226994   5.267   5.952   5.196
 8699SOL     OW26995   2.061   3.312   0.249
 8699SOL    HW126996   1.980   3.262   0.220
 8699SOL    HW226997   2.057   3.329   0.348
 8700SOL     OW26998   0.816   0.210   5.006
 8700SOL    HW126999   0.869   0.233   5.088
 8700SOL    HW227000   0.854   0.127   4.963
 8701SOL     OW27001   1.224   1.928   6.625
 8701SOL    HW127002   1.154   1.857   6.618
 8701SOL    HW227003   1.260   1.930   6.718
 8702SOL     OW27004   5.724   4.147   1.542
 8702SOL    HW127005   5.645   4.184   1.590
 8702SOL    HW227006   5.808   4.176   1.588
 8703SOL     OW27007   2.698   4.810   1.458
 8703SOL    HW127008   2.611   4.764   1.439
 8703SOL    HW227009   2.686   4.909   1.450
 8704SOL     OW27010   0.946   1.920   3.798
 8704SOL    HW127011   0.891   1.855   3.746
 8704SOL    HW227012   0.952   2.007   3.747
 8705SOL     OW27013   4.267   2.593   6.955
 8705SOL    HW127014   4.311   2.558   0.014
 8705SOL    HW227015   4.336   2.599   6.882
 8706SOL     OW27016   4.848   2.941   6.330
 8706SOL    HW127017   4.824   2.865   6.269
 8706SOL    HW227018   4.909   2.906   6.402
 8707SOL     OW27019   1.453   2.009   4.111
 8707SOL    HW127020   1.549   2.020   4.087
 8707SOL    HW227021   1.433   2.061   4.194
 8708SOL     OW27022   5.930   2.332   2.330
 8708SOL    HW127023   5.998   2.297   2.266
 8708SOL    HW227024   5.843   2.285   2.316
 8709SOL     OW27025   6.707   0.226   5.570
 8709SOL    HW127026   6.660   0.144   5.537
 8709SOL    HW227027   6.652   0.269   5.642
 8710SOL     OW27028   2.276   1.417   3.762
 8710SOL    HW127029   2.231   1.469   3.834
 8710SOL    HW227030   2.319   1.335   3.801
 8711SOL     OW27031   1.401   0.440   1.767
 8711SOL    HW127032   1.461   0.417   1.844
 8711SOL    HW227033   1.454   0.439   1.682
 8712SOL     OW27034   1.776   2.931   5.437
 8712SOL    HW127035   1.856   2.929   5.376
 8712SOL    HW227036   1.733   2.841   5.437
 8713SOL     OW27037   0.709   4.781   1.711
 8713SOL    HW127038   0.687   4.836   1.630
 8713SOL    HW227039   0.706   4.839   1.792
 8714SOL     OW27040   6.714   6.634   6.858
 8714SOL    HW127041   6.724   6.538   6.884
 8714SOL    HW227042   6.709   6.691   6.940
 8715SOL     OW27043   2.692   2.360   0.600
 8715SOL    HW127044   2.710   2.359   0.502
 8715SOL    HW227045   2.594   2.376   0.615
 8716SOL     OW27046   6.906   6.651   1.483
 8716SOL    HW127047   6.841   6.673   1.411
 8716SOL    HW227048   6.994   6.627   1.442
 8717SOL     OW27049   2.646   4.900   0.410
 8717SOL    HW127050   2.666   4.862   0.501
 8717SOL    HW227051   2.678   4.836   0.340
 8718SOL     OW27052   2.198   4.613   5.907
 8718SOL    HW127053   2.225   4.524   5.943
 8718SOL    HW227054   2.191   4.678   5.982
 8719SOL     OW27055   3.596   1.143   5.712
 8719SOL    HW127056   3.687   1.162   5.751
 8719SOL    HW227057   3.585   1.193   5.626
 8720SOL     OW27058   6.815   4.334   4.885
 8720SOL    HW127059   6.738   4.361   4.943
 8720SOL    HW227060   6.896   4.386   4.912
 8721SOL     OW27061   6.912   6.818   6.688
 8721SOL    HW127062   6.857   6.862   6.759
 8721SOL    HW227063   6.906   6.719   6.698
 8722SOL     OW27064   3.995   0.988   1.695
 8722SOL    HW127065   3.932   0.986   1.772
 8722SOL    HW227066   3.981   1.072   1.643
 8723SOL     OW27067   5.021   6.835   2.292
 8723SOL    HW127068   5.077   6.813   2.372
 8723SOL    HW227069   4.938   6.882   2.322
 8724SOL     OW27070   3.842   0.720   5.038
 8724SOL    HW127071   3.882   0.638   4.997
 8724SOL    HW227072   3.755   0.696   5.081
 8725SOL     OW27073   0.350   6.238   4.339
 8725SOL    HW127074   0.428   6.255   4.279
 8725SOL    HW227075   0.266   6.264   4.292
 8726SOL     OW27076   1.061   1.117   0.590
 8726SOL    HW127077   1.062   1.078   0.498
 8726SOL    HW227078   1.149   1.161   0.609
 8727SOL     OW27079   5.038   5.583   5.960
 8727SOL    HW127080   5.023   5.578   5.861
 8727SOL    HW227081   5.135   5.603   5.977
 8728SOL     OW27082   6.285   0.782   3.037
 8728SOL    HW127083   6.331   0.770   2.949
 8728SOL    HW227084   6.212   0.715   3.046
 8729SOL     OW27085   3.564   5.158   6.474
 8729SOL    HW127086   3.590   5.246   6.434
 8729SOL    HW227087   3.627   5.136   6.549
 8730SOL     OW27088   4.920   4.946   1.709
 8730SOL    HW127089   4.836   4.892   1.704
 8730SOL    HW227090   4.954   4.962   1.616
 8731SOL     OW27091   0.200   1.881   3.290
 8731SOL    HW127092   0.130   1.915   3.352
 8731SOL    HW227093   0.276   1.843   3.343
 8732SOL     OW27094   5.162   5.509   0.914
 8732SOL    HW127095   5.072   5.478   0.884
 8732SOL    HW227096   5.220   5.526   0.835
 8733SOL     OW27097   6.925   4.894   2.146
 8733SOL    HW127098   6.834   4.867   2.116
 8733SOL    HW227099   6.991   4.871   2.074
 8734SOL     OW27100   0.302   3.460   2.149
 8734SOL    HW127101   0.260   3.461   2.240
 8734SOL    HW227102   0.240   3.416   2.084
 8735SOL     OW27103   1.555   3.677   5.650
 8735SOL    HW127104   1.617   3.623   5.593
 8735SOL    HW227105   1.607   3.746   5.700
 8736SOL     OW27106   0.617   5.877   2.514
 8736SOL    HW127107   0.609   5.972   2.484
 8736SOL    HW227108   0.620   5.874   2.614
 8737SOL     OW27109   1.373   5.467   6.482
 8737SOL    HW127110   1.395   5.369   6.479
 8737SOL    HW227111   1.312   5.486   6.559
 8738SOL     OW27112   1.241   3.447   3.476
 8738SOL    HW127113   1.225   3.412   3.568
 8738SOL    HW227114   1.318   3.511   3.478
 8739SOL     OW27115   5.506   4.410   5.187
 8739SOL    HW127116   5.510   4.349   5.266
 8739SOL    HW227117   5.551   4.368   5.109
 8740SOL     OW27118   3.198   1.484   3.956
 8740SOL    HW127119   3.243   1.561   3.912
 8740SOL    HW227120   3.100   1.486   3.935
 8741SOL     OW27121   0.929   6.962   2.391
 8741SOL    HW127122   0.940   6.995   2.298
 8741SOL    HW227123   1.004   6.899   2.413
 8742SOL     OW27124   3.493   1.499   2.909
 8742SOL    HW127125   3.431   1.535   2.978
 8742SOL    HW227126   3.443   1.481   2.825
 8743SOL     OW27127   1.782   0.919   1.877
 8743SOL    HW127128   1.710   0.851   1.886
 8743SOL    HW227129   1.741   1.010   1.868
 8744SOL     OW27130   3.934   4.139   6.762
 8744SOL    HW127131   3.888   4.068   6.816
 8744SOL    HW227132   3.871   4.214   6.745
 8745SOL     OW27133   6.433   1.529   6.222
 8745SOL    HW127134   6.501   1.577   6.166
 8745SOL    HW227135   6.476   1.451   6.267
 8746SOL     OW27136   4.970   5.000   4.580
 8746SOL    HW127137   4.942   4.977   4.487
 8746SOL    HW227138   4.889   5.007   4.638
 8747SOL     OW27139   6.962   0.506   1.772
 8747SOL    HW127140   7.009   0.438   1.829
 8747SOL    HW227141   0.005   0.570   1.734
 8748SOL     OW27142   0.926   2.158   3.661
 8748SOL    HW127143   1.002   2.183   3.601
 8748SOL    HW227144   0.898   2.237   3.715
 8749SOL     OW27145   2.576   1.456   5.294
 8749SOL    HW127146   2.610   1.446   5.388
 8749SOL    HW227147   2.582   1.551   5.266
 8750SOL     OW27148   4.297   2.669   6.133
 8750SOL    HW127149   4.328   2.574   6.130
 8750SOL    HW227150   4.197   2.671   6.130
 8751SOL     OW27151   0.499   6.406   2.236
 8751SOL    HW127152   0.464   6.338   2.299
 8751SOL    HW227153   0.425   6.467   2.208
 8752SOL     OW27154   4.769   3.188   6.690
 8752SOL    HW127155   4.829   3.220   6.616
 8752SOL    HW227156   4.682   3.237   6.686
 8753SOL     OW27157   1.631   3.116   7.002
 8753SOL    HW127158   1.547   3.169   6.990
 8753SOL    HW227159   1.610   3.028   0.020
 8754SOL     OW27160   3.090   5.333   6.900
 8754SOL    HW127161   3.108   5.407   6.834
 8754SOL    HW227162   3.098   5.245   6.854
 8755SOL     OW27163   0.038   1.862   2.436
 8755SOL    HW127164   0.110   1.831   2.498
 8755SOL    HW227165   0.062   1.838   2.342
 8756SOL     OW27166   2.158   2.427   3.643
 8756SOL    HW127167   2.249   2.469   3.639
 8756SOL    HW227168   2.161   2.337   3.601
 8757SOL     OW27169   4.996   6.076   5.549
 8757SOL    HW127170   4.935   6.113   5.478
 8757SOL    HW227171   4.941   6.053   5.630
 8758SOL     OW27172   3.722   6.711   3.878
 8758SOL    HW127173   3.669   6.771   3.819
 8758SOL    HW227174   3.816   6.745   3.885
 8759SOL     OW27175   6.440   1.353   0.345
 8759SOL    HW127176   6.386   1.434   0.366
 8759SOL    HW227177   6.383   1.285   0.299
 8760SOL     OW27178   2.362   2.182   4.656
 8760SOL    HW127179   2.293   2.118   4.690
 8760SOL    HW227180   2.344   2.202   4.560
 8761SOL     OW27181   4.735   0.968   2.157
 8761SOL    HW127182   4.804   0.925   2.098
 8761SOL    HW227183   4.776   1.046   2.204
 8762SOL     OW27184   1.359   4.927   3.269
 8762SOL    HW127185   1.385   4.832   3.248
 8762SOL    HW227186   1.260   4.936   3.268
 8763SOL     OW27187   0.346   0.970   5.526
 8763SOL    HW127188   0.434   0.964   5.479
 8763SOL    HW227189   0.317   1.066   5.531
 8764SOL     OW27190   3.707   4.884   5.528
 8764SOL    HW127191   3.769   4.808   5.504
 8764SOL    HW227192   3.673   4.926   5.444
 8765SOL     OW27193   5.169   6.565   4.912
 8765SOL    HW127194   5.217   6.583   4.998
 8765SOL    HW227195   5.080   6.610   4.914
 8766SOL     OW27196   4.567   4.483   5.635
 8766SOL    HW127197   4.547   4.458   5.730
 8766SOL    HW227198   4.649   4.540   5.632
 8767SOL     OW27199   3.159   0.745   3.652
 8767SOL    HW127200   3.110   0.755   3.738
 8767SOL    HW227201   3.256   0.766   3.666
 8768SOL     OW27202   6.548   2.404   0.477
 8768SOL    HW127203   6.614   2.340   0.437
 8768SOL    HW227204   6.560   2.407   0.576
 8769SOL     OW27205   0.007   1.218   0.416
 8769SOL    HW127206   0.072   1.223   0.340
 8769SOL    HW227207   6.994   1.126   0.422
 8770SOL     OW27208   4.916   3.465   2.423
 8770SOL    HW127209   5.012   3.476   2.399
 8770SOL    HW227210   4.859   3.477   2.342
 8771SOL     OW27211   0.234   3.151   6.455
 8771SOL    HW127212   0.233   3.136   6.554
 8771SOL    HW227213   0.326   3.134   6.419
 8772SOL     OW27214   5.540   0.126   4.193
 8772SOL    HW127215   5.560   0.186   4.115
 8772SOL    HW227216   5.614   0.060   4.204
 8773SOL     OW27217   0.242   1.433   4.184
 8773SOL    HW127218   0.291   1.445   4.098
 8773SOL    HW227219   0.162   1.375   4.169
 8774SOL     OW27220   1.738   0.545   0.769
 8774SOL    HW127221   1.664   0.612   0.765
 8774SOL    HW227222   1.762   0.517   0.676
 8775SOL     OW27223   5.148   1.961   4.380
 8775SOL    HW127224   5.177   2.029   4.313
 8775SOL    HW227225   5.090   2.004   4.449
 8776SOL     OW27226   4.588   2.958   0.120
 8776SOL    HW127227   4.522   3.031   0.103
 8776SOL    HW227228   4.667   2.995   0.170
 8777SOL     OW27229   0.952   1.897   3.363
 8777SOL    HW127230   1.016   1.895   3.439
 8777SOL    HW227231   0.866   1.939   3.392
 8778SOL     OW27232   4.133   4.580   5.688
 8778SOL    HW127233   4.085   4.494   5.674
 8778SOL    HW227234   4.098   4.626   5.769
 8779SOL     OW27235   3.580   4.969   3.188
 8779SOL    HW127236   3.484   4.951   3.169
 8779SOL    HW227237   3.600   4.944   3.283
 8780SOL     OW27238   6.341   5.634   3.547
 8780SOL    HW127239   6.315   5.687   3.628
 8780SOL    HW227240   6.309   5.680   3.465
 8781SOL     OW27241   3.889   6.130   2.243
 8781SOL    HW127242   3.890   6.143   2.144
 8781SOL    HW227243   3.843   6.043   2.265
 8782SOL     OW27244   4.585   0.779   1.704
 8782SOL    HW127245   4.591   0.688   1.663
 8782SOL    HW227246   4.544   0.773   1.795
 8783SOL     OW27247   4.928   3.352   4.984
 8783SOL    HW127248   4.869   3.433   4.982
 8783SOL    HW227249   4.975   3.343   4.896
 8784SOL     OW27250   5.611   6.541   0.627
 8784SOL    HW127251   5.576   6.632   0.603
 8784SOL    HW227252   5.571   6.512   0.714
 8785SOL     OW27253   0.840   5.525   5.980
 8785SOL    HW127254   0.841   5.481   6.069
 8785SOL    HW227255   0.878   5.618   5.988
 8786SOL     OW27256   3.932   1.806   2.072
 8786SOL    HW127257   3.835   1.784   2.061
 8786SOL    HW227258   3.950   1.896   2.032
 8787SOL     OW27259   3.685   0.380   1.467
 8787SOL    HW127260   3.597   0.406   1.427
 8787SOL    HW227261   3.759   0.420   1.412
 8788SOL     OW27262   0.507   0.079   4.691
 8788SOL    HW127263   0.532   0.040   4.602
 8788SOL    HW227264   0.455   0.163   4.677
 8789SOL     OW27265   0.261   3.114   4.822
 8789SOL    HW127266   0.288   3.143   4.731
 8789SOL    HW227267   0.336   3.063   4.864
 8790SOL     OW27268   5.501   2.718   6.405
 8790SOL    HW127269   5.572   2.784   6.428
 8790SOL    HW227270   5.524   2.629   6.445
 8791SOL     OW27271   4.129   5.594   5.465
 8791SOL    HW127272   4.149   5.504   5.503
 8791SOL    HW227273   4.066   5.584   5.388
 8792SOL     OW27274   5.307   5.501   1.252
 8792SOL    HW127275   5.310   5.586   1.201
 8792SOL    HW227276   5.329   5.425   1.191
 8793SOL     OW27277   0.333   4.657   4.463
 8793SOL    HW127278   0.327   4.657   4.563
 8793SOL    HW227279   0.422   4.692   4.435
 8794SOL     OW27280   0.460   0.438   1.548
 8794SOL    HW127281   0.386   0.421   1.613
 8794SOL    HW227282   0.547   0.443   1.596
 8795SOL     OW27283   1.750   5.563   5.374
 8795SOL    HW127284   1.806   5.546   5.293
 8795SOL    HW227285   1.766   5.657   5.405
 8796SOL     OW27286   6.960   3.731   3.436
 8796SOL    HW127287   7.010   3.646   3.455
 8796SOL    HW227288   6.990   3.769   3.349
 8797SOL     OW27289   5.767   6.784   4.038
 8797SOL    HW127290   5.830   6.825   3.972
 8797SOL    HW227291   5.679   6.765   3.994
 8798SOL     OW27292   4.216   6.531   5.892
 8798SOL    HW127293   4.190   6.626   5.873
 8798SOL    HW227294   4.256   6.491   5.809
 8799SOL     OW27295   2.172   5.321   2.117
 8799SOL    HW127296   2.164   5.360   2.025
 8799SOL    HW227297   2.105   5.248   2.128
 8800SOL     OW27298   6.983   5.841   5.428
 8800SOL    HW127299   6.984   5.932   5.387
 8800SOL    HW227300   0.016   5.779   5.374
 8801SOL     OW27301   5.995   2.591   5.320
 8801SOL    HW127302   6.028   2.618   5.411
 8801SOL    HW227303   6.074   2.578   5.259
 8802SOL     OW27304   1.651   6.145   5.625
 8802SOL    HW127305   1.572   6.179   5.574
 8802SOL    HW227306   1.630   6.141   5.722
 8803SOL     OW27307   6.265   0.350   6.282
 8803SOL    HW127308   6.185   0.291   6.297
 8803SOL    HW227309   6.240   0.425   6.221
 8804SOL     OW27310   1.431   5.779   2.108
 8804SOL    HW127311   1.381   5.726   2.040
 8804SOL    HW227312   1.366   5.836   2.160
 8805SOL     OW27313   4.920   5.340   2.505
 8805SOL    HW127314   5.000   5.400   2.499
 8805SOL    HW227315   4.888   5.336   2.600
 8806SOL     OW27316   1.970   6.784   0.294
 8806SOL    HW127317   2.015   6.725   0.227
 8806SOL    HW227318   2.036   6.810   0.364
 8807SOL     OW27319   4.946   2.447   1.086
 8807SOL    HW127320   4.887   2.385   1.137
 8807SOL    HW227321   5.031   2.462   1.136
 8808SOL     OW27322   2.317   2.309   0.897
 8808SOL    HW127323   2.290   2.277   0.988
 8808SOL    HW227324   2.264   2.262   0.828
 8809SOL     OW27325   1.228   3.897   3.521
 8809SOL    HW127326   1.270   3.987   3.516
 8809SOL    HW227327   1.297   3.827   3.505
 8810SOL     OW27328   0.289   1.418   5.616
 8810SOL    HW127329   0.339   1.354   5.674
 8810SOL    HW227330   0.292   1.510   5.655
 8811SOL     OW27331   4.226   5.967   2.221
 8811SOL    HW127332   4.313   6.013   2.241
 8811SOL    HW227333   4.151   6.020   2.260
 8812SOL     OW27334   4.032   1.615   6.841
 8812SOL    HW127335   4.032   1.644   6.745
 8812SOL    HW227336   4.066   1.521   6.847
 8813SOL     OW27337   2.453   4.692   3.260
 8813SOL    HW127338   2.395   4.612   3.249
 8813SOL    HW227339   2.512   4.680   3.340
 8814SOL     OW27340   5.570   6.781   6.754
 8814SOL    HW127341   5.622   6.697   6.770
 8814SOL    HW227342   5.498   6.789   6.823
 8815SOL     OW27343   5.253   0.998   0.401
 8815SOL    HW127344   5.311   0.928   0.442
 8815SOL    HW227345   5.307   1.054   0.339
 8816SOL     OW27346   0.543   6.420   5.318
 8816SOL    HW127347   0.485   6.371   5.253
 8816SOL    HW227348   0.494   6.500   5.353
 8817SOL     OW27349   1.671   2.935   4.351
 8817SOL    HW127350   1.679   3.000   4.426
 8817SOL    HW227351   1.595   2.962   4.291
 8818SOL     OW27352   2.146   6.897   4.137
 8818SOL    HW127353   2.163   6.828   4.206
 8818SOL    HW227354   2.221   6.964   4.138
 8819SOL     OW27355   5.346   4.385   6.051
 8819SOL    HW127356   5.374   4.449   6.122
 8819SOL    HW227357   5.362   4.291   6.083
 8820SOL     OW27358   3.283   0.799   4.492
 8820SOL    HW127359   3.251   0.802   4.397
 8820SOL    HW227360   3.340   0.718   4.506
 8821SOL     OW27361   1.031   4.703   0.398
 8821SOL    HW127362   0.955   4.768   0.393
 8821SOL    HW227363   1.011   4.623   0.342
 8822SOL     OW27364   6.852   6.496   3.656
 8822SOL    HW127365   6.771   6.495   3.714
 8822SOL    HW227366   6.828   6.464   3.565
 8823SOL     OW27367   3.768   1.106   2.938
 8823SOL    HW127368   3.742   1.030   2.998
 8823SOL    HW227369   3.863   1.095   2.909
 8824SOL     OW27370   2.336   0.981   1.670
 8824SOL    HW127371   2.366   0.977   1.574
 8824SOL    HW227372   2.247   1.026   1.675
 8825SOL     OW27373   0.002   7.008   0.001
 8825SOL    HW127374   0.086   6.956   7.016
 8825SOL    HW227375   0.023   0.078   0.027
 8826SOL     OW27376   0.630   3.253   0.992
 8826SOL    HW127377   0.687   3.303   1.057
 8826SOL    HW227378   0.682   3.234   0.909
 8827SOL     OW27379   4.225   0.108   2.528
 8827SOL    HW127380   4.223   0.176   2.454
 8827SOL    HW227381   4.253   0.020   2.491
 8828SOL     OW27382   4.132   3.149   6.082
 8828SOL    HW127383   4.121   3.104   5.994
 8828SOL    HW227384   4.228   3.149   6.108
 8829SOL     OW27385   0.110   1.807   2.174
 8829SOL    HW127386   0.072   1.797   2.082
 8829SOL    HW227387   0.203   1.844   2.168
 8830SOL     OW27388   2.998   1.943   3.336
 8830SOL    HW127389   2.961   1.878   3.271
 8830SOL    HW227390   2.925   1.974   3.398
 8831SOL     OW27391   0.058   2.409   1.597
 8831SOL    HW127392   0.013   2.499   1.595
 8831SOL    HW227393   0.032   2.361   1.680
 8832SOL     OW27394   6.723   0.099   4.191
 8832SOL    HW127395   6.724   0.196   4.168
 8832SOL    HW227396   6.645   0.055   4.146
 8833SOL     OW27397   3.498   2.505   0.495
 8833SOL    HW127398   3.417   2.518   0.552
 8833SOL    HW227399   3.515   2.407   0.482
 8834SOL     OW27400   5.274   4.079   5.626
 8834SOL    HW127401   5.203   4.076   5.696
 8834SOL    HW227402   5.237   4.047   5.539
 8835SOL     OW27403   6.083   0.858   5.404
 8835SOL    HW127404   6.129   0.816   5.326
 8835SOL    HW227405   6.069   0.955   5.387
 8836SOL     OW27406   5.151   1.677   6.851
 8836SOL    HW127407   5.175   1.771   6.828
 8836SOL    HW227408   5.150   1.621   6.768
 8837SOL     OW27409   5.613   6.935   1.529
 8837SOL    HW127410   5.634   6.873   1.454
 8837SOL    HW227411   5.694   6.987   1.554
 8838SOL     OW27412   0.266   4.170   2.873
 8838SOL    HW127413   0.223   4.152   2.962
 8838SOL    HW227414   0.353   4.218   2.888
 8839SOL     OW27415   4.970   6.075   3.144
 8839SOL    HW127416   4.907   6.049   3.217
 8839SOL    HW227417   5.048   6.012   3.143
 8840SOL     OW27418   0.171   1.059   1.447
 8840SOL    HW127419   0.102   1.080   1.377
 8840SOL    HW227420   0.258   1.039   1.402
 8841SOL     OW27421   3.447   1.665   1.868
 8841SOL    HW127422   3.445   1.711   1.957
 8841SOL    HW227423   3.541   1.665   1.833
 8842SOL     OW27424   3.922   3.059   4.273
 8842SOL    HW127425   3.850   2.990   4.278
 8842SOL    HW227426   3.889   3.144   4.314
 8843SOL     OW27427   1.952   4.150   5.319
 8843SOL    HW127428   2.029   4.090   5.300
 8843SOL    HW227429   1.912   4.126   5.407
 8844SOL     OW27430   5.083   1.668   5.198
 8844SOL    HW127431   5.043   1.576   5.201
 8844SOL    HW227432   5.014   1.735   5.221
 8845SOL     OW27433   1.039   5.340   1.697
 8845SOL    HW127434   1.030   5.410   1.767
 8845SOL    HW227435   1.121   5.286   1.715
 8846SOL     OW27436   5.478   4.755   2.950
 8846SOL    HW127437   5.569   4.793   2.966
 8846SOL    HW227438   5.438   4.727   3.038
 8847SOL     OW27439   2.407   2.114   2.766
 8847SOL    HW127440   2.372   2.091   2.857
 8847SOL    HW227441   2.464   2.196   2.772
 8848SOL     OW27442   3.614   1.866   1.102
 8848SOL    HW127443   3.551   1.813   1.158
 8848SOL    HW227444   3.566   1.942   1.059
 8849SOL     OW27445   3.256   5.596   4.410
 8849SOL    HW127446   3.275   5.499   4.425
 8849SOL    HW227447   3.165   5.607   4.370
 8850SOL     OW27448   3.192   2.005   0.703
 8850SOL    HW127449   3.200   2.019   0.801
 8850SOL    HW227450   3.096   1.987   0.679
 8851SOL     OW27451   0.426   4.910   3.451
 8851SOL    HW127452   0.444   4.886   3.356
 8851SOL    HW227453   0.404   5.008   3.457
 8852SOL     OW27454   5.572   2.628   5.838
 8852SOL    HW127455   5.537   2.558   5.775
 8852SOL    HW227456   5.499   2.692   5.861
 8853SOL     OW27457   4.386   0.828   5.443
 8853SOL    HW127458   4.475   0.872   5.443
 8853SOL    HW227459   4.315   0.897   5.454
 8854SOL     OW27460   1.757   1.906   6.057
 8854SOL    HW127461   1.837   1.896   6.118
 8854SOL    HW227462   1.784   1.886   5.963
 8855SOL     OW27463   6.040   5.861   6.669
 8855SOL    HW127464   6.074   5.934   6.727
 8855SOL    HW227465   5.970   5.809   6.719
 8856SOL     OW27466   6.118   1.069   4.874
 8856SOL    HW127467   6.077   1.148   4.919
 8856SOL    HW227468   6.048   1.022   4.820
 8857SOL     OW27469   6.266   1.828   3.871
 8857SOL    HW127470   6.246   1.864   3.962
 8857SOL    HW227471   6.223   1.886   3.802
 8858SOL     OW27472   0.710   3.716   6.029
 8858SOL    HW127473   0.761   3.774   5.965
 8858SOL    HW227474   0.768   3.694   6.107
 8859SOL     OW27475   1.150   6.065   5.743
 8859SOL    HW127476   1.167   5.976   5.702
 8859SOL    HW227477   1.052   6.077   5.758
 8860SOL     OW27478   0.942   1.949   2.634
 8860SOL    HW127479   0.966   2.033   2.586
 8860SOL    HW227480   0.911   1.971   2.727
 8861SOL     OW27481   4.224   3.617   0.648
 8861SOL    HW127482   4.157   3.651   0.714
 8861SOL    HW227483   4.265   3.533   0.682
 8862SOL     OW27484   5.876   1.393   4.540
 8862SOL    HW127485   5.791   1.390   4.487
 8862SOL    HW227486   5.936   1.464   4.504
 8863SOL     OW27487   1.994   5.755   4.987
 8863SOL    HW127488   2.026   5.816   5.060
 8863SOL    HW227489   2.072   5.714   4.941
 8864SOL     OW27490   1.679   3.076   6.201
 8864SOL    HW127491   1.675   2.985   6.241
 8864SOL    HW227492   1.774   3.108   6.198
 8865SOL     OW27493   2.720   2.116   5.854
 8865SOL    HW127494   2.780   2.182   5.899
 8865SOL    HW227495   2.768   2.073   5.778
 8866SOL     OW27496   3.564   6.480   3.465
 8866SOL    HW127497   3.494   6.427   3.417
 8866SOL    HW227498   3.525   6.569   3.492
 8867SOL     OW27499   5.793   2.149   3.455
 8867SOL    HW127500   5.693   2.152   3.462
 8867SOL    HW227501   5.832   2.224   3.508
 8868SOL     OW27502   4.935   4.267   0.783
 8868SOL    HW127503   4.859   4.241   0.843
 8868SOL    HW227504   4.899   4.307   0.699
 8869SOL     OW27505   4.856   3.216   3.122
 8869SOL    HW127506   4.873   3.199   3.024
 8869SOL    HW227507   4.853   3.128   3.170
 8870SOL     OW27508   4.206   1.528   0.782
 8870SOL    HW127509   4.140   1.565   0.847
 8870SOL    HW227510   4.226   1.433   0.804
 8871SOL     OW27511   2.357   1.745   3.438
 8871SOL    HW127512   2.286   1.750   3.367
 8871SOL    HW227513   2.342   1.663   3.493
 8872SOL     OW27514   1.824   4.017   4.356
 8872SOL    HW127515   1.801   4.106   4.317
 8872SOL    HW227516   1.849   4.028   4.452
 8873SOL     OW27517   0.575   5.286   4.372
 8873SOL    HW127518   0.651   5.328   4.422
 8873SOL    HW227519   0.509   5.250   4.437
 8874SOL     OW27520   2.572   0.669   0.641
 8874SOL    HW127521   2.657   0.676   0.589
 8874SOL    HW227522   2.569   0.582   0.689
 8875SOL     OW27523   1.333   2.567   4.385
 8875SOL    HW127524   1.418   2.614   4.410
 8875SOL    HW227525   1.350   2.469   4.380
 8876SOL     OW27526   0.671   0.876   4.865
 8876SOL    HW127527   0.725   0.925   4.796
 8876SOL    HW227528   0.574   0.880   4.841
 8877SOL     OW27529   2.888   0.687   4.450
 8877SOL    HW127530   2.879   0.642   4.539
 8877SOL    HW227531   2.913   0.783   4.463
 8878SOL     OW27532   0.126   4.068   0.020
 8878SOL    HW127533   0.184   4.134   6.997
 8878SOL    HW227534   0.107   3.991   6.984
 8879SOL     OW27535   5.449   6.459   0.074
 8879SOL    HW127536   5.513   6.383   0.064
 8879SOL    HW227537   5.493   6.544   0.045
 8880SOL     OW27538   6.568   4.604   4.409
 8880SOL    HW127539   6.615   4.531   4.458
 8880SOL    HW227540   6.635   4.670   4.375
 8881SOL     OW27541   0.294   1.381   1.640
 8881SOL    HW127542   0.335   1.425   1.719
 8881SOL    HW227543   0.196   1.367   1.656
 8882SOL     OW27544   5.476   1.939   6.622
 8882SOL    HW127545   5.455   1.996   6.543
 8882SOL    HW227546   5.538   1.989   6.684
 8883SOL     OW27547   6.145   0.425   5.649
 8883SOL    HW127548   6.185   0.385   5.731
 8883SOL    HW227549   6.045   0.428   5.658
 8884SOL     OW27550   5.616   0.050   6.028
 8884SOL    HW127551   5.669   0.124   5.988
 8884SOL    HW227552   5.674   6.992   6.035
 8885SOL     OW27553   5.335   3.781   1.605
 8885SOL    HW127554   5.374   3.857   1.553
 8885SOL    HW227555   5.408   3.731   1.651
 8886SOL     OW27556   2.754   6.547   6.105
 8886SOL    HW127557   2.680   6.542   6.038
 8886SOL    HW227558   2.764   6.458   6.150
 8887SOL     OW27559   3.037   1.046   1.254
 8887SOL    HW127560   3.131   1.043   1.218
 8887SOL    HW227561   3.039   1.086   1.346
 8888SOL     OW27562   2.546   1.330   1.860
 8888SOL    HW127563   2.565   1.373   1.772
 8888SOL    HW227564   2.587   1.239   1.862
 8889SOL     OW27565   4.659   6.927   4.846
 8889SOL    HW127566   4.611   6.863   4.786
 8889SOL    HW227567   4.738   6.964   4.799
 8890SOL     OW27568   0.494   5.434   4.781
 8890SOL    HW127569   0.556   5.410   4.856
 8890SOL    HW227570   0.477   5.353   4.725
 8891SOL     OW27571   5.176   3.014   6.512
 8891SOL    HW127572   5.094   3.020   6.569
 8891SOL    HW227573   5.212   2.921   6.515
 8892SOL     OW27574   1.704   0.495   3.234
 8892SOL    HW127575   1.677   0.539   3.149
 8892SOL    HW227576   1.643   0.524   3.308
 8893SOL     OW27577   0.353   1.599   0.731
 8893SOL    HW127578   0.308   1.511   0.714
 8893SOL    HW227579   0.285   1.665   0.762
 8894SOL     OW27580   4.356   2.390   6.253
 8894SOL    HW127581   4.284   2.391   6.322
 8894SOL    HW227582   4.445   2.376   6.298
 8895SOL     OW27583   0.859   6.823   2.055
 8895SOL    HW127584   0.799   6.775   2.119
 8895SOL    HW227585   0.929   6.873   2.107
 8896SOL     OW27586   1.935   4.085   4.607
 8896SOL    HW127587   1.885   4.143   4.671
 8896SOL    HW227588   2.028   4.071   4.641
 8897SOL     OW27589   1.685   1.415   1.588
 8897SOL    HW127590   1.737   1.500   1.581
 8897SOL    HW227591   1.699   1.361   1.505
 8898SOL     OW27592   6.184   3.475   4.263
 8898SOL    HW127593   6.201   3.534   4.184
 8898SOL    HW227594   6.242   3.504   4.339
 8899SOL     OW27595   2.153   4.729   0.456
 8899SOL    HW127596   2.215   4.797   0.417
 8899SOL    HW227597   2.097   4.772   0.527
 8900SOL     OW27598   4.701   2.403   3.035
 8900SOL    HW127599   4.643   2.328   3.004
 8900SOL    HW227600   4.646   2.471   3.083
 8901SOL     OW27601   1.251   0.204   2.523
 8901SOL    HW127602   1.181   0.219   2.454
 8901SOL    HW227603   1.209   0.190   2.612
 8902SOL     OW27604   1.451   5.664   6.041
 8902SOL    HW127605   1.386   5.667   6.117
 8902SOL    HW227606   1.451   5.572   6.000
 8903SOL     OW27607   1.946   1.649   4.006
 8903SOL    HW127608   1.889   1.592   4.065
 8903SOL    HW227609   1.933   1.622   3.911
 8904SOL     OW27610   0.082   5.769   3.883
 8904SOL    HW127611   7.011   5.788   3.908
 8904SOL    HW227612   0.096   5.791   3.786
 8905SOL     OW27613   2.533   3.260   5.676
 8905SOL    HW127614   2.451   3.312   5.697
 8905SOL    HW227615   2.577   3.230   5.761
 8906SOL     OW27616   6.918   6.182   5.993
 8906SOL    HW127617   6.878   6.253   5.934
 8906SOL    HW227618   6.858   6.167   6.071
 8907SOL     OW27619   3.209   2.595   5.334
 8907SOL    HW127620   3.195   2.508   5.287
 8907SOL    HW227621   3.282   2.585   5.401
 8908SOL     OW27622   1.416   2.057   1.392
 8908SOL    HW127623   1.420   2.139   1.335
 8908SOL    HW227624   1.392   2.082   1.485
 8909SOL     OW27625   2.483   0.878   6.219
 8909SOL    HW127626   2.410   0.902   6.155
 8909SOL    HW227627   2.510   0.958   6.271
 8910SOL     OW27628   2.729   3.186   6.687
 8910SOL    HW127629   2.807   3.195   6.748
 8910SOL    HW227630   2.724   3.266   6.626
 8911SOL     OW27631   3.427   2.074   4.584
 8911SOL    HW127632   3.499   2.139   4.562
 8911SOL    HW227633   3.423   2.059   4.683
 8912SOL     OW27634   4.522   1.771   6.140
 8912SOL    HW127635   4.611   1.811   6.164
 8912SOL    HW227636   4.454   1.844   6.130
 8913SOL     OW27637   4.870   4.187   1.621
 8913SOL    HW127638   4.907   4.275   1.650
 8913SOL    HW227639   4.770   4.188   1.631
 8914SOL     OW27640   3.639   1.808   5.036
 8914SOL    HW127641   3.545   1.834   5.013
 8914SOL    HW227642   3.684   1.771   4.955
 8915SOL     OW27643   1.749   3.421   2.934
 8915SOL    HW127644   1.824   3.400   2.996
 8915SOL    HW227645   1.677   3.353   2.944
 8916SOL     OW27646   6.606   4.442   2.865
 8916SOL    HW127647   6.576   4.359   2.819
 8916SOL    HW227648   6.530   4.479   2.919
 8917SOL     OW27649   6.059   6.194   6.996
 8917SOL    HW127650   6.112   6.200   0.056
 8917SOL    HW227651   6.007   6.279   6.983
 8918SOL     OW27652   5.192   6.018   6.078
 8918SOL    HW127653   5.105   6.067   6.087
 8918SOL    HW227654   5.229   6.000   6.170
 8919SOL     OW27655   3.458   4.939   0.973
 8919SOL    HW127656   3.430   4.857   1.023
 8919SOL    HW227657   3.537   4.918   0.915
 8920SOL     OW27658   6.208   5.077   5.784
 8920SOL    HW127659   6.177   5.054   5.692
 8920SOL    HW227660   6.213   5.176   5.794
 8921SOL     OW27661   1.192   0.840   3.876
 8921SOL    HW127662   1.195   0.871   3.781
 8921SOL    HW227663   1.183   0.740   3.878
 8922SOL     OW27664   1.601   4.666   0.844
 8922SOL    HW127665   1.620   4.721   0.763
 8922SOL    HW227666   1.504   4.674   0.868
 8923SOL     OW27667   1.799   4.065   6.304
 8923SOL    HW127668   1.828   4.136   6.367
 8923SOL    HW227669   1.812   4.097   6.210
 8924SOL     OW27670   3.382   5.068   5.120
 8924SOL    HW127671   3.346   5.050   5.028
 8924SOL    HW227672   3.373   5.165   5.141
 8925SOL     OW27673   6.916   0.076   2.173
 8925SOL    HW127674   6.988   0.071   2.241
 8925SOL    HW227675   6.897   0.172   2.150
 8926SOL     OW27676   5.466   2.195   1.904
 8926SOL    HW127677   5.564   2.210   1.889
 8926SOL    HW227678   5.452   2.105   1.945
 8927SOL     OW27679   2.136   2.651   4.905
 8927SOL    HW127680   2.226   2.690   4.888
 8927SOL    HW227681   2.088   2.636   4.819
 8928SOL     OW27682   0.867   0.367   5.937
 8928SOL    HW127683   0.921   0.290   5.905
 8928SOL    HW227684   0.886   0.447   5.880
 8929SOL     OW27685   0.041   3.588   4.052
 8929SOL    HW127686   0.112   3.657   4.068
 8929SOL    HW227687   7.023   3.605   3.963
 8930SOL     OW27688   1.614   5.079   4.624
 8930SOL    HW127689   1.593   5.164   4.672
 8930SOL    HW227690   1.545   5.061   4.555
 8931SOL     OW27691   4.650   1.476   1.226
 8931SOL    HW127692   4.633   1.389   1.179
 8931SOL    HW227693   4.730   1.521   1.186
 8932SOL     OW27694   6.090   0.592   6.241
 8932SOL    HW127695   6.142   0.678   6.242
 8932SOL    HW227696   6.091   0.554   6.149
 8933SOL     OW27697   1.804   0.569   4.847
 8933SOL    HW127698   1.730   0.542   4.785
 8933SOL    HW227699   1.889   0.524   4.819
 8934SOL     OW27700   3.212   5.581   2.919
 8934SOL    HW127701   3.192   5.572   2.822
 8934SOL    HW227702   3.273   5.508   2.948
 8935SOL     OW27703   4.286   2.335   2.634
 8935SOL    HW127704   4.353   2.311   2.564
 8935SOL    HW227705   4.199   2.356   2.591
 8936SOL     OW27706   0.672   4.983   1.519
 8936SOL    HW127707   0.677   5.052   1.447
 8936SOL    HW227708   0.619   4.905   1.486
 8937SOL     OW27709   0.032   6.493   3.854
 8937SOL    HW127710   0.094   6.416   3.837
 8937SOL    HW227711   7.008   6.517   3.770
 8938SOL     OW27712   6.590   1.142   0.477
 8938SOL    HW127713   6.636   1.092   0.404
 8938SOL    HW227714   6.541   1.220   0.440
 8939SOL     OW27715   0.031   2.559   3.987
 8939SOL    HW127716   0.071   2.545   4.077
 8939SOL    HW227717   0.096   2.610   3.930
 8940SOL     OW27718   6.719   2.939   0.771
 8940SOL    HW127719   6.625   2.946   0.804
 8940SOL    HW227720   6.761   2.856   0.808
 8941SOL     OW27721   5.253   2.342   2.019
 8941SOL    HW127722   5.321   2.298   1.961
 8941SOL    HW227723   5.201   2.408   1.965
 8942SOL     OW27724   6.308   4.519   3.497
 8942SOL    HW127725   6.276   4.433   3.536
 8942SOL    HW227726   6.244   4.592   3.520
 8943SOL     OW27727   4.687   3.867   6.935
 8943SOL    HW127728   4.665   3.949   6.987
 8943SOL    HW227729   4.626   3.792   6.962
 8944SOL     OW27730   4.990   5.389   3.974
 8944SOL    HW127731   4.918   5.458   3.969
 8944SOL    HW227732   4.960   5.313   4.031
 8945SOL     OW27733   5.904   4.427   5.154
 8945SOL    HW127734   5.888   4.338   5.196
 8945SOL    HW227735   5.924   4.416   5.057
 8946SOL     OW27736   5.261   1.177   4.444
 8946SOL    HW127737   5.332   1.192   4.513
 8946SOL    HW227738   5.222   1.265   4.417
 8947SOL     OW27739   1.539   5.111   5.995
 8947SOL    HW127740   1.610   5.058   6.042
 8947SOL    HW227741   1.559   5.114   5.897
 8948SOL     OW27742   6.579   0.647   3.458
 8948SOL    HW127743   6.583   0.696   3.545
 8948SOL    HW227744   6.496   0.673   3.409
 8949SOL     OW27745   3.022   6.075   7.002
 8949SOL    HW127746   3.047   6.091   0.073
 8949SOL    HW227747   2.984   6.159   6.964
 8950SOL     OW27748   4.707   3.953   1.382
 8950SOL    HW127749   4.631   4.010   1.412
 8950SOL    HW227750   4.738   3.984   1.292
 8951SOL     OW27751   1.784   1.535   4.444
 8951SOL    HW127752   1.803   1.550   4.541
 8951SOL    HW227753   1.687   1.511   4.433
 8952SOL     OW27754   2.000   4.817   3.976
 8952SOL    HW127755   1.944   4.738   3.999
 8952SOL    HW227756   1.961   4.899   4.019
 8953SOL     OW27757   2.010   5.105   2.222
 8953SOL    HW127758   2.027   5.040   2.148
 8953SOL    HW227759   1.997   5.055   2.308
 8954SOL     OW27760   1.165   5.223   5.124
 8954SOL    HW127761   1.255   5.179   5.120
 8954SOL    HW227762   1.130   5.219   5.217
 8955SOL     OW27763   5.318   2.470   3.718
 8955SOL    HW127764   5.294   2.393   3.777
 8955SOL    HW227765   5.414   2.495   3.732
 8956SOL     OW27766   1.222   5.699   5.833
 8956SOL    HW127767   1.189   5.752   5.755
 8956SOL    HW227768   1.322   5.706   5.838
 8957SOL     OW27769   0.877   5.484   2.469
 8957SOL    HW127770   0.814   5.432   2.527
 8957SOL    HW227771   0.971   5.466   2.498
 8958SOL     OW27772   1.462   3.922   5.059
 8958SOL    HW127773   1.498   3.910   4.967
 8958SOL    HW227774   1.363   3.905   5.058
 8959SOL     OW27775   0.371   3.104   2.615
 8959SOL    HW127776   0.382   3.191   2.663
 8959SOL    HW227777   0.415   3.109   2.525
 8960SOL     OW27778   5.744   4.278   4.397
 8960SOL    HW127779   5.718   4.375   4.393
 8960SOL    HW227780   5.685   4.226   4.335
 8961SOL     OW27781   3.458   0.036   4.988
 8961SOL    HW127782   3.555   0.058   4.980
 8961SOL    HW227783   3.426   7.019   4.902
 8962SOL     OW27784   0.861   5.625   1.393
 8962SOL    HW127785   0.831   5.713   1.358
 8962SOL    HW227786   0.796   5.592   1.461
 8963SOL     OW27787   3.458   6.124   4.454
 8963SOL    HW127788   3.441   6.141   4.357
 8963SOL    HW227789   3.370   6.118   4.502
 8964SOL     OW27790   0.001   2.990   4.450
 8964SOL    HW127791   7.023   3.086   4.424
 8964SOL    HW227792   6.933   2.951   4.448
 8965SOL     OW27793   4.626   5.449   0.252
 8965SOL    HW127794   4.689   5.382   0.292
 8965SOL    HW227795   4.656   5.541   0.277
 8966SOL     OW27796   5.084   5.373   6.153
 8966SOL    HW127797   5.116   5.420   6.235
 8966SOL    HW227798   5.074   5.438   6.078
 8967SOL     OW27799   3.337   0.183   2.888
 8967SOL    HW127800   3.318   0.091   2.854
 8967SOL    HW227801   3.250   0.232   2.899
 8968SOL     OW27802   3.566   5.019   2.187
 8968SOL    HW127803   3.595   4.939   2.135
 8968SOL    HW227804   3.505   4.991   2.261
 8969SOL     OW27805   7.008   1.044   3.385
 8969SOL    HW127806   7.002   1.144   3.384
 8969SOL    HW227807   7.023   1.012   3.478
 8970SOL     OW27808   1.688   0.868   5.964
 8970SOL    HW127809   1.764   0.825   5.915
 8970SOL    HW227810   1.641   0.799   6.019
 8971SOL     OW27811   4.398   5.686   0.521
 8971SOL    HW127812   4.491   5.679   0.555
 8971SOL    HW227813   4.345   5.749   0.578
 8972SOL     OW27814   6.566   4.181   0.867
 8972SOL    HW127815   6.572   4.084   0.889
 8972SOL    HW227816   6.567   4.234   0.952
 8973SOL     OW27817   0.354   2.510   2.114
 8973SOL    HW127818   0.295   2.429   2.125
 8973SOL    HW227819   0.299   2.593   2.126
 8974SOL     OW27820   2.218   4.151   4.473
 8974SOL    HW127821   2.167   4.092   4.411
 8974SOL    HW227822   2.236   4.102   4.558
 8975SOL     OW27823   0.350   6.896   6.446
 8975SOL    HW127824   0.369   6.898   6.544
 8975SOL    HW227825   0.258   6.931   6.429
 8976SOL     OW27826   6.488   6.659   1.878
 8976SOL    HW127827   6.566   6.620   1.926
 8976SOL    HW227828   6.507   6.755   1.856
 8977SOL     OW27829   0.386   4.834   6.142
 8977SOL    HW127830   0.362   4.919   6.095
 8977SOL    HW227831   0.471   4.846   6.193
 8978SOL     OW27832   5.787   5.401   5.465
 8978SOL    HW127833   5.884   5.389   5.484
 8978SOL    HW227834   5.765   5.499   5.467
 8979SOL     OW27835   0.914   5.227   5.619
 8979SOL    HW127836   0.890   5.139   5.660
 8979SOL    HW227837   0.938   5.292   5.691
 8980SOL     OW27838   3.571   0.658   5.100
 8980SOL    HW127839   3.525   0.635   5.185
 8980SOL    HW227840   3.509   0.713   5.043
 8981SOL     OW27841   4.286   3.094   6.908
 8981SOL    HW127842   4.210   3.138   6.955
 8981SOL    HW227843   4.258   3.004   6.876
 8982SOL     OW27844   0.703   1.297   1.307
 8982SOL    HW127845   0.612   1.297   1.265
 8982SOL    HW227846   0.740   1.390   1.304
 8983SOL     OW27847   0.845   6.825   3.090
 8983SOL    HW127848   0.810   6.737   3.057
 8983SOL    HW227849   0.940   6.814   3.120
 8984SOL     OW27850   5.817   0.167   4.322
 8984SOL    HW127851   5.789   0.076   4.355
 8984SOL    HW227852   5.916   0.174   4.324
 8985SOL     OW27853   4.576   2.686   0.718
 8985SOL    HW127854   4.486   2.707   0.681
 8985SOL    HW227855   4.570   2.677   0.818
 8986SOL     OW27856   0.037   5.017   0.459
 8986SOL    HW127857   6.984   5.028   0.397
 8986SOL    HW227858   0.029   5.082   0.534
 8987SOL     OW27859   2.299   0.212   1.383
 8987SOL    HW127860   2.280   0.130   1.437
 8987SOL    HW227861   2.213   0.248   1.345
 8988SOL     OW27862   0.861   5.500   1.062
 8988SOL    HW127863   0.880   5.580   1.119
 8988SOL    HW227864   0.925   5.427   1.086
 8989SOL     OW27865   5.570   1.415   1.911
 8989SOL    HW127866   5.505   1.489   1.895
 8989SOL    HW227867   5.626   1.402   1.829
 8990SOL     OW27868   3.557   0.541   2.026
 8990SOL    HW127869   3.608   0.489   2.095
 8990SOL    HW227870   3.465   0.559   2.061
 8991SOL     OW27871   1.942   2.662   0.578
 8991SOL    HW127872   1.891   2.651   0.663
 8991SOL    HW227873   2.037   2.686   0.600
 8992SOL     OW27874   0.379   3.224   0.178
 8992SOL    HW127875   0.290   3.189   0.150
 8992SOL    HW227876   0.452   3.172   0.133
 8993SOL     OW27877   5.539   2.665   3.831
 8993SOL    HW127878   5.458   2.709   3.867
 8993SOL    HW227879   5.577   2.603   3.899
 8994SOL     OW27880   0.747   4.976   3.170
 8994SOL    HW127881   0.805   4.906   3.211
 8994SOL    HW227882   0.779   5.066   3.197
 8995SOL     OW27883   1.890   3.907   4.816
 8995SOL    HW127884   1.911   3.942   4.725
 8995SOL    HW227885   1.969   3.854   4.850
 8996SOL     OW27886   0.225   3.916   2.747
 8996SOL    HW127887   0.262   3.847   2.809
 8996SOL    HW227888   0.249   4.007   2.781
 8997SOL     OW27889   4.603   1.632   5.152
 8997SOL    HW127890   4.637   1.539   5.136
 8997SOL    HW227891   4.643   1.694   5.084
 8998SOL     OW27892   1.603   2.137   5.732
 8998SOL    HW127893   1.686   2.167   5.686
 8998SOL    HW227894   1.594   2.038   5.724
 8999SOL     OW27895   6.393   1.192   4.634
 8999SOL    HW127896   6.411   1.181   4.732
 8999SOL    HW227897   6.309   1.244   4.621
 9000SOL     OW27898   2.973   4.425   0.284
 9000SOL    HW127899   3.066   4.439   0.251
 9000SOL    HW227900   2.971   4.344   0.343
 9001SOL     OW27901   1.742   5.332   3.829
 9001SOL    HW127902   1.828   5.306   3.872
 9001SOL    HW227903   1.760   5.360   3.734
 9002SOL     OW27904   5.779   4.361   6.061
 9002SOL    HW127905   5.714   4.382   5.987
 9002SOL    HW227906   5.743   4.395   6.148
 9003SOL     OW27907   5.693   2.491   6.831
 9003SOL    HW127908   5.760   2.505   6.758
 9003SOL    HW227909   5.736   2.507   6.920
 9004SOL     OW27910   4.630   6.485   1.072
 9004SOL    HW127911   4.705   6.431   1.034
 9004SOL    HW227912   4.657   6.582   1.073
 9005SOL     OW27913   5.070   1.792   3.469
 9005SOL    HW127914   4.987   1.814   3.521
 9005SOL    HW227915   5.111   1.709   3.505
 9006SOL     OW27916   1.072   5.319   1.148
 9006SOL    HW127917   1.167   5.351   1.155
 9006SOL    HW227918   1.046   5.274   1.233
 9007SOL     OW27919   3.311   6.520   4.030
 9007SOL    HW127920   3.354   6.448   3.976
 9007SOL    HW227921   3.215   6.497   4.047
 9008SOL     OW27922   0.046   4.626   2.381
 9008SOL    HW127923   0.042   4.724   2.396
 9008SOL    HW227924   0.075   4.580   2.465
 9009SOL     OW27925   3.167   6.318   0.190
 9009SOL    HW127926   3.129   6.240   0.241
 9009SOL    HW227927   3.262   6.330   0.216
 9010SOL     OW27928   1.214   6.169   5.322
 9010SOL    HW127929   1.297   6.130   5.281
 9010SOL    HW227930   1.143   6.099   5.325
 9011SOL     OW27931   4.485   1.924   0.608
 9011SOL    HW127932   4.432   1.841   0.624
 9011SOL    HW227933   4.565   1.903   0.553
 9012SOL     OW27934   0.386   4.853   1.653
 9012SOL    HW127935   0.461   4.833   1.589
 9012SOL    HW227936   0.313   4.900   1.604
 9013SOL     OW27937   6.446   5.969   3.090
 9013SOL    HW127938   6.530   6.005   3.048
 9013SOL    HW227939   6.421   6.026   3.168
 9014SOL     OW27940   2.207   0.910   0.899
 9014SOL    HW127941   2.298   0.923   0.859
 9014SOL    HW227942   2.174   0.818   0.879
 9015SOL     OW27943   0.346   0.975   5.945
 9015SOL    HW127944   0.279   0.961   6.019
 9015SOL    HW227945   0.361   0.888   5.898
 9016SOL     OW27946   6.164   6.062   6.449
 9016SOL    HW127947   6.132   6.155   6.433
 9016SOL    HW227948   6.127   6.027   6.535
 9017SOL     OW27949   6.379   2.193   3.713
 9017SOL    HW127950   6.395   2.270   3.774
 9017SOL    HW227951   6.452   2.126   3.723
 9018SOL     OW27952   3.733   2.280   5.396
 9018SOL    HW127953   3.644   2.253   5.360
 9018SOL    HW227954   3.759   2.369   5.358
 9019SOL     OW27955   2.198   0.257   0.417
 9019SOL    HW127956   2.278   0.213   0.376
 9019SOL    HW227957   2.218   0.353   0.434
 9020SOL     OW27958   1.101   4.467   2.768
 9020SOL    HW127959   1.149   4.398   2.714
 9020SOL    HW227960   1.030   4.423   2.823
 9021SOL     OW27961   6.675   5.866   5.180
 9021SOL    HW127962   6.637   5.936   5.120
 9021SOL    HW227963   6.757   5.827   5.139
 9022SOL     OW27964   2.626   1.097   0.155
 9022SOL    HW127965   2.566   1.129   0.082
 9022SOL    HW227966   2.579   1.026   0.208
 9023SOL     OW27967   3.905   3.046   3.800
 9023SOL    HW127968   3.893   3.118   3.731
 9023SOL    HW227969   3.855   2.964   3.773
 9024SOL     OW27970   1.871   6.670   6.735
 9024SOL    HW127971   1.809   6.631   6.667
 9024SOL    HW227972   1.829   6.750   6.776
 9025SOL     OW27973   5.961   5.225   1.290
 9025SOL    HW127974   5.926   5.247   1.381
 9025SOL    HW227975   5.928   5.294   1.225
 9026SOL     OW27976   3.514   2.836   5.142
 9026SOL    HW127977   3.569   2.846   5.225
 9026SOL    HW227978   3.418   2.829   5.166
 9027SOL     OW27979   2.789   2.329   3.508
 9027SOL    HW127980   2.823   2.285   3.424
 9027SOL    HW227981   2.703   2.376   3.489
 9028SOL     OW27982   2.889   4.794   5.230
 9028SOL    HW127983   2.948   4.735   5.285
 9028SOL    HW227984   2.853   4.742   5.152
 9029SOL     OW27985   4.801   6.343   3.349
 9029SOL    HW127986   4.725   6.278   3.355
 9029SOL    HW227987   4.817   6.366   3.253
 9030SOL     OW27988   2.268   0.608   2.376
 9030SOL    HW127989   2.315   0.695   2.393
 9030SOL    HW227990   2.173   0.626   2.349
 9031SOL     OW27991   2.755   5.898   6.110
 9031SOL    HW127992   2.784   5.804   6.130
 9031SOL    HW227993   2.836   5.955   6.095
 9032SOL     OW27994   2.502   1.758   1.708
 9032SOL    HW127995   2.496   1.753   1.807
 9032SOL    HW227996   2.545   1.844   1.681
 9033SOL     OW27997   1.892   3.651   2.885
 9033SOL    HW127998   1.971   3.620   2.936
 9033SOL    HW227999   1.831   3.573   2.867
 9034SOL     OW28000   3.326   6.409   5.862
 9034SOL    HW128001   3.231   6.393   5.888
 9034SOL    HW228002   3.350   6.505   5.877
 9035SOL     OW28003   0.256   1.030   4.488
 9035SOL    HW128004   0.278   1.036   4.391
 9035SOL    HW228005   0.252   1.123   4.527
 9036SOL     OW28006   0.799   2.949   5.689
 9036SOL    HW128007   0.859   2.905   5.756
 9036SOL    HW228008   0.736   3.010   5.737
 9037SOL     OW28009   2.267   4.257   6.346
 9037SOL    HW128010   2.196   4.279   6.278
 9037SOL    HW228011   2.225   4.250   6.436
 9038SOL     OW28012   4.506   6.281   5.405
 9038SOL    HW128013   4.455   6.261   5.321
 9038SOL    HW228014   4.461   6.357   5.453
 9039SOL     OW28015   1.886   5.317   4.987
 9039SOL    HW128016   1.926   5.251   4.923
 9039SOL    HW228017   1.906   5.410   4.955
 9040SOL     OW28018   1.701   1.600   2.717
 9040SOL    HW128019   1.639   1.532   2.678
 9040SOL    HW228020   1.776   1.554   2.765
 9041SOL     OW28021   1.288   3.181   0.895
 9041SOL    HW128022   1.332   3.106   0.944
 9041SOL    HW228023   1.296   3.265   0.948
 9042SOL     OW28024   2.757   4.773   3.302
 9042SOL    HW128025   2.833   4.731   3.251
 9042SOL    HW228026   2.778   4.770   3.400
 9043SOL     OW28027   0.754   2.578   5.931
 9043SOL    HW128028   0.809   2.573   6.014
 9043SOL    HW228029   0.798   2.526   5.858
 9044SOL     OW28030   6.353   0.705   1.190
 9044SOL    HW128031   6.407   0.649   1.254
 9044SOL    HW228032   6.369   0.673   1.097
 9045SOL     OW28033   2.697   6.942   3.289
 9045SOL    HW128034   2.644   7.023   3.263
 9045SOL    HW228035   2.685   6.924   3.386
 9046SOL     OW28036   3.466   4.092   4.966
 9046SOL    HW128037   3.377   4.073   4.923
 9046SOL    HW228038   3.454   4.160   5.038
 9047SOL     OW28039   1.144   4.412   4.380
 9047SOL    HW128040   1.146   4.320   4.418
 9047SOL    HW228041   1.140   4.479   4.455
 9048SOL     OW28042   0.517   3.712   4.585
 9048SOL    HW128043   0.556   3.787   4.638
 9048SOL    HW228044   0.418   3.715   4.592
 9049SOL     OW28045   5.524   6.537   6.267
 9049SOL    HW128046   5.484   6.603   6.204
 9049SOL    HW228047   5.586   6.583   6.330
 9050SOL     OW28048   0.030   4.664   6.801
 9050SOL    HW128049   0.071   4.582   6.839
 9050SOL    HW228050   6.955   4.654   6.798
 9051SOL     OW28051   5.651   6.272   6.983
 9051SOL    HW128052   5.600   6.334   6.925
 9051SOL    HW228053   5.663   6.184   6.935
 9052SOL     OW28054   2.387   5.119   4.408
 9052SOL    HW128055   2.477   5.080   4.388
 9052SOL    HW228056   2.365   5.188   4.339
 9053SOL     OW28057   2.348   2.682   4.022
 9053SOL    HW128058   2.420   2.646   4.081
 9053SOL    HW228059   2.388   2.746   3.956
 9054SOL     OW28060   2.315   0.402   1.589
 9054SOL    HW128061   2.226   0.446   1.593
 9054SOL    HW228062   2.319   0.341   1.511
 9055SOL     OW28063   0.561   2.426   4.028
 9055SOL    HW128064   0.492   2.483   3.984
 9055SOL    HW228065   0.588   2.467   4.115
 9056SOL     OW28066   5.241   0.351   3.019
 9056SOL    HW128067   5.141   0.345   3.015
 9056SOL    HW228068   5.270   0.363   3.114
 9057SOL     OW28069   6.314   6.203   6.657
 9057SOL    HW128070   6.353   6.289   6.626
 9057SOL    HW228071   6.254   6.165   6.585
 9058SOL     OW28072   1.817   3.100   5.083
 9058SOL    HW128073   1.858   3.020   5.039
 9058SOL    HW228074   1.726   3.116   5.044
 9059SOL     OW28075   6.458   2.066   2.906
 9059SOL    HW128076   6.554   2.060   2.876
 9059SOL    HW228077   6.444   2.005   2.983
 9060SOL     OW28078   0.399   3.526   1.775
 9060SOL    HW128079   0.459   3.539   1.696
 9060SOL    HW228080   0.367   3.615   1.807
 9061SOL     OW28081   5.197   5.547   1.759
 9061SOL    HW128082   5.293   5.532   1.782
 9061SOL    HW228083   5.179   5.511   1.667
 9062SOL     OW28084   0.622   4.639   3.619
 9062SOL    HW128085   0.560   4.712   3.647
 9062SOL    HW228086   0.569   4.557   3.597
 9063SOL     OW28087   2.976   0.909   2.474
 9063SOL    HW128088   3.025   0.986   2.515
 9063SOL    HW228089   3.028   0.874   2.396
 9064SOL     OW28090   0.489   3.974   3.524
 9064SOL    HW128091   0.487   4.058   3.579
 9064SOL    HW228092   0.575   3.925   3.542
 9065SOL     OW28093   2.573   5.547   4.855
 9065SOL    HW128094   2.660   5.595   4.871
 9065SOL    HW228095   2.564   5.472   4.922
 9066SOL     OW28096   5.286   4.829   5.773
 9066SOL    HW128097   5.319   4.914   5.734
 9066SOL    HW228098   5.364   4.772   5.801
 9067SOL     OW28099   6.405   0.308   4.847
 9067SOL    HW128100   6.484   0.356   4.810
 9067SOL    HW228101   6.433   0.218   4.880
 9068SOL     OW28102   4.870   0.106   4.438
 9068SOL    HW128103   4.947   0.055   4.399
 9068SOL    HW228104   4.807   0.132   4.365
 9069SOL     OW28105   4.608   1.971   1.925
 9069SOL    HW128106   4.663   2.010   1.852
 9069SOL    HW228107   4.613   1.871   1.921
 9070SOL     OW28108   1.325   1.697   5.657
 9070SOL    HW128109   1.387   1.623   5.683
 9070SOL    HW228110   1.231   1.662   5.656
 9071SOL     OW28111   5.092   1.306   5.778
 9071SOL    HW128112   5.010   1.350   5.814
 9071SOL    HW228113   5.165   1.374   5.766
 9072SOL     OW28114   5.352   0.490   2.223
 9072SOL    HW128115   5.293   0.483   2.303
 9072SOL    HW228116   5.396   0.579   2.222
 9073SOL     OW28117   4.004   1.033   6.850
 9073SOL    HW128118   3.980   0.971   6.924
 9073SOL    HW228119   4.067   0.988   6.786
 9074SOL     OW28120   1.380   6.945   1.275
 9074SOL    HW128121   1.349   7.018   1.336
 9074SOL    HW228122   1.318   6.867   1.282
 9075SOL     OW28123   6.849   0.747   1.532
 9075SOL    HW128124   6.771   0.720   1.588
 9075SOL    HW228125   6.817   0.790   1.448
 9076SOL     OW28126   6.204   0.020   2.364
 9076SOL    HW128127   6.137   0.094   2.375
 9076SOL    HW228128   6.158   6.963   2.329
 9077SOL     OW28129   5.780   1.387   6.077
 9077SOL    HW128130   5.721   1.317   6.037
 9077SOL    HW228131   5.727   1.469   6.095
 9078SOL     OW28132   5.136   5.814   6.996
 9078SOL    HW128133   5.214   5.844   6.943
 9078SOL    HW228134   5.121   5.877   0.048
 9079SOL     OW28135   1.274   0.250   5.907
 9079SOL    HW128136   1.313   0.256   5.999
 9079SOL    HW228137   1.185   0.205   5.912
 9080SOL     OW28138   6.705   3.689   0.854
 9080SOL    HW128139   6.667   3.697   0.946
 9080SOL    HW228140   6.672   3.764   0.797
 9081SOL     OW28141   3.776   1.994   1.263
 9081SOL    HW128142   3.728   1.915   1.224
 9081SOL    HW228143   3.768   2.072   1.200
 9082SOL     OW28144   3.177   6.086   6.103
 9082SOL    HW128145   3.116   6.093   6.025
 9082SOL    HW228146   3.258   6.144   6.088
 9083SOL     OW28147   4.592   4.734   6.281
 9083SOL    HW128148   4.582   4.640   6.247
 9083SOL    HW228149   4.512   4.788   6.254
 9084SOL     OW28150   0.683   2.769   5.510
 9084SOL    HW128151   0.730   2.828   5.575
 9084SOL    HW228152   0.618   2.823   5.456
 9085SOL     OW28153   3.069   5.057   0.156
 9085SOL    HW128154   2.992   5.044   0.218
 9085SOL    HW228155   3.083   5.155   0.141
 9086SOL     OW28156   6.863   5.106   0.300
 9086SOL    HW128157   6.773   5.126   0.260
 9086SOL    HW228158   6.922   5.064   0.231
 9087SOL     OW28159   5.828   1.864   2.077
 9087SOL    HW128160   5.814   1.808   1.996
 9087SOL    HW228161   5.844   1.805   2.156
 9088SOL     OW28162   6.084   0.536   1.993
 9088SOL    HW128163   6.175   0.566   1.962
 9088SOL    HW228164   6.045   0.607   2.052
 9089SOL     OW28165   4.373   5.389   3.334
 9089SOL    HW128166   4.309   5.313   3.319
 9089SOL    HW228167   4.466   5.358   3.315
 9090SOL     OW28168   5.860   6.277   4.776
 9090SOL    HW128169   5.768   6.301   4.746
 9090SOL    HW228170   5.870   6.178   4.777
 9091SOL     OW28171   2.995   2.183   0.153
 9091SOL    HW128172   2.950   2.199   0.066
 9091SOL    HW228173   2.931   2.140   0.216
 9092SOL     OW28174   1.323   6.495   5.591
 9092SOL    HW128175   1.227   6.466   5.591
 9092SOL    HW228176   1.380   6.420   5.558
 9093SOL     OW28177   1.686   5.609   0.507
 9093SOL    HW128178   1.646   5.532   0.458
 9093SOL    HW228179   1.738   5.666   0.443
 9094SOL     OW28180   0.083   5.806   2.211
 9094SOL    HW128181   0.052   5.764   2.296
 9094SOL    HW228182   0.168   5.856   2.228
 9095SOL     OW28183   4.898   3.293   6.467
 9095SOL    HW128184   4.949   3.242   6.398
 9095SOL    HW228185   4.962   3.347   6.522
 9096SOL     OW28186   5.865   2.994   2.659
 9096SOL    HW128187   5.835   2.999   2.755
 9096SOL    HW228188   5.965   2.985   2.656
 9097SOL     OW28189   0.460   3.981   6.914
 9097SOL    HW128190   0.543   3.925   6.907
 9097SOL    HW228191   0.382   3.930   6.877
 9098SOL     OW28192   3.866   3.862   2.189
 9098SOL    HW128193   3.946   3.821   2.146
 9098SOL    HW228194   3.888   3.889   2.283
 9099SOL     OW28195   2.870   3.265   0.684
 9099SOL    HW128196   2.892   3.181   0.633
 9099SOL    HW228197   2.948   3.327   0.679
 9100SOL     OW28198   0.852   3.573   1.415
 9100SOL    HW128199   0.948   3.552   1.397
 9100SOL    HW228200   0.795   3.537   1.341
 9101SOL     OW28201   1.235   2.318   2.794
 9101SOL    HW128202   1.242   2.260   2.875
 9101SOL    HW228203   1.326   2.337   2.758
 9102SOL     OW28204   3.713   5.651   2.042
 9102SOL    HW128205   3.790   5.671   2.103
 9102SOL    HW228206   3.744   5.592   1.967
 9103SOL     OW28207   0.264   4.094   0.888
 9103SOL    HW128208   0.247   4.161   0.961
 9103SOL    HW228209   0.226   4.127   0.802
 9104SOL     OW28210   4.347   5.960   1.870
 9104SOL    HW128211   4.325   5.883   1.929
 9104SOL    HW228212   4.333   6.045   1.920
 9105SOL     OW28213   1.676   0.187   6.432
 9105SOL    HW128214   1.745   0.114   6.433
 9105SOL    HW228215   1.697   0.253   6.504
 9106SOL     OW28216   5.862   4.555   0.392
 9106SOL    HW128217   5.902   4.646   0.401
 9106SOL    HW228218   5.895   4.495   0.465
 9107SOL     OW28219   3.911   6.787   6.818
 9107SOL    HW128220   3.977   6.852   6.782
 9107SOL    HW228221   3.955   6.699   6.833
 9108SOL     OW28222   5.174   4.427   5.382
 9108SOL    HW128223   5.153   4.473   5.297
 9108SOL    HW228224   5.225   4.488   5.442
 9109SOL     OW28225   2.660   2.133   3.249
 9109SOL    HW128226   2.740   2.189   3.229
 9109SOL    HW228227   2.677   2.075   3.328
 9110SOL     OW28228   2.351   4.790   3.578
 9110SOL    HW128229   2.342   4.743   3.490
 9110SOL    HW228230   2.380   4.726   3.648
 9111SOL     OW28231   3.589   4.212   1.507
 9111SOL    HW128232   3.648   4.261   1.442
 9111SOL    HW228233   3.565   4.123   1.470
 9112SOL     OW28234   0.694   3.307   3.690
 9112SOL    HW128235   0.613   3.351   3.729
 9112SOL    HW228236   0.700   3.330   3.593
 9113SOL     OW28237   5.071   1.031   0.079
 9113SOL    HW128238   5.047   0.938   0.107
 9113SOL    HW228239   5.054   1.093   0.156
 9114SOL     OW28240   2.347   4.528   2.103
 9114SOL    HW128241   2.416   4.573   2.046
 9114SOL    HW228242   2.311   4.593   2.170
 9115SOL     OW28243   1.026   5.099   4.175
 9115SOL    HW128244   0.966   5.047   4.114
 9115SOL    HW228245   1.121   5.083   4.150
 9116SOL     OW28246   6.966   1.755   6.336
 9116SOL    HW128247   6.964   1.843   6.383
 9116SOL    HW228248   0.010   1.695   6.379
 9117SOL     OW28249   6.335   3.138   6.450
 9117SOL    HW128250   6.271   3.141   6.527
 9117SOL    HW228251   6.286   3.109   6.367
 9118SOL     OW28252   6.393   0.324   1.190
 9118SOL    HW128253   6.308   0.348   1.237
 9118SOL    HW228254   6.418   0.230   1.212
 9119SOL     OW28255   5.611   0.992   2.163
 9119SOL    HW128256   5.595   1.057   2.088
 9119SOL    HW228257   5.536   0.925   2.166
 9120SOL     OW28258   5.627   2.669   6.116
 9120SOL    HW128259   5.566   2.698   6.190
 9120SOL    HW228260   5.574   2.659   6.032
 9121SOL     OW28261   0.438   3.446   5.274
 9121SOL    HW128262   0.443   3.351   5.243
 9121SOL    HW228263   0.530   3.486   5.275
 9122SOL     OW28264   1.645   2.491   2.113
 9122SOL    HW128265   1.732   2.443   2.125
 9122SOL    HW228266   1.596   2.451   2.036
 9123SOL     OW28267   3.315   6.534   5.172
 9123SOL    HW128268   3.407   6.514   5.203
 9123SOL    HW228269   3.297   6.632   5.179
 9124SOL     OW28270   6.190   5.521   5.342
 9124SOL    HW128271   6.178   5.608   5.390
 9124SOL    HW228272   6.279   5.520   5.297
 9125SOL     OW28273   4.785   4.227   3.650
 9125SOL    HW128274   4.794   4.194   3.556
 9125SOL    HW228275   4.823   4.159   3.713
 9126SOL     OW28276   6.156   1.325   2.179
 9126SOL    HW128277   6.104   1.297   2.260
 9126SOL    HW228278   6.244   1.363   2.208
 9127SOL     OW28279   5.822   6.995   5.475
 9127SOL    HW128280   5.853   6.908   5.437
 9127SOL    HW228281   5.758   6.977   5.550
 9128SOL     OW28282   4.129   1.552   5.090
 9128SOL    HW128283   4.078   1.470   5.066
 9128SOL    HW228284   4.223   1.527   5.114
 9129SOL     OW28285   1.978   3.680   0.342
 9129SOL    HW128286   1.947   3.594   0.382
 9129SOL    HW228287   1.979   3.751   0.412
 9130SOL     OW28288   7.007   4.288   6.673
 9130SOL    HW128289   0.010   4.320   6.764
 9130SOL    HW228290   0.061   4.290   6.611
 9131SOL     OW28291   0.208   4.100   5.017
 9131SOL    HW128292   0.199   4.170   5.088
 9131SOL    HW228293   0.117   4.072   4.986
 9132SOL     OW28294   6.829   3.963   3.859
 9132SOL    HW128295   6.784   4.050   3.878
 9132SOL    HW228296   6.847   3.955   3.761
 9133SOL     OW28297   3.105   4.972   0.859
 9133SOL    HW128298   3.023   5.024   0.837
 9133SOL    HW228299   3.168   5.029   0.912
 9134SOL     OW28300   3.252   6.813   0.587
 9134SOL    HW128301   3.210   6.826   0.497
 9134SOL    HW228302   3.351   6.821   0.578
 9135SOL     OW28303   0.197   6.965   2.114
 9135SOL    HW128304   0.257   6.937   2.039
 9135SOL    HW228305   0.208   0.038   2.130
 9136SOL     OW28306   4.647   5.016   5.677
 9136SOL    HW128307   4.624   4.946   5.609
 9136SOL    HW228308   4.739   5.001   5.711
 9137SOL     OW28309   5.829   1.303   0.824
 9137SOL    HW128310   5.902   1.368   0.808
 9137SOL    HW228311   5.868   1.216   0.854
 9138SOL     OW28312   6.669   4.864   5.857
 9138SOL    HW128313   6.730   4.885   5.934
 9138SOL    HW228314   6.723   4.859   5.773
 9139SOL     OW28315   2.208   1.377   4.920
 9139SOL    HW128316   2.305   1.378   4.946
 9139SOL    HW228317   2.162   1.301   4.965
 9140SOL     OW28318   6.639   2.372   2.553
 9140SOL    HW128319   6.674   2.444   2.493
 9140SOL    HW228320   6.603   2.297   2.498
 9141SOL     OW28321   5.711   6.546   6.697
 9141SOL    HW128322   5.633   6.492   6.666
 9141SOL    HW228323   5.796   6.495   6.682
 9142SOL     OW28324   0.222   2.537   5.370
 9142SOL    HW128325   0.214   2.633   5.397
 9142SOL    HW228326   0.311   2.502   5.397
 9143SOL     OW28327   4.847   3.874   0.172
 9143SOL    HW128328   4.820   3.902   0.264
 9143SOL    HW228329   4.896   3.950   0.127
 9144SOL     OW28330   2.194   5.303   6.259
 9144SOL    HW128331   2.291   5.320   6.271
 9144SOL    HW228332   2.169   5.320   6.163
 9145SOL     OW28333   0.234   5.185   0.865
 9145SOL    HW128334   0.185   5.199   0.951
 9145SOL    HW228335   0.333   5.182   0.884
 9146SOL     OW28336   4.992   1.807   1.544
 9146SOL    HW128337   4.993   1.828   1.642
 9146SOL    HW228338   4.928   1.732   1.527
 9147SOL     OW28339   5.703   6.772   4.509
 9147SOL    HW128340   5.740   6.816   4.592
 9147SOL    HW228341   5.620   6.722   4.532
 9148SOL     OW28342   5.689   6.795   1.275
 9148SOL    HW128343   5.759   6.750   1.220
 9148SOL    HW228344   5.603   6.744   1.269
 9149SOL     OW28345   5.053   2.612   4.395
 9149SOL    HW128346   5.076   2.704   4.428
 9149SOL    HW228347   5.124   2.548   4.425
 9150SOL     OW28348   3.611   5.646   3.523
 9150SOL    HW128349   3.620   5.725   3.583
 9150SOL    HW228350   3.516   5.640   3.491
 9151SOL     OW28351   1.224   4.043   2.859
 9151SOL    HW128352   1.165   4.030   2.939
 9151SOL    HW228353   1.295   3.973   2.857
 9152SOL     OW28354   2.653   5.763   4.419
 9152SOL    HW128355   2.583   5.713   4.367
 9152SOL    HW228356   2.743   5.730   4.392
 9153SOL     OW28357   1.596   3.259   0.706
 9153SOL    HW128358   1.565   3.337   0.651
 9153SOL    HW228359   1.538   3.180   0.687
 9154SOL     OW28360   2.724   4.893   6.787
 9154SOL    HW128361   2.804   4.917   6.841
 9154SOL    HW228362   2.741   4.809   6.736
 9155SOL     OW28363   1.983   3.986   0.343
 9155SOL    HW128364   2.057   3.956   0.404
 9155SOL    HW228365   2.003   3.956   0.250
 9156SOL     OW28366   3.092   2.945   1.069
 9156SOL    HW128367   3.033   2.977   0.994
 9156SOL    HW228368   3.094   3.014   1.141
 9157SOL     OW28369   6.059   4.771   5.703
 9157SOL    HW128370   6.046   4.681   5.742
 9157SOL    HW228371   6.155   4.797   5.709
 9158SOL     OW28372   6.357   3.377   4.942
 9158SOL    HW128373   6.275   3.396   4.996
 9158SOL    HW228374   6.359   3.279   4.919
 9159SOL     OW28375   0.909   6.315   3.910
 9159SOL    HW128376   0.828   6.295   3.965
 9159SOL    HW228377   0.986   6.334   3.971
 9160SOL     OW28378   6.563   0.453   5.137
 9160SOL    HW128379   6.623   0.431   5.060
 9160SOL    HW228380   6.470   0.423   5.116
 9161SOL     OW28381   4.846   4.084   3.865
 9161SOL    HW128382   4.858   4.019   3.940
 9161SOL    HW228383   4.791   4.161   3.896
 9162SOL     OW28384   4.836   1.893   3.601
 9162SOL    HW128385   4.837   1.988   3.632
 9162SOL    HW228386   4.742   1.866   3.581
 9163SOL     OW28387   1.944   3.025   3.692
 9163SOL    HW128388   1.892   2.940   3.688
 9163SOL    HW228389   1.911   3.087   3.621
 9164SOL     OW28390   2.876   1.092   6.926
 9164SOL    HW128391   2.823   1.175   6.943
 9164SOL    HW228392   2.973   1.116   6.915
 9165SOL     OW28393   6.490   1.439   5.884
 9165SOL    HW128394   6.542   1.524   5.878
 9165SOL    HW228395   6.455   1.415   5.794
 9166SOL     OW28396   5.030   6.261   1.027
 9166SOL    HW128397   4.931   6.272   1.033
 9166SOL    HW228398   5.069   6.256   1.119
 9167SOL     OW28399   1.605   3.232   6.508
 9167SOL    HW128400   1.580   3.324   6.538
 9167SOL    HW228401   1.691   3.236   6.458
 9168SOL     OW28402   0.721   6.660   5.618
 9168SOL    HW128403   0.632   6.643   5.662
 9168SOL    HW228404   0.706   6.701   5.528
 9169SOL     OW28405   0.010   1.350   4.676
 9169SOL    HW128406   6.968   1.285   4.637
 9169SOL    HW228407   0.103   1.318   4.655
 9170SOL     OW28408   0.485   4.824   0.167
 9170SOL    HW128409   0.518   4.734   0.137
 9170SOL    HW228410   0.557   4.891   0.154
 9171SOL     OW28411   3.168   5.526   0.277
 9171SOL    HW128412   3.106   5.459   0.238
 9171SOL    HW228413   3.242   5.544   0.213
 9172SOL     OW28414   2.956   0.853   5.071
 9172SOL    HW128415   2.954   0.890   4.978
 9172SOL    HW228416   2.933   0.756   5.068
 9173SOL     OW28417   6.233   3.907   4.959
 9173SOL    HW128418   6.212   3.983   5.021
 9173SOL    HW228419   6.249   3.943   4.867
 9174SOL     OW28420   6.605   4.337   1.091
 9174SOL    HW128421   6.542   4.346   1.168
 9174SOL    HW228422   6.621   4.427   1.050
 9175SOL     OW28423   1.773   0.001   5.007
 9175SOL    HW128424   1.772   6.926   4.993
 9175SOL    HW228425   1.858   0.028   5.051
 9176SOL     OW28426   2.726   0.955   5.203
 9176SOL    HW128427   2.807   0.899   5.222
 9176SOL    HW228428   2.727   1.036   5.262
 9177SOL     OW28429   1.705   5.358   4.686
 9177SOL    HW128430   1.767   5.301   4.633
 9177SOL    HW228431   1.642   5.405   4.624
 9178SOL     OW28432   1.643   5.437   0.766
 9178SOL    HW128433   1.569   5.369   0.770
 9178SOL    HW228434   1.604   5.528   0.773
 9179SOL     OW28435   3.512   5.586   3.863
 9179SOL    HW128436   3.531   5.684   3.863
 9179SOL    HW228437   3.569   5.541   3.794
 9180SOL     OW28438   5.586   2.202   3.132
 9180SOL    HW128439   5.659   2.221   3.066
 9180SOL    HW228440   5.551   2.110   3.117
 9181SOL     OW28441   4.030   2.178   3.595
 9181SOL    HW128442   3.950   2.144   3.545
 9181SOL    HW228443   4.003   2.255   3.652
 9182SOL     OW28444   2.419   6.649   2.396
 9182SOL    HW128445   2.423   6.584   2.472
 9182SOL    HW228446   2.430   6.742   2.431
 9183SOL     OW28447   5.122   6.668   0.413
 9183SOL    HW128448   5.211   6.624   0.398
 9183SOL    HW228449   5.089   6.707   0.326
 9184SOL     OW28450   4.976   1.630   0.053
 9184SOL    HW128451   5.047   1.628   7.007
 9184SOL    HW228452   5.015   1.665   0.138
 9185SOL     OW28453   4.508   6.469   5.082
 9185SOL    HW128454   4.475   6.417   5.161
 9185SOL    HW228455   4.471   6.429   4.998
 9186SOL     OW28456   5.900   0.493   4.095
 9186SOL    HW128457   5.990   0.482   4.053
 9186SOL    HW228458   5.911   0.506   4.193
 9187SOL     OW28459   2.632   0.955   1.374
 9187SOL    HW128460   2.687   0.905   1.442
 9187SOL    HW228461   2.541   0.971   1.411
 9188SOL     OW28462   2.285   6.650   2.153
 9188SOL    HW128463   2.233   6.569   2.127
 9188SOL    HW228464   2.329   6.634   2.242
 9189SOL     OW28465   5.689   6.082   1.660
 9189SOL    HW128466   5.780   6.045   1.643
 9189SOL    HW228467   5.697   6.174   1.700
 9190SOL     OW28468   1.839   4.948   0.072
 9190SOL    HW128469   1.909   4.952   0.143
 9190SOL    HW228470   1.876   4.989   7.012
 9191SOL     OW28471   5.609   0.751   5.894
 9191SOL    HW128472   5.520   0.768   5.935
 9191SOL    HW228473   5.676   0.734   5.967
 9192SOL     OW28474   0.562   4.162   5.938
 9192SOL    HW128475   0.648   4.213   5.935
 9192SOL    HW228476   0.497   4.212   5.995
 9193SOL     OW28477   4.781   4.779   0.477
 9193SOL    HW128478   4.763   4.771   0.575
 9193SOL    HW228479   4.774   4.689   0.434
 9194SOL     OW28480   2.847   0.680   3.235
 9194SOL    HW128481   2.763   0.732   3.218
 9194SOL    HW228482   2.885   0.707   3.323
 9195SOL     OW28483   1.611   2.343   4.295
 9195SOL    HW128484   1.705   2.311   4.306
 9195SOL    HW228485   1.596   2.368   4.199
 9196SOL     OW28486   4.123   0.582   3.910
 9196SOL    HW128487   4.152   0.552   4.001
 9196SOL    HW228488   4.203   0.603   3.855
 9197SOL     OW28489   1.935   4.701   1.695
 9197SOL    HW128490   1.977   4.778   1.647
 9197SOL    HW228491   1.992   4.620   1.685
 9198SOL     OW28492   6.585   4.800   6.220
 9198SOL    HW128493   6.492   4.834   6.209
 9198SOL    HW228494   6.584   4.700   6.215
 9199SOL     OW28495   1.038   3.281   6.316
 9199SOL    HW128496   1.131   3.265   6.282
 9199SOL    HW228497   1.040   3.352   6.386
 9200SOL     OW28498   2.769   0.390   0.476
 9200SOL    HW128499   2.779   0.489   0.466
 9200SOL    HW228500   2.801   0.345   0.392
 9201SOL     OW28501   0.579   2.787   0.676
 9201SOL    HW128502   0.539   2.695   0.670
 9201SOL    HW228503   0.514   2.854   0.641
 9202SOL     OW28504   1.689   6.539   3.105
 9202SOL    HW128505   1.636   6.622   3.090
 9202SOL    HW228506   1.755   6.554   3.178
 9203SOL     OW28507   0.666   5.104   6.931
 9203SOL    HW128508   0.600   5.149   6.990
 9203SOL    HW228509   0.751   5.088   6.981
 9204SOL     OW28510   4.019   2.368   6.879
 9204SOL    HW128511   3.984   2.455   6.911
 9204SOL    HW228512   4.117   2.376   6.862
 9205SOL     OW28513   5.616   4.715   2.643
 9205SOL    HW128514   5.656   4.709   2.734
 9205SOL    HW228515   5.526   4.760   2.649
 9206SOL     OW28516   4.086   5.417   1.818
 9206SOL    HW128517   4.044   5.391   1.905
 9206SOL    HW228518   4.127   5.508   1.826
 9207SOL     OW28519   4.370   4.831   6.858
 9207SOL    HW128520   4.349   4.925   6.830
 9207SOL    HW228521   4.467   4.812   6.840
 9208SOL     OW28522   5.916   4.066   3.953
 9208SOL    HW128523   5.854   4.003   3.906
 9208SOL    HW228524   6.005   4.023   3.963
 9209SOL     OW28525   2.953   0.977   0.144
 9209SOL    HW128526   3.048   0.964   0.117
 9209SOL    HW228527   2.899   1.004   0.064
 9210SOL     OW28528   6.818   1.222   3.032
 9210SOL    HW128529   6.816   1.321   3.046
 9210SOL    HW228530   6.725   1.186   3.039
 9211SOL     OW28531   6.252   3.172   4.612
 9211SOL    HW128532   6.277   3.113   4.535
 9211SOL    HW228533   6.244   3.117   4.695
 9212SOL     OW28534   4.235   5.213   4.331
 9212SOL    HW128535   4.254   5.293   4.388
 9212SOL    HW228536   4.146   5.176   4.355
 9213SOL     OW28537   5.240   3.476   6.021
 9213SOL    HW128538   5.339   3.489   6.011
 9213SOL    HW228539   5.210   3.406   5.956
 9214SOL     OW28540   0.140   5.921   5.913
 9214SOL    HW128541   0.198   5.840   5.923
 9214SOL    HW228542   0.075   5.908   5.839
 9215SOL     OW28543   1.542   2.509   7.014
 9215SOL    HW128544   1.450   2.548   7.003
 9215SOL    HW228545   1.582   2.493   6.923
 9216SOL     OW28546   2.569   0.424   2.874
 9216SOL    HW128547   2.586   0.503   2.934
 9216SOL    HW228548   2.578   0.452   2.779
 9217SOL     OW28549   0.627   0.788   6.221
 9217SOL    HW128550   0.635   0.755   6.127
 9217SOL    HW228551   0.575   0.874   6.223
 9218SOL     OW28552   3.689   6.480   0.523
 9218SOL    HW128553   3.594   6.511   0.515
 9218SOL    HW228554   3.704   6.403   0.462
 9219SOL     OW28555   6.956   2.642   0.693
 9219SOL    HW128556   6.944   2.543   0.687
 9219SOL    HW228557   6.894   2.678   0.763
 9220SOL     OW28558   2.183   6.956   1.108
 9220SOL    HW128559   2.257   6.985   1.047
 9220SOL    HW228560   2.102   7.013   1.093
 9221SOL     OW28561   2.985   0.952   4.124
 9221SOL    HW128562   3.006   0.933   4.220
 9221SOL    HW228563   2.930   0.878   4.086
 9222SOL     OW28564   2.362   6.947   6.488
 9222SOL    HW128565   2.326   0.010   6.457
 9222SOL    HW228566   2.461   6.954   6.500
 9223SOL     OW28567   1.658   1.761   4.179
 9223SOL    HW128568   1.569   1.716   4.178
 9223SOL    HW228569   1.673   1.808   4.092
 9224SOL     OW28570   2.665   5.462   5.228
 9224SOL    HW128571   2.582   5.448   5.175
 9224SOL    HW228572   2.645   5.518   5.308
 9225SOL     OW28573   3.682   7.019   6.070
 9225SOL    HW128574   3.718   0.084   6.045
 9225SOL    HW228575   3.651   7.021   6.165
 9226SOL     OW28576   5.664   0.202   2.017
 9226SOL    HW128577   5.735   0.172   2.081
 9226SOL    HW228578   5.579   0.154   2.037
 9227SOL     OW28579   0.759   5.210   1.328
 9227SOL    HW128580   0.820   5.150   1.276
 9227SOL    HW228581   0.814   5.274   1.382
 9228SOL     OW28582   1.570   0.663   6.096
 9228SOL    HW128583   1.548   0.584   6.038
 9228SOL    HW228584   1.510   0.663   6.176
 9229SOL     OW28585   1.327   5.581   4.724
 9229SOL    HW128586   1.306   5.548   4.817
 9229SOL    HW228587   1.303   5.678   4.717
 9230SOL     OW28588   6.177   0.930   3.373
 9230SOL    HW128589   6.123   0.874   3.437
 9230SOL    HW228590   6.130   1.017   3.357
 9231SOL     OW28591   1.512   4.591   4.524
 9231SOL    HW128592   1.501   4.619   4.429
 9231SOL    HW228593   1.572   4.656   4.571
 9232SOL     OW28594   3.130   5.300   0.799
 9232SOL    HW128595   3.110   5.253   0.713
 9232SOL    HW228596   3.177   5.237   0.862
 9233SOL     OW28597   5.211   5.473   1.503
 9233SOL    HW128598   5.247   5.496   1.412
 9233SOL    HW228599   5.245   5.383   1.530
 9234SOL     OW28600   3.764   5.240   5.021
 9234SOL    HW128601   3.819   5.299   4.962
 9234SOL    HW228602   3.703   5.183   4.965
 9235SOL     OW28603   1.312   2.484   3.672
 9235SOL    HW128604   1.219   2.501   3.640
 9235SOL    HW228605   1.324   2.526   3.762
 9236SOL     OW28606   2.650   4.326   5.574
 9236SOL    HW128607   2.681   4.232   5.564
 9236SOL    HW228608   2.720   4.389   5.541
 9237SOL     OW28609   2.299   4.931   5.137
 9237SOL    HW128610   2.380   4.935   5.078
 9237SOL    HW228611   2.227   4.878   5.091
 9238SOL     OW28612   4.092   1.496   6.161
 9238SOL    HW128613   4.050   1.583   6.132
 9238SOL    HW228614   4.031   1.450   6.226
 9239SOL     OW28615   0.570   3.921   1.353
 9239SOL    HW128616   0.518   3.999   1.318
 9239SOL    HW228617   0.642   3.897   1.287
 9240SOL     OW28618   5.676   1.641   0.784
 9240SOL    HW128619   5.639   1.549   0.770
 9240SOL    HW228620   5.600   1.704   0.802
 9241SOL     OW28621   0.572   5.848   6.253
 9241SOL    HW128622   0.664   5.842   6.291
 9241SOL    HW228623   0.505   5.832   6.326
 9242SOL     OW28624   6.435   5.770   0.968
 9242SOL    HW128625   6.491   5.721   1.035
 9242SOL    HW228626   6.461   5.866   0.966
 9243SOL     OW28627   5.819   6.356   2.653
 9243SOL    HW128628   5.800   6.437   2.709
 9243SOL    HW228629   5.864   6.384   2.568
 9244SOL     OW28630   4.775   5.465   5.890
 9244SOL    HW128631   4.733   5.394   5.947
 9244SOL    HW228632   4.865   5.488   5.927
 9245SOL     OW28633   1.448   5.641   3.079
 9245SOL    HW128634   1.388   5.592   3.016
 9245SOL    HW228635   1.540   5.644   3.041
 9246SOL     OW28636   6.907   4.818   2.925
 9246SOL    HW128637   6.995   4.792   2.965
 9246SOL    HW228638   6.919   4.834   2.827
 9247SOL     OW28639   1.290   6.982   3.453
 9247SOL    HW128640   1.212   0.002   3.409
 9247SOL    HW228641   1.314   0.007   3.537
 9248SOL     OW28642   1.721   2.590   6.350
 9248SOL    HW128643   1.664   2.513   6.378
 9248SOL    HW228644   1.801   2.556   6.301
 9249SOL     OW28645   5.381   3.235   6.263
 9249SOL    HW128646   5.349   3.140   6.261
 9249SOL    HW228647   5.329   3.290   6.198
 9250SOL     OW28648   5.199   3.411   5.056
 9250SOL    HW128649   5.217   3.508   5.039
 9250SOL    HW228650   5.108   3.388   5.023
 9251SOL     OW28651   3.599   2.129   3.149
 9251SOL    HW128652   3.682   2.117   3.204
 9251SOL    HW228653   3.623   2.131   3.052
 9252SOL     OW28654   6.382   0.037   4.191
 9252SOL    HW128655   6.425   0.097   4.259
 9252SOL    HW228656   6.348   0.092   4.114
 9253SOL     OW28657   4.706   5.778   5.945
 9253SOL    HW128658   4.615   5.804   5.913
 9253SOL    HW228659   4.718   5.679   5.936
 9254SOL     OW28660   6.246   4.570   1.733
 9254SOL    HW128661   6.273   4.665   1.748
 9254SOL    HW228662   6.189   4.563   1.651
 9255SOL     OW28663   5.562   2.915   0.269
 9255SOL    HW128664   5.530   2.903   0.363
 9255SOL    HW228665   5.517   2.995   0.229
 9256SOL     OW28666   3.888   4.968   2.837
 9256SOL    HW128667   3.906   5.013   2.925
 9256SOL    HW228668   3.790   4.956   2.825
 9257SOL     OW28669   0.700   3.739   2.812
 9257SOL    HW128670   0.783   3.739   2.867
 9257SOL    HW228671   0.701   3.818   2.750
 9258SOL     OW28672   4.119   3.534   3.995
 9258SOL    HW128673   4.093   3.627   4.024
 9258SOL    HW228674   4.118   3.473   4.075
 9259SOL     OW28675   1.829   2.322   1.098
 9259SOL    HW128676   1.830   2.420   1.113
 9259SOL    HW228677   1.832   2.274   1.186
 9260SOL     OW28678   5.244   1.530   5.723
 9260SOL    HW128679   5.334   1.493   5.747
 9260SOL    HW228680   5.239   1.544   5.624
 9261SOL     OW28681   4.854   0.529   6.324
 9261SOL    HW128682   4.921   0.464   6.359
 9261SOL    HW228683   4.872   0.620   6.362
 9262SOL     OW28684   6.313   3.058   5.562
 9262SOL    HW128685   6.247   3.128   5.591
 9262SOL    HW228686   6.397   3.102   5.532
 9263SOL     OW28687   6.387   3.925   0.921
 9263SOL    HW128688   6.398   3.970   1.010
 9263SOL    HW228689   6.305   3.868   0.922
 9264SOL     OW28690   5.583   3.947   0.294
 9264SOL    HW128691   5.485   3.966   0.283
 9264SOL    HW228692   5.596   3.851   0.319
 9265SOL     OW28693   3.239   1.582   0.426
 9265SOL    HW128694   3.319   1.530   0.456
 9265SOL    HW228695   3.247   1.677   0.457
 9266SOL     OW28696   1.688   5.900   2.009
 9266SOL    HW128697   1.660   5.978   2.065
 9266SOL    HW228698   1.623   5.825   2.019
 9267SOL     OW28699   6.691   3.944   5.597
 9267SOL    HW128700   6.647   3.856   5.581
 9267SOL    HW228701   6.624   4.009   5.633
 9268SOL     OW28702   1.056   6.068   1.454
 9268SOL    HW128703   1.073   6.049   1.551
 9268SOL    HW228704   1.127   6.023   1.399
 9269SOL     OW28705   3.282   2.700   6.572
 9269SOL    HW128706   3.312   2.662   6.659
 9269SOL    HW228707   3.277   2.799   6.578
 9270SOL     OW28708   4.868   6.952   5.654
 9270SOL    HW128709   4.900   6.976   5.562
 9270SOL    HW228710   4.851   0.011   5.706
 9271SOL     OW28711   1.537   5.868   0.240
 9271SOL    HW128712   1.611   5.936   0.240
 9271SOL    HW228713   1.576   5.776   0.231
 9272SOL     OW28714   3.220   4.961   5.691
 9272SOL    HW128715   3.169   4.901   5.630
 9272SOL    HW228716   3.159   4.993   5.764
 9273SOL     OW28717   5.202   5.904   3.730
 9273SOL    HW128718   5.297   5.922   3.703
 9273SOL    HW228719   5.176   5.967   3.804
 9274SOL     OW28720   6.394   2.695   0.164
 9274SOL    HW128721   6.349   2.639   0.095
 9274SOL    HW228722   6.371   2.659   0.255
 9275SOL     OW28723   0.498   1.725   6.951
 9275SOL    HW128724   0.505   1.825   6.949
 9275SOL    HW228725   0.451   1.697   0.010
 9276SOL     OW28726   2.839   4.835   4.197
 9276SOL    HW128727   2.790   4.749   4.206
 9276SOL    HW228728   2.849   4.858   4.101
 9277SOL     OW28729   3.880   3.453   6.983
 9277SOL    HW128730   3.830   3.369   6.962
 9277SOL    HW228731   3.828   3.531   6.949
 9278SOL     OW28732   1.967   1.097   3.916
 9278SOL    HW128733   1.880   1.084   3.868
 9278SOL    HW228734   1.952   1.152   3.999
 9279SOL     OW28735   4.607   0.547   1.562
 9279SOL    HW128736   4.512   0.514   1.557
 9279SOL    HW228737   4.637   0.576   1.471
 9280SOL     OW28738   1.867   0.229   3.534
 9280SOL    HW128739   1.863   0.287   3.615
 9280SOL    HW228740   1.941   0.260   3.474
 9281SOL     OW28741   3.310   3.920   1.212
 9281SOL    HW128742   3.224   3.971   1.204
 9281SOL    HW228743   3.289   3.823   1.223
 9282SOL     OW28744   4.253   1.973   4.692
 9282SOL    HW128745   4.167   1.933   4.661
 9282SOL    HW228746   4.235   2.048   4.754
 9283SOL     OW28747   5.824   0.845   2.841
 9283SOL    HW128748   5.837   0.852   2.939
 9283SOL    HW228749   5.727   0.856   2.818
 9284SOL     OW28750   3.676   5.318   6.910
 9284SOL    HW128751   3.609   5.255   6.951
 9284SOL    HW228752   3.667   5.408   6.952
 9285SOL     OW28753   5.106   3.391   0.071
 9285SOL    HW128754   5.015   3.350   0.066
 9285SOL    HW228755   5.101   3.488   0.049
 9286SOL     OW28756   5.060   0.277   5.653
 9286SOL    HW128757   5.012   0.228   5.725
 9286SOL    HW228758   5.101   0.212   5.589
 9287SOL     OW28759   3.084   5.927   0.598
 9287SOL    HW128760   3.091   5.860   0.524
 9287SOL    HW228761   2.989   5.951   0.613
 9288SOL     OW28762   2.882   1.638   5.258
 9288SOL    HW128763   2.928   1.666   5.343
 9288SOL    HW228764   2.792   1.681   5.254
 9289SOL     OW28765   3.644   1.807   2.233
 9289SOL    HW128766   3.675   1.765   2.318
 9289SOL    HW228767   3.555   1.770   2.208
 9290SOL     OW28768   4.634   2.005   4.134
 9290SOL    HW128769   4.628   2.091   4.185
 9290SOL    HW228770   4.648   1.929   4.198
 9291SOL     OW28771   2.494   0.322   4.975
 9291SOL    HW128772   2.399   0.295   4.961
 9291SOL    HW228773   2.504   0.420   4.956
 9292SOL     OW28774   6.654   3.426   6.136
 9292SOL    HW128775   6.591   3.434   6.213
 9292SOL    HW228776   6.748   3.436   6.169
 9293SOL     OW28777   6.440   3.989   1.200
 9293SOL    HW128778   6.517   4.033   1.245
 9293SOL    HW228779   6.360   4.050   1.204
 9294SOL     OW28780   3.416   6.269   6.079
 9294SOL    HW128781   3.400   6.313   5.991
 9294SOL    HW228782   3.478   6.325   6.134
 9295SOL     OW28783   4.996   2.236   3.870
 9295SOL    HW128784   5.083   2.191   3.849
 9295SOL    HW228785   4.951   2.186   3.945
 9296SOL     OW28786   0.137   5.974   6.535
 9296SOL    HW128787   0.059   5.912   6.542
 9296SOL    HW228788   0.213   5.938   6.589
 9297SOL     OW28789   0.195   0.694   1.294
 9297SOL    HW128790   0.181   0.724   1.199
 9297SOL    HW228791   0.265   0.623   1.296
 9298SOL     OW28792   2.189   6.469   5.536
 9298SOL    HW128793   2.167   6.438   5.628
 9298SOL    HW228794   2.244   6.400   5.490
 9299SOL     OW28795   0.945   2.757   4.434
 9299SOL    HW128796   0.934   2.664   4.467
 9299SOL    HW228797   0.856   2.800   4.425
 9300SOL     OW28798   0.288   4.893   4.688
 9300SOL    HW128799   0.275   4.949   4.605
 9300SOL    HW228800   0.234   4.809   4.680
 9301SOL     OW28801   4.647   4.641   3.843
 9301SOL    HW128802   4.685   4.660   3.934
 9301SOL    HW228803   4.701   4.569   3.799
 9302SOL     OW28804   2.228   3.131   4.347
 9302SOL    HW128805   2.172   3.110   4.427
 9302SOL    HW228806   2.208   3.225   4.316
 9303SOL     OW28807   3.842   6.080   0.893
 9303SOL    HW128808   3.917   6.142   0.918
 9303SOL    HW228809   3.755   6.130   0.899
 9304SOL     OW28810   4.412   4.110   1.155
 9304SOL    HW128811   4.388   4.204   1.180
 9304SOL    HW228812   4.342   4.048   1.190
 9305SOL     OW28813   4.142   1.522   1.681
 9305SOL    HW128814   4.189   1.592   1.628
 9305SOL    HW228815   4.053   1.503   1.640
 9306SOL     OW28816   0.472   4.835   4.934
 9306SOL    HW128817   0.394   4.851   4.873
 9306SOL    HW228818   0.541   4.906   4.919
 9307SOL     OW28819   1.313   3.503   1.574
 9307SOL    HW128820   1.324   3.424   1.513
 9307SOL    HW228821   1.402   3.531   1.608
 9308SOL     OW28822   1.045   3.924   1.136
 9308SOL    HW128823   1.035   3.825   1.123
 9308SOL    HW228824   1.142   3.947   1.140
 9309SOL     OW28825   3.447   5.041   5.539
 9309SOL    HW128826   3.489   4.979   5.474
 9309SOL    HW228827   3.359   5.005   5.568
 9310SOL     OW28828   4.554   5.814   6.367
 9310SOL    HW128829   4.473   5.790   6.314
 9310SOL    HW228830   4.615   5.735   6.371
 9311SOL     OW28831   6.048   4.757   1.535
 9311SOL    HW128832   6.038   4.829   1.466
 9311SOL    HW228833   6.129   4.775   1.590
 9312SOL     OW28834   1.697   4.140   1.368
 9312SOL    HW128835   1.795   4.129   1.350
 9312SOL    HW228836   1.681   4.230   1.408
 9313SOL     OW28837   0.496   0.835   1.057
 9313SOL    HW128838   0.511   0.909   0.992
 9313SOL    HW228839   0.581   0.816   1.105
 9314SOL     OW28840   3.950   5.381   5.755
 9314SOL    HW128841   3.991   5.456   5.807
 9314SOL    HW228842   3.855   5.402   5.736
 9315SOL     OW28843   6.407   0.806   5.671
 9315SOL    HW128844   6.397   0.709   5.692
 9315SOL    HW228845   6.445   0.816   5.579
 9316SOL     OW28846   4.125   5.290   5.381
 9316SOL    HW128847   4.046   5.238   5.414
 9316SOL    HW228848   4.205   5.269   5.437
 9317SOL     OW28849   6.550   5.706   3.013
 9317SOL    HW128850   6.497   5.789   3.029
 9317SOL    HW228851   6.517   5.661   2.930
 9318SOL     OW28852   6.620   1.122   4.926
 9318SOL    HW128853   6.650   1.085   4.838
 9318SOL    HW228854   6.530   1.163   4.916
 9319SOL     OW28855   0.432   2.635   5.553
 9319SOL    HW128856   0.372   2.701   5.509
 9319SOL    HW228857   0.527   2.664   5.543
 9320SOL     OW28858   4.653   2.022   6.815
 9320SOL    HW128859   4.746   2.022   6.779
 9320SOL    HW228860   4.617   1.928   6.814
 9321SOL     OW28861   5.919   6.876   2.584
 9321SOL    HW128862   5.832   6.897   2.629
 9321SOL    HW228863   5.988   6.943   2.612
 9322SOL     OW28864   6.773   6.106   6.308
 9322SOL    HW128865   6.764   6.007   6.313
 9322SOL    HW228866   6.822   6.139   6.389
 9323SOL     OW28867   2.199   0.083   5.600
 9323SOL    HW128868   2.287   0.043   5.577
 9323SOL    HW228869   2.126   0.018   5.577
 9324SOL     OW28870   1.710   5.223   0.432
 9324SOL    HW128871   1.742   5.210   0.525
 9324SOL    HW228872   1.649   5.303   0.429
 9325SOL     OW28873   5.272   1.747   0.131
 9325SOL    HW128874   5.217   1.831   0.133
 9325SOL    HW228875   5.268   1.702   0.221
 9326SOL     OW28876   2.464   7.004   0.957
 9326SOL    HW128877   2.558   6.970   0.960
 9326SOL    HW228878   2.456   0.060   1.016
 9327SOL     OW28879   4.825   6.521   2.500
 9327SOL    HW128880   4.831   6.603   2.557
 9327SOL    HW228881   4.732   6.483   2.507
 9328SOL     OW28882   3.754   1.063   6.032
 9328SOL    HW128883   3.787   1.077   6.125
 9328SOL    HW228884   3.797   1.129   5.971
 9329SOL     OW28885   0.085   4.007   2.107
 9329SOL    HW128886   0.161   3.945   2.124
 9329SOL    HW228887   0.070   4.065   2.187
 9330SOL     OW28888   0.240   6.062   6.951
 9330SOL    HW128889   0.259   6.137   7.014
 9330SOL    HW228890   0.298   6.070   6.870
 9331SOL     OW28891   1.247   1.343   5.905
 9331SOL    HW128892   1.178   1.393   5.958
 9331SOL    HW228893   1.301   1.287   5.967
 9332SOL     OW28894   3.787   3.986   2.976
 9332SOL    HW128895   3.725   3.908   2.986
 9332SOL    HW228896   3.775   4.048   3.053
 9333SOL     OW28897   4.635   3.751   1.535
 9333SOL    HW128898   4.708   3.772   1.470
 9333SOL    HW228899   4.623   3.829   1.597
 9334SOL     OW28900   3.920   6.940   3.916
 9334SOL    HW128901   3.913   7.008   3.989
 9334SOL    HW228902   3.952   6.984   3.832
 9335SOL     OW28903   1.121   1.049   6.116
 9335SOL    HW128904   1.128   1.142   6.153
 9335SOL    HW228905   1.027   1.032   6.087
 9336SOL     OW28906   3.656   5.628   6.602
 9336SOL    HW128907   3.585   5.665   6.543
 9336SOL    HW228908   3.724   5.699   6.622
 9337SOL     OW28909   5.108   0.938   3.565
 9337SOL    HW128910   5.174   1.010   3.541
 9337SOL    HW228911   5.045   0.925   3.489
 9338SOL     OW28912   4.247   0.771   1.886
 9338SOL    HW128913   4.176   0.722   1.834
 9338SOL    HW228914   4.268   0.857   1.840
 9339SOL     OW28915   5.509   6.781   0.558
 9339SOL    HW128916   5.534   6.868   0.517
 9339SOL    HW228917   5.421   6.790   0.605
 9340SOL     OW28918   5.013   3.620   5.174
 9340SOL    HW128919   4.934   3.614   5.113
 9340SOL    HW228920   5.043   3.527   5.199
 9341SOL     OW28921   0.503   5.525   6.533
 9341SOL    HW128922   0.550   5.473   6.461
 9341SOL    HW228923   0.569   5.584   6.579
 9342SOL     OW28924   2.280   0.929   3.957
 9342SOL    HW128925   2.339   1.008   3.973
 9342SOL    HW228926   2.275   0.910   3.859
 9343SOL     OW28927   6.230   4.667   3.082
 9343SOL    HW128928   6.271   4.618   3.159
 9343SOL    HW228929   6.248   4.616   2.998
 9344SOL     OW28930   4.512   5.671   1.508
 9344SOL    HW128931   4.463   5.741   1.455
 9344SOL    HW228932   4.583   5.716   1.562
 9345SOL     OW28933   6.167   3.782   1.604
 9345SOL    HW128934   6.159   3.685   1.580
 9345SOL    HW228935   6.106   3.803   1.681
 9346SOL     OW28936   6.199   1.151   1.108
 9346SOL    HW128937   6.251   1.230   1.139
 9346SOL    HW228938   6.212   1.138   1.010
 9347SOL     OW28939   1.396   5.294   0.796
 9347SOL    HW128940   1.382   5.224   0.867
 9347SOL    HW228941   1.352   5.265   0.711
 9348SOL     OW28942   4.165   5.604   1.291
 9348SOL    HW128943   4.087   5.574   1.236
 9348SOL    HW228944   4.149   5.696   1.324
 9349SOL     OW28945   0.365   0.066   2.404
 9349SOL    HW128946   0.394   7.016   2.465
 9349SOL    HW228947   0.410   0.056   2.316
 9350SOL     OW28948   0.456   3.025   5.531
 9350SOL    HW128949   0.542   3.075   5.537
 9350SOL    HW228950   0.449   2.983   5.440
 9351SOL     OW28951   3.219   1.078   6.394
 9351SOL    HW128952   3.153   1.010   6.361
 9351SOL    HW228953   3.295   1.084   6.330
 9352SOL     OW28954   2.632   3.600   0.358
 9352SOL    HW128955   2.646   3.512   0.403
 9352SOL    HW228956   2.645   3.590   0.259
 9353SOL     OW28957   0.653   5.408   1.845
 9353SOL    HW128958   0.582   5.415   1.916
 9353SOL    HW228959   0.648   5.319   1.802
 9354SOL     OW28960   6.742   2.249   6.604
 9354SOL    HW128961   6.696   2.161   6.597
 9354SOL    HW228962   6.814   2.255   6.535
 9355SOL     OW28963   0.756   2.661   4.939
 9355SOL    HW128964   0.768   2.577   4.990
 9355SOL    HW228965   0.689   2.719   4.986
 9356SOL     OW28966   3.459   0.205   1.117
 9356SOL    HW128967   3.439   0.123   1.171
 9356SOL    HW228968   3.374   0.243   1.083
 9357SOL     OW28969   1.171   2.764   6.527
 9357SOL    HW128970   1.153   2.862   6.536
 9357SOL    HW228971   1.104   2.712   6.581
 9358SOL     OW28972   0.579   4.284   2.338
 9358SOL    HW128973   0.560   4.382   2.337
 9358SOL    HW228974   0.611   4.255   2.248
 9359SOL     OW28975   1.801   5.514   6.358
 9359SOL    HW128976   1.897   5.533   6.380
 9359SOL    HW228977   1.789   5.512   6.259
 9360SOL     OW28978   1.389   6.178   6.516
 9360SOL    HW128979   1.437   6.224   6.591
 9360SOL    HW228980   1.353   6.090   6.549
 9361SOL     OW28981   2.156   5.899   3.276
 9361SOL    HW128982   2.214   5.866   3.202
 9361SOL    HW228983   2.196   5.983   3.314
 9362SOL     OW28984   1.663   1.559   2.112
 9362SOL    HW128985   1.569   1.528   2.120
 9362SOL    HW228986   1.679   1.635   2.175
 9363SOL     OW28987   3.417   5.208   1.810
 9363SOL    HW128988   3.450   5.249   1.896
 9363SOL    HW228989   3.324   5.175   1.822
 9364SOL     OW28990   2.546   2.968   1.657
 9364SOL    HW128991   2.538   2.883   1.710
 9364SOL    HW228992   2.467   2.976   1.596
 9365SOL     OW28993   2.720   2.102   4.282
 9365SOL    HW128994   2.694   2.068   4.192
 9365SOL    HW228995   2.743   2.199   4.276
 9366SOL     OW28996   3.319   5.865   0.227
 9366SOL    HW128997   3.330   5.797   0.300
 9366SOL    HW228998   3.392   5.933   0.233
 9367SOL     OW28999   5.604   0.596   1.215
 9367SOL    HW129000   5.515   0.552   1.222
 9367SOL    HW229001   5.676   0.528   1.228
 9368SOL     OW29002   3.642   0.011   2.371
 9368SOL    HW129003   3.711   6.983   2.421
 9368SOL    HW229004   3.671   0.106   2.364
 9369SOL     OW29005   0.624   5.940   4.941
 9369SOL    HW129006   0.655   6.004   5.011
 9369SOL    HW229007   0.530   5.912   4.960
 9370SOL     OW29008   4.748   0.979   3.876
 9370SOL    HW129009   4.824   1.041   3.852
 9370SOL    HW229010   4.740   0.973   3.975
 9371SOL     OW29011   3.602   5.207   1.195
 9371SOL    HW129012   3.545   5.140   1.148
 9371SOL    HW229013   3.559   5.297   1.191
 9372SOL     OW29014   4.528   0.120   1.502
 9372SOL    HW129015   4.502   0.155   1.412
 9372SOL    HW229016   4.604   0.056   1.492
 9373SOL     OW29017   6.337   2.611   0.437
 9373SOL    HW129018   6.404   2.541   0.463
 9373SOL    HW229019   6.257   2.603   0.496
 9374SOL     OW29020   0.759   4.277   5.545
 9374SOL    HW129021   0.784   4.188   5.582
 9374SOL    HW229022   0.660   4.288   5.548
 9375SOL     OW29023   0.262   1.982   0.267
 9375SOL    HW129024   0.291   1.926   0.190
 9375SOL    HW229025   0.189   2.045   0.238
 9376SOL     OW29026   2.088   3.696   2.116
 9376SOL    HW129027   2.153   3.632   2.075
 9376SOL    HW229028   2.091   3.689   2.215
 9377SOL     OW29029   2.431   4.905   2.557
 9377SOL    HW129030   2.436   5.004   2.569
 9377SOL    HW229031   2.336   4.876   2.554
 9378SOL     OW29032   3.430   0.801   3.672
 9378SOL    HW129033   3.482   0.871   3.624
 9378SOL    HW229034   3.483   0.717   3.676
 9379SOL     OW29035   4.591   6.671   4.753
 9379SOL    HW129036   4.515   6.668   4.688
 9379SOL    HW229037   4.659   6.602   4.728
 9380SOL     OW29038   3.674   5.391   5.725
 9380SOL    HW129039   3.677   5.445   5.641
 9380SOL    HW229040   3.592   5.334   5.725
 9381SOL     OW29041   4.810   1.941   4.337
 9381SOL    HW129042   4.755   1.932   4.420
 9381SOL    HW229043   4.883   2.008   4.353
 9382SOL     OW29044   3.593   0.851   4.180
 9382SOL    HW129045   3.604   0.926   4.245
 9382SOL    HW229046   3.677   0.798   4.175
 9383SOL     OW29047   5.055   4.049   3.568
 9383SOL    HW129048   5.080   3.959   3.603
 9383SOL    HW229049   5.134   4.091   3.524
 9384SOL     OW29050   2.089   6.849   2.104
 9384SOL    HW129051   2.164   6.787   2.126
 9384SOL    HW229052   2.058   6.833   2.011
 9385SOL     OW29053   3.793   1.315   4.117
 9385SOL    HW129054   3.696   1.318   4.092
 9385SOL    HW229055   3.849   1.341   4.038
 9386SOL     OW29056   3.710   6.186   5.116
 9386SOL    HW129057   3.670   6.170   5.025
 9386SOL    HW229058   3.646   6.239   5.171
 9387SOL     OW29059   3.835   2.142   0.240
 9387SOL    HW129060   3.879   2.095   0.163
 9387SOL    HW229061   3.848   2.088   0.323
 9388SOL     OW29062   1.755   0.183   4.241
 9388SOL    HW129063   1.769   0.093   4.281
 9388SOL    HW229064   1.777   0.254   4.308
 9389SOL     OW29065   3.497   5.255   2.520
 9389SOL    HW129066   3.421   5.195   2.544
 9389SOL    HW229067   3.583   5.206   2.530
 9390SOL     OW29068   5.176   4.856   5.438
 9390SOL    HW129069   5.220   4.770   5.460
 9390SOL    HW229070   5.229   4.932   5.476
 9391SOL     OW29071   1.076   6.636   4.698
 9391SOL    HW129072   1.084   6.724   4.744
 9391SOL    HW229073   0.979   6.616   4.682
 9392SOL     OW29074   5.354   4.157   3.526
 9392SOL    HW129075   5.402   4.134   3.441
 9392SOL    HW229076   5.323   4.252   3.522
 9393SOL     OW29077   3.086   6.289   6.280
 9393SOL    HW129078   2.999   6.283   6.328
 9393SOL    HW229079   3.112   6.199   6.246
 9394SOL     OW29080   5.689   0.328   1.340
 9394SOL    HW129081   5.632   0.246   1.348
 9394SOL    HW229082   5.749   0.318   1.261
 9395SOL     OW29083   3.063   1.703   0.811
 9395SOL    HW129084   3.146   1.651   0.832
 9395SOL    HW229085   3.083   1.772   0.741
 9396SOL     OW29086   1.688   5.883   6.527
 9396SOL    HW129087   1.643   5.796   6.547
 9396SOL    HW229088   1.666   5.910   6.433
 9397SOL     OW29089   3.543   0.379   6.289
 9397SOL    HW129090   3.469   0.375   6.356
 9397SOL    HW229091   3.620   0.325   6.322
 9398SOL     OW29092   6.509   1.046   6.543
 9398SOL    HW129093   6.554   0.993   6.471
 9398SOL    HW229094   6.514   0.995   6.629
 9399SOL     OW29095   1.792   2.908   3.957
 9399SOL    HW129096   1.811   2.973   4.030
 9399SOL    HW229097   1.872   2.850   3.942
 9400SOL     OW29098   5.158   1.447   0.437
 9400SOL    HW129099   5.258   1.453   0.436
 9400SOL    HW229100   5.127   1.429   0.530
 9401SOL     OW29101   0.610   2.478   2.678
 9401SOL    HW129102   0.597   2.540   2.756
 9401SOL    HW229103   0.642   2.389   2.711
 9402SOL     OW29104   1.678   5.588   2.933
 9402SOL    HW129105   1.772   5.581   2.966
 9402SOL    HW229106   1.647   5.498   2.903
 9403SOL     OW29107   6.639   1.336   2.229
 9403SOL    HW129108   6.718   1.352   2.170
 9403SOL    HW229109   6.582   1.263   2.191
 9404SOL     OW29110   1.804   3.286   1.054
 9404SOL    HW129111   1.714   3.303   1.014
 9404SOL    HW229112   1.828   3.362   1.115
 9405SOL     OW29113   0.224   4.729   5.071
 9405SOL    HW129114   0.264   4.649   5.025
 9405SOL    HW229115   0.295   4.799   5.083
 9406SOL     OW29116   0.484   3.105   6.377
 9406SOL    HW129117   0.520   3.042   6.446
 9406SOL    HW229118   0.546   3.183   6.368
 9407SOL     OW29119   2.251   5.354   4.897
 9407SOL    HW129120   2.183   5.295   4.940
 9407SOL    HW229121   2.226   5.370   4.801
 9408SOL     OW29122   6.751   4.237   5.425
 9408SOL    HW129123   6.698   4.320   5.444
 9408SOL    HW229124   6.741   4.173   5.501
 9409SOL     OW29125   6.476   5.336   2.005
 9409SOL    HW129126   6.537   5.415   2.002
 9409SOL    HW229127   6.489   5.280   1.923
 9410SOL     OW29128   4.242   0.452   2.115
 9410SOL    HW129129   4.257   0.533   2.173
 9410SOL    HW229130   4.206   0.481   2.027
 9411SOL     OW29131   4.154   3.307   3.837
 9411SOL    HW129132   4.185   3.390   3.882
 9411SOL    HW229133   4.121   3.242   3.906
 9412SOL     OW29134   0.388   0.909   1.296
 9412SOL    HW129135   0.423   0.891   1.204
 9412SOL    HW229136   0.298   0.866   1.307
 9413SOL     OW29137   4.428   5.190   4.124
 9413SOL    HW129138   4.413   5.280   4.083
 9413SOL    HW229139   4.345   5.161   4.172
 9414SOL     OW29140   2.301   2.359   5.242
 9414SOL    HW129141   2.249   2.296   5.300
 9414SOL    HW229142   2.252   2.446   5.236
 9415SOL     OW29143   3.681   0.313   2.130
 9415SOL    HW129144   3.676   0.276   2.037
 9415SOL    HW229145   3.606   0.275   2.184
 9416SOL     OW29146   0.132   6.080   6.296
 9416SOL    HW129147   0.198   6.154   6.283
 9416SOL    HW229148   0.160   6.024   6.374
 9417SOL     OW29149   2.797   6.481   0.769
 9417SOL    HW129150   2.801   6.386   0.800
 9417SOL    HW229151   2.875   6.531   0.806
 9418SOL     OW29152   2.953   1.880   4.243
 9418SOL    HW129153   2.861   1.918   4.250
 9418SOL    HW229154   3.019   1.947   4.275
 9419SOL     OW29155   2.973   2.419   6.762
 9419SOL    HW129156   2.971   2.364   6.845
 9419SOL    HW229157   3.011   2.366   6.687
 9420SOL     OW29158   5.456   3.414   0.289
 9420SOL    HW129159   5.453   3.315   0.307
 9420SOL    HW229160   5.431   3.431   0.194
 9421SOL     OW29161   3.794   6.194   5.614
 9421SOL    HW129162   3.875   6.140   5.638
 9421SOL    HW229163   3.736   6.140   5.552
 9422SOL     OW29164   2.786   6.015   4.277
 9422SOL    HW129165   2.704   6.011   4.335
 9422SOL    HW229166   2.867   6.020   4.335
 9423SOL     OW29167   3.933   5.845   3.235
 9423SOL    HW129168   4.004   5.893   3.184
 9423SOL    HW229169   3.928   5.750   3.203
 9424SOL     OW29170   5.396   1.030   4.687
 9424SOL    HW129171   5.360   1.053   4.778
 9424SOL    HW229172   5.322   1.033   4.620
 9425SOL     OW29173   6.784   4.860   0.538
 9425SOL    HW129174   6.881   4.860   0.513
 9425SOL    HW229175   6.756   4.767   0.563
 9426SOL     OW29176   0.618   1.848   6.151
 9426SOL    HW129177   0.638   1.946   6.142
 9426SOL    HW229178   0.670   1.797   6.082
 9427SOL     OW29179   3.730   5.933   2.932
 9427SOL    HW129180   3.754   5.986   3.014
 9427SOL    HW229181   3.809   5.880   2.903
 9428SOL     OW29182   6.650   6.992   6.612
 9428SOL    HW129183   6.703   6.987   6.527
 9428SOL    HW229184   6.704   6.954   6.687
 9429SOL     OW29185   1.226   2.114   3.987
 9429SOL    HW129186   1.249   2.167   3.906
 9429SOL    HW229187   1.309   2.070   4.023
 9430SOL     OW29188   0.405   1.972   4.178
 9430SOL    HW129189   0.426   1.930   4.266
 9430SOL    HW229190   0.471   2.045   4.159
 9431SOL     OW29191   6.791   4.694   6.796
 9431SOL    HW129192   6.755   4.601   6.800
 9431SOL    HW229193   6.724   4.757   6.837
 9432SOL     OW29194   6.637   1.763   3.355
 9432SOL    HW129195   6.737   1.756   3.345
 9432SOL    HW229196   6.612   1.859   3.367
 9433SOL     OW29197   4.042   6.399   2.923
 9433SOL    HW129198   4.021   6.455   2.842
 9433SOL    HW229199   4.044   6.458   3.004
 9434SOL     OW29200   5.028   5.734   3.964
 9434SOL    HW129201   5.097   5.785   3.912
 9434SOL    HW229202   4.956   5.703   3.903
 9435SOL     OW29203   0.595   2.678   1.810
 9435SOL    HW129204   0.675   2.689   1.751
 9435SOL    HW229205   0.620   2.626   1.891
 9436SOL     OW29206   0.531   0.882   2.791
 9436SOL    HW129207   0.466   0.926   2.730
 9436SOL    HW229208   0.486   0.862   2.879
 9437SOL     OW29209   0.199   5.103   4.532
 9437SOL    HW129210   0.221   5.106   4.435
 9437SOL    HW229211   0.108   5.143   4.547
 9438SOL     OW29212   2.351   6.390   1.940
 9438SOL    HW129213   2.297   6.407   2.022
 9438SOL    HW229214   2.311   6.313   1.890
 9439SOL     OW29215   0.789   2.875   6.959
 9439SOL    HW129216   0.813   2.910   6.869
 9439SOL    HW229217   0.712   2.812   6.951
 9440SOL     OW29218   3.335   4.928   3.668
 9440SOL    HW129219   3.317   5.022   3.642
 9440SOL    HW229220   3.391   4.925   3.751
 9441SOL     OW29221   6.887   5.755   4.059
 9441SOL    HW129222   6.821   5.803   4.116
 9441SOL    HW229223   6.970   5.738   4.112
 9442SOL     OW29224   4.572   3.698   0.436
 9442SOL    HW129225   4.633   3.670   0.361
 9442SOL    HW229226   4.567   3.625   0.504
 9443SOL     OW29227   2.618   4.714   2.582
 9443SOL    HW129228   2.548   4.785   2.576
 9443SOL    HW229229   2.608   4.651   2.505
 9444SOL     OW29230   2.176   4.222   0.413
 9444SOL    HW129231   2.230   4.287   0.360
 9444SOL    HW229232   2.208   4.129   0.394
 9445SOL     OW29233   0.497   1.400   3.849
 9445SOL    HW129234   0.592   1.403   3.818
 9445SOL    HW229235   0.469   1.304   3.859
 9446SOL     OW29236   6.474   4.962   3.359
 9446SOL    HW129237   6.430   4.920   3.439
 9446SOL    HW229238   6.562   4.917   3.343
 9447SOL     OW29239   5.724   5.452   2.559
 9447SOL    HW129240   5.751   5.366   2.516
 9447SOL    HW229241   5.650   5.435   2.625
 9448SOL     OW29242   5.556   0.496   5.785
 9448SOL    HW129243   5.568   0.580   5.838
 9448SOL    HW229244   5.588   0.511   5.692
 9449SOL     OW29245   5.919   6.713   1.153
 9449SOL    HW129246   5.967   6.628   1.172
 9449SOL    HW229247   5.970   6.790   1.193
 9450SOL     OW29248   1.421   6.032   4.227
 9450SOL    HW129249   1.508   6.069   4.261
 9450SOL    HW229250   1.371   5.992   4.304
 9451SOL     OW29251   3.571   5.398   6.346
 9451SOL    HW129252   3.572   5.498   6.351
 9451SOL    HW229253   3.584   5.370   6.251
 9452SOL     OW29254   0.222   4.368   1.114
 9452SOL    HW129255   0.136   4.396   1.156
 9452SOL    HW229256   0.226   4.403   1.020
 9453SOL     OW29257   3.790   5.262   2.934
 9453SOL    HW129258   3.846   5.320   2.993
 9453SOL    HW229259   3.702   5.246   2.977
 9454SOL     OW29260   4.422   4.403   0.751
 9454SOL    HW129261   4.326   4.377   0.766
 9454SOL    HW229262   4.482   4.332   0.788
 9455SOL     OW29263   2.724   2.323   2.246
 9455SOL    HW129264   2.699   2.226   2.249
 9455SOL    HW229265   2.780   2.340   2.165
 9456SOL     OW29266   5.913   3.184   2.235
 9456SOL    HW129267   5.950   3.251   2.170
 9456SOL    HW229268   5.814   3.179   2.225
 9457SOL     OW29269   1.107   4.761   3.849
 9457SOL    HW129270   1.023   4.724   3.888
 9457SOL    HW229271   1.144   4.695   3.783
 9458SOL     OW29272   6.607   3.946   0.429
 9458SOL    HW129273   6.508   3.956   0.438
 9458SOL    HW229274   6.650   4.036   0.418
 9459SOL     OW29275   5.118   4.661   4.919
 9459SOL    HW129276   5.181   4.737   4.908
 9459SOL    HW229277   5.026   4.689   4.890
 9460SOL     OW29278   0.999   2.648   3.182
 9460SOL    HW129279   0.983   2.725   3.120
 9460SOL    HW229280   0.916   2.593   3.189
 9461SOL     OW29281   1.758   2.203   1.643
 9461SOL    HW129282   1.766   2.118   1.695
 9461SOL    HW229283   1.721   2.275   1.703
 9462SOL     OW29284   2.232   1.666   4.510
 9462SOL    HW129285   2.149   1.675   4.565
 9462SOL    HW229286   2.218   1.712   4.422
 9463SOL     OW29287   5.502   6.511   0.866
 9463SOL    HW129288   5.453   6.449   0.928
 9463SOL    HW229289   5.526   6.595   0.915
 9464SOL     OW29290   0.287   0.932   1.814
 9464SOL    HW129291   0.202   0.903   1.769
 9464SOL    HW229292   0.289   1.032   1.819
 9465SOL     OW29293   0.346   4.038   1.816
 9465SOL    HW129294   0.343   3.982   1.733
 9465SOL    HW229295   0.270   4.102   1.816
 9466SOL     OW29296   4.074   5.109   6.729
 9466SOL    HW129297   4.032   5.020   6.745
 9466SOL    HW229298   4.009   5.181   6.753
 9467SOL     OW29299   2.148   3.207   0.750
 9467SOL    HW129300   2.240   3.168   0.747
 9467SOL    HW229301   2.098   3.171   0.828
 9468SOL     OW29302   6.450   3.011   0.430
 9468SOL    HW129303   6.542   3.046   0.451
 9468SOL    HW229304   6.418   2.953   0.504
 9469SOL     OW29305   0.044   6.010   0.717
 9469SOL    HW129306   6.988   6.068   0.710
 9469SOL    HW229307   0.037   5.936   0.649
 9470SOL     OW29308   4.794   3.892   0.495
 9470SOL    HW129309   4.719   3.827   0.494
 9470SOL    HW229310   4.758   3.984   0.512
 9471SOL     OW29311   5.993   1.978   5.145
 9471SOL    HW129312   6.070   1.990   5.208
 9471SOL    HW229313   6.027   1.945   5.057
 9472SOL     OW29314   1.466   3.995   6.052
 9472SOL    HW129315   1.513   4.073   6.092
 9472SOL    HW229316   1.367   4.008   6.060
 9473SOL     OW29317   2.800   4.624   0.410
 9473SOL    HW129318   2.871   4.553   0.408
 9473SOL    HW229319   2.840   4.709   0.445
 9474SOL     OW29320   5.487   3.521   1.725
 9474SOL    HW129321   5.583   3.528   1.699
 9474SOL    HW229322   5.447   3.440   1.682
 9475SOL     OW29323   4.921   3.754   5.671
 9475SOL    HW129324   4.965   3.699   5.742
 9475SOL    HW229325   4.839   3.706   5.638
 9476SOL     OW29326   3.705   4.236   6.016
 9476SOL    HW129327   3.706   4.287   6.102
 9476SOL    HW229328   3.611   4.214   5.992
 9477SOL     OW29329   2.049   4.038   1.583
 9477SOL    HW129330   2.043   4.103   1.659
 9477SOL    HW229331   1.991   3.959   1.601
 9478SOL     OW29332   5.416   2.569   0.310
 9478SOL    HW129333   5.466   2.617   0.383
 9478SOL    HW229334   5.481   2.522   0.250
 9479SOL     OW29335   4.332   1.014   1.764
 9479SOL    HW129336   4.361   0.996   1.670
 9479SOL    HW229337   4.264   1.087   1.764
 9480SOL     OW29338   6.395   6.547   6.834
 9480SOL    HW129339   6.439   6.460   6.857
 9480SOL    HW229340   6.464   6.612   6.803
 9481SOL     OW29341   4.510   1.936   3.299
 9481SOL    HW129342   4.513   2.036   3.307
 9481SOL    HW229343   4.417   1.908   3.275
 9482SOL     OW29344   5.973   0.877   0.767
 9482SOL    HW129345   5.930   0.881   0.677
 9482SOL    HW229346   5.980   0.970   0.805
 9483SOL     OW29347   0.770   0.612   0.437
 9483SOL    HW129348   0.771   0.645   0.343
 9483SOL    HW229349   0.858   0.631   0.480
 9484SOL     OW29350   3.202   6.060   4.540
 9484SOL    HW129351   3.242   6.020   4.623
 9484SOL    HW229352   3.139   5.995   4.499
 9485SOL     OW29353   6.719   1.619   6.837
 9485SOL    HW129354   6.660   1.549   6.878
 9485SOL    HW229355   6.691   1.709   6.870
 9486SOL     OW29356   4.633   5.741   0.011
 9486SOL    HW129357   4.664   5.724   0.105
 9486SOL    HW229358   4.561   5.676   7.011
 9487SOL     OW29359   3.077   3.300   4.159
 9487SOL    HW129360   3.016   3.288   4.081
 9487SOL    HW229361   3.086   3.214   4.208
 9488SOL     OW29362   1.488   1.308   1.050
 9488SOL    HW129363   1.453   1.391   1.094
 9488SOL    HW229364   1.473   1.229   1.110
 9489SOL     OW29365   5.063   3.886   0.634
 9489SOL    HW129366   4.968   3.879   0.605
 9489SOL    HW229367   5.123   3.875   0.554
 9490SOL     OW29368   6.079   4.294   3.634
 9490SOL    HW129369   6.019   4.229   3.586
 9490SOL    HW229370   6.175   4.272   3.613
 9491SOL     OW29371   4.939   6.957   3.513
 9491SOL    HW129372   4.883   6.876   3.526
 9491SOL    HW229373   5.030   6.942   3.550
 9492SOL     OW29374   4.827   3.203   4.565
 9492SOL    HW129375   4.857   3.217   4.660
 9492SOL    HW229376   4.813   3.292   4.521
 9493SOL     OW29377   4.262   6.420   3.986
 9493SOL    HW129378   4.283   6.499   4.044
 9493SOL    HW229379   4.164   6.404   3.986
 9494SOL     OW29380   5.165   2.930   1.978
 9494SOL    HW129381   5.166   2.950   2.076
 9494SOL    HW229382   5.080   2.884   1.954
 9495SOL     OW29383   0.542   0.646   2.063
 9495SOL    HW129384   0.519   0.660   1.966
 9495SOL    HW229385   0.477   0.581   2.103
 9496SOL     OW29386   4.198   1.856   2.417
 9496SOL    HW129387   4.220   1.814   2.329
 9496SOL    HW229388   4.112   1.907   2.409
 9497SOL     OW29389   5.971   5.187   4.952
 9497SOL    HW129390   5.915   5.106   4.968
 9497SOL    HW229391   5.950   5.257   5.020
 9498SOL     OW29392   6.968   5.212   4.556
 9498SOL    HW129393   6.887   5.220   4.498
 9498SOL    HW229394   6.946   5.245   4.648
 9499SOL     OW29395   6.389   5.564   5.615
 9499SOL    HW129396   6.416   5.542   5.522
 9499SOL    HW229397   6.358   5.481   5.662
 9500SOL     OW29398   4.346   0.147   0.865
 9500SOL    HW129399   4.421   0.134   0.801
 9500SOL    HW229400   4.283   0.216   0.830
 9501SOL     OW29401   1.470   1.582   4.609
 9501SOL    HW129402   1.433   1.548   4.523
 9501SOL    HW229403   1.524   1.664   4.593
 9502SOL     OW29404   5.514   4.640   5.787
 9502SOL    HW129405   5.565   4.625   5.702
 9502SOL    HW229406   5.460   4.558   5.808
 9503SOL     OW29407   0.483   2.001   6.996
 9503SOL    HW129408   0.386   2.020   6.981
 9503SOL    HW229409   0.538   2.077   6.962
 9504SOL     OW29410   6.680   4.885   1.722
 9504SOL    HW129411   6.652   4.791   1.742
 9504SOL    HW229412   6.636   4.916   1.638
 9505SOL     OW29413   4.408   4.732   5.276
 9505SOL    HW129414   4.412   4.713   5.374
 9505SOL    HW229415   4.317   4.763   5.250
 9506SOL     OW29416   3.065   2.126   1.165
 9506SOL    HW129417   2.984   2.179   1.140
 9506SOL    HW229418   3.039   2.055   1.231
 9507SOL     OW29419   6.034   0.033   1.834
 9507SOL    HW129420   6.025   0.109   1.898
 9507SOL    HW229421   5.991   6.976   1.873
 9508SOL     OW29422   4.847   1.429   3.032
 9508SOL    HW129423   4.864   1.467   3.123
 9508SOL    HW229424   4.791   1.493   2.980
 9509SOL     OW29425   6.503   0.440   2.864
 9509SOL    HW129426   6.509   0.404   2.957
 9509SOL    HW229427   6.562   0.520   2.855
 9510SOL     OW29428   0.215   2.970   3.893
 9510SOL    HW129429   0.235   3.039   3.824
 9510SOL    HW229430   0.173   2.890   3.850
 9511SOL     OW29431   1.327   1.196   0.693
 9511SOL    HW129432   1.336   1.234   0.786
 9511SOL    HW229433   1.341   1.097   0.697
 9512SOL     OW29434   6.466   2.975   0.864
 9512SOL    HW129435   6.391   3.039   0.877
 9512SOL    HW229436   6.488   2.931   0.951
 9513SOL     OW29437   4.301   4.668   6.631
 9513SOL    HW129438   4.365   4.599   6.597
 9513SOL    HW229439   4.332   4.702   6.719
 9514SOL     OW29440   3.080   3.079   6.627
 9514SOL    HW129441   3.082   3.176   6.602
 9514SOL    HW229442   3.174   3.046   6.642
 9515SOL     OW29443   2.727   5.142   3.877
 9515SOL    HW129444   2.733   5.198   3.794
 9515SOL    HW229445   2.745   5.199   3.957
 9516SOL     OW29446   6.306   3.741   0.361
 9516SOL    HW129447   6.340   3.715   0.271
 9516SOL    HW229448   6.242   3.673   0.394
 9517SOL     OW29449   0.872   4.120   1.012
 9517SOL    HW129450   0.930   4.070   1.076
 9517SOL    HW229451   0.912   4.209   0.992
 9518SOL     OW29452   2.296   1.473   0.505
 9518SOL    HW129453   2.287   1.565   0.466
 9518SOL    HW229454   2.345   1.478   0.592
 9519SOL     OW29455   0.721   3.131   5.454
 9519SOL    HW129456   0.748   3.105   5.362
 9519SOL    HW229457   0.795   3.185   5.497
 9520SOL     OW29458   2.512   0.047   2.915
 9520SOL    HW129459   2.586   0.083   2.972
 9520SOL    HW229460   2.524   6.973   2.902
 9521SOL     OW29461   5.686   5.743   4.124
 9521SOL    HW129462   5.624   5.809   4.080
 9521SOL    HW229463   5.647   5.714   4.211
 9522SOL     OW29464   3.478   5.831   1.235
 9522SOL    HW129465   3.417   5.874   1.168
 9522SOL    HW229466   3.573   5.851   1.210
 9523SOL     OW29467   3.518   5.297   4.828
 9523SOL    HW129468   3.594   5.292   4.763
 9523SOL    HW229469   3.465   5.213   4.825
 9524SOL     OW29470   3.426   3.224   1.140
 9524SOL    HW129471   3.523   3.238   1.121
 9524SOL    HW229472   3.403   3.267   1.227
 9525SOL     OW29473   1.914   0.750   5.875
 9525SOL    HW129474   1.939   0.695   5.955
 9525SOL    HW229475   1.997   0.793   5.838
 9526SOL     OW29476   4.591   6.113   3.264
 9526SOL    HW129477   4.594   6.145   3.170
 9526SOL    HW229478   4.627   6.020   3.269
 9527SOL     OW29479   1.168   1.144   1.965
 9527SOL    HW129480   1.187   1.133   2.063
 9527SOL    HW229481   1.227   1.215   1.927
 9528SOL     OW29482   6.401   0.464   1.616
 9528SOL    HW129483   6.316   0.478   1.565
 9528SOL    HW229484   6.430   0.369   1.606
 9529SOL     OW29485   0.875   3.077   6.493
 9529SOL    HW129486   0.863   3.129   6.409
 9529SOL    HW229487   0.970   3.048   6.502
 9530SOL     OW29488   1.461   2.386   3.244
 9530SOL    HW129489   1.478   2.322   3.320
 9530SOL    HW229490   1.442   2.477   3.280
 9531SOL     OW29491   3.291   0.221   3.298
 9531SOL    HW129492   3.338   0.279   3.232
 9531SOL    HW229493   3.356   0.184   3.364
 9532SOL     OW29494   2.029   0.201   1.307
 9532SOL    HW129495   1.950   0.260   1.317
 9532SOL    HW229496   2.016   0.141   1.227
 9533SOL     OW29497   1.461   1.165   5.683
 9533SOL    HW129498   1.366   1.196   5.675
 9533SOL    HW229499   1.486   1.115   5.600
 9534SOL     OW29500   5.158   2.069   4.766
 9534SOL    HW129501   5.165   2.119   4.853
 9534SOL    HW229502   5.153   1.971   4.784
 9535SOL     OW29503   2.359   1.337   5.469
 9535SOL    HW129504   2.444   1.360   5.422
 9535SOL    HW229505   2.296   1.414   5.465
 9536SOL     OW29506   1.937   5.728   5.665
 9536SOL    HW129507   2.017   5.776   5.699
 9536SOL    HW229508   1.855   5.783   5.681
 9537SOL     OW29509   3.033   0.513   2.270
 9537SOL    HW129510   2.942   0.554   2.268
 9537SOL    HW229511   3.049   0.461   2.186
 9538SOL     OW29512   6.754   2.235   4.700
 9538SOL    HW129513   6.775   2.142   4.668
 9538SOL    HW229514   6.712   2.230   4.791
 9539SOL     OW29515   0.533   5.966   0.107
 9539SOL    HW129516   0.584   6.013   0.035
 9539SOL    HW229517   0.544   6.015   0.193
 9540SOL     OW29518   4.278   5.187   4.722
 9540SOL    HW129519   4.184   5.171   4.749
 9540SOL    HW229520   4.326   5.100   4.713
 9541SOL     OW29521   1.875   2.761   4.322
 9541SOL    HW129522   1.904   2.730   4.413
 9541SOL    HW229523   1.791   2.814   4.330
 9542SOL     OW29524   5.046   3.269   4.760
 9542SOL    HW129525   5.101   3.321   4.694
 9542SOL    HW229526   5.084   3.177   4.770
 9543SOL     OW29527   4.999   1.205   3.244
 9543SOL    HW129528   4.963   1.298   3.235
 9543SOL    HW229529   4.954   1.159   3.321
 9544SOL     OW29530   5.091   1.238   2.426
 9544SOL    HW129531   5.154   1.233   2.349
 9544SOL    HW229532   5.141   1.232   2.512
 9545SOL     OW29533   6.776   0.488   3.372
 9545SOL    HW129534   6.709   0.546   3.420
 9545SOL    HW229535   6.736   0.455   3.287
 9546SOL     OW29536   2.778   5.305   6.894
 9546SOL    HW129537   2.700   5.263   6.941
 9546SOL    HW229538   2.861   5.285   6.945
 9547SOL     OW29539   0.686   6.334   4.723
 9547SOL    HW129540   0.632   6.389   4.660
 9547SOL    HW229541   0.663   6.237   4.713
 9548SOL     OW29542   5.103   5.759   4.238
 9548SOL    HW129543   5.054   5.737   4.153
 9548SOL    HW229544   5.133   5.674   4.281
 9549SOL     OW29545   2.425   5.882   0.394
 9549SOL    HW129546   2.404   5.787   0.415
 9549SOL    HW229547   2.412   5.938   0.476
 9550SOL     OW29548   1.188   1.772   0.363
 9550SOL    HW129549   1.200   1.774   0.462
 9550SOL    HW229550   1.275   1.795   0.319
 9551SOL     OW29551   0.666   6.763   4.840
 9551SOL    HW129552   0.655   6.713   4.926
 9551SOL    HW229553   0.694   6.857   4.859
 9552SOL     OW29554   1.985   6.111   3.160
 9552SOL    HW129555   2.024   6.045   3.223
 9552SOL    HW229556   1.898   6.144   3.195
 9553SOL     OW29557   6.160   4.221   5.917
 9553SOL    HW129558   6.215   4.282   5.860
 9553SOL    HW229559   6.123   4.271   5.995
 9554SOL     OW29560   2.404   1.297   2.098
 9554SOL    HW129561   2.450   1.293   2.010
 9554SOL    HW229562   2.306   1.288   2.085
 9555SOL     OW29563   6.924   2.263   0.916
 9555SOL    HW129564   6.872   2.279   0.832
 9555SOL    HW229565   7.021   2.270   0.897
 9556SOL     OW29566   2.481   1.206   1.447
 9556SOL    HW129567   2.439   1.261   1.519
 9556SOL    HW229568   2.578   1.231   1.439
 9557SOL     OW29569   5.311   0.069   2.418
 9557SOL    HW129570   5.245   0.102   2.351
 9557SOL    HW229571   5.404   0.092   2.389
 9558SOL     OW29572   6.606   4.945   2.723
 9558SOL    HW129573   6.679   4.925   2.658
 9558SOL    HW229574   6.604   4.875   2.794
 9559SOL     OW29575   6.681   3.224   1.418
 9559SOL    HW129576   6.603   3.212   1.480
 9559SOL    HW229577   6.730   3.307   1.443
 9560SOL     OW29578   2.960   1.374   3.451
 9560SOL    HW129579   2.965   1.468   3.486
 9560SOL    HW229580   3.020   1.365   3.372
 9561SOL     OW29581   4.311   6.735   0.903
 9561SOL    HW129582   4.295   6.667   0.974
 9561SOL    HW229583   4.407   6.732   0.876
 9562SOL     OW29584   4.774   5.111   2.718
 9562SOL    HW129585   4.717   5.192   2.728
 9562SOL    HW229586   4.866   5.131   2.749
 9563SOL     OW29587   6.722   5.827   6.681
 9563SOL    HW129588   6.647   5.871   6.631
 9563SOL    HW229589   6.771   5.895   6.735
 9564SOL     OW29590   2.919   6.730   0.082
 9564SOL    HW129591   2.945   6.674   0.161
 9564SOL    HW229592   2.905   6.672   0.003
 9565SOL     OW29593   3.627   5.896   4.533
 9565SOL    HW129594   3.586   5.985   4.512
 9565SOL    HW229595   3.555   5.829   4.548
 9566SOL     OW29596   2.841   4.508   5.476
 9566SOL    HW129597   2.917   4.561   5.515
 9566SOL    HW229598   2.849   4.506   5.376
 9567SOL     OW29599   6.053   5.855   6.025
 9567SOL    HW129600   5.996   5.776   6.005
 9567SOL    HW229601   6.146   5.839   5.990
 9568SOL     OW29602   4.824   3.784   6.703
 9568SOL    HW129603   4.767   3.710   6.665
 9568SOL    HW229604   4.813   3.786   6.803
 9569SOL     OW29605   6.473   0.713   6.928
 9569SOL    HW129606   6.478   0.625   6.880
 9569SOL    HW229607   6.504   0.701   7.022
 9570SOL     OW29608   1.299   1.154   0.162
 9570SOL    HW129609   1.384   1.136   0.212
 9570SOL    HW229610   1.294   1.092   0.083
 9571SOL     OW29611   2.228   3.672   0.026
 9571SOL    HW129612   2.259   3.660   0.121
 9571SOL    HW229613   2.167   3.596   0.001
 9572SOL     OW29614   1.249   4.210   1.932
 9572SOL    HW129615   1.263   4.150   1.854
 9572SOL    HW229616   1.254   4.158   2.017
 9573SOL     OW29617   1.977   1.615   0.293
 9573SOL    HW129618   2.030   1.553   0.236
 9573SOL    HW229619   1.880   1.593   0.286
 9574SOL     OW29620   2.833   3.019   5.799
 9574SOL    HW129621   2.785   2.939   5.765
 9574SOL    HW229622   2.823   3.024   5.898
 9575SOL     OW29623   5.178   0.501   2.444
 9575SOL    HW129624   5.251   0.453   2.492
 9575SOL    HW229625   5.092   0.452   2.457
 9576SOL     OW29626   2.911   1.216   5.103
 9576SOL    HW129627   2.905   1.315   5.112
 9576SOL    HW229628   2.820   1.176   5.113
 9577SOL     OW29629   0.765   6.289   3.215
 9577SOL    HW129630   0.754   6.368   3.275
 9577SOL    HW229631   0.859   6.285   3.181
 9578SOL     OW29632   6.140   2.749   2.085
 9578SOL    HW129633   6.083   2.667   2.084
 9578SOL    HW229634   6.113   2.807   2.162
 9579SOL     OW29635   0.853   6.798   2.700
 9579SOL    HW129636   0.756   6.816   2.684
 9579SOL    HW229637   0.864   6.748   2.787
 9580SOL     OW29638   4.265   3.786   5.888
 9580SOL    HW129639   4.197   3.851   5.922
 9580SOL    HW229640   4.305   3.820   5.803
 9581SOL     OW29641   1.194   4.279   6.110
 9581SOL    HW129642   1.144   4.319   6.033
 9581SOL    HW229643   1.158   4.188   6.130
 9582SOL     OW29644   4.325   4.694   4.295
 9582SOL    HW129645   4.379   4.665   4.374
 9582SOL    HW229646   4.363   4.652   4.212
 9583SOL     OW29647   1.853   4.485   2.053
 9583SOL    HW129648   1.917   4.556   2.023
 9583SOL    HW229649   1.903   4.401   2.074
 9584SOL     OW29650   6.224   5.446   6.506
 9584SOL    HW129651   6.268   5.360   6.483
 9584SOL    HW229652   6.270   5.521   6.459
 9585SOL     OW29653   5.892   0.552   4.353
 9585SOL    HW129654   5.976   0.558   4.407
 9585SOL    HW229655   5.813   0.568   4.413
 9586SOL     OW29656   5.770   3.211   3.181
 9586SOL    HW129657   5.747   3.205   3.278
 9586SOL    HW229658   5.703   3.268   3.133
 9587SOL     OW29659   5.207   0.045   2.677
 9587SOL    HW129660   5.258   0.052   2.591
 9587SOL    HW229661   5.109   0.051   2.658
 9588SOL     OW29662   0.972   0.593   1.542
 9588SOL    HW129663   0.912   0.645   1.603
 9588SOL    HW229664   1.039   0.542   1.596
 9589SOL     OW29665   2.799   1.124   6.536
 9589SOL    HW129666   2.875   1.113   6.600
 9589SOL    HW229667   2.763   1.033   6.512
 9590SOL     OW29668   6.969   4.214   3.361
 9590SOL    HW129669   6.916   4.289   3.399
 9590SOL    HW229670   6.921   4.177   3.281
 9591SOL     OW29671   1.431   5.208   1.216
 9591SOL    HW129672   1.404   5.113   1.197
 9591SOL    HW229673   1.381   5.268   1.154
 9592SOL     OW29674   4.959   5.433   2.143
 9592SOL    HW129675   5.032   5.499   2.124
 9592SOL    HW229676   4.987   5.343   2.112
 9593SOL     OW29677   6.802   2.562   4.735
 9593SOL    HW129678   6.862   2.563   4.656
 9593SOL    HW229679   6.776   2.468   4.756
 9594SOL     OW29680   6.183   7.019   2.637
 9594SOL    HW129681   6.250   0.003   2.711
 9594SOL    HW229682   6.229   7.024   2.549
 9595SOL     OW29683   1.433   5.638   4.132
 9595SOL    HW129684   1.427   5.736   4.152
 9595SOL    HW229685   1.423   5.623   4.034
 9596SOL     OW29686   5.816   6.148   5.131
 9596SOL    HW129687   5.865   6.079   5.184
 9596SOL    HW229688   5.772   6.105   5.052
 9597SOL     OW29689   1.964   4.106   1.296
 9597SOL    HW129690   2.003   4.175   1.235
 9597SOL    HW229691   1.979   4.133   1.391
 9598SOL     OW29692   6.890   5.354   6.034
 9598SOL    HW129693   6.945   5.389   5.958
 9598SOL    HW229694   6.913   5.404   6.118
 9599SOL     OW29695   4.702   1.659   5.721
 9599SOL    HW129696   4.634   1.717   5.677
 9599SOL    HW229697   4.790   1.708   5.723
 9600SOL     OW29698   1.498   0.486   6.760
 9600SOL    HW129699   1.528   0.452   6.849
 9600SOL    HW229700   1.578   0.498   6.701
 9601SOL     OW29701   0.244   5.487   5.197
 9601SOL    HW129702   0.203   5.524   5.280
 9601SOL    HW229703   0.225   5.389   5.191
 9602SOL     OW29704   1.326   5.541   6.909
 9602SOL    HW129705   1.397   5.473   6.892
 9602SOL    HW229706   1.291   5.575   6.822
 9603SOL     OW29707   1.856   6.024   4.574
 9603SOL    HW129708   1.893   5.935   4.602
 9603SOL    HW229709   1.817   6.071   4.654
 9604SOL     OW29710   5.989   1.364   0.063
 9604SOL    HW129711   6.047   1.406   0.134
 9604SOL    HW229712   5.895   1.393   0.076
 9605SOL     OW29713   1.966   5.951   6.566
 9605SOL    HW129714   1.955   6.016   6.641
 9605SOL    HW229715   1.877   5.915   6.540
 9606SOL     OW29716   6.679   6.237   4.188
 9606SOL    HW129717   6.626   6.308   4.143
 9606SOL    HW229718   6.744   6.198   4.123
 9607SOL     OW29719   1.002   2.392   1.967
 9607SOL    HW129720   1.086   2.349   2.000
 9607SOL    HW229721   0.923   2.349   2.011
 9608SOL     OW29722   0.664   6.945   2.342
 9608SOL    HW129723   0.629   0.010   2.316
 9608SOL    HW229724   0.763   6.950   2.356
 9609SOL     OW29725   1.436   4.051   4.481
 9609SOL    HW129726   1.504   4.032   4.410
 9609SOL    HW229727   1.482   4.062   4.569
 9610SOL     OW29728   2.395   1.787   6.024
 9610SOL    HW129729   2.423   1.883   6.013
 9610SOL    HW229730   2.305   1.783   6.066
 9611SOL     OW29731   6.342   0.337   0.901
 9611SOL    HW129732   6.387   0.398   0.966
 9611SOL    HW229733   6.345   0.243   0.935
 9612SOL     OW29734   5.755   2.816   1.735
 9612SOL    HW129735   5.849   2.847   1.746
 9612SOL    HW229736   5.728   2.761   1.814
 9613SOL     OW29737   6.052   6.502   5.158
 9613SOL    HW129738   6.033   6.600   5.152
 9613SOL    HW229739   5.997   6.463   5.231
 9614SOL     OW29740   3.785   3.467   2.467
 9614SOL    HW129741   3.697   3.440   2.427
 9614SOL    HW229742   3.769   3.536   2.538
 9615SOL     OW29743   1.236   5.816   2.839
 9615SOL    HW129744   1.187   5.882   2.783
 9615SOL    HW229745   1.323   5.793   2.795
 9616SOL     OW29746   3.968   3.183   0.535
 9616SOL    HW129747   3.898   3.177   0.463
 9616SOL    HW229748   3.961   3.271   0.581
 9617SOL     OW29749   0.616   3.625   3.972
 9617SOL    HW129750   0.619   3.687   3.893
 9617SOL    HW229751   0.706   3.624   4.015
 9618SOL     OW29752   4.280   6.539   6.679
 9618SOL    HW129753   4.364   6.589   6.657
 9618SOL    HW229754   4.245   6.569   6.767
 9619SOL     OW29755   2.561   6.612   0.267
 9619SOL    HW129756   2.604   6.522   0.256
 9619SOL    HW229757   2.632   6.680   0.285
 9620SOL     OW29758   3.047   1.294   6.136
 9620SOL    HW129759   3.069   1.200   6.162
 9620SOL    HW229760   2.971   1.328   6.191
 9621SOL     OW29761   0.760   0.475   1.256
 9621SOL    HW129762   0.825   0.550   1.266
 9621SOL    HW229763   0.703   0.492   1.175
 9622SOL     OW29764   5.980   0.172   6.123
 9622SOL    HW129765   5.927   0.105   6.175
 9622SOL    HW229766   5.923   0.251   6.102
 9623SOL     OW29767   4.310   6.197   6.206
 9623SOL    HW129768   4.249   6.142   6.264
 9623SOL    HW229769   4.392   6.144   6.184
 9624SOL     OW29770   3.815   4.941   4.688
 9624SOL    HW129771   3.749   4.953   4.614
 9624SOL    HW229772   3.775   4.971   4.774
 9625SOL     OW29773   4.991   4.529   5.944
 9625SOL    HW129774   4.936   4.606   5.975
 9625SOL    HW229775   4.932   4.448   5.935
 9626SOL     OW29776   2.517   4.133   5.825
 9626SOL    HW129777   2.542   4.212   5.769
 9626SOL    HW229778   2.586   4.120   5.897
 9627SOL     OW29779   0.706   5.529   0.091
 9627SOL    HW129780   0.696   5.472   0.173
 9627SOL    HW229781   0.627   5.517   0.032
 9628SOL     OW29782   5.650   2.936   6.467
 9628SOL    HW129783   5.644   3.018   6.411
 9628SOL    HW229784   5.747   2.913   6.482
 9629SOL     OW29785   0.186   5.492   3.688
 9629SOL    HW129786   0.237   5.578   3.685
 9629SOL    HW229787   0.249   5.417   3.707
 9630SOL     OW29788   6.524   5.962   6.549
 9630SOL    HW129789   6.429   5.985   6.569
 9630SOL    HW229790   6.533   5.936   6.453
 9631SOL     OW29791   4.035   0.869   0.386
 9631SOL    HW129792   4.068   0.910   0.300
 9631SOL    HW229793   4.069   0.775   0.393
 9632SOL     OW29794   3.721   6.394   1.558
 9632SOL    HW129795   3.770   6.367   1.641
 9632SOL    HW229796   3.627   6.418   1.582
 9633SOL     OW29797   2.910   3.362   2.480
 9633SOL    HW129798   2.882   3.417   2.402
 9633SOL    HW229799   2.876   3.404   2.564
 9634SOL     OW29800   5.160   4.358   2.381
 9634SOL    HW129801   5.170   4.415   2.299
 9634SOL    HW229802   5.062   4.346   2.400
 9635SOL     OW29803   0.723   3.850   3.668
 9635SOL    HW129804   0.729   3.864   3.767
 9635SOL    HW229805   0.798   3.791   3.638
 9636SOL     OW29806   4.764   2.314   4.800
 9636SOL    HW129807   4.771   2.304   4.701
 9636SOL    HW229808   4.669   2.335   4.825
 9637SOL     OW29809   2.665   3.246   0.423
 9637SOL    HW129810   2.706   3.275   0.336
 9637SOL    HW229811   2.720   3.173   0.463
 9638SOL     OW29812   0.085   4.403   5.576
 9638SOL    HW129813   0.044   4.325   5.528
 9638SOL    HW229814   0.125   4.466   5.510
 9639SOL     OW29815   4.335   1.763   2.630
 9639SOL    HW129816   4.283   1.798   2.552
 9639SOL    HW229817   4.415   1.713   2.597
 9640SOL     OW29818   3.450   0.651   2.479
 9640SOL    HW129819   3.489   0.711   2.549
 9640SOL    HW229820   3.434   0.703   2.395
 9641SOL     OW29821   6.013   4.770   2.718
 9641SOL    HW129822   6.109   4.759   2.694
 9641SOL    HW229823   5.957   4.771   2.635
 9642SOL     OW29824   1.985   0.347   3.792
 9642SOL    HW129825   2.060   0.283   3.777
 9642SOL    HW229826   2.018   0.426   3.843
 9643SOL     OW29827   5.555   4.502   4.377
 9643SOL    HW129828   5.485   4.439   4.343
 9643SOL    HW229829   5.522   4.549   4.458
 9644SOL     OW29830   1.253   5.491   4.972
 9644SOL    HW129831   1.188   5.554   5.012
 9644SOL    HW229832   1.239   5.399   5.010
 9645SOL     OW29833   0.719   5.786   0.204
 9645SOL    HW129834   0.645   5.848   0.177
 9645SOL    HW229835   0.702   5.696   0.163
 9646SOL     OW29836   3.757   6.332   5.927
 9646SOL    HW129837   3.676   6.342   5.984
 9646SOL    HW229838   3.836   6.371   5.974
 9647SOL     OW29839   5.960   6.956   3.424
 9647SOL    HW129840   5.950   6.992   3.332
 9647SOL    HW229841   6.054   6.926   3.438
 9648SOL     OW29842   4.566   2.091   1.233
 9648SOL    HW129843   4.485   2.127   1.188
 9648SOL    HW229844   4.554   1.993   1.249
 9649SOL     OW29845   2.025   4.301   0.038
 9649SOL    HW129846   1.970   4.378   0.005
 9649SOL    HW229847   1.971   4.244   0.099
 9650SOL     OW29848   6.966   4.761   4.872
 9650SOL    HW129849   6.951   4.858   4.889
 9650SOL    HW229850   6.888   4.723   4.822
 9651SOL     OW29851   3.669   1.024   0.740
 9651SOL    HW129852   3.768   1.015   0.731
 9651SOL    HW229853   3.647   1.063   0.829
 9652SOL     OW29854   6.930   3.615   0.522
 9652SOL    HW129855   6.923   3.555   0.602
 9652SOL    HW229856   6.839   3.652   0.499
 9653SOL     OW29857   4.198   3.710   6.294
 9653SOL    HW129858   4.176   3.730   6.389
 9653SOL    HW229859   4.179   3.613   6.275
 9654SOL     OW29860   3.677   3.421   3.608
 9654SOL    HW129861   3.656   3.490   3.677
 9654SOL    HW229862   3.658   3.458   3.517
 9655SOL     OW29863   4.395   1.403   1.674
 9655SOL    HW129864   4.442   1.403   1.586
 9655SOL    HW229865   4.306   1.448   1.665
 9656SOL     OW29866   5.775   4.041   1.235
 9656SOL    HW129867   5.710   4.055   1.161
 9656SOL    HW229868   5.771   4.117   1.299
 9657SOL     OW29869   5.672   3.252   3.437
 9657SOL    HW129870   5.729   3.327   3.402
 9657SOL    HW229871   5.716   3.212   3.517
 9658SOL     OW29872   4.990   2.040   2.228
 9658SOL    HW129873   4.904   2.007   2.266
 9658SOL    HW229874   5.045   1.963   2.196
 9659SOL     OW29875   3.080   3.225   0.406
 9659SOL    HW129876   3.077   3.303   0.469
 9659SOL    HW229877   3.157   3.166   0.430
 9660SOL     OW29878   0.286   5.801   1.298
 9660SOL    HW129879   0.226   5.854   1.238
 9660SOL    HW229880   0.313   5.858   1.376
 9661SOL     OW29881   4.750   4.801   0.761
 9661SOL    HW129882   4.698   4.721   0.793
 9661SOL    HW229883   4.720   4.882   0.812
 9662SOL     OW29884   5.144   4.287   6.588
 9662SOL    HW129885   5.241   4.295   6.609
 9662SOL    HW229886   5.090   4.329   6.661
 9663SOL     OW29887   0.867   4.761   3.588
 9663SOL    HW129888   0.769   4.743   3.593
 9663SOL    HW229889   0.895   4.816   3.667
 9664SOL     OW29890   5.540   3.910   3.343
 9664SOL    HW129891   5.445   3.931   3.324
 9664SOL    HW229892   5.588   3.890   3.257
 9665SOL     OW29893   5.274   6.038   6.328
 9665SOL    HW129894   5.321   5.986   6.399
 9665SOL    HW229895   5.321   6.125   6.314
 9666SOL     OW29896   5.766   3.712   0.475
 9666SOL    HW129897   5.800   3.618   0.468
 9666SOL    HW229898   5.678   3.719   0.428
 9667SOL     OW29899   5.463   5.809   0.250
 9667SOL    HW129900   5.453   5.908   0.236
 9667SOL    HW229901   5.530   5.792   0.321
 9668SOL     OW29902   0.671   6.988   5.654
 9668SOL    HW129903   0.571   6.984   5.660
 9668SOL    HW229904   0.707   6.897   5.633
 9669SOL     OW29905   3.526   7.019   0.391
 9669SOL    HW129906   3.533   6.963   0.473
 9669SOL    HW229907   3.434   0.034   0.385
 9670SOL     OW29908   0.283   0.241   6.563
 9670SOL    HW129909   0.270   0.257   6.465
 9670SOL    HW229910   0.380   0.250   6.586
 9671SOL     OW29911   1.281   5.089   6.098
 9671SOL    HW129912   1.268   4.994   6.071
 9671SOL    HW229913   1.378   5.108   6.110
 9672SOL     OW29914   0.312   3.759   4.930
 9672SOL    HW129915   0.387   3.824   4.920
 9672SOL    HW229916   0.293   3.744   5.027
 9673SOL     OW29917   2.317   4.170   1.090
 9673SOL    HW129918   2.395   4.110   1.109
 9673SOL    HW229919   2.238   4.114   1.064
 9674SOL     OW29920   3.453   6.502   3.722
 9674SOL    HW129921   3.415   6.423   3.674
 9674SOL    HW229922   3.502   6.471   3.803
 9675SOL     OW29923   4.616   3.952   1.720
 9675SOL    HW129924   4.683   3.928   1.790
 9675SOL    HW229925   4.627   4.048   1.694
 9676SOL     OW29926   1.411   3.054   5.611
 9676SOL    HW129927   1.492   3.110   5.599
 9676SOL    HW229928   1.371   3.073   5.701
 9677SOL     OW29929   6.441   5.246   0.481
 9677SOL    HW129930   6.379   5.307   0.530
 9677SOL    HW229931   6.528   5.241   0.530
 9678SOL     OW29932   3.606   3.660   4.859
 9678SOL    HW129933   3.542   3.594   4.897
 9678SOL    HW229934   3.629   3.729   4.928
 9679SOL     OW29935   1.940   1.374   5.081
 9679SOL    HW129936   1.925   1.431   5.162
 9679SOL    HW229937   1.857   1.372   5.026
 9680SOL     OW29938   4.142   6.130   2.783
 9680SOL    HW129939   4.096   6.218   2.790
 9680SOL    HW229940   4.127   6.091   2.692
 9681SOL     OW29941   2.056   1.801   2.373
 9681SOL    HW129942   2.018   1.719   2.330
 9681SOL    HW229943   2.021   1.808   2.466
 9682SOL     OW29944   5.372   5.794   5.189
 9682SOL    HW129945   5.380   5.797   5.089
 9682SOL    HW229946   5.423   5.715   5.223
 9683SOL     OW29947   2.994   6.775   1.232
 9683SOL    HW129948   3.086   6.811   1.248
 9683SOL    HW229949   2.985   6.686   1.276
 9684SOL     OW29950   1.281   4.244   5.678
 9684SOL    HW129951   1.245   4.245   5.585
 9684SOL    HW229952   1.260   4.331   5.723
 9685SOL     OW29953   3.824   4.904   1.608
 9685SOL    HW129954   3.748   4.861   1.560
 9685SOL    HW229955   3.840   4.995   1.569
 9686SOL     OW29956   6.976   1.941   5.767
 9686SOL    HW129957   6.912   1.995   5.821
 9686SOL    HW229958   6.926   1.871   5.716
 9687SOL     OW29959   5.891   0.492   2.238
 9687SOL    HW129960   5.908   0.449   2.150
 9687SOL    HW229961   5.978   0.515   2.282
 9688SOL     OW29962   1.074   4.418   1.302
 9688SOL    HW129963   1.001   4.477   1.338
 9688SOL    HW229964   1.049   4.387   1.211
 9689SOL     OW29965   1.277   6.382   0.736
 9689SOL    HW129966   1.272   6.286   0.708
 9689SOL    HW229967   1.185   6.417   0.752
 9690SOL     OW29968   5.589   5.636   5.209
 9690SOL    HW129969   5.654   5.645   5.285
 9690SOL    HW229970   5.640   5.627   5.123
 9691SOL     OW29971   3.229   3.227   2.100
 9691SOL    HW129972   3.170   3.172   2.041
 9691SOL    HW229973   3.323   3.195   2.092
 9692SOL     OW29974   4.708   5.054   0.581
 9692SOL    HW129975   4.738   5.098   0.496
 9692SOL    HW229976   4.756   4.968   0.594
 9693SOL     OW29977   5.471   3.949   4.050
 9693SOL    HW129978   5.465   3.877   4.119
 9693SOL    HW229979   5.523   3.915   3.971
 9694SOL     OW29980   3.364   6.455   2.104
 9694SOL    HW129981   3.374   6.553   2.091
 9694SOL    HW229982   3.389   6.431   2.198
 9695SOL     OW29983   0.335   2.519   3.868
 9695SOL    HW129984   0.338   2.469   3.781
 9695SOL    HW229985   0.347   2.617   3.850
 9696SOL     OW29986   5.750   1.677   2.640
 9696SOL    HW129987   5.710   1.758   2.597
 9696SOL    HW229988   5.844   1.698   2.668
 9697SOL     OW29989   0.036   6.017   0.176
 9697SOL    HW129990   0.079   6.041   0.088
 9697SOL    HW229991   0.018   6.101   0.227
 9698SOL     OW29992   5.512   3.734   0.066
 9698SOL    HW129993   5.506   3.808   7.023
 9698SOL    HW229994   5.522   3.646   0.019
 9699SOL     OW29995   0.948   5.127   0.392
 9699SOL    HW129996   1.044   5.105   0.403
 9699SOL    HW229997   0.938   5.208   0.334
 9700SOL     OW29998   5.588   6.355   4.746
 9700SOL    HW129999   5.490   6.362   4.729
 9700SOL    HW230000   5.617   6.429   4.807
 9701SOL     OW30001   4.597   3.037   6.295
 9701SOL    HW130002   4.550   3.091   6.365
 9701SOL    HW230003   4.684   3.005   6.330
 9702SOL     OW30004   3.076   3.151   1.257
 9702SOL    HW130005   3.165   3.197   1.263
 9702SOL    HW230006   3.029   3.160   1.345
 9703SOL     OW30007   6.060   3.754   5.147
 9703SOL    HW130008   6.114   3.777   5.066
 9703SOL    HW230009   6.007   3.671   5.129
 9704SOL     OW30010   2.507   4.505   2.763
 9704SOL    HW130011   2.554   4.441   2.823
 9704SOL    HW230012   2.559   4.591   2.759
 9705SOL     OW30013   5.962   4.143   5.734
 9705SOL    HW130014   5.894   4.098   5.791
 9705SOL    HW230015   6.031   4.186   5.793
 9706SOL     OW30016   1.451   1.786   2.005
 9706SOL    HW130017   1.371   1.727   2.009
 9706SOL    HW230018   1.475   1.805   1.910
 9707SOL     OW30019   6.429   4.776   2.244
 9707SOL    HW130020   6.526   4.770   2.271
 9707SOL    HW230021   6.395   4.684   2.221
 9708SOL     OW30022   2.057   0.544   2.075
 9708SOL    HW130023   2.154   0.538   2.096
 9708SOL    HW230024   2.039   0.626   2.020
 9709SOL     OW30025   5.653   2.483   2.339
 9709SOL    HW130026   5.646   2.383   2.341
 9709SOL    HW230027   5.569   2.523   2.377
 9710SOL     OW30028   6.295   5.664   5.121
 9710SOL    HW130029   6.331   5.719   5.046
 9710SOL    HW230030   6.195   5.668   5.120
 9711SOL     OW30031   4.041   6.525   6.865
 9711SOL    HW130032   3.985   6.455   6.910
 9711SOL    HW230033   4.038   6.512   6.766
 9712SOL     OW30034   6.323   2.287   0.561
 9712SOL    HW130035   6.324   2.187   0.557
 9712SOL    HW230036   6.397   2.323   0.503
 9713SOL     OW30037   1.926   6.783   3.673
 9713SOL    HW130038   1.869   6.711   3.635
 9713SOL    HW230039   1.913   6.786   3.773
 9714SOL     OW30040   3.386   5.028   4.768
 9714SOL    HW130041   3.381   4.997   4.673
 9714SOL    HW230042   3.293   5.034   4.806
 9715SOL     OW30043   6.019   4.109   0.942
 9715SOL    HW130044   6.108   4.104   0.896
 9715SOL    HW230045   5.963   4.178   0.897
 9716SOL     OW30046   2.996   4.645   6.841
 9716SOL    HW130047   3.008   4.644   6.742
 9716SOL    HW230048   3.014   4.736   6.876
 9717SOL     OW30049   4.096   1.108   5.692
 9717SOL    HW130050   4.180   1.097   5.746
 9717SOL    HW230051   4.088   1.032   5.628
 9718SOL     OW30052   3.222   1.682   0.176
 9718SOL    HW130053   3.315   1.699   0.145
 9718SOL    HW230054   3.223   1.640   0.266
 9719SOL     OW30055   4.391   6.204   5.166
 9719SOL    HW130056   4.485   6.177   5.144
 9719SOL    HW230057   4.344   6.231   5.082
 9720SOL     OW30058   1.805   4.641   2.969
 9720SOL    HW130059   1.811   4.637   2.869
 9720SOL    HW230060   1.742   4.715   2.995
 9721SOL     OW30061   0.949   2.256   0.289
 9721SOL    HW130062   1.048   2.258   0.289
 9721SOL    HW230063   0.914   2.335   0.339
 9722SOL     OW30064   3.904   2.904   5.209
 9722SOL    HW130065   3.889   2.941   5.300
 9722SOL    HW230066   3.950   2.816   5.216
 9723SOL     OW30067   6.315   5.205   4.702
 9723SOL    HW130068   6.270   5.127   4.658
 9723SOL    HW230069   6.412   5.184   4.716
 9724SOL     OW30070   0.841   5.754   0.449
 9724SOL    HW130071   0.936   5.782   0.459
 9724SOL    HW230072   0.805   5.790   0.363
 9725SOL     OW30073   2.939   5.422   5.209
 9725SOL    HW130074   2.844   5.400   5.189
 9725SOL    HW230075   2.943   5.505   5.266
 9726SOL     OW30076   6.178   1.095   4.326
 9726SOL    HW130077   6.095   1.115   4.379
 9726SOL    HW230078   6.236   1.176   4.324
 9727SOL     OW30079   1.020   1.528   6.713
 9727SOL    HW130080   1.094   1.476   6.754
 9727SOL    HW230081   0.943   1.468   6.694
 9728SOL     OW30082   5.112   0.475   6.068
 9728SOL    HW130083   5.093   0.479   6.166
 9728SOL    HW230084   5.194   0.421   6.052
 9729SOL     OW30085   0.518   4.800   3.208
 9729SOL    HW130086   0.552   4.706   3.212
 9729SOL    HW230087   0.592   4.861   3.178
 9730SOL     OW30088   0.724   4.449   3.022
 9730SOL    HW130089   0.679   4.503   3.093
 9730SOL    HW230090   0.687   4.356   3.023
 9731SOL     OW30091   5.236   3.823   3.029
 9731SOL    HW130092   5.204   3.918   3.028
 9731SOL    HW230093   5.158   3.761   3.021
 9732SOL     OW30094   1.420   2.814   2.384
 9732SOL    HW130095   1.342   2.756   2.408
 9732SOL    HW230096   1.388   2.905   2.358
 9733SOL     OW30097   6.326   5.338   2.737
 9733SOL    HW130098   6.241   5.332   2.684
 9733SOL    HW230099   6.388   5.403   2.693
 9734SOL     OW30100   6.095   0.011   6.587
 9734SOL    HW130101   6.155   6.963   6.553
 9734SOL    HW230102   6.148   0.093   6.607
 9735SOL     OW30103   0.748   1.875   2.286
 9735SOL    HW130104   0.667   1.819   2.271
 9735SOL    HW230105   0.739   1.960   2.234
 9736SOL     OW30106   4.566   2.240   5.141
 9736SOL    HW130107   4.487   2.276   5.191
 9736SOL    HW230108   4.639   2.218   5.205
 9737SOL     OW30109   6.174   2.099   2.366
 9737SOL    HW130110   6.228   2.017   2.343
 9737SOL    HW230111   6.225   2.181   2.339
 9738SOL     OW30112   2.025   5.730   1.056
 9738SOL    HW130113   2.110   5.759   1.013
 9738SOL    HW230114   2.003   5.637   1.028
 9739SOL     OW30115   5.330   0.061   0.248
 9739SOL    HW130116   5.238   0.095   0.269
 9739SOL    HW230117   5.383   0.135   0.206
 9740SOL     OW30118   6.879   0.464   3.057
 9740SOL    HW130119   6.863   0.481   2.960
 9740SOL    HW230120   6.792   0.456   3.105
 9741SOL     OW30121   2.994   1.522   4.676
 9741SOL    HW130122   2.957   1.480   4.759
 9741SOL    HW230123   3.048   1.455   4.626
 9742SOL     OW30124   3.990   1.743   6.128
 9742SOL    HW130125   4.039   1.802   6.192
 9742SOL    HW230126   3.897   1.778   6.115
 9743SOL     OW30127   6.179   2.902   3.437
 9743SOL    HW130128   6.257   2.922   3.378
 9743SOL    HW230129   6.212   2.862   3.522
 9744SOL     OW30130   1.936   6.975   3.471
 9744SOL    HW130131   1.919   6.908   3.544
 9744SOL    HW230132   1.885   0.034   3.489
 9745SOL     OW30133   6.001   0.939   5.903
 9745SOL    HW130134   6.053   0.899   5.828
 9745SOL    HW230135   6.058   1.004   5.953
 9746SOL     OW30136   4.989   5.729   6.232
 9746SOL    HW130137   5.083   5.738   6.265
 9746SOL    HW230138   4.990   5.709   6.134
 9747SOL     OW30139   2.289   2.345   2.289
 9747SOL    HW130140   2.359   2.320   2.356
 9747SOL    HW230141   2.273   2.268   2.226
 9748SOL     OW30142   1.094   0.601   3.062
 9748SOL    HW130143   1.068   0.605   2.965
 9748SOL    HW230144   1.012   0.590   3.118
 9749SOL     OW30145   0.050   1.545   2.816
 9749SOL    HW130146   0.081   1.490   2.893
 9749SOL    HW230147   0.087   1.508   2.731
 9750SOL     OW30148   6.390   4.577   3.833
 9750SOL    HW130149   6.403   4.610   3.927
 9750SOL    HW230150   6.322   4.504   3.833
 9751SOL     OW30151   2.555   1.059   1.819
 9751SOL    HW130152   2.643   1.045   1.774
 9751SOL    HW230153   2.481   1.035   1.755
 9752SOL     OW30154   4.325   2.882   0.691
 9752SOL    HW130155   4.238   2.891   0.642
 9752SOL    HW230156   4.317   2.923   0.781
 9753SOL     OW30157   6.420   5.985   5.792
 9753SOL    HW130158   6.466   6.073   5.803
 9753SOL    HW230159   6.407   5.943   5.882
 9754SOL     OW30160   3.874   0.390   1.030
 9754SOL    HW130161   3.823   0.304   1.035
 9754SOL    HW230162   3.961   0.373   0.983
 9755SOL     OW30163   3.417   4.075   5.770
 9755SOL    HW130164   3.452   4.147   5.830
 9755SOL    HW230165   3.413   3.989   5.821
 9756SOL     OW30166   5.589   1.016   6.582
 9756SOL    HW130167   5.683   0.987   6.597
 9756SOL    HW230168   5.553   0.974   6.499
 9757SOL     OW30169   5.212   3.944   3.972
 9757SOL    HW130170   5.287   3.957   4.036
 9757SOL    HW230171   5.240   3.978   3.882
 9758SOL     OW30172   1.884   0.923   0.603
 9758SOL    HW130173   1.867   0.851   0.536
 9758SOL    HW230174   1.888   1.012   0.555
 9759SOL     OW30175   1.633   2.016   0.763
 9759SOL    HW130176   1.647   1.936   0.704
 9759SOL    HW230177   1.710   2.080   0.750
 9760SOL     OW30178   4.819   2.322   7.020
 9760SOL    HW130179   4.743   2.259   0.014
 9760SOL    HW230180   4.785   2.416   7.024
 9761SOL     OW30181   1.530   1.048   2.007
 9761SOL    HW130182   1.496   1.135   1.972
 9761SOL    HW230183   1.503   1.037   2.103
 9762SOL     OW30184   2.990   1.696   5.503
 9762SOL    HW130185   2.935   1.763   5.553
 9762SOL    HW230186   3.074   1.677   5.555
 9763SOL     OW30187   6.225   0.950   1.625
 9763SOL    HW130188   6.306   0.940   1.682
 9763SOL    HW230189   6.147   0.977   1.681
 9764SOL     OW30190   5.459   1.850   2.424
 9764SOL    HW130191   5.377   1.795   2.440
 9764SOL    HW230192   5.451   1.937   2.473
 9765SOL     OW30193   6.921   1.218   2.122
 9765SOL    HW130194   7.012   1.184   2.144
 9765SOL    HW230195   6.900   1.197   2.027
 9766SOL     OW30196   2.161   0.911   3.606
 9766SOL    HW130197   2.071   0.912   3.647
 9766SOL    HW230198   2.179   0.821   3.565
 9767SOL     OW30199   1.952   2.924   5.853
 9767SOL    HW130200   1.980   3.002   5.910
 9767SOL    HW230201   1.922   2.849   5.912
 9768SOL     OW30202   6.202   2.080   0.886
 9768SOL    HW130203   6.263   2.098   0.964
 9768SOL    HW230204   6.107   2.093   0.915
 9769SOL     OW30205   2.859   1.912   5.071
 9769SOL    HW130206   2.866   1.846   4.996
 9769SOL    HW230207   2.893   2.001   5.042
 9770SOL     OW30208   3.474   2.326   6.557
 9770SOL    HW130209   3.387   2.311   6.510
 9770SOL    HW230210   3.467   2.406   6.617
 9771SOL     OW30211   2.645   6.408   2.593
 9771SOL    HW130212   2.658   6.310   2.608
 9771SOL    HW230213   2.734   6.453   2.585
 9772SOL     OW30214   1.195   6.037   1.782
 9772SOL    HW130215   1.103   6.004   1.762
 9772SOL    HW230216   1.262   5.977   1.738
 9773SOL     OW30217   5.235   5.288   2.267
 9773SOL    HW130218   5.169   5.223   2.229
 9773SOL    HW230219   5.314   5.295   2.206
 9774SOL     OW30220   0.419   5.502   4.148
 9774SOL    HW130221   0.518   5.515   4.149
 9774SOL    HW230222   0.376   5.578   4.099
 9775SOL     OW30223   2.494   0.951   3.604
 9775SOL    HW130224   2.589   0.954   3.572
 9775SOL    HW230225   2.482   1.018   3.677
 9776SOL     OW30226   1.610   5.614   6.520
 9776SOL    HW130227   1.533   5.554   6.497
 9776SOL    HW230228   1.673   5.618   6.443
 9777SOL     OW30229   5.479   6.845   6.494
 9777SOL    HW130230   5.439   6.936   6.486
 9777SOL    HW230231   5.527   6.837   6.582
 9778SOL     OW30232   0.536   1.904   4.635
 9778SOL    HW130233   0.576   1.992   4.659
 9778SOL    HW230234   0.567   1.835   4.701
 9779SOL     OW30235   0.864   1.679   3.640
 9779SOL    HW130236   0.770   1.660   3.669
 9779SOL    HW230237   0.876   1.650   3.545
 9780SOL     OW30238   1.817   1.680   1.109
 9780SOL    HW130239   1.744   1.728   1.061
 9780SOL    HW230240   1.817   1.584   1.082
 9781SOL     OW30241   1.564   3.602   3.307
 9781SOL    HW130242   1.646   3.548   3.324
 9781SOL    HW230243   1.497   3.545   3.259
 9782SOL     OW30244   0.734   2.456   0.656
 9782SOL    HW130245   0.733   2.372   0.710
 9782SOL    HW230246   0.643   2.497   0.655
 9783SOL     OW30247   3.550   1.215   3.450
 9783SOL    HW130248   3.542   1.289   3.517
 9783SOL    HW230249   3.576   1.253   3.361
 9784SOL     OW30250   2.369   1.605   0.274
 9784SOL    HW130251   2.454   1.593   0.326
 9784SOL    HW230252   2.368   1.697   0.234
 9785SOL     OW30253   0.071   2.298   4.867
 9785SOL    HW130254   0.098   2.348   4.949
 9785SOL    HW230255   0.046   2.362   4.795
 9786SOL     OW30256   2.264   4.615   0.932
 9786SOL    HW130257   2.178   4.588   0.889
 9786SOL    HW230258   2.309   4.534   0.970
 9787SOL     OW30259   3.565   3.261   2.765
 9787SOL    HW130260   3.572   3.184   2.829
 9787SOL    HW230261   3.638   3.254   2.696
 9788SOL     OW30262   0.771   5.846   2.156
 9788SOL    HW130263   0.744   5.764   2.208
 9788SOL    HW230264   0.689   5.896   2.129
 9789SOL     OW30265   3.035   6.889   6.578
 9789SOL    HW130266   3.083   6.956   6.521
 9789SOL    HW230267   3.051   6.910   6.674
 9790SOL     OW30268   0.003   3.849   4.352
 9790SOL    HW130269   6.970   3.887   4.279
 9790SOL    HW230270   6.968   3.813   4.424
 9791SOL     OW30271   0.813   6.409   0.490
 9791SOL    HW130272   0.801   6.461   0.574
 9791SOL    HW230273   0.855   6.321   0.510
 9792SOL     OW30274   3.772   5.315   1.005
 9792SOL    HW130275   3.758   5.413   1.021
 9792SOL    HW230276   3.719   5.263   1.073
 9793SOL     OW30277   4.739   1.527   2.269
 9793SOL    HW130278   4.787   1.612   2.293
 9793SOL    HW230279   4.641   1.539   2.280
 9794SOL     OW30280   4.703   4.969   4.671
 9794SOL    HW130281   4.713   5.037   4.743
 9794SOL    HW230282   4.608   4.937   4.668
 9795SOL     OW30283   0.793   2.863   3.497
 9795SOL    HW130284   0.878   2.893   3.453
 9795SOL    HW230285   0.751   2.791   3.442
 9796SOL     OW30286   3.323   4.107   3.564
 9796SOL    HW130287   3.249   4.153   3.612
 9796SOL    HW230288   3.406   4.162   3.570
 9797SOL     OW30289   2.860   5.957   6.589
 9797SOL    HW130290   2.898   5.919   6.504
 9797SOL    HW230291   2.760   5.949   6.587
 9798SOL     OW30292   1.451   2.747   1.259
 9798SOL    HW130293   1.366   2.713   1.299
 9798SOL    HW230294   1.471   2.697   1.175
 9799SOL     OW30295   3.104   5.770   6.383
 9799SOL    HW130296   3.040   5.701   6.418
 9799SOL    HW230297   3.066   5.810   6.300
 9800SOL     OW30298   5.254   3.066   4.023
 9800SOL    HW130299   5.252   3.066   4.123
 9800SOL    HW230300   5.164   3.039   3.989
 9801SOL     OW30301   5.913   4.829   6.365
 9801SOL    HW130302   5.939   4.793   6.454
 9801SOL    HW230303   5.969   4.787   6.294
 9802SOL     OW30304   4.282   5.196   1.255
 9802SOL    HW130305   4.309   5.229   1.164
 9802SOL    HW230306   4.184   5.179   1.256
 9803SOL     OW30307   1.328   3.665   6.454
 9803SOL    HW130308   1.305   3.688   6.360
 9803SOL    HW230309   1.392   3.733   6.491
 9804SOL     OW30310   6.640   5.551   3.222
 9804SOL    HW130311   6.599   5.609   3.152
 9804SOL    HW230312   6.592   5.463   3.225
 9805SOL     OW30313   0.426   6.477   3.921
 9805SOL    HW130314   0.384   6.388   3.908
 9805SOL    HW230315   0.431   6.499   4.018
 9806SOL     OW30316   4.104   2.449   5.866
 9806SOL    HW130317   4.104   2.407   5.775
 9806SOL    HW230318   4.115   2.378   5.935
 9807SOL     OW30319   2.921   3.201   2.167
 9807SOL    HW130320   2.913   3.291   2.210
 9807SOL    HW230321   2.864   3.135   2.216
 9808SOL     OW30322   4.732   6.263   3.845
 9808SOL    HW130323   4.725   6.226   3.752
 9808SOL    HW230324   4.660   6.223   3.902
 9809SOL     OW30325   0.364   3.186   0.836
 9809SOL    HW130326   0.323   3.257   0.894
 9809SOL    HW230327   0.366   3.099   0.885
 9810SOL     OW30328   2.269   1.566   5.584
 9810SOL    HW130329   2.296   1.634   5.516
 9810SOL    HW230330   2.320   1.581   5.669
 9811SOL     OW30331   6.621   3.700   4.472
 9811SOL    HW130332   6.613   3.785   4.524
 9811SOL    HW230333   6.617   3.720   4.374
 9812SOL     OW30334   2.431   6.824   4.655
 9812SOL    HW130335   2.415   6.890   4.729
 9812SOL    HW230336   2.428   6.872   4.567
 9813SOL     OW30337   5.568   2.377   0.445
 9813SOL    HW130338   5.631   2.346   0.374
 9813SOL    HW230339   5.495   2.431   0.403
 9814SOL     OW30340   5.906   1.693   7.001
 9814SOL    HW130341   5.864   1.603   7.013
 9814SOL    HW230342   5.849   1.762   0.022
 9815SOL     OW30343   4.755   2.866   4.560
 9815SOL    HW130344   4.786   2.801   4.630
 9815SOL    HW230345   4.749   2.957   4.600
 9816SOL     OW30346   1.119   0.480   0.500
 9816SOL    HW130347   1.170   0.419   0.561
 9816SOL    HW230348   1.058   0.538   0.554
 9817SOL     OW30349   0.482   0.267   3.307
 9817SOL    HW130350   0.425   0.191   3.339
 9817SOL    HW230351   0.480   0.341   3.373
 9818SOL     OW30352   5.848   1.691   4.780
 9818SOL    HW130353   5.911   1.768   4.778
 9818SOL    HW230354   5.755   1.723   4.760
 9819SOL     OW30355   3.933   1.508   3.465
 9819SOL    HW130356   4.014   1.563   3.482
 9819SOL    HW230357   3.904   1.518   3.370
 9820SOL     OW30358   3.331   4.138   5.536
 9820SOL    HW130359   3.242   4.184   5.548
 9820SOL    HW230360   3.361   4.101   5.623
 9821SOL     OW30361   5.333   6.057   6.961
 9821SOL    HW130362   5.282   6.031   0.019
 9821SOL    HW230363   5.270   6.091   6.892
 9822SOL     OW30364   0.354   6.913   3.069
 9822SOL    HW130365   0.450   6.911   3.041
 9822SOL    HW230366   0.313   6.999   3.040
 9823SOL     OW30367   3.283   0.642   2.044
 9823SOL    HW130368   3.195   0.596   2.030
 9823SOL    HW230369   3.300   0.706   1.969
 9824SOL     OW30370   0.786   4.284   5.250
 9824SOL    HW130371   0.766   4.321   5.340
 9824SOL    HW230372   0.783   4.184   5.253
 9825SOL     OW30373   3.683   5.225   5.430
 9825SOL    HW130374   3.684   5.304   5.369
 9825SOL    HW230375   3.597   5.176   5.419
 9826SOL     OW30376   4.456   5.823   5.874
 9826SOL    HW130377   4.404   5.906   5.895
 9826SOL    HW230378   4.394   5.745   5.870
 9827SOL     OW30379   1.798   4.245   4.792
 9827SOL    HW130380   1.795   4.345   4.800
 9827SOL    HW230381   1.809   4.206   4.883
 9828SOL     OW30382   3.421   3.126   6.350
 9828SOL    HW130383   3.338   3.149   6.300
 9828SOL    HW230384   3.495   3.189   6.323
 9829SOL     OW30385   3.454   6.261   0.391
 9829SOL    HW130386   3.496   6.187   0.339
 9829SOL    HW230387   3.412   6.224   0.474
 9830SOL     OW30388   6.142   1.725   1.031
 9830SOL    HW130389   6.175   1.811   1.070
 9830SOL    HW230390   6.166   1.721   0.934
 9831SOL     OW30391   0.978   6.135   1.183
 9831SOL    HW130392   0.995   6.106   1.277
 9831SOL    HW230393   0.899   6.085   1.146
 9832SOL     OW30394   4.369   5.071   2.676
 9832SOL    HW130395   4.349   5.047   2.771
 9832SOL    HW230396   4.284   5.090   2.628
 9833SOL     OW30397   3.459   3.452   4.986
 9833SOL    HW130398   3.405   3.505   5.051
 9833SOL    HW230399   3.502   3.375   5.033
 9834SOL     OW30400   2.629   3.512   5.698
 9834SOL    HW130401   2.609   3.414   5.692
 9834SOL    HW230402   2.616   3.553   5.608
 9835SOL     OW30403   4.860   1.710   3.899
 9835SOL    HW130404   4.880   1.714   3.997
 9835SOL    HW230405   4.797   1.784   3.875
 9836SOL     OW30406   5.856   3.507   3.372
 9836SOL    HW130407   5.860   3.572   3.297
 9836SOL    HW230408   5.948   3.470   3.389
 9837SOL     OW30409   2.031   0.049   3.933
 9837SOL    HW130410   2.095   0.110   3.885
 9837SOL    HW230411   2.080   0.000   4.005
 9838SOL     OW30412   0.935   6.590   5.772
 9838SOL    HW130413   0.863   6.623   5.711
 9838SOL    HW230414   1.018   6.644   5.759
 9839SOL     OW30415   6.716   1.108   2.631
 9839SOL    HW130416   6.626   1.073   2.658
 9839SOL    HW230417   6.707   1.201   2.596
 9840SOL     OW30418   0.537   0.590   0.603
 9840SOL    HW130419   0.555   0.514   0.666
 9840SOL    HW230420   0.612   0.596   0.537
 9841SOL     OW30421   1.732   4.435   4.539
 9841SOL    HW130422   1.634   4.454   4.534
 9841SOL    HW230423   1.758   4.372   4.466
 9842SOL     OW30424   3.504   2.931   3.517
 9842SOL    HW130425   3.523   2.948   3.613
 9842SOL    HW230426   3.414   2.969   3.493
 9843SOL     OW30427   6.718   2.310   1.424
 9843SOL    HW130428   6.777   2.263   1.489
 9843SOL    HW230429   6.649   2.363   1.473
 9844SOL     OW30430   4.270   6.842   2.911
 9844SOL    HW130431   4.219   6.911   2.961
 9844SOL    HW230432   4.272   6.757   2.964
 9845SOL     OW30433   2.099   1.624   4.822
 9845SOL    HW130434   2.167   1.697   4.830
 9845SOL    HW230435   2.140   1.537   4.848
 9846SOL     OW30436   3.016   3.735   3.528
 9846SOL    HW130437   2.952   3.725   3.605
 9846SOL    HW230438   3.108   3.752   3.563
 9847SOL     OW30439   2.618   2.889   6.006
 9847SOL    HW130440   2.520   2.881   5.985
 9847SOL    HW230441   2.652   2.799   6.035
 9848SOL     OW30442   3.877   2.223   6.702
 9848SOL    HW130443   3.932   2.298   6.741
 9848SOL    HW230444   3.926   2.137   6.713
 9849SOL     OW30445   5.530   0.462   6.556
 9849SOL    HW130446   5.617   0.428   6.590
 9849SOL    HW230447   5.544   0.551   6.511
 9850SOL     OW30448   4.746   6.002   2.148
 9850SOL    HW130449   4.745   5.902   2.145
 9850SOL    HW230450   4.773   6.032   2.239
 9851SOL     OW30451   4.497   1.964   5.145
 9851SOL    HW130452   4.513   2.063   5.137
 9851SOL    HW230453   4.489   1.924   5.054
 9852SOL     OW30454   4.494   1.518   3.217
 9852SOL    HW130455   4.542   1.606   3.209
 9852SOL    HW230456   4.443   1.517   3.303
 9853SOL     OW30457   4.809   4.110   3.017
 9853SOL    HW130458   4.853   4.165   3.088
 9853SOL    HW230459   4.821   4.013   3.037
 9854SOL     OW30460   6.116   5.009   5.304
 9854SOL    HW130461   6.103   5.109   5.305
 9854SOL    HW230462   6.211   4.988   5.282
 9855SOL     OW30463   0.617   4.470   1.428
 9855SOL    HW130464   0.606   4.501   1.523
 9855SOL    HW230465   0.664   4.381   1.428
 9856SOL     OW30466   4.222   4.369   6.996
 9856SOL    HW130467   4.135   4.418   6.991
 9856SOL    HW230468   4.227   4.302   6.922
 9857SOL     OW30469   5.238   2.049   2.845
 9857SOL    HW130470   5.269   2.128   2.897
 9857SOL    HW230471   5.213   1.976   2.909
 9858SOL     OW30472   5.066   0.975   1.614
 9858SOL    HW130473   5.106   1.033   1.544
 9858SOL    HW230474   4.982   0.933   1.578
 9859SOL     OW30475   6.693   6.956   1.250
 9859SOL    HW130476   6.733   7.005   1.173
 9859SOL    HW230477   6.753   6.881   1.277
 9860SOL     OW30478   0.773   1.165   1.544
 9860SOL    HW130479   0.685   1.155   1.591
 9860SOL    HW230480   0.759   1.218   1.460
 9861SOL     OW30481   3.835   6.652   4.449
 9861SOL    HW130482   3.893   6.713   4.503
 9861SOL    HW230483   3.865   6.558   4.462
 9862SOL     OW30484   2.716   3.844   0.545
 9862SOL    HW130485   2.638   3.869   0.603
 9862SOL    HW230486   2.689   3.771   0.482
 9863SOL     OW30487   2.869   6.870   3.079
 9863SOL    HW130488   2.925   6.953   3.086
 9863SOL    HW230489   2.797   6.873   3.148
 9864SOL     OW30490   4.244   5.941   3.569
 9864SOL    HW130491   4.166   5.969   3.624
 9864SOL    HW230492   4.292   6.022   3.534
 9865SOL     OW30493   0.746   1.295   3.786
 9865SOL    HW130494   0.747   1.217   3.848
 9865SOL    HW230495   0.693   1.272   3.704
 9866SOL     OW30496   5.003   4.220   4.735
 9866SOL    HW130497   4.915   4.208   4.781
 9866SOL    HW230498   5.037   4.312   4.751
 9867SOL     OW30499   4.212   0.823   1.064
 9867SOL    HW130500   4.265   0.787   1.141
 9867SOL    HW230501   4.271   0.878   1.005
 9868SOL     OW30502   1.717   4.748   6.012
 9868SOL    HW130503   1.797   4.710   5.966
 9868SOL    HW230504   1.637   4.691   5.992
 9869SOL     OW30505   2.119   3.743   2.701
 9869SOL    HW130506   2.074   3.759   2.789
 9869SOL    HW230507   2.134   3.645   2.688
 9870SOL     OW30508   4.192   5.786   2.032
 9870SOL    HW130509   4.206   5.847   2.109
 9870SOL    HW230510   4.195   5.691   2.063
 9871SOL     OW30511   0.805   6.823   6.151
 9871SOL    HW130512   0.754   6.789   6.230
 9871SOL    HW230513   0.836   6.746   6.096
 9872SOL     OW30514   2.662   5.079   2.867
 9872SOL    HW130515   2.659   4.996   2.922
 9872SOL    HW230516   2.570   5.118   2.861
 9873SOL     OW30517   2.067   2.427   1.379
 9873SOL    HW130518   1.974   2.444   1.346
 9873SOL    HW230519   2.063   2.373   1.464
 9874SOL     OW30520   0.641   2.202   4.465
 9874SOL    HW130521   0.602   2.293   4.450
 9874SOL    HW230522   0.627   2.175   4.560
 9875SOL     OW30523   0.054   7.003   2.358
 9875SOL    HW130524   0.094   6.966   2.274
 9875SOL    HW230525   0.096   6.957   2.437
 9876SOL     OW30526   0.152   0.617   2.439
 9876SOL    HW130527   0.226   0.559   2.472
 9876SOL    HW230528   0.117   0.672   2.514
 9877SOL     OW30529   1.568   5.797   2.384
 9877SOL    HW130530   1.666   5.809   2.367
 9877SOL    HW230531   1.522   5.774   2.298
 9878SOL     OW30532   2.192   5.465   5.145
 9878SOL    HW130533   2.171   5.371   5.173
 9878SOL    HW230534   2.213   5.466   5.047
 9879SOL     OW30535   5.588   5.180   5.099
 9879SOL    HW130536   5.652   5.252   5.125
 9879SOL    HW230537   5.535   5.209   5.019
 9880SOL     OW30538   1.757   2.653   5.365
 9880SOL    HW130539   1.731   2.690   5.275
 9880SOL    HW230540   1.678   2.605   5.404
 9881SOL     OW30541   1.875   2.091   5.139
 9881SOL    HW130542   1.930   2.130   5.064
 9881SOL    HW230543   1.867   1.993   5.127
 9882SOL     OW30544   1.258   1.991   3.715
 9882SOL    HW130545   1.292   2.085   3.713
 9882SOL    HW230546   1.234   1.966   3.809
 9883SOL     OW30547   1.204   5.566   0.654
 9883SOL    HW130548   1.125   5.624   0.636
 9883SOL    HW230549   1.189   5.516   0.739
 9884SOL     OW30550   4.206   1.665   3.133
 9884SOL    HW130551   4.273   1.664   3.059
 9884SOL    HW230552   4.152   1.749   3.127
 9885SOL     OW30553   0.186   3.483   5.418
 9885SOL    HW130554   0.209   3.531   5.503
 9885SOL    HW230555   0.264   3.486   5.356
 9886SOL     OW30556   0.678   4.533   2.138
 9886SOL    HW130557   0.717   4.446   2.108
 9886SOL    HW230558   0.747   4.606   2.127
 9887SOL     OW30559   3.499   1.802   6.219
 9887SOL    HW130560   3.442   1.721   6.209
 9887SOL    HW230561   3.493   1.837   6.312
 9888SOL     OW30562   6.936   4.547   0.903
 9888SOL    HW130563   6.941   4.484   0.826
 9888SOL    HW230564   6.961   4.639   0.872
 9889SOL     OW30565   6.589   4.910   1.095
 9889SOL    HW130566   6.618   4.905   0.999
 9889SOL    HW230567   6.541   4.997   1.111
 9890SOL     OW30568   1.793   2.328   0.065
 9890SOL    HW130569   1.877   2.319   0.118
 9890SOL    HW230570   1.751   2.417   0.084
 9891SOL     OW30571   5.735   2.803   0.900
 9891SOL    HW130572   5.833   2.809   0.883
 9891SOL    HW230573   5.700   2.716   0.864
 9892SOL     OW30574   6.386   5.564   0.340
 9892SOL    HW130575   6.353   5.586   0.248
 9892SOL    HW230576   6.471   5.511   0.332
 9893SOL     OW30577   1.304   0.353   0.661
 9893SOL    HW130578   1.297   0.375   0.759
 9893SOL    HW230579   1.363   0.273   0.649
 9894SOL     OW30580   2.032   1.981   1.719
 9894SOL    HW130581   2.055   1.902   1.663
 9894SOL    HW230582   2.006   1.952   1.810
 9895SOL     OW30583   5.274   3.484   5.731
 9895SOL    HW130584   5.312   3.393   5.746
 9895SOL    HW230585   5.261   3.499   5.633
 9896SOL     OW30586   6.202   6.744   5.976
 9896SOL    HW130587   6.143   6.772   6.052
 9896SOL    HW230588   6.145   6.717   5.898
 9897SOL     OW30589   5.683   5.599   3.746
 9897SOL    HW130590   5.593   5.565   3.719
 9897SOL    HW230591   5.742   5.522   3.771
 9898SOL     OW30592   2.513   5.526   6.043
 9898SOL    HW130593   2.591   5.521   5.981
 9898SOL    HW230594   2.516   5.449   6.107
 9899SOL     OW30595   0.124   5.648   0.172
 9899SOL    HW130596   0.174   5.684   0.093
 9899SOL    HW230597   0.031   5.683   0.171
 9900SOL     OW30598   2.063   3.742   3.669
 9900SOL    HW130599   2.117   3.732   3.585
 9900SOL    HW230600   1.966   3.749   3.645
 9901SOL     OW30601   2.974   1.723   6.272
 9901SOL    HW130602   2.961   1.800   6.210
 9901SOL    HW230603   3.064   1.682   6.256
 9902SOL     OW30604   3.148   4.877   6.948
 9902SOL    HW130605   3.142   4.958   7.005
 9902SOL    HW230606   3.221   4.889   6.881
 9903SOL     OW30607   4.846   0.790   1.525
 9903SOL    HW130608   4.844   0.696   1.492
 9903SOL    HW230609   4.804   0.795   1.616
 9904SOL     OW30610   0.766   3.288   6.770
 9904SOL    HW130611   0.679   3.290   6.819
 9904SOL    HW230612   0.793   3.193   6.753
 9905SOL     OW30613   2.671   0.607   6.869
 9905SOL    HW130614   2.718   0.681   6.820
 9905SOL    HW230615   2.733   0.566   6.935
 9906SOL     OW30616   2.844   3.386   1.894
 9906SOL    HW130617   2.815   3.337   1.812
 9906SOL    HW230618   2.899   3.325   1.951
 9907SOL     OW30619   6.533   0.923   0.648
 9907SOL    HW130620   6.532   1.002   0.586
 9907SOL    HW230621   6.474   0.852   0.612
 9908SOL     OW30622   5.667   1.573   4.096
 9908SOL    HW130623   5.723   1.503   4.051
 9908SOL    HW230624   5.720   1.616   4.169
 9909SOL     OW30625   3.694   0.566   3.776
 9909SOL    HW130626   3.759   0.634   3.741
 9909SOL    HW230627   3.734   0.475   3.771
 9910SOL     OW30628   0.934   3.734   2.964
 9910SOL    HW130629   0.947   3.638   2.988
 9910SOL    HW230630   1.022   3.773   2.937
 9911SOL     OW30631   3.572   6.608   2.302
 9911SOL    HW130632   3.578   6.511   2.276
 9911SOL    HW230633   3.629   6.625   2.383
 9912SOL     OW30634   3.731   1.702   1.770
 9912SOL    HW130635   3.810   1.754   1.736
 9912SOL    HW230636   3.763   1.632   1.834
 9913SOL     OW30637   6.406   4.382   0.783
 9913SOL    HW130638   6.417   4.428   0.695
 9913SOL    HW230639   6.487   4.326   0.802
 9914SOL     OW30640   5.060   2.616   5.106
 9914SOL    HW130641   4.984   2.560   5.138
 9914SOL    HW230642   5.139   2.602   5.165
 9915SOL     OW30643   5.620   0.891   3.716
 9915SOL    HW130644   5.609   0.895   3.617
 9915SOL    HW230645   5.701   0.837   3.739
 9916SOL     OW30646   1.945   2.649   3.306
 9916SOL    HW130647   1.929   2.556   3.338
 9916SOL    HW230648   2.011   2.647   3.231
 9917SOL     OW30649   5.820   3.920   0.157
 9917SOL    HW130650   5.886   3.963   0.218
 9917SOL    HW230651   5.732   3.912   0.204
 9918SOL     OW30652   3.294   1.616   3.055
 9918SOL    HW130653   3.208   1.659   3.027
 9918SOL    HW230654   3.321   1.652   3.145
 9919SOL     OW30655   6.255   5.084   0.940
 9919SOL    HW130656   6.346   5.055   0.969
 9919SOL    HW230657   6.216   5.016   0.879
 9920SOL     OW30658   4.913   1.735   1.822
 9920SOL    HW130659   4.854   1.794   1.766
 9920SOL    HW230660   4.867   1.714   1.908
 9921SOL     OW30661   4.761   6.231   6.297
 9921SOL    HW130662   4.783   6.168   6.371
 9921SOL    HW230663   4.826   6.307   6.298
 9922SOL     OW30664   2.035   4.537   0.754
 9922SOL    HW130665   2.008   4.600   0.681
 9922SOL    HW230666   1.956   4.513   0.809
 9923SOL     OW30667   5.083   4.721   0.296
 9923SOL    HW130668   5.080   4.811   0.340
 9923SOL    HW230669   5.151   4.663   0.341
 9924SOL     OW30670   6.394   2.268   4.984
 9924SOL    HW130671   6.383   2.251   5.082
 9924SOL    HW230672   6.314   2.317   4.950
 9925SOL     OW30673   6.816   3.290   3.638
 9925SOL    HW130674   6.887   3.250   3.696
 9925SOL    HW230675   6.728   3.249   3.660
 9926SOL     OW30676   3.558   3.259   0.437
 9926SOL    HW130677   3.497   3.336   0.415
 9926SOL    HW230678   3.545   3.233   0.533
 9927SOL     OW30679   0.331   0.351   1.069
 9927SOL    HW130680   0.349   0.258   1.101
 9927SOL    HW230681   0.347   0.415   1.144
 9928SOL     OW30682   5.151   6.342   1.865
 9928SOL    HW130683   5.167   6.280   1.942
 9928SOL    HW230684   5.199   6.307   1.784
 9929SOL     OW30685   2.503   5.369   5.031
 9929SOL    HW130686   2.413   5.359   4.989
 9929SOL    HW230687   2.538   5.278   5.056
 9930SOL     OW30688   6.481   6.841   4.677
 9930SOL    HW130689   6.531   6.865   4.593
 9930SOL    HW230690   6.530   6.768   4.725
 9931SOL     OW30691   1.159   4.631   4.544
 9931SOL    HW130692   1.066   4.662   4.565
 9931SOL    HW230693   1.221   4.661   4.616
 9932SOL     OW30694   2.178   5.222   6.673
 9932SOL    HW130695   2.202   5.125   6.676
 9932SOL    HW230696   2.257   5.275   6.641
 9933SOL     OW30697   1.082   4.999   3.262
 9933SOL    HW130698   1.071   5.071   3.331
 9933SOL    HW230699   1.034   4.917   3.291
 9934SOL     OW30700   5.635   1.333   5.655
 9934SOL    HW130701   5.597   1.353   5.565
 9934SOL    HW230702   5.584   1.384   5.724
 9935SOL     OW30703   3.172   6.805   0.321
 9935SOL    HW130704   3.113   6.728   0.297
 9935SOL    HW230705   3.236   6.823   0.245
 9936SOL     OW30706   6.964   4.987   6.166
 9936SOL    HW130707   6.963   5.017   6.071
 9936SOL    HW230708   0.024   4.935   6.184
 9937SOL     OW30709   6.713   1.451   6.557
 9937SOL    HW130710   6.783   1.491   6.617
 9937SOL    HW230711   6.700   1.510   6.478
 9938SOL     OW30712   0.067   5.275   3.054
 9938SOL    HW130713   0.089   5.373   3.054
 9938SOL    HW230714   0.096   5.235   3.141
 9939SOL     OW30715   4.156   2.093   0.563
 9939SOL    HW130716   4.148   1.995   0.580
 9939SOL    HW230717   4.064   2.134   0.566
 9940SOL     OW30718   1.201   0.733   1.194
 9940SOL    HW130719   1.231   0.826   1.177
 9940SOL    HW230720   1.164   0.694   1.110
 9941SOL     OW30721   3.327   3.783   4.957
 9941SOL    HW130722   3.364   3.811   5.046
 9941SOL    HW230723   3.291   3.863   4.909
 9942SOL     OW30724   2.423   5.496   2.785
 9942SOL    HW130725   2.424   5.591   2.817
 9942SOL    HW230726   2.435   5.494   2.685
 9943SOL     OW30727   6.993   5.800   5.703
 9943SOL    HW130728   6.931   5.872   5.733
 9943SOL    HW230729   6.996   5.797   5.603
 9944SOL     OW30730   2.048   5.077   6.172
 9944SOL    HW130731   2.071   5.085   6.075
 9944SOL    HW230732   2.108   5.137   6.225
 9945SOL     OW30733   6.302   5.798   6.883
 9945SOL    HW130734   6.219   5.852   6.874
 9945SOL    HW230735   6.288   5.708   6.840
 9946SOL     OW30736   4.717   1.278   4.735
 9946SOL    HW130737   4.684   1.327   4.655
 9946SOL    HW230738   4.724   1.341   4.813
 9947SOL     OW30739   1.251   3.742   5.101
 9947SOL    HW130740   1.322   3.714   5.166
 9947SOL    HW230741   1.214   3.662   5.054
 9948SOL     OW30742   5.850   4.824   4.381
 9948SOL    HW130743   5.790   4.755   4.341
 9948SOL    HW230744   5.902   4.784   4.456
 9949SOL     OW30745   5.211   4.991   3.524
 9949SOL    HW130746   5.164   4.911   3.562
 9949SOL    HW230747   5.250   5.045   3.599
 9950SOL     OW30748   5.956   5.907   5.183
 9950SOL    HW130749   5.991   5.836   5.121
 9950SOL    HW230750   5.891   5.865   5.247
 9951SOL     OW30751   6.006   1.653   4.540
 9951SOL    HW130752   6.030   1.750   4.529
 9951SOL    HW230753   5.971   1.638   4.632
 9952SOL     OW30754   0.391   3.418   1.000
 9952SOL    HW130755   0.425   3.485   1.065
 9952SOL    HW230756   0.467   3.361   0.968
 9953SOL     OW30757   6.047   2.399   4.210
 9953SOL    HW130758   6.043   2.481   4.267
 9953SOL    HW230759   6.042   2.426   4.113
 9954SOL     OW30760   5.967   6.917   5.935
 9954SOL    HW130761   5.987   6.911   5.837
 9954SOL    HW230762   6.025   6.988   5.976
 9955SOL     OW30763   5.918   3.453   5.433
 9955SOL    HW130764   5.827   3.440   5.474
 9955SOL    HW230765   5.924   3.401   5.348
 9956SOL     OW30766   1.949   6.923   1.447
 9956SOL    HW130767   1.937   6.868   1.364
 9956SOL    HW230768   2.041   6.910   1.483
 9957SOL     OW30769   5.770   5.722   3.046
 9957SOL    HW130770   5.858   5.701   3.003
 9957SOL    HW230771   5.785   5.776   3.129
 9958SOL     OW30772   3.050   5.550   0.665
 9958SOL    HW130773   2.986   5.474   0.670
 9958SOL    HW230774   3.144   5.515   0.663
 9959SOL     OW30775   4.039   3.688   5.531
 9959SOL    HW130776   4.089   3.768   5.496
 9959SOL    HW230777   4.103   3.627   5.577
 9960SOL     OW30778   6.752   6.876   2.184
 9960SOL    HW130779   6.827   6.942   2.191
 9960SOL    HW230780   6.780   6.789   2.226
 9961SOL     OW30781   1.646   5.863   4.037
 9961SOL    HW130782   1.592   5.939   4.072
 9961SOL    HW230783   1.623   5.847   3.941
 9962SOL     OW30784   6.723   6.853   2.815
 9962SOL    HW130785   6.749   6.948   2.832
 9962SOL    HW230786   6.632   6.850   2.774
 9963SOL     OW30787   3.187   2.839   6.952
 9963SOL    HW130788   3.121   2.908   6.920
 9963SOL    HW230789   3.178   2.827   0.026
 9964SOL     OW30790   4.550   5.285   5.140
 9964SOL    HW130791   4.513   5.370   5.101
 9964SOL    HW230792   4.517   5.207   5.088
 9965SOL     OW30793   3.778   6.755   0.028
 9965SOL    HW130794   3.719   6.835   0.038
 9965SOL    HW230795   3.828   6.761   6.966
 9966SOL     OW30796   1.472   5.183   1.627
 9966SOL    HW130797   1.530   5.171   1.707
 9966SOL    HW230798   1.492   5.112   1.560
 9967SOL     OW30799   0.274   5.969   2.315
 9967SOL    HW130800   0.279   5.989   2.413
 9967SOL    HW230801   0.365   5.973   2.275
 9968SOL     OW30802   3.792   4.053   1.273
 9968SOL    HW130803   3.843   4.116   1.332
 9968SOL    HW230804   3.703   4.033   1.314
 9969SOL     OW30805   1.629   3.428   2.210
 9969SOL    HW130806   1.706   3.489   2.190
 9969SOL    HW230807   1.548   3.482   2.232
 9970SOL     OW30808   5.174   4.100   3.005
 9970SOL    HW130809   5.234   4.175   2.977
 9970SOL    HW230810   5.119   4.070   2.927
 9971SOL     OW30811   2.266   4.962   1.286
 9971SOL    HW130812   2.343   4.959   1.223
 9971SOL    HW230813   2.191   4.905   1.251
 9972SOL     OW30814   5.714   4.946   0.924
 9972SOL    HW130815   5.805   4.940   0.964
 9972SOL    HW230816   5.677   4.855   0.910
 9973SOL     OW30817   5.902   1.753   3.204
 9973SOL    HW130818   5.804   1.745   3.220
 9973SOL    HW230819   5.941   1.819   3.268
 9974SOL     OW30820   0.809   2.337   2.434
 9974SOL    HW130821   0.781   2.259   2.490
 9974SOL    HW230822   0.737   2.406   2.434
 9975SOL     OW30823   6.142   3.232   0.650
 9975SOL    HW130824   6.062   3.233   0.710
 9975SOL    HW230825   6.135   3.155   0.587
 9976SOL     OW30826   1.052   5.942   5.318
 9976SOL    HW130827   1.052   5.909   5.412
 9976SOL    HW230828   1.032   5.866   5.256
 9977SOL     OW30829   6.496   5.831   5.578
 9977SOL    HW130830   6.483   5.909   5.638
 9977SOL    HW230831   6.426   5.762   5.598
 9978SOL     OW30832   1.047   3.064   4.915
 9978SOL    HW130833   1.037   2.965   4.925
 9978SOL    HW230834   1.143   3.089   4.923
 9979SOL     OW30835   6.671   4.942   5.442
 9979SOL    HW130836   6.697   5.038   5.433
 9979SOL    HW230837   6.611   4.916   5.367
 9980SOL     OW30838   2.513   0.087   6.815
 9980SOL    HW130839   2.569   0.040   6.747
 9980SOL    HW230840   2.424   0.042   6.822
 9981SOL     OW30841   2.522   1.826   2.898
 9981SOL    HW130842   2.585   1.767   2.949
 9981SOL    HW230843   2.431   1.821   2.940
 9982SOL     OW30844   6.312   5.732   4.284
 9982SOL    HW130845   6.351   5.666   4.348
 9982SOL    HW230846   6.319   5.824   4.322
 9983SOL     OW30847   0.718   2.126   3.245
 9983SOL    HW130848   0.656   2.168   3.180
 9983SOL    HW230849   0.720   2.027   3.230
 9984SOL     OW30850   2.501   1.749   6.768
 9984SOL    HW130851   2.599   1.740   6.787
 9984SOL    HW230852   2.452   1.676   6.816
 9985SOL     OW30853   2.184   0.906   0.534
 9985SOL    HW130854   2.117   0.959   0.586
 9985SOL    HW230855   2.209   0.824   0.585
 9986SOL     OW30856   6.393   3.851   5.767
 9986SOL    HW130857   6.309   3.818   5.809
 9986SOL    HW230858   6.470   3.792   5.796
 9987SOL     OW30859   5.934   3.153   5.308
 9987SOL    HW130860   6.033   3.163   5.300
 9987SOL    HW230861   5.892   3.161   5.217
 9988SOL     OW30862   0.347   5.818   4.564
 9988SOL    HW130863   0.353   5.918   4.560
 9988SOL    HW230864   0.402   5.778   4.491
 9989SOL     OW30865   6.590   3.125   3.657
 9989SOL    HW130866   6.510   3.167   3.615
 9989SOL    HW230867   6.560   3.055   3.722
 9990SOL     OW30868   2.054   5.239   3.348
 9990SOL    HW130869   2.070   5.145   3.376
 9990SOL    HW230870   1.971   5.243   3.293
 9991SOL     OW30871   2.916   2.303   4.522
 9991SOL    HW130872   3.016   2.306   4.526
 9991SOL    HW230873   2.882   2.237   4.589
 9992SOL     OW30874   5.457   4.966   6.982
 9992SOL    HW130875   5.480   4.879   0.002
 9992SOL    HW230876   5.382   4.952   6.918
 9993SOL     OW30877   2.949   1.266   0.934
 9993SOL    HW130878   2.959   1.320   0.851
 9993SOL    HW230879   2.925   1.327   1.010
 9994SOL     OW30880   6.041   4.373   2.840
 9994SOL    HW130881   6.010   4.317   2.764
 9994SOL    HW230882   5.962   4.410   2.889
 9995SOL     OW30883   4.668   1.299   3.335
 9995SOL    HW130884   4.613   1.373   3.297
 9995SOL    HW230885   4.687   1.318   3.431
 9996SOL     OW30886   2.966   4.029   6.846
 9996SOL    HW130887   2.980   3.971   6.765
 9996SOL    HW230888   3.003   3.982   6.927
 9997SOL     OW30889   2.678   1.592   5.753
 9997SOL    HW130890   2.740   1.557   5.824
 9997SOL    HW230891   2.685   1.692   5.749
 9998SOL     OW30892   5.796   5.015   5.343
 9998SOL    HW130893   5.747   5.084   5.288
 9998SOL    HW230894   5.746   4.929   5.340
 9999SOL     OW30895   6.371   2.991   5.879
 9999SOL    HW130896   6.373   2.978   5.979
 9999SOL    HW230897   6.358   3.087   5.858
10000SOL     OW30898   6.595   3.433   0.150
10000SOL    HW130899   6.604   3.460   0.246
10000SOL    HW230900   6.510   3.470   0.112
10001SOL     OW30901   4.773   6.917   2.422
10001SOL    HW130902   4.719   6.918   2.338
10001SOL    HW230903   4.732   6.978   2.489
10002SOL     OW30904   1.721   6.628   2.054
10002SOL    HW130905   1.718   6.701   1.986
10002SOL    HW230906   1.643   6.638   2.116
10003SOL     OW30907   3.435   2.096   3.727
10003SOL    HW130908   3.456   2.009   3.683
10003SOL    HW230909   3.470   2.095   3.821
10004SOL     OW30910   6.683   2.807   4.743
10004SOL    HW130911   6.607   2.804   4.808
10004SOL    HW230912   6.728   2.718   4.740
10005SOL     OW30913   5.818   0.727   3.804
10005SOL    HW130914   5.740   0.687   3.852
10005SOL    HW230915   5.884   0.760   3.871
10006SOL     OW30916   4.605   6.660   4.017
10006SOL    HW130917   4.581   6.726   3.945
10006SOL    HW230918   4.690   6.614   3.992
10007SOL     OW30919   0.003   3.618   5.181
10007SOL    HW130920   0.101   3.636   5.186
10007SOL    HW230921   6.989   3.618   5.274
10008SOL     OW30922   3.730   1.256   4.702
10008SOL    HW130923   3.766   1.164   4.684
10008SOL    HW230924   3.631   1.256   4.688
10009SOL     OW30925   1.819   3.830   2.169
10009SOL    HW130926   1.890   3.784   2.115
10009SOL    HW230927   1.862   3.892   2.235
10010SOL     OW30928   2.232   0.774   6.582
10010SOL    HW130929   2.149   0.769   6.526
10010SOL    HW230930   2.310   0.742   6.529
10011SOL     OW30931   6.712   0.465   5.360
10011SOL    HW130932   6.676   0.464   5.267
10011SOL    HW230933   6.676   0.386   5.410
10012SOL     OW30934   6.082   0.453   2.794
10012SOL    HW130935   6.048   0.359   2.796
10012SOL    HW230936   6.168   0.456   2.742
10013SOL     OW30937   0.401   1.127   2.992
10013SOL    HW130938   0.305   1.107   2.973
10013SOL    HW230939   0.443   1.048   3.037
10014SOL     OW30940   0.681   4.243   6.681
10014SOL    HW130941   0.758   4.239   6.744
10014SOL    HW230942   0.711   4.212   6.590
10015SOL     OW30943   2.382   5.459   0.600
10015SOL    HW130944   2.444   5.526   0.558
10015SOL    HW230945   2.372   5.380   0.539
10016SOL     OW30946   1.730   1.334   6.162
10016SOL    HW130947   1.782   1.264   6.113
10016SOL    HW230948   1.693   1.400   6.097
10017SOL     OW30949   2.771   2.380   4.306
10017SOL    HW130950   2.706   2.417   4.372
10017SOL    HW230951   2.860   2.368   4.350
10018SOL     OW30952   5.385   0.102   6.891
10018SOL    HW130953   5.309   0.163   6.869
10018SOL    HW230954   5.459   0.155   6.933
10019SOL     OW30955   1.100   1.441   2.930
10019SOL    HW130956   1.053   1.516   2.883
10019SOL    HW230957   1.126   1.471   3.022
10020SOL     OW30958   0.995   2.774   1.522
10020SOL    HW130959   0.961   2.745   1.432
10020SOL    HW230960   1.041   2.863   1.513
10021SOL     OW30961   7.014   3.700   0.988
10021SOL    HW130962   6.995   3.620   0.931
10021SOL    HW230963   6.931   3.724   1.040
10022SOL     OW30964   2.573   1.470   6.070
10022SOL    HW130965   2.479   1.486   6.040
10022SOL    HW230966   2.606   1.549   6.121
10023SOL     OW30967   6.411   4.241   0.409
10023SOL    HW130968   6.498   4.244   0.459
10023SOL    HW230969   6.362   4.157   0.434
10024SOL     OW30970   1.146   5.818   3.879
10024SOL    HW130971   1.133   5.917   3.890
10024SOL    HW230972   1.177   5.799   3.786
10025SOL     OW30973   1.994   0.577   1.564
10025SOL    HW130974   2.006   0.676   1.571
10025SOL    HW230975   1.930   0.546   1.634
10026SOL     OW30976   5.351   0.600   3.498
10026SOL    HW130977   5.352   0.700   3.501
10026SOL    HW230978   5.393   0.568   3.413
10027SOL     OW30979   5.389   3.317   4.214
10027SOL    HW130980   5.349   3.228   4.238
10027SOL    HW230981   5.438   3.309   4.127
10028SOL     OW30982   1.430   0.844   0.945
10028SOL    HW130983   1.410   0.829   0.848
10028SOL    HW230984   1.504   0.783   0.973
10029SOL     OW30985   5.435   1.907   3.470
10029SOL    HW130986   5.474   1.975   3.532
10029SOL    HW230987   5.479   1.818   3.486
10030SOL     OW30988   2.324   1.029   3.413
10030SOL    HW130989   2.246   1.018   3.474
10030SOL    HW230990   2.407   0.996   3.460
10031SOL     OW30991   5.422   4.624   3.940
10031SOL    HW130992   5.513   4.590   3.964
10031SOL    HW230993   5.381   4.667   4.021
10032SOL     OW30994   2.425   1.904   5.243
10032SOL    HW130995   2.505   1.964   5.248
10032SOL    HW230996   2.342   1.961   5.244
10033SOL     OW30997   6.152   2.978   4.226
10033SOL    HW130998   6.180   2.886   4.201
10033SOL    HW230999   6.223   3.021   4.282
10034SOL     OW31000   3.618   0.971   4.703
10034SOL    HW131001   3.554   0.923   4.763
10034SOL    HW231002   3.689   0.907   4.672
10035SOL     OW31003   6.874   5.242   1.900
10035SOL    HW131004   6.970   5.212   1.895
10035SOL    HW231005   6.850   5.258   1.996
10036SOL     OW31006   6.655   1.904   0.316
10036SOL    HW131007   6.664   1.805   0.303
10036SOL    HW231008   6.706   1.951   0.244
10037SOL     OW31009   6.713   0.769   6.016
10037SOL    HW131010   6.638   0.722   6.063
10037SOL    HW231011   6.695   0.868   6.016
10038SOL     OW31012   6.594   0.417   0.997
10038SOL    HW131013   6.625   0.329   0.962
10038SOL    HW231014   6.543   0.403   1.081
10039SOL     OW31015   2.984   0.429   3.261
10039SOL    HW131016   2.962   0.525   3.247
10039SOL    HW231017   3.083   0.417   3.265
10040SOL     OW31018   6.338   3.971   0.518
10040SOL    HW131019   6.281   3.991   0.598
10040SOL    HW231020   6.294   3.900   0.463
10041SOL     OW31021   3.507   6.465   0.127
10041SOL    HW131022   3.465   6.532   0.190
10041SOL    HW231023   3.586   6.424   0.171
10042SOL     OW31024   6.728   2.167   3.180
10042SOL    HW131025   6.734   2.243   3.115
10042SOL    HW231026   6.807   2.107   3.166
10043SOL     OW31027   0.216   1.804   5.951
10043SOL    HW131028   0.274   1.824   6.030
10043SOL    HW231029   0.131   1.857   5.958
10044SOL     OW31030   2.677   2.477   5.801
10044SOL    HW131031   2.608   2.426   5.751
10044SOL    HW231032   2.666   2.462   5.899
10045SOL     OW31033   4.311   0.919   0.787
10045SOL    HW131034   4.371   0.854   0.740
10045SOL    HW231035   4.235   0.943   0.727
10046SOL     OW31036   0.532   4.786   1.392
10046SOL    HW131037   0.547   4.690   1.414
10046SOL    HW231038   0.527   4.797   1.292
10047SOL     OW31039   0.691   3.105   6.118
10047SOL    HW131040   0.640   3.097   6.203
10047SOL    HW231041   0.722   3.200   6.106
10048SOL     OW31042   6.207   6.661   2.605
10048SOL    HW131043   6.195   6.747   2.555
10048SOL    HW231044   6.124   6.641   2.657
10049SOL     OW31045   0.367   2.338   5.640
10049SOL    HW131046   0.404   2.323   5.732
10049SOL    HW231047   0.414   2.414   5.596
10050SOL     OW31048   5.463   3.376   5.161
10050SOL    HW131049   5.365   3.375   5.142
10050SOL    HW231050   5.480   3.334   5.251
10051SOL     OW31051   0.573   4.064   4.497
10051SOL    HW131052   0.595   4.070   4.400
10051SOL    HW231053   0.490   4.009   4.509
10052SOL     OW31054   0.955   0.380   3.641
10052SOL    HW131055   0.877   0.419   3.691
10052SOL    HW231056   0.922   0.311   3.576
10053SOL     OW31057   4.964   5.448   4.383
10053SOL    HW131058   4.913   5.389   4.446
10053SOL    HW231059   4.908   5.527   4.358
10054SOL     OW31060   5.365   3.798   4.588
10054SOL    HW131061   5.416   3.815   4.672
10054SOL    HW231062   5.416   3.734   4.530
10055SOL     OW31063   6.666   1.996   6.508
10055SOL    HW131064   6.584   1.987   6.452
10055SOL    HW231065   6.708   1.906   6.521
10056SOL     OW31066   5.185   3.087   2.826
10056SOL    HW131067   5.134   3.165   2.862
10056SOL    HW231068   5.168   3.007   2.883
10057SOL     OW31069   5.165   4.604   6.309
10057SOL    HW131070   5.200   4.585   6.401
10057SOL    HW231071   5.235   4.582   6.241
10058SOL     OW31072   5.924   3.151   4.860
10058SOL    HW131073   5.868   3.088   4.806
10058SOL    HW231074   5.865   3.200   4.925
10059SOL     OW31075   6.945   1.534   6.707
10059SOL    HW131076   7.020   1.598   6.689
10059SOL    HW231077   6.901   1.557   6.793
10060SOL     OW31078   2.476   1.883   2.639
10060SOL    HW131079   2.485   1.815   2.712
10060SOL    HW231080   2.441   1.968   2.676
10061SOL     OW31081   3.730   0.733   3.233
10061SOL    HW131082   3.819   0.690   3.247
10061SOL    HW231083   3.663   0.664   3.207
10062SOL     OW31084   0.220   0.227   4.366
10062SOL    HW131085   0.141   0.176   4.330
10062SOL    HW231086   0.224   0.217   4.465
10063SOL     OW31087   1.586   3.236   4.976
10063SOL    HW131088   1.541   3.251   4.888
10063SOL    HW231089   1.519   3.201   5.042
10064SOL     OW31090   2.831   6.715   0.539
10064SOL    HW131091   2.899   6.654   0.579
10064SOL    HW231092   2.747   6.664   0.520
10065SOL     OW31093   0.620   0.987   2.104
10065SOL    HW131094   0.694   0.920   2.106
10065SOL    HW231095   0.605   1.023   2.196
10066SOL     OW31096   6.647   3.257   4.911
10066SOL    HW131097   6.629   3.164   4.941
10066SOL    HW231098   6.569   3.315   4.934
10067SOL     OW31099   6.569   2.224   5.257
10067SOL    HW131100   6.517   2.261   5.335
10067SOL    HW231101   6.641   2.165   5.291
10068SOL     OW31102   2.558   2.340   2.768
10068SOL    HW131103   2.498   2.378   2.839
10068SOL    HW231104   2.583   2.411   2.703
10069SOL     OW31105   3.468   5.425   1.124
10069SOL    HW131106   3.453   5.392   1.031
10069SOL    HW231107   3.465   5.525   1.125
10070SOL     OW31108   3.536   5.988   5.217
10070SOL    HW131109   3.485   6.055   5.164
10070SOL    HW231110   3.562   5.911   5.159
10071SOL     OW31111   6.454   0.290   3.412
10071SOL    HW131112   6.469   0.338   3.498
10071SOL    HW231113   6.503   0.203   3.414
10072SOL     OW31114   6.566   1.927   2.563
10072SOL    HW131115   6.629   1.849   2.559
10072SOL    HW231116   6.598   1.992   2.632
10073SOL     OW31117   6.233   3.780   4.413
10073SOL    HW131118   6.320   3.748   4.376
10073SOL    HW231119   6.202   3.718   4.485
10074SOL     OW31120   1.784   4.925   0.430
10074SOL    HW131121   1.741   5.003   0.385
10074SOL    HW231122   1.762   4.841   0.379
10075SOL     OW31123   1.976   3.283   1.665
10075SOL    HW131124   1.904   3.335   1.712
10075SOL    HW231125   2.034   3.346   1.613
10076SOL     OW31126   5.016   5.123   3.744
10076SOL    HW131127   5.100   5.157   3.787
10076SOL    HW231128   5.034   5.098   3.649
10077SOL     OW31129   6.114   2.774   6.425
10077SOL    HW131130   6.181   2.710   6.463
10077SOL    HW231131   6.032   2.724   6.397
10078SOL     OW31132   6.982   6.725   5.359
10078SOL    HW131133   0.017   6.704   5.281
10078SOL    HW231134   7.010   6.670   5.438
10079SOL     OW31135   4.336   2.382   3.024
10079SOL    HW131136   4.409   2.315   3.010
10079SOL    HW231137   4.345   2.455   2.957
10080SOL     OW31138   5.434   0.219   6.174
10080SOL    HW131139   5.348   0.167   6.168
10080SOL    HW231140   5.509   0.163   6.139
10081SOL     OW31141   2.179   2.841   0.669
10081SOL    HW131142   2.175   2.896   0.753
10081SOL    HW231143   2.224   2.754   0.689
10082SOL     OW31144   1.214   4.397   1.752
10082SOL    HW131145   1.171   4.379   1.663
10082SOL    HW231146   1.226   4.312   1.802
10083SOL     OW31147   3.538   5.203   3.596
10083SOL    HW131148   3.509   5.185   3.690
10083SOL    HW231149   3.468   5.255   3.548
10084SOL     OW31150   1.256   0.640   4.779
10084SOL    HW131151   1.329   0.659   4.844
10084SOL    HW231152   1.225   0.545   4.790
10085SOL     OW31153   4.608   0.170   0.704
10085SOL    HW131154   4.695   0.121   0.694
10085SOL    HW231155   4.542   0.134   0.639
10086SOL     OW31156   0.128   6.212   1.813
10086SOL    HW131157   0.048   6.167   1.853
10086SOL    HW231158   0.107   6.240   1.719
10087SOL     OW31159   1.560   6.276   4.942
10087SOL    HW131160   1.572   6.375   4.940
10087SOL    HW231161   1.646   6.231   4.919
10088SOL     OW31162   0.443   2.845   0.303
10088SOL    HW131163   0.455   2.932   0.350
10088SOL    HW231164   0.397   2.780   0.363
10089SOL     OW31165   3.921   1.647   2.279
10089SOL    HW131166   3.945   1.713   2.208
10089SOL    HW231167   3.880   1.695   2.357
10090SOL     OW31168   2.132   6.184   1.434
10090SOL    HW131169   2.173   6.093   1.434
10090SOL    HW231170   2.201   6.252   1.408
10091SOL     OW31171   6.167   4.232   5.576
10091SOL    HW131172   6.079   4.194   5.603
10091SOL    HW231173   6.234   4.158   5.571
10092SOL     OW31174   0.407   2.199   4.915
10092SOL    HW131175   0.315   2.172   4.943
10092SOL    HW231176   0.473   2.133   4.951
10093SOL     OW31177   5.734   4.324   5.635
10093SOL    HW131178   5.787   4.253   5.682
10093SOL    HW231179   5.796   4.386   5.587
10094SOL     OW31180   3.281   0.522   1.159
10094SOL    HW131181   3.285   0.444   1.097
10094SOL    HW231182   3.210   0.586   1.128
10095SOL     OW31183   4.912   2.883   5.348
10095SOL    HW131184   4.844   2.953   5.328
10095SOL    HW231185   4.914   2.864   5.446
10096SOL     OW31186   5.350   1.407   3.132
10096SOL    HW131187   5.289   1.422   3.054
10096SOL    HW231188   5.380   1.312   3.133
10097SOL     OW31189   1.027   1.814   0.109
10097SOL    HW131190   1.098   1.804   0.178
10097SOL    HW231191   0.948   1.757   0.133
10098SOL     OW31192   3.604   5.851   3.808
10098SOL    HW131193   3.582   5.934   3.758
10098SOL    HW231194   3.700   5.828   3.795
10099SOL     OW31195   6.913   4.969   1.545
10099SOL    HW131196   6.860   4.899   1.594
10099SOL    HW231197   6.881   4.974   1.451
10100SOL     OW31198   4.519   5.332   4.441
10100SOL    HW131199   4.429   5.376   4.451
10100SOL    HW231200   4.562   5.323   4.530
10101SOL     OW31201   1.000   2.181   1.764
10101SOL    HW131202   0.901   2.174   1.756
10101SOL    HW231203   1.023   2.257   1.824
10102SOL     OW31204   6.223   6.801   1.747
10102SOL    HW131205   6.254   6.714   1.709
10102SOL    HW231206   6.301   6.861   1.763
10103SOL     OW31207   6.729   6.364   6.551
10103SOL    HW131208   6.804   6.321   6.501
10103SOL    HW231209   6.671   6.294   6.592
10104SOL     OW31210   2.002   0.409   4.709
10104SOL    HW131211   2.031   0.461   4.629
10104SOL    HW231212   1.938   0.337   4.681
10105SOL     OW31213   2.645   0.671   6.075
10105SOL    HW131214   2.594   0.751   6.108
10105SOL    HW231215   2.712   0.700   6.007
10106SOL     OW31216   5.183   5.868   1.303
10106SOL    HW131217   5.148   5.817   1.382
10106SOL    HW231218   5.202   5.805   1.228
10107SOL     OW31219   5.174   4.444   0.065
10107SOL    HW131220   5.145   4.386   0.142
10107SOL    HW231221   5.216   4.527   0.101
10108SOL     OW31222   2.072   2.701   0.139
10108SOL    HW131223   2.011   2.764   0.186
10108SOL    HW231224   2.076   2.614   0.188
10109SOL     OW31225   1.198   2.039   1.204
10109SOL    HW131226   1.131   2.113   1.215
10109SOL    HW231227   1.273   2.053   1.269
10110SOL     OW31228   4.697   5.979   2.652
10110SOL    HW131229   4.609   6.000   2.695
10110SOL    HW231230   4.757   5.935   2.718
10111SOL     OW31231   1.465   1.291   1.861
10111SOL    HW131232   1.564   1.285   1.844
10111SOL    HW231233   1.417   1.295   1.773
10112SOL     OW31234   6.610   2.019   3.653
10112SOL    HW131235   6.608   1.928   3.694
10112SOL    HW231236   6.579   2.013   3.558
10113SOL     OW31237   6.257   0.999   6.407
10113SOL    HW131238   6.274   0.934   6.333
10113SOL    HW231239   6.337   1.002   6.468
10114SOL     OW31240   5.131   1.794   2.192
10114SOL    HW131241   5.159   1.711   2.240
10114SOL    HW231242   5.149   1.784   2.094
10115SOL     OW31243   3.592   2.694   6.049
10115SOL    HW131244   3.570   2.738   5.962
10115SOL    HW231245   3.515   2.705   6.112
10116SOL     OW31246   6.098   0.291   4.968
10116SOL    HW131247   6.095   0.271   4.870
10116SOL    HW231248   6.005   0.299   5.003
10117SOL     OW31249   6.204   4.372   3.893
10117SOL    HW131250   6.265   4.301   3.929
10117SOL    HW231251   6.137   4.331   3.831
10118SOL     OW31252   3.987   5.343   4.775
10118SOL    HW131253   3.911   5.345   4.710
10118SOL    HW231254   4.054   5.412   4.748
10119SOL     OW31255   0.026   5.512   5.406
10119SOL    HW131256   6.959   5.546   5.427
10119SOL    HW231257   0.019   5.427   5.353
10120SOL     OW31258   1.951   3.018   2.458
10120SOL    HW131259   1.934   2.923   2.433
10120SOL    HW231260   1.965   3.073   2.376
10121SOL     OW31261   6.577   3.897   0.735
10121SOL    HW131262   6.512   3.903   0.810
10121SOL    HW231263   6.529   3.907   0.648
10122SOL     OW31264   1.215   0.545   3.766
10122SOL    HW131265   1.125   0.567   3.803
10122SOL    HW231266   1.228   0.446   3.766
10123SOL     OW31267   5.511   5.470   6.595
10123SOL    HW131268   5.598   5.448   6.550
10123SOL    HW231269   5.436   5.448   6.532
10124SOL     OW31270   1.142   4.877   2.940
10124SOL    HW131271   1.226   4.903   2.893
10124SOL    HW231272   1.148   4.781   2.969
10125SOL     OW31273   1.394   1.288   6.127
10125SOL    HW131274   1.375   1.267   6.223
10125SOL    HW231275   1.469   1.230   6.095
10126SOL     OW31276   6.278   0.228   6.623
10126SOL    HW131277   6.365   0.203   6.583
10126SOL    HW231278   6.287   0.233   6.723
10127SOL     OW31279   1.785   5.632   5.904
10127SOL    HW131280   1.797   5.611   5.807
10127SOL    HW231281   1.700   5.685   5.916
10128SOL     OW31282   2.813   1.585   6.769
10128SOL    HW131283   2.908   1.606   6.789
10128SOL    HW231284   2.786   1.629   6.684
10129SOL     OW31285   5.789   1.321   3.967
10129SOL    HW131286   5.775   1.243   4.028
10129SOL    HW231287   5.801   1.288   3.874
10130SOL     OW31288   1.228   1.770   2.645
10130SOL    HW131289   1.213   1.712   2.565
10130SOL    HW231290   1.225   1.866   2.617
10131SOL     OW31291   1.809   6.942   4.604
10131SOL    HW131292   1.900   6.916   4.637
10131SOL    HW231293   1.812   6.956   4.505
10132SOL     OW31294   6.684   0.860   1.925
10132SOL    HW131295   6.711   0.845   2.020
10132SOL    HW231296   6.680   0.772   1.877
10133SOL     OW31297   5.840   0.116   0.319
10133SOL    HW131298   5.887   0.028   0.330
10133SOL    HW231299   5.897   0.178   0.266
10134SOL     OW31300   5.844   6.872   1.933
10134SOL    HW131301   5.747   6.853   1.948
10134SOL    HW231302   5.897   6.789   1.948
10135SOL     OW31303   6.405   0.019   2.803
10135SOL    HW131304   6.426   6.956   2.758
10135SOL    HW231305   6.477   0.086   2.781
10136SOL     OW31306   5.576   1.587   2.857
10136SOL    HW131307   5.656   1.611   2.802
10136SOL    HW231308   5.506   1.547   2.798
10137SOL     OW31309   6.411   5.177   5.426
10137SOL    HW131310   6.443   5.247   5.490
10137SOL    HW231311   6.409   5.215   5.334
10138SOL     OW31312   0.167   1.817   0.462
10138SOL    HW131313   0.172   1.876   0.542
10138SOL    HW231314   0.205   1.865   0.383
10139SOL     OW31315   3.472   2.888   6.236
10139SOL    HW131316   3.448   2.974   6.281
10139SOL    HW231317   3.515   2.826   6.302
10140SOL     OW31318   0.384   6.350   5.957
10140SOL    HW131319   0.450   6.278   5.935
10140SOL    HW231320   0.292   6.320   5.932
10141SOL     OW31321   2.027   2.630   4.643
10141SOL    HW131322   2.051   2.593   4.554
10141SOL    HW231323   1.997   2.725   4.634
10142SOL     OW31324   4.689   6.325   4.228
10142SOL    HW131325   4.592   6.305   4.216
10142SOL    HW231326   4.701   6.381   4.310
10143SOL     OW31327   5.155   3.349   6.760
10143SOL    HW131328   5.249   3.337   6.729
10143SOL    HW231329   5.103   3.401   6.693
10144SOL     OW31330   3.616   6.998   6.351
10144SOL    HW131331   3.564   6.921   6.390
10144SOL    HW231332   3.689   0.000   6.414
10145SOL     OW31333   5.404   5.902   6.517
10145SOL    HW131334   5.389   5.805   6.496
10145SOL    HW231335   5.499   5.915   6.547
10146SOL     OW31336   0.005   2.374   4.305
10146SOL    HW131337   7.010   2.325   4.220
10146SOL    HW231338   0.097   2.412   4.301
10147SOL     OW31339   4.979   5.094   6.112
10147SOL    HW131340   4.995   5.186   6.148
10147SOL    HW231341   5.027   5.083   6.025
10148SOL     OW31342   1.284   4.678   0.613
10148SOL    HW131343   1.224   4.679   0.533
10148SOL    HW231344   1.379   4.681   0.583
10149SOL     OW31345   3.762   4.473   0.089
10149SOL    HW131346   3.846   4.515   0.056
10149SOL    HW231347   3.691   4.479   0.019
10150SOL     OW31348   3.892   4.398   0.304
10150SOL    HW131349   3.944   4.316   0.282
10150SOL    HW231350   3.845   4.431   0.222
10151SOL     OW31351   5.458   0.052   5.784
10151SOL    HW131352   5.442   0.144   5.749
10151SOL    HW231353   5.527   0.055   5.856
10152SOL     OW31354   4.524   6.781   2.684
10152SOL    HW131355   4.499   6.735   2.770
10152SOL    HW231356   4.442   6.800   2.631
10153SOL     OW31357   4.546   4.391   3.268
10153SOL    HW131358   4.516   4.448   3.344
10153SOL    HW231359   4.617   4.328   3.299
10154SOL     OW31360   5.406   5.386   5.470
10154SOL    HW131361   5.404   5.363   5.373
10154SOL    HW231362   5.462   5.319   5.519
10155SOL     OW31363   4.178   1.236   4.776
10155SOL    HW131364   4.163   1.183   4.692
10155SOL    HW231365   4.101   1.297   4.791
10156SOL     OW31366   5.189   1.968   6.753
10156SOL    HW131367   5.142   2.022   6.822
10156SOL    HW231368   5.283   2.001   6.741
10157SOL     OW31369   0.884   3.049   1.191
10157SOL    HW131370   0.860   3.106   1.270
10157SOL    HW231371   0.808   2.988   1.170
10158SOL     OW31372   5.943   5.035   0.605
10158SOL    HW131373   5.848   5.008   0.624
10158SOL    HW231374   5.947   5.084   0.518
10159SOL     OW31375   3.285   3.588   2.500
10159SOL    HW131376   3.269   3.500   2.455
10159SOL    HW231377   3.270   3.578   2.598
10160SOL     OW31378   1.069   5.138   3.006
10160SOL    HW131379   1.040   5.170   2.915
10160SOL    HW231380   1.063   5.039   3.010
10161SOL     OW31381   5.202   3.107   5.521
10161SOL    HW131382   5.112   3.078   5.556
10161SOL    HW231383   5.261   3.133   5.597
10162SOL     OW31384   1.354   2.749   2.767
10162SOL    HW131385   1.284   2.801   2.719
10162SOL    HW231386   1.409   2.697   2.701
10163SOL     OW31387   1.727   6.016   5.083
10163SOL    HW131388   1.787   6.010   5.163
10163SOL    HW231389   1.702   5.924   5.053
10164SOL     OW31390   1.101   2.245   3.240
10164SOL    HW131391   1.119   2.236   3.338
10164SOL    HW231392   1.004   2.262   3.226
10165SOL     OW31393   6.966   3.471   4.527
10165SOL    HW131394   6.943   3.401   4.595
10165SOL    HW231395   6.969   3.561   4.571
10166SOL     OW31396   2.303   0.824   1.411
10166SOL    HW131397   2.335   0.856   1.322
10166SOL    HW231398   2.360   0.748   1.441
10167SOL     OW31399   2.134   0.492   6.795
10167SOL    HW131400   2.112   0.588   6.817
10167SOL    HW231401   2.209   0.461   6.854
10168SOL     OW31402   0.177   1.073   0.211
10168SOL    HW131403   0.217   1.039   0.296
10168SOL    HW231404   0.251   1.099   0.148
10169SOL     OW31405   6.188   2.768   3.695
10169SOL    HW131406   6.195   2.804   3.788
10169SOL    HW231407   6.096   2.730   3.682
10170SOL     OW31408   5.645   5.644   6.318
10170SOL    HW131409   5.688   5.572   6.373
10170SOL    HW231410   5.698   5.728   6.327
10171SOL     OW31411   2.021   3.408   5.861
10171SOL    HW131412   1.941   3.417   5.801
10171SOL    HW231413   2.051   3.499   5.889
10172SOL     OW31414   6.311   6.976   3.047
10172SOL    HW131415   6.340   7.002   2.955
10172SOL    HW231416   6.229   6.919   3.041
10173SOL     OW31417   3.075   4.040   5.119
10173SOL    HW131418   3.025   4.116   5.161
10173SOL    HW231419   3.146   4.007   5.182
10174SOL     OW31420   4.250   5.774   3.303
10174SOL    HW131421   4.268   5.810   3.395
10174SOL    HW231422   4.229   5.850   3.241
10175SOL     OW31423   0.252   1.468   3.879
10175SOL    HW131424   0.204   1.380   3.868
10175SOL    HW231425   0.350   1.453   3.871
10176SOL     OW31426   6.637   1.676   6.087
10176SOL    HW131427   6.558   1.729   6.057
10176SOL    HW231428   6.713   1.689   6.023
10177SOL     OW31429   2.299   0.614   2.943
10177SOL    HW131430   2.374   0.680   2.948
10177SOL    HW231431   2.311   0.555   2.864
10178SOL     OW31432   1.953   2.217   0.880
10178SOL    HW131433   1.994   2.133   0.914
10178SOL    HW231434   1.903   2.262   0.954
10179SOL     OW31435   0.384   4.352   1.337
10179SOL    HW131436   0.342   4.386   1.253
10179SOL    HW231437   0.458   4.413   1.364
10180SOL     OW31438   4.059   0.421   5.779
10180SOL    HW131439   3.961   0.403   5.769
10180SOL    HW231440   4.078   0.458   5.869
10181SOL     OW31441   6.513   3.218   1.736
10181SOL    HW131442   6.430   3.253   1.693
10181SOL    HW231443   6.577   3.294   1.753
10182SOL     OW31444   6.104   1.976   0.287
10182SOL    HW131445   6.203   1.990   0.285
10182SOL    HW231446   6.058   2.058   0.253
10183SOL     OW31447   6.146   1.935   6.491
10183SOL    HW131448   6.230   1.880   6.491
10183SOL    HW231449   6.068   1.877   6.470
10184SOL     OW31450   5.577   2.990   6.063
10184SOL    HW131451   5.533   2.953   6.145
10184SOL    HW231452   5.530   2.957   5.982
10185SOL     OW31453   3.775   5.472   1.845
10185SOL    HW131454   3.829   5.495   1.764
10185SOL    HW231455   3.677   5.483   1.824
10186SOL     OW31456   3.835   3.340   5.808
10186SOL    HW131457   3.804   3.337   5.903
10186SOL    HW231458   3.834   3.435   5.776
10187SOL     OW31459   1.933   5.547   6.108
10187SOL    HW131460   1.899   5.591   6.024
10187SOL    HW231461   1.992   5.470   6.083
10188SOL     OW31462   2.865   0.554   6.534
10188SOL    HW131463   2.964   0.546   6.540
10188SOL    HW231464   2.840   0.646   6.505
10189SOL     OW31465   1.186   2.138   6.484
10189SOL    HW131466   1.130   2.088   6.419
10189SOL    HW231467   1.201   2.081   6.565
10190SOL     OW31468   3.346   5.380   2.297
10190SOL    HW131469   3.407   5.443   2.250
10190SOL    HW231470   3.398   5.325   2.363
10191SOL     OW31471   5.675   5.875   6.638
10191SOL    HW131472   5.698   5.885   6.541
10191SOL    HW231473   5.695   5.781   6.667
10192SOL     OW31474   1.757   1.912   3.982
10192SOL    HW131475   1.708   1.882   3.900
10192SOL    HW231476   1.853   1.885   3.976
10193SOL     OW31477   3.570   3.745   3.586
10193SOL    HW131478   3.612   3.773   3.500
10193SOL    HW231479   3.602   3.804   3.660
10194SOL     OW31480   3.059   0.248   2.940
10194SOL    HW131481   3.029   0.280   2.850
10194SOL    HW231482   3.053   0.324   3.005
10195SOL     OW31483   4.024   6.201   1.971
10195SOL    HW131484   3.979   6.112   1.970
10195SOL    HW231485   4.111   6.194   1.923
10196SOL     OW31486   6.003   1.639   3.470
10196SOL    HW131487   5.946   1.578   3.525
10196SOL    HW231488   5.974   1.734   3.484
10197SOL     OW31489   5.872   0.017   1.594
10197SOL    HW131490   5.921   0.012   1.681
10197SOL    HW231491   5.939   0.028   1.520
10198SOL     OW31492   2.733   6.892   0.886
10198SOL    HW131493   2.720   6.910   0.983
10198SOL    HW231494   2.827   6.916   0.860
10199SOL     OW31495   1.425   1.607   0.603
10199SOL    HW131496   1.432   1.515   0.566
10199SOL    HW231497   1.329   1.628   0.622
10200SOL     OW31498   4.732   4.712   4.496
10200SOL    HW131499   4.746   4.798   4.545
10200SOL    HW231500   4.821   4.674   4.469
10201SOL     OW31501   1.671   4.618   2.500
10201SOL    HW131502   1.582   4.575   2.510
10201SOL    HW231503   1.669   4.709   2.541
10202SOL     OW31504   1.407   3.556   2.367
10202SOL    HW131505   1.438   3.625   2.302
10202SOL    HW231506   1.324   3.588   2.413
10203SOL     OW31507   1.749   3.015   2.651
10203SOL    HW131508   1.767   3.018   2.749
10203SOL    HW231509   1.832   3.037   2.601
10204SOL     OW31510   3.083   4.604   5.344
10204SOL    HW131511   3.148   4.542   5.389
10204SOL    HW231512   3.024   4.552   5.283
10205SOL     OW31513   4.754   1.947   2.772
10205SOL    HW131514   4.661   1.973   2.799
10205SOL    HW231515   4.819   1.988   2.837
10206SOL     OW31516   5.190   6.987   6.068
10206SOL    HW131517   5.111   7.023   6.117
10206SOL    HW231518   5.218   6.900   6.110
10207SOL     OW31519   3.980   0.929   2.601
10207SOL    HW131520   4.007   0.881   2.518
10207SOL    HW231521   4.061   0.966   2.646
10208SOL     OW31522   6.298   4.255   5.324
10208SOL    HW131523   6.227   4.268   5.393
10208SOL    HW231524   6.350   4.172   5.344
10209SOL     OW31525   6.187   6.948   6.280
10209SOL    HW131526   6.145   6.858   6.288
10209SOL    HW231527   6.262   6.956   6.345
10210SOL     OW31528   4.957   6.299   2.171
10210SOL    HW131529   4.869   6.317   2.215
10210SOL    HW231530   5.009   6.384   2.162
10211SOL     OW31531   3.902   5.591   5.146
10211SOL    HW131532   3.901   5.684   5.182
10211SOL    HW231533   3.993   5.570   5.110
10212SOL     OW31534   0.074   0.496   5.667
10212SOL    HW131535   0.048   0.585   5.629
10212SOL    HW231536   0.011   0.471   5.740
10213SOL     OW31537   6.315   1.484   3.001
10213SOL    HW131538   6.358   1.517   3.085
10213SOL    HW231539   6.218   1.468   3.016
10214SOL     OW31540   0.011   1.118   1.853
10214SOL    HW131541   0.028   1.044   1.788
10214SOL    HW231542   6.975   1.186   1.811
10215SOL     OW31543   3.557   3.622   6.716
10215SOL    HW131544   3.588   3.707   6.674
10215SOL    HW231545   3.467   3.637   6.758
10216SOL     OW31546   4.991   0.564   1.441
10216SOL    HW131547   4.998   0.556   1.540
10216SOL    HW231548   5.059   0.628   1.407
10217SOL     OW31549   2.100   2.079   4.629
10217SOL    HW131550   2.095   1.980   4.614
10217SOL    HW231551   2.008   2.116   4.642
10218SOL     OW31552   2.400   1.343   0.784
10218SOL    HW131553   2.349   1.334   0.869
10218SOL    HW231554   2.486   1.390   0.801
10219SOL     OW31555   1.064   3.377   1.317
10219SOL    HW131556   1.038   3.363   1.221
10219SOL    HW231557   1.160   3.353   1.330
10220SOL     OW31558   4.655   2.048   0.902
10220SOL    HW131559   4.575   1.990   0.884
10220SOL    HW231560   4.632   2.143   0.882
10221SOL     OW31561   2.836   0.063   4.961
10221SOL    HW131562   2.892   7.008   4.984
10221SOL    HW231563   2.820   0.066   4.862
10222SOL     OW31564   1.934   5.276   5.663
10222SOL    HW131565   1.996   5.310   5.593
10222SOL    HW231566   1.966   5.305   5.753
10223SOL     OW31567   1.082   4.606   0.010
10223SOL    HW131568   1.113   4.701   0.001
10223SOL    HW231569   1.154   4.552   0.054
10224SOL     OW31570   1.756   0.073   3.894
10224SOL    HW131571   1.692   0.052   3.969
10224SOL    HW231572   1.845   0.033   3.915
10225SOL     OW31573   6.650   5.548   4.534
10225SOL    HW131574   6.726   5.599   4.495
10225SOL    HW231575   6.602   5.498   4.462
10226SOL     OW31576   1.798   1.340   6.978
10226SOL    HW131577   1.705   1.307   6.960
10226SOL    HW231578   1.812   1.427   6.930
10227SOL     OW31579   5.306   4.709   0.080
10227SOL    HW131580   5.258   4.791   0.111
10227SOL    HW231581   5.287   4.694   7.007
10228SOL     OW31582   1.067   5.399   3.166
10228SOL    HW131583   1.140   5.466   3.183
10228SOL    HW231584   1.108   5.311   3.142
10229SOL     OW31585   1.227   0.357   2.953
10229SOL    HW131586   1.169   0.410   3.016
10229SOL    HW231587   1.282   0.292   3.004
10230SOL     OW31588   6.351   0.654   3.890
10230SOL    HW131589   6.358   0.719   3.965
10230SOL    HW231590   6.352   0.704   3.803
10231SOL     OW31591   5.426   6.869   4.705
10231SOL    HW131592   5.380   6.902   4.788
10231SOL    HW231593   5.393   6.778   4.682
10232SOL     OW31594   2.965   2.128   4.915
10232SOL    HW131595   2.887   2.190   4.928
10232SOL    HW231596   3.050   2.177   4.934
10233SOL     OW31597   5.124   1.630   5.948
10233SOL    HW131598   5.188   1.618   5.872
10233SOL    HW231599   5.052   1.560   5.942
10234SOL     OW31600   5.149   6.910   1.673
10234SOL    HW131601   5.086   6.978   1.711
10234SOL    HW231602   5.239   6.920   1.717
10235SOL     OW31603   5.494   1.070   6.832
10235SOL    HW131604   5.396   1.075   6.818
10235SOL    HW231605   5.540   1.051   6.745
10236SOL     OW31606   2.411   5.184   2.109
10236SOL    HW131607   2.428   5.163   2.013
10236SOL    HW231608   2.326   5.238   2.116
10237SOL     OW31609   5.855   3.460   2.331
10237SOL    HW131610   5.798   3.492   2.256
10237SOL    HW231611   5.816   3.376   2.370
10238SOL     OW31612   4.426   4.975   4.655
10238SOL    HW131613   4.387   4.886   4.681
10238SOL    HW231614   4.402   4.994   4.559
10239SOL     OW31615   0.277   3.885   4.278
10239SOL    HW131616   0.178   3.887   4.292
10239SOL    HW231617   0.303   3.801   4.230
10240SOL     OW31618   0.403   3.783   3.819
10240SOL    HW131619   0.458   3.816   3.742
10240SOL    HW231620   0.307   3.775   3.791
10241SOL     OW31621   1.964   1.125   1.939
10241SOL    HW131622   2.051   1.085   1.969
10241SOL    HW231623   1.895   1.053   1.934
10242SOL     OW31624   0.204   0.388   6.217
10242SOL    HW131625   0.293   0.347   6.236
10242SOL    HW231626   0.163   0.419   6.302
10243SOL     OW31627   1.338   5.842   1.598
10243SOL    HW131628   1.424   5.891   1.609
10243SOL    HW231629   1.353   5.760   1.542
10244SOL     OW31630   1.952   6.119   6.795
10244SOL    HW131631   2.039   6.168   6.790
10244SOL    HW231632   1.952   6.059   6.875
10245SOL     OW31633   2.682   2.357   6.119
10245SOL    HW131634   2.772   2.316   6.104
10245SOL    HW231635   2.623   2.335   6.041
10246SOL     OW31636   3.207   4.027   4.881
10246SOL    HW131637   3.141   4.029   4.806
10246SOL    HW231638   3.159   4.024   4.968
10247SOL     OW31639   0.219   4.570   5.806
10247SOL    HW131640   0.220   4.523   5.718
10247SOL    HW231641   0.126   4.603   5.825
10248SOL     OW31642   3.252   0.031   1.956
10248SOL    HW131643   3.179   6.987   1.946
10248SOL    HW231644   3.272   0.071   1.866
10249SOL     OW31645   5.382   1.123   5.822
10249SOL    HW131646   5.409   1.103   5.728
10249SOL    HW231647   5.297   1.073   5.844
10250SOL     OW31648   6.619   1.454   0.159
10250SOL    HW131649   6.608   1.414   0.068
10250SOL    HW231650   6.566   1.401   0.225
10251SOL     OW31651   2.659   3.781   6.740
10251SOL    HW131652   2.639   3.718   6.665
10251SOL    HW231653   2.740   3.835   6.717
10252SOL     OW31654   6.170   5.833   1.368
10252SOL    HW131655   6.194   5.858   1.275
10252SOL    HW231656   6.249   5.792   1.413
10253SOL     OW31657   4.518   5.383   0.015
10253SOL    HW131658   4.469   5.296   0.011
10253SOL    HW231659   4.561   5.393   0.104
10254SOL     OW31660   2.163   2.065   5.200
10254SOL    HW131661   2.130   2.065   5.106
10254SOL    HW231662   2.110   2.130   5.255
10255SOL     OW31663   2.928   6.046   2.525
10255SOL    HW131664   3.021   6.024   2.497
10255SOL    HW231665   2.866   6.037   2.447
10256SOL     OW31666   5.806   0.470   6.797
10256SOL    HW131667   5.782   0.387   6.747
10256SOL    HW231668   5.732   0.493   6.861
10257SOL     OW31669   1.231   5.296   5.943
10257SOL    HW131670   1.213   5.214   5.997
10257SOL    HW231671   1.330   5.314   5.940
10258SOL     OW31672   3.767   0.135   3.258
10258SOL    HW131673   3.859   0.151   3.224
10258SOL    HW231674   3.772   0.087   3.345
10259SOL     OW31675   6.999   3.438   3.400
10259SOL    HW131676   0.074   3.452   3.397
10259SOL    HW231677   6.978   3.366   3.466
10260SOL     OW31678   1.112   6.928   2.143
10260SOL    HW131679   1.156   6.980   2.070
10260SOL    HW231680   1.165   6.845   2.162
10261SOL     OW31681   1.197   5.616   2.263
10261SOL    HW131682   1.188   5.621   2.362
10261SOL    HW231683   1.172   5.524   2.231
10262SOL     OW31684   2.746   4.828   4.666
10262SOL    HW131685   2.693   4.810   4.749
10262SOL    HW231686   2.704   4.780   4.589
10263SOL     OW31687   5.937   1.838   6.131
10263SOL    HW131688   5.886   1.827   6.216
10263SOL    HW231689   5.877   1.815   6.054
10264SOL     OW31690   6.526   0.614   6.132
10264SOL    HW131691   6.568   0.538   6.083
10264SOL    HW231692   6.545   0.607   6.230
10265SOL     OW31693   3.743   1.706   2.481
10265SOL    HW131694   3.706   1.616   2.506
10265SOL    HW231695   3.768   1.756   2.563
10266SOL     OW31696   3.110   4.195   6.361
10266SOL    HW131697   3.123   4.175   6.458
10266SOL    HW231698   3.070   4.286   6.350
10267SOL     OW31699   0.412   2.128   6.671
10267SOL    HW131700   0.320   2.122   6.632
10267SOL    HW231701   0.469   2.054   6.634
10268SOL     OW31702   5.293   5.850   1.771
10268SOL    HW131703   5.233   5.901   1.711
10268SOL    HW231704   5.270   5.753   1.767
10269SOL     OW31705   2.524   2.466   6.532
10269SOL    HW131706   2.605   2.443   6.478
10269SOL    HW231707   2.551   2.476   6.628
10270SOL     OW31708   1.757   5.932   0.647
10270SOL    HW131709   1.791   5.950   0.739
10270SOL    HW231710   1.766   5.834   0.627
10271SOL     OW31711   4.018   4.279   1.364
10271SOL    HW131712   4.089   4.209   1.364
10271SOL    HW231713   3.997   4.306   1.458
10272SOL     OW31714   0.589   0.882   5.416
10272SOL    HW131715   0.678   0.903   5.457
10272SOL    HW231716   0.595   0.892   5.317
10273SOL     OW31717   3.726   5.659   4.726
10273SOL    HW131718   3.667   5.633   4.802
10273SOL    HW231719   3.695   5.614   4.642
10274SOL     OW31720   0.872   4.969   5.296
10274SOL    HW131721   0.926   4.912   5.234
10274SOL    HW231722   0.931   5.039   5.337
10275SOL     OW31723   0.560   6.622   3.210
10275SOL    HW131724   0.486   6.559   3.186
10275SOL    HW231725   0.636   6.611   3.146
10276SOL     OW31726   6.798   5.564   5.560
10276SOL    HW131727   6.717   5.583   5.504
10276SOL    HW231728   6.813   5.641   5.623
10277SOL     OW31729   2.990   6.460   4.739
10277SOL    HW131730   3.045   6.487   4.659
10277SOL    HW231731   3.038   6.388   4.789
10278SOL     OW31732   5.753   0.386   6.185
10278SOL    HW131733   5.793   0.474   6.208
10278SOL    HW231734   5.689   0.359   6.257
10279SOL     OW31735   3.620   0.288   4.360
10279SOL    HW131736   3.526   0.275   4.389
10279SOL    HW231737   3.622   0.307   4.261
10280SOL     OW31738   1.556   4.010   0.269
10280SOL    HW131739   1.494   3.967   0.334
10280SOL    HW231740   1.579   3.945   0.197
10281SOL     OW31741   4.676   0.381   3.532
10281SOL    HW131742   4.757   0.324   3.518
10281SOL    HW231743   4.690   0.439   3.612
10282SOL     OW31744   0.899   2.291   4.186
10282SOL    HW131745   0.998   2.301   4.193
10282SOL    HW231746   0.874   2.196   4.200
10283SOL     OW31747   1.029   3.399   0.676
10283SOL    HW131748   0.991   3.307   0.685
10283SOL    HW231749   1.099   3.399   0.605
10284SOL     OW31750   5.410   3.286   5.401
10284SOL    HW131751   5.487   3.230   5.429
10284SOL    HW231752   5.326   3.251   5.444
10285SOL     OW31753   5.432   0.571   0.878
10285SOL    HW131754   5.450   0.638   0.805
10285SOL    HW231755   5.505   0.503   0.880
10286SOL     OW31756   4.044   0.262   3.341
10286SOL    HW131757   4.004   0.335   3.397
10286SOL    HW231758   4.127   0.296   3.297
10287SOL     OW31759   2.030   6.790   1.845
10287SOL    HW131760   2.077   6.704   1.824
10287SOL    HW231761   1.931   6.776   1.841
10288SOL     OW31762   6.097   6.263   3.578
10288SOL    HW131763   6.095   6.167   3.549
10288SOL    HW231764   6.121   6.269   3.674
10289SOL     OW31765   3.280   1.310   1.760
10289SOL    HW131766   3.306   1.301   1.857
10289SOL    HW231767   3.182   1.294   1.750
10290SOL     OW31768   3.860   3.241   2.854
10290SOL    HW131769   3.881   3.176   2.927
10290SOL    HW231770   3.833   3.328   2.894
10291SOL     OW31771   3.446   0.805   4.832
10291SOL    HW131772   3.454   0.706   4.816
10291SOL    HW231773   3.350   0.830   4.834
10292SOL     OW31774   0.780   1.373   4.587
10292SOL    HW131775   0.879   1.360   4.598
10292SOL    HW231776   0.739   1.394   4.676
10293SOL     OW31777   2.414   6.376   3.328
10293SOL    HW131778   2.473   6.391   3.408
10293SOL    HW231779   2.415   6.458   3.271
10294SOL     OW31780   5.349   1.433   3.406
10294SOL    HW131781   5.417   1.365   3.435
10294SOL    HW231782   5.343   1.433   3.307
10295SOL     OW31783   0.659   5.598   6.312
10295SOL    HW131784   0.629   5.681   6.265
10295SOL    HW231785   0.617   5.518   6.269
10296SOL     OW31786   6.607   3.409   0.453
10296SOL    HW131787   6.704   3.430   0.456
10296SOL    HW231788   6.559   3.463   0.522
10297SOL     OW31789   0.943   5.406   4.224
10297SOL    HW131790   1.032   5.451   4.210
10297SOL    HW231791   0.948   5.312   4.189
10298SOL     OW31792   5.079   4.248   3.840
10298SOL    HW131793   5.007   4.190   3.879
10298SOL    HW231794   5.082   4.236   3.741
10299SOL     OW31795   4.725   4.884   3.133
10299SOL    HW131796   4.635   4.896   3.174
10299SOL    HW231797   4.763   4.797   3.164
10300SOL     OW31798   0.999   4.053   3.028
10300SOL    HW131799   1.053   4.061   3.111
10300SOL    HW231800   0.901   4.057   3.051
10301SOL     OW31801   5.971   0.778   2.082
10301SOL    HW131802   5.918   0.837   2.143
10301SOL    HW231803   6.047   0.830   2.042
10302SOL     OW31804   1.419   5.781   2.611
10302SOL    HW131805   1.464   5.821   2.691
10302SOL    HW231806   1.485   5.773   2.536
10303SOL     OW31807   3.974   3.872   1.227
10303SOL    HW131808   3.977   3.836   1.134
10303SOL    HW231809   3.892   3.929   1.238
10304SOL     OW31810   6.894   6.706   2.618
10304SOL    HW131811   6.821   6.730   2.682
10304SOL    HW231812   6.856   6.694   2.526
10305SOL     OW31813   1.040   5.673   0.258
10305SOL    HW131814   1.017   5.580   0.287
10305SOL    HW231815   0.990   5.695   0.175
10306SOL     OW31816   4.088   6.106   0.573
10306SOL    HW131817   4.074   6.008   0.588
10306SOL    HW231818   4.163   6.137   0.631
10307SOL     OW31819   1.573   1.113   6.528
10307SOL    HW131820   1.628   1.126   6.445
10307SOL    HW231821   1.633   1.116   6.608
10308SOL     OW31822   2.912   6.248   3.380
10308SOL    HW131823   2.881   6.205   3.464
10308SOL    HW231824   2.913   6.180   3.306
10309SOL     OW31825   6.808   6.409   2.819
10309SOL    HW131826   6.881   6.433   2.755
10309SOL    HW231827   6.789   6.487   2.879
10310SOL     OW31828   4.046   3.756   3.075
10310SOL    HW131829   4.049   3.856   3.072
10310SOL    HW231830   4.071   3.719   2.986
10311SOL     OW31831   0.456   5.446   7.021
10311SOL    HW131832   0.389   5.473   0.066
10311SOL    HW231833   0.437   5.352   6.991
10312SOL     OW31834   2.583   4.507   0.536
10312SOL    HW131835   2.668   4.534   0.491
10312SOL    HW231836   2.576   4.554   0.624
10313SOL     OW31837   5.381   0.190   2.831
10313SOL    HW131838   5.320   0.230   2.900
10313SOL    HW231839   5.327   0.132   2.770
10314SOL     OW31840   6.154   6.794   0.593
10314SOL    HW131841   6.071   6.833   0.633
10314SOL    HW231842   6.158   6.696   0.615
10315SOL     OW31843   6.326   5.551   4.725
10315SOL    HW131844   6.421   5.537   4.695
10315SOL    HW231845   6.285   5.625   4.672
10316SOL     OW31846   0.494   3.427   3.867
10316SOL    HW131847   0.445   3.386   3.944
10316SOL    HW231848   0.544   3.508   3.899
10317SOL     OW31849   4.185   5.377   0.035
10317SOL    HW131850   4.098   5.389   7.013
10317SOL    HW231851   4.226   5.290   0.007
10318SOL     OW31852   6.036   5.781   2.054
10318SOL    HW131853   5.959   5.735   2.011
10318SOL    HW231854   6.058   5.735   2.140
10319SOL     OW31855   6.051   5.979   3.412
10319SOL    HW131856   5.971   5.920   3.404
10319SOL    HW231857   6.098   5.961   3.499
10320SOL     OW31858   0.033   0.041   1.011
10320SOL    HW131859   0.056   7.003   1.086
10320SOL    HW231860   7.005   0.119   1.046
10321SOL     OW31861   4.387   5.583   4.049
10321SOL    HW131862   4.431   5.595   3.960
10321SOL    HW231863   4.332   5.664   4.069
10322SOL     OW31864   6.160   3.862   0.704
10322SOL    HW131865   6.104   3.805   0.644
10322SOL    HW231866   6.127   3.855   0.798
10323SOL     OW31867   4.989   3.026   6.012
10323SOL    HW131868   4.898   3.061   6.033
10323SOL    HW231869   4.984   2.967   5.931
10324SOL     OW31870   3.225   3.000   3.245
10324SOL    HW131871   3.300   2.939   3.220
10324SOL    HW231872   3.243   3.040   3.335
10325SOL     OW31873   0.317   2.717   2.489
10325SOL    HW131874   0.378   2.727   2.411
10325SOL    HW231875   0.304   2.619   2.509
10326SOL     OW31876   5.399   2.004   0.536
10326SOL    HW131877   5.496   1.993   0.516
10326SOL    HW231878   5.372   2.100   0.520
10327SOL     OW31879   0.281   0.878   3.228
10327SOL    HW131880   0.336   0.847   3.151
10327SOL    HW231881   0.187   0.895   3.198
10328SOL     OW31882   5.587   3.270   2.340
10328SOL    HW131883   5.521   3.231   2.275
10328SOL    HW231884   5.599   3.207   2.417
10329SOL     OW31885   3.446   6.961   2.616
10329SOL    HW131886   3.482   6.900   2.545
10329SOL    HW231887   3.522   7.009   2.660
10330SOL     OW31888   4.273   5.184   1.914
10330SOL    HW131889   4.291   5.248   1.989
10330SOL    HW231890   4.283   5.090   1.948
10331SOL     OW31891   5.989   0.855   3.096
10331SOL    HW131892   6.051   0.874   3.172
10331SOL    HW231893   6.008   0.763   3.060
10332SOL     OW31894   0.104   2.310   6.036
10332SOL    HW131895   0.073   2.288   5.944
10332SOL    HW231896   0.029   2.300   6.101
10333SOL     OW31897   5.371   4.935   4.471
10333SOL    HW131898   5.415   4.898   4.389
10333SOL    HW231899   5.438   4.941   4.545
10334SOL     OW31900   2.439   4.816   4.206
10334SOL    HW131901   2.348   4.825   4.246
10334SOL    HW231902   2.506   4.805   4.280
10335SOL     OW31903   1.818   5.293   1.517
10335SOL    HW131904   1.756   5.270   1.592
10335SOL    HW231905   1.768   5.292   1.431
10336SOL     OW31906   4.271   6.512   2.446
10336SOL    HW131907   4.188   6.539   2.496
10336SOL    HW231908   4.318   6.593   2.413
10337SOL     OW31909   0.645   4.630   5.018
10337SOL    HW131910   0.618   4.596   5.108
10337SOL    HW231911   0.577   4.697   4.986
10338SOL     OW31912   2.715   6.129   3.072
10338SOL    HW131913   2.628   6.177   3.062
10338SOL    HW231914   2.698   6.030   3.075
10339SOL     OW31915   2.566   6.358   1.354
10339SOL    HW131916   2.632   6.403   1.295
10339SOL    HW231917   2.590   6.261   1.364
10340SOL     OW31918   1.565   6.818   0.419
10340SOL    HW131919   1.598   6.908   0.389
10340SOL    HW231920   1.494   6.830   0.489
10341SOL     OW31921   1.929   1.832   2.610
10341SOL    HW131922   1.888   1.784   2.688
10341SOL    HW231923   1.951   1.926   2.636
10342SOL     OW31924   2.689   6.742   4.734
10342SOL    HW131925   2.611   6.793   4.699
10342SOL    HW231926   2.774   6.787   4.704
10343SOL     OW31927   2.250   3.589   5.596
10343SOL    HW131928   2.264   3.558   5.502
10343SOL    HW231929   2.305   3.532   5.658
10344SOL     OW31930   3.919   3.968   4.903
10344SOL    HW131931   3.829   3.926   4.914
10344SOL    HW231932   3.932   3.993   4.807
10345SOL     OW31933   2.269   1.636   6.324
10345SOL    HW131934   2.209   1.648   6.245
10345SOL    HW231935   2.281   1.724   6.370
10346SOL     OW31936   5.014   6.428   7.021
10346SOL    HW131937   5.105   6.426   0.038
10346SOL    HW231938   4.953   6.367   0.047
10347SOL     OW31939   5.823   1.493   1.651
10347SOL    HW131940   5.799   1.527   1.560
10347SOL    HW231941   5.910   1.443   1.645
10348SOL     OW31942   0.371   6.904   5.873
10348SOL    HW131943   0.404   6.825   5.925
10348SOL    HW231944   0.401   6.897   5.778
10349SOL     OW31945   7.010   1.623   1.453
10349SOL    HW131946   6.954   1.693   1.408
10349SOL    HW231947   0.049   1.584   1.388
10350SOL     OW31948   2.738   5.246   4.397
10350SOL    HW131949   2.731   5.295   4.310
10350SOL    HW231950   2.697   5.155   4.388
10351SOL     OW31951   5.645   4.735   4.940
10351SOL    HW131952   5.568   4.726   5.003
10351SOL    HW231953   5.721   4.782   4.985
10352SOL     OW31954   5.931   2.169   0.175
10352SOL    HW131955   5.968   2.254   0.212
10352SOL    HW231956   5.918   2.178   0.076
10353SOL     OW31957   6.427   2.446   3.840
10353SOL    HW131958   6.440   2.533   3.793
10353SOL    HW231959   6.429   2.460   3.939
10354SOL     OW31960   0.175   3.098   0.648
10354SOL    HW131961   0.092   3.132   0.604
10354SOL    HW231962   0.171   3.114   0.746
10355SOL     OW31963   1.055   0.898   0.773
10355SOL    HW131964   1.036   0.984   0.724
10355SOL    HW231965   0.976   0.874   0.830
10356SOL     OW31966   6.559   4.170   6.688
10356SOL    HW131967   6.496   4.110   6.640
10356SOL    HW231968   6.651   4.132   6.685
10357SOL     OW31969   1.305   2.979   6.129
10357SOL    HW131970   1.211   2.991   6.096
10357SOL    HW231971   1.320   3.039   6.208
10358SOL     OW31972   0.739   2.755   2.194
10358SOL    HW131973   0.663   2.796   2.244
10358SOL    HW231974   0.754   2.805   2.109
10359SOL     OW31975   5.904   1.953   2.451
10359SOL    HW131976   5.836   2.002   2.506
10359SOL    HW231977   5.975   2.016   2.422
10360SOL     OW31978   5.895   4.485   2.350
10360SOL    HW131979   5.810   4.537   2.352
10360SOL    HW231980   5.970   4.545   2.320
10361SOL     OW31981   0.348   1.834   1.894
10361SOL    HW131982   0.434   1.870   1.859
10361SOL    HW231983   0.333   1.869   1.986
10362SOL     OW31984   1.264   5.012   2.545
10362SOL    HW131985   1.230   4.928   2.501
10362SOL    HW231986   1.187   5.060   2.588
10363SOL     OW31987   5.226   4.374   0.532
10363SOL    HW131988   5.308   4.318   0.542
10363SOL    HW231989   5.191   4.399   0.623
10364SOL     OW31990   6.094   4.666   2.256
10364SOL    HW131991   6.081   4.763   2.236
10364SOL    HW231992   6.159   4.656   2.331
10365SOL     OW31993   6.206   6.026   0.443
10365SOL    HW131994   6.145   6.041   0.366
10365SOL    HW231995   6.229   5.929   0.449
10366SOL     OW31996   2.866   6.508   3.317
10366SOL    HW131997   2.867   6.409   3.333
10366SOL    HW231998   2.792   6.530   3.254
10367SOL     OW31999   6.180   1.722   0.738
10367SOL    HW132000   6.274   1.695   0.718
10367SOL    HW232001   6.151   1.794   0.675
10368SOL     OW32002   1.735   5.701   1.738
10368SOL    HW132003   1.718   5.799   1.749
10368SOL    HW232004   1.708   5.671   1.647
10369SOL     OW32005   3.534   6.905   5.864
10369SOL    HW132006   3.536   6.946   5.773
10369SOL    HW232007   3.597   6.953   5.924
10370SOL     OW32008   0.371   0.833   4.847
10370SOL    HW132009   0.355   0.819   4.945
10370SOL    HW232010   0.351   0.749   4.798
10371SOL     OW32011   3.175   5.472   3.617
10371SOL    HW132012   3.075   5.470   3.613
10371SOL    HW232013   3.208   5.565   3.601
10372SOL     OW32014   2.488   6.668   1.520
10372SOL    HW132015   2.514   6.675   1.424
10372SOL    HW232016   2.508   6.577   1.554
10373SOL     OW32017   0.731   1.922   5.365
10373SOL    HW132018   0.710   1.949   5.459
10373SOL    HW232019   0.698   1.829   5.349
10374SOL     OW32020   3.426   6.911   4.754
10374SOL    HW132021   3.343   6.872   4.715
10374SOL    HW232022   3.494   6.838   4.766
10375SOL     OW32023   2.963   3.561   0.419
10375SOL    HW132024   2.893   3.504   0.375
10375SOL    HW232025   3.005   3.620   0.350
10376SOL     OW32026   1.934   5.021   2.906
10376SOL    HW132027   1.954   5.114   2.937
10376SOL    HW232028   1.970   4.955   2.972
10377SOL     OW32029   1.392   0.961   2.999
10377SOL    HW132030   1.323   0.896   2.967
10377SOL    HW232031   1.469   0.962   2.935
10378SOL     OW32032   6.916   4.491   5.224
10378SOL    HW132033   6.962   4.480   5.136
10378SOL    HW232034   6.985   4.509   5.295
10379SOL     OW32035   1.877   6.415   4.729
10379SOL    HW132036   1.802   6.426   4.663
10379SOL    HW232037   1.904   6.505   4.762
10380SOL     OW32038   1.559   2.711   4.564
10380SOL    HW132039   1.574   2.770   4.643
10380SOL    HW232040   1.581   2.762   4.480
10381SOL     OW32041   4.570   4.464   1.473
10381SOL    HW132042   4.511   4.423   1.404
10381SOL    HW232043   4.542   4.430   1.564
10382SOL     OW32044   3.200   5.152   1.532
10382SOL    HW132045   3.196   5.109   1.441
10382SOL    HW232046   3.195   5.081   1.602
10383SOL     OW32047   2.342   4.498   0.422
10383SOL    HW132048   2.297   4.586   0.438
10383SOL    HW232049   2.430   4.497   0.469
10384SOL     OW32050   5.502   6.636   1.710
10384SOL    HW132051   5.469   6.646   1.616
10384SOL    HW232052   5.425   6.613   1.770
10385SOL     OW32053   4.073   4.544   6.726
10385SOL    HW132054   4.106   4.590   6.644
10385SOL    HW232055   4.150   4.526   6.788
10386SOL     OW32056   0.262   0.865   6.782
10386SOL    HW132057   0.173   0.835   6.748
10386SOL    HW232058   0.330   0.793   6.765
10387SOL     OW32059   4.903   2.854   2.498
10387SOL    HW132060   4.847   2.915   2.443
10387SOL    HW232061   4.858   2.836   2.585
10388SOL     OW32062   2.813   0.576   5.654
10388SOL    HW132063   2.781   0.528   5.736
10388SOL    HW232064   2.906   0.547   5.632
10389SOL     OW32065   0.667   3.170   0.516
10389SOL    HW132066   0.714   3.122   0.442
10389SOL    HW232067   0.660   3.267   0.494
10390SOL     OW32068   2.834   2.280   1.039
10390SOL    HW132069   2.875   2.283   0.948
10390SOL    HW232070   2.735   2.289   1.032
10391SOL     OW32071   6.804   6.508   4.206
10391SOL    HW132072   6.801   6.436   4.275
10391SOL    HW232073   6.899   6.531   4.185
10392SOL     OW32074   6.634   4.922   4.542
10392SOL    HW132075   6.718   4.889   4.498
10392SOL    HW232076   6.559   4.922   4.475
10393SOL     OW32077   1.703   3.685   3.947
10393SOL    HW132078   1.731   3.714   4.038
10393SOL    HW232079   1.778   3.636   3.903
10394SOL     OW32080   3.332   6.180   4.199
10394SOL    HW132081   3.286   6.095   4.171
10394SOL    HW232082   3.280   6.223   4.273
10395SOL     OW32083   0.084   7.001   0.741
10395SOL    HW132084   0.053   7.019   0.834
10395SOL    HW232085   0.151   6.926   0.741
10396SOL     OW32086   2.849   1.614   4.318
10396SOL    HW132087   2.926   1.672   4.345
10396SOL    HW232088   2.769   1.671   4.298
10397SOL     OW32089   3.242   2.137   2.464
10397SOL    HW132090   3.294   2.118   2.380
10397SOL    HW232091   3.155   2.181   2.439
10398SOL     OW32092   0.172   3.003   1.614
10398SOL    HW132093   0.251   3.008   1.553
10398SOL    HW232094   0.177   2.918   1.667
10399SOL     OW32095   6.235   2.682   1.848
10399SOL    HW132096   6.204   2.702   1.941
10399SOL    HW232097   6.175   2.613   1.807
10400SOL     OW32098   4.181   0.000   0.563
10400SOL    HW132099   4.132   0.077   0.604
10400SOL    HW232100   4.138   6.939   0.592
10401SOL     OW32101   6.790   0.868   4.194
10401SOL    HW132102   6.724   0.800   4.225
10401SOL    HW232103   6.881   0.845   4.230
10402SOL     OW32104   5.902   2.871   4.933
10402SOL    HW132105   5.829   2.916   4.984
10402SOL    HW232106   5.886   2.885   4.835
10403SOL     OW32107   3.236   0.543   3.209
10403SOL    HW132108   3.187   0.578   3.129
10403SOL    HW232109   3.321   0.501   3.179
10404SOL     OW32110   6.374   6.855   5.811
10404SOL    HW132111   6.302   6.814   5.866
10404SOL    HW232112   6.463   6.832   5.850
10405SOL     OW32113   0.920   1.389   5.520
10405SOL    HW132114   0.883   1.333   5.594
10405SOL    HW232115   0.850   1.401   5.449
10406SOL     OW32116   3.265   4.871   1.969
10406SOL    HW132117   3.357   4.853   1.933
10406SOL    HW232118   3.198   4.819   1.916
10407SOL     OW32119   3.325   5.783   6.156
10407SOL    HW132120   3.377   5.771   6.241
10407SOL    HW232121   3.305   5.880   6.143
10408SOL     OW32122   5.103   1.288   0.698
10408SOL    HW132123   5.094   1.301   0.797
10408SOL    HW232124   5.023   1.239   0.664
10409SOL     OW32125   6.607   4.860   0.225
10409SOL    HW132126   6.665   4.877   0.305
10409SOL    HW232127   6.579   4.947   0.185
10410SOL     OW32128   5.388   1.424   0.150
10410SOL    HW132129   5.291   1.407   0.132
10410SOL    HW232130   5.424   1.488   0.083
10411SOL     OW32131   2.992   5.895   2.995
10411SOL    HW132132   3.008   5.958   2.918
10411SOL    HW232133   3.071   5.897   3.056
10412SOL     OW32134   6.230   0.964   0.530
10412SOL    HW132135   6.205   0.927   0.619
10412SOL    HW232136   6.162   1.032   0.502
10413SOL     OW32137   0.162   1.967   1.425
10413SOL    HW132138   0.133   1.872   1.429
10413SOL    HW232139   0.099   2.018   1.366
10414SOL     OW32140   4.444   3.764   5.628
10414SOL    HW132141   4.381   3.687   5.619
10414SOL    HW232142   4.536   3.734   5.603
10415SOL     OW32143   0.553   5.351   6.254
10415SOL    HW132144   0.483   5.336   6.184
10415SOL    HW232145   0.573   5.264   6.301
10416SOL     OW32146   6.139   1.896   3.053
10416SOL    HW132147   6.128   1.904   2.954
10416SOL    HW232148   6.056   1.929   3.099
10417SOL     OW32149   3.383   5.336   4.424
10417SOL    HW132150   3.469   5.294   4.395
10417SOL    HW232151   3.345   5.284   4.501
10418SOL     OW32152   0.191   4.773   5.559
10418SOL    HW132153   0.190   4.860   5.509
10418SOL    HW232154   0.182   4.791   5.657
10419SOL     OW32155   1.478   0.719   0.188
10419SOL    HW132156   1.412   0.761   0.250
10419SOL    HW232157   1.445   0.728   0.094
10420SOL     OW32158   6.858   3.112   2.266
10420SOL    HW132159   6.818   3.191   2.313
10420SOL    HW232160   6.957   3.125   2.259
10421SOL     OW32161   0.907   1.592   3.381
10421SOL    HW132162   0.964   1.527   3.331
10421SOL    HW232163   0.935   1.685   3.358
10422SOL     OW32164   6.468   2.415   5.440
10422SOL    HW132165   6.397   2.428   5.510
10422SOL    HW232166   6.558   2.413   5.484
10423SOL     OW32167   4.716   5.193   4.270
10423SOL    HW132168   4.768   5.117   4.310
10423SOL    HW232169   4.637   5.214   4.327
10424SOL     OW32170   5.815   2.571   0.051
10424SOL    HW132171   5.902   2.521   0.046
10424SOL    HW232172   5.833   2.669   0.054
10425SOL     OW32173   2.098   6.782   2.442
10425SOL    HW132174   2.150   6.833   2.373
10425SOL    HW232175   2.102   6.684   2.421
10426SOL     OW32176   6.910   3.893   0.786
10426SOL    HW132177   6.984   3.927   0.844
10426SOL    HW232178   6.872   3.809   0.824
10427SOL     OW32179   4.413   1.392   0.566
10427SOL    HW132180   4.354   1.407   0.487
10427SOL    HW232181   4.380   1.315   0.619
10428SOL     OW32182   3.007   1.737   4.500
10428SOL    HW132183   3.005   1.657   4.560
10428SOL    HW232184   2.989   1.819   4.555
10429SOL     OW32185   6.769   5.897   1.302
10429SOL    HW132186   6.784   5.807   1.260
10429SOL    HW232187   6.813   5.899   1.392
10430SOL     OW32188   4.315   0.283   3.767
10430SOL    HW132189   4.248   0.273   3.840
10430SOL    HW232190   4.331   0.380   3.748
10431SOL     OW32191   3.365   6.849   5.483
10431SOL    HW132192   3.392   6.858   5.387
10431SOL    HW232193   3.356   6.752   5.506
10432SOL     OW32194   6.424   0.822   4.121
10432SOL    HW132195   6.436   0.913   4.083
10432SOL    HW232196   6.378   0.828   4.209
10433SOL     OW32197   1.405   6.297   1.505
10433SOL    HW132198   1.465   6.252   1.571
10433SOL    HW232199   1.314   6.311   1.545
10434SOL     OW32200   3.240   6.919   3.182
10434SOL    HW132201   3.235   6.972   3.097
10434SOL    HW232202   3.148   6.903   3.216
10435SOL     OW32203   6.182   0.358   4.633
10435SOL    HW132204   6.092   0.318   4.652
10435SOL    HW232205   6.238   0.356   4.716
10436SOL     OW32206   0.884   4.720   4.548
10436SOL    HW132207   0.867   4.781   4.626
10436SOL    HW232208   0.797   4.696   4.505
10437SOL     OW32209   6.258   4.941   5.535
10437SOL    HW132210   6.186   4.933   5.466
10437SOL    HW232211   6.322   5.012   5.508
10438SOL     OW32212   5.369   6.552   0.422
10438SOL    HW132213   5.406   6.460   0.415
10438SOL    HW232214   5.423   6.605   0.488
10439SOL     OW32215   3.103   1.648   5.908
10439SOL    HW132216   3.003   1.640   5.918
10439SOL    HW232217   3.127   1.742   5.884
10440SOL     OW32218   0.244   5.917   0.878
10440SOL    HW132219   0.168   5.961   0.832
10440SOL    HW232220   0.319   5.903   0.813
10441SOL     OW32221   4.924   1.384   6.685
10441SOL    HW132222   4.983   1.370   6.605
10441SOL    HW232223   4.959   1.330   6.761
10442SOL     OW32224   3.374   5.387   5.485
10442SOL    HW132225   3.390   5.324   5.561
10442SOL    HW232226   3.432   5.467   5.495
10443SOL     OW32227   4.975   3.613   4.354
10443SOL    HW132228   4.994   3.683   4.286
10443SOL    HW232229   5.015   3.640   4.442
10444SOL     OW32230   3.997   5.085   4.467
10444SOL    HW132231   4.056   5.006   4.456
10444SOL    HW232232   3.916   5.059   4.521
10445SOL     OW32233   0.935   4.749   4.216
10445SOL    HW132234   0.920   4.717   4.123
10445SOL    HW232235   0.926   4.673   4.280
10446SOL     OW32236   1.110   4.405   6.777
10446SOL    HW132237   1.100   4.489   6.722
10446SOL    HW232238   1.183   4.418   6.844
10447SOL     OW32239   0.274   1.184   1.899
10447SOL    HW132240   0.299   1.260   1.958
10447SOL    HW232241   0.174   1.179   1.892
10448SOL     OW32242   3.916   3.271   1.321
10448SOL    HW132243   3.891   3.197   1.384
10448SOL    HW232244   3.977   3.236   1.250
10449SOL     OW32245   2.738   5.419   4.004
10449SOL    HW132246   2.828   5.404   4.045
10449SOL    HW232247   2.749   5.444   3.908
10450SOL     OW32248   0.621   2.490   6.507
10450SOL    HW132249   0.633   2.503   6.408
10450SOL    HW232250   0.640   2.395   6.531
10451SOL     OW32251   2.860   4.809   2.704
10451SOL    HW132252   2.797   4.740   2.668
10451SOL    HW232253   2.820   4.899   2.695
10452SOL     OW32254   6.740   3.132   3.420
10452SOL    HW132255   6.677   3.146   3.344
10452SOL    HW232256   6.696   3.158   3.506
10453SOL     OW32257   5.654   5.853   1.880
10453SOL    HW132258   5.610   5.774   1.923
10453SOL    HW232259   5.591   5.930   1.878
10454SOL     OW32260   5.612   2.933   1.553
10454SOL    HW132261   5.658   2.909   1.638
10454SOL    HW232262   5.678   2.970   1.488
10455SOL     OW32263   0.124   5.231   3.542
10455SOL    HW132264   0.052   5.298   3.556
10455SOL    HW232265   0.211   5.268   3.576
10456SOL     OW32266   2.995   6.140   1.064
10456SOL    HW132267   3.061   6.105   1.130
10456SOL    HW232268   2.983   6.238   1.078
10457SOL     OW32269   3.859   3.390   3.955
10457SOL    HW132270   3.941   3.436   3.919
10457SOL    HW232271   3.791   3.381   3.883
10458SOL     OW32272   0.264   6.837   0.039
10458SOL    HW132273   0.316   6.888   0.108
10458SOL    HW232274   0.325   6.776   7.013
10459SOL     OW32275   6.137   5.627   2.445
10459SOL    HW132276   6.189   5.707   2.474
10459SOL    HW232277   6.045   5.631   2.485
10460SOL     OW32278   2.291   6.149   1.796
10460SOL    HW132279   2.297   6.096   1.880
10460SOL    HW232280   2.317   6.091   1.718
10461SOL     OW32281   1.488   6.544   6.498
10461SOL    HW132282   1.576   6.589   6.484
10461SOL    HW232283   1.494   6.482   6.576
10462SOL     OW32284   6.180   0.751   1.470
10462SOL    HW132285   6.101   0.702   1.506
10462SOL    HW232286   6.182   0.844   1.506
10463SOL     OW32287   2.922   4.224   5.954
10463SOL    HW132288   2.932   4.164   6.034
10463SOL    HW232289   2.975   4.307   5.969
10464SOL     OW32290   4.524   6.950   1.073
10464SOL    HW132291   4.426   6.935   1.064
10464SOL    HW232292   4.540   0.019   1.105
10465SOL     OW32293   0.483   6.863   6.185
10465SOL    HW132294   0.533   6.937   6.140
10465SOL    HW232295   0.449   6.895   6.273
10466SOL     OW32296   4.777   5.497   4.863
10466SOL    HW132297   4.713   5.552   4.917
10466SOL    HW232298   4.842   5.557   4.817
10467SOL     OW32299   1.570   1.886   5.215
10467SOL    HW132300   1.564   1.977   5.174
10467SOL    HW232301   1.616   1.892   5.303
10468SOL     OW32302   3.712   6.236   3.960
10468SOL    HW132303   3.716   6.336   3.964
10468SOL    HW232304   3.752   6.205   3.874
10469SOL     OW32305   2.078   3.706   1.003
10469SOL    HW132306   2.067   3.650   0.921
10469SOL    HW232307   2.089   3.647   1.083
10470SOL     OW32308   2.455   2.219   4.353
10470SOL    HW132309   2.551   2.191   4.342
10470SOL    HW232310   2.416   2.239   4.263
10471SOL     OW32311   2.333   4.043   1.706
10471SOL    HW132312   2.318   4.110   1.779
10471SOL    HW232313   2.262   4.054   1.636
10472SOL     OW32314   3.994   7.004   2.115
10472SOL    HW132315   3.908   7.007   2.065
10472SOL    HW232316   3.983   0.026   2.204
10473SOL     OW32317   5.934   6.861   0.414
10473SOL    HW132318   5.917   6.927   0.488
10473SOL    HW232319   6.019   6.884   0.367
10474SOL     OW32320   4.252   0.845   4.424
10474SOL    HW132321   4.250   0.861   4.325
10474SOL    HW232322   4.341   0.806   4.449
10475SOL     OW32323   4.051   5.853   1.007
10475SOL    HW132324   4.017   5.908   0.931
10475SOL    HW232325   4.085   5.913   1.079
10476SOL     OW32326   6.295   5.498   6.785
10476SOL    HW132327   6.240   5.420   6.816
10476SOL    HW232328   6.296   5.500   6.685
10477SOL     OW32329   5.225   3.378   4.559
10477SOL    HW132330   5.309   3.375   4.505
10477SOL    HW232331   5.186   3.470   4.554
10478SOL     OW32332   0.881   6.854   0.029
10478SOL    HW132333   0.977   6.850   0.001
10478SOL    HW232334   0.829   6.906   6.985
10479SOL     OW32335   1.320   3.351   2.014
10479SOL    HW132336   1.260   3.309   2.083
10479SOL    HW232337   1.324   3.450   2.029
10480SOL     OW32338   5.568   6.527   2.136
10480SOL    HW132339   5.507   6.590   2.185
10480SOL    HW232340   5.661   6.562   2.140
10481SOL     OW32341   2.451   0.921   5.230
10481SOL    HW132342   2.412   0.906   5.139
10481SOL    HW232343   2.551   0.931   5.222
10482SOL     OW32344   0.950   6.247   4.702
10482SOL    HW132345   0.859   6.270   4.668
10482SOL    HW232346   0.952   6.257   4.801
10483SOL     OW32347   6.186   5.809   0.187
10483SOL    HW132348   6.171   5.748   0.265
10483SOL    HW232349   6.100   5.823   0.138
10484SOL     OW32350   7.013   0.553   1.425
10484SOL    HW132351   0.066   0.591   1.374
10484SOL    HW232352   6.956   0.628   1.459
10485SOL     OW32353   2.962   3.766   2.955
10485SOL    HW132354   3.002   3.842   2.905
10485SOL    HW232355   2.919   3.702   2.891
10486SOL     OW32356   6.815   0.043   5.800
10486SOL    HW132357   6.806   0.039   5.701
10486SOL    HW232358   6.911   0.049   5.825
10487SOL     OW32359   4.604   1.729   1.628
10487SOL    HW132360   4.620   1.650   1.688
10487SOL    HW232361   4.670   1.726   1.553
10488SOL     OW32362   0.704   2.011   5.639
10488SOL    HW132363   0.605   2.025   5.638
10488SOL    HW232364   0.750   2.098   5.623
10489SOL     OW32365   5.947   4.957   3.835
10489SOL    HW132366   5.961   4.918   3.926
10489SOL    HW232367   6.009   4.915   3.770
10490SOL     OW32368   6.091   0.425   1.002
10490SOL    HW132369   6.016   0.472   0.955
10490SOL    HW232370   6.177   0.444   0.955
10491SOL     OW32371   1.397   3.215   6.692
10491SOL    HW132372   1.350   3.284   6.637
10491SOL    HW232373   1.488   3.198   6.654
10492SOL     OW32374   5.026   0.210   0.569
10492SOL    HW132375   5.023   0.305   0.540
10492SOL    HW232376   5.120   0.183   0.587
10493SOL     OW32377   4.402   5.655   1.162
10493SOL    HW132378   4.335   5.629   1.232
10493SOL    HW232379   4.494   5.654   1.202
10494SOL     OW32380   0.629   4.565   6.339
10494SOL    HW132381   0.656   4.490   6.278
10494SOL    HW232382   0.702   4.584   6.404
10495SOL     OW32383   0.571   6.150   5.791
10495SOL    HW132384   0.648   6.212   5.808
10495SOL    HW232385   0.533   6.169   5.700
10496SOL     OW32386   6.347   3.587   5.492
10496SOL    HW132387   6.262   3.622   5.532
10496SOL    HW232388   6.338   3.583   5.392
10497SOL     OW32389   2.499   0.014   1.656
10497SOL    HW132390   2.482   7.022   1.753
10497SOL    HW232391   2.483   0.110   1.635
10498SOL     OW32392   4.642   5.642   0.638
10498SOL    HW132393   4.681   5.571   0.578
10498SOL    HW232394   4.703   5.657   0.716
10499SOL     OW32395   5.853   5.532   2.009
10499SOL    HW132396   5.893   5.521   1.918
10499SOL    HW232397   5.886   5.457   2.068
10500SOL     OW32398   5.644   4.294   4.982
10500SOL    HW132399   5.664   4.201   5.013
10500SOL    HW232400   5.718   4.325   4.922
10501SOL     OW32401   2.665   5.848   2.125
10501SOL    HW132402   2.637   5.752   2.129
10501SOL    HW232403   2.599   5.899   2.070
10502SOL     OW32404   2.957   3.695   2.498
10502SOL    HW132405   2.949   3.689   2.399
10502SOL    HW232406   3.050   3.725   2.522
10503SOL     OW32407   0.011   3.314   6.418
10503SOL    HW132408   0.103   3.276   6.424
10503SOL    HW232409   6.969   3.240   6.403
10504SOL     OW32410   1.868   2.742   6.017
10504SOL    HW132411   1.855   2.644   6.034
10504SOL    HW232412   1.859   2.792   6.102
10505SOL     OW32413   5.870   6.423   1.921
10505SOL    HW132414   5.897   6.361   1.848
10505SOL    HW232415   5.771   6.437   1.917
10506SOL     OW32416   0.660   2.801   6.629
10506SOL    HW132417   0.700   2.881   6.674
10506SOL    HW232418   0.680   2.719   6.682
10507SOL     OW32419   2.452   4.770   6.891
10507SOL    HW132420   2.472   4.686   6.943
10507SOL    HW232421   2.538   4.812   6.863
10508SOL     OW32422   1.081   5.178   5.379
10508SOL    HW132423   1.033   5.190   5.466
10508SOL    HW232424   1.179   5.186   5.395
10509SOL     OW32425   4.893   3.330   3.750
10509SOL    HW132426   4.992   3.339   3.735
10509SOL    HW232427   4.864   3.398   3.817
10510SOL     OW32428   4.613   5.710   4.513
10510SOL    HW132429   4.562   5.772   4.454
10510SOL    HW232430   4.705   5.698   4.477
10511SOL     OW32431   2.992   1.764   2.046
10511SOL    HW132432   3.034   1.842   1.999
10511SOL    HW232433   2.992   1.781   2.144
10512SOL     OW32434   4.228   0.830   5.175
10512SOL    HW132435   4.258   0.926   5.179
10512SOL    HW232436   4.144   0.820   5.227
10513SOL     OW32437   5.416   3.070   1.678
10513SOL    HW132438   5.327   3.031   1.655
10513SOL    HW232439   5.488   3.018   1.632
10514SOL     OW32440   0.980   2.983   1.822
10514SOL    HW132441   1.054   2.946   1.878
10514SOL    HW232442   1.014   3.001   1.729
10515SOL     OW32443   2.044   3.314   4.885
10515SOL    HW132444   2.046   3.367   4.969
10515SOL    HW232445   2.078   3.369   4.809
10516SOL     OW32446   3.597   2.875   0.212
10516SOL    HW132447   3.681   2.889   0.264
10516SOL    HW232448   3.589   2.779   0.187
10517SOL     OW32449   1.043   2.937   3.495
10517SOL    HW132450   1.083   3.000   3.430
10517SOL    HW232451   1.038   2.980   3.586
10518SOL     OW32452   1.049   5.124   2.192
10518SOL    HW132453   1.068   5.026   2.199
10518SOL    HW232454   0.972   5.137   2.129
10519SOL     OW32455   2.255   6.292   1.079
10519SOL    HW132456   2.308   6.361   1.029
10519SOL    HW232457   2.271   6.304   1.178
10520SOL     OW32458   6.895   1.020   6.261
10520SOL    HW132459   6.963   0.967   6.210
10520SOL    HW232460   6.917   1.117   6.255
10521SOL     OW32461   6.125   3.325   1.281
10521SOL    HW132462   6.143   3.284   1.371
10521SOL    HW232463   6.079   3.413   1.293
10522SOL     OW32464   5.328   2.428   2.766
10522SOL    HW132465   5.390   2.496   2.727
10522SOL    HW232466   5.250   2.414   2.705
10523SOL     OW32467   0.433   4.230   3.960
10523SOL    HW132468   0.404   4.149   4.012
10523SOL    HW232469   0.408   4.313   4.010
10524SOL     OW32470   6.831   6.119   3.971
10524SOL    HW132471   6.778   6.046   3.930
10524SOL    HW232472   6.859   6.184   3.901
10525SOL     OW32473   4.432   1.322   4.825
10525SOL    HW132474   4.334   1.306   4.820
10525SOL    HW232475   4.475   1.292   4.739
10526SOL     OW32476   0.685   5.406   0.322
10526SOL    HW132477   0.761   5.405   0.387
10526SOL    HW232478   0.611   5.350   0.357
10527SOL     OW32479   0.890   1.292   4.965
10527SOL    HW132480   0.913   1.203   5.003
10527SOL    HW232481   0.973   1.348   4.958
10528SOL     OW32482   0.889   4.791   6.591
10528SOL    HW132483   0.824   4.863   6.617
10528SOL    HW232484   0.845   4.701   6.602
10529SOL     OW32485   1.108   6.588   6.418
10529SOL    HW132486   1.038   6.656   6.440
10529SOL    HW232487   1.143   6.549   6.503
10530SOL     OW32488   1.187   7.016   0.099
10530SOL    HW132489   1.252   7.017   0.175
10530SOL    HW232490   1.206   6.938   0.039
10531SOL     OW32491   3.012   2.866   5.337
10531SOL    HW132492   2.994   2.774   5.301
10531SOL    HW232493   2.928   2.904   5.376
10532SOL     OW32494   5.989   6.380   6.658
10532SOL    HW132495   6.042   6.375   6.573
10532SOL    HW232496   5.928   6.301   6.665
10533SOL     OW32497   3.341   5.888   3.450
10533SOL    HW132498   3.357   5.924   3.541
10533SOL    HW232499   3.394   5.941   3.383
10534SOL     OW32500   0.848   6.066   2.867
10534SOL    HW132501   0.867   5.991   2.931
10534SOL    HW232502   0.924   6.074   2.803
10535SOL     OW32503   2.668   1.265   2.745
10535SOL    HW132504   2.670   1.224   2.836
10535SOL    HW232505   2.644   1.196   2.677
10536SOL     OW32506   4.931   1.322   4.217
10536SOL    HW132507   5.014   1.368   4.250
10536SOL    HW232508   4.922   1.337   4.119
10537SOL     OW32509   4.973   6.900   3.098
10537SOL    HW132510   5.068   6.875   3.115
10537SOL    HW232511   4.929   6.830   3.042
10538SOL     OW32512   6.538   3.326   2.296
10538SOL    HW132513   6.491   3.407   2.260
10538SOL    HW232514   6.481   3.284   2.367
10539SOL     OW32515   6.022   6.595   2.819
10539SOL    HW132516   5.925   6.570   2.817
10539SOL    HW232517   6.076   6.516   2.849
10540SOL     OW32518   2.415   3.808   6.263
10540SOL    HW132519   2.489   3.755   6.221
10540SOL    HW232520   2.439   3.905   6.262
10541SOL     OW32521   3.299   2.908   4.874
10541SOL    HW132522   3.337   2.905   4.966
10541SOL    HW232523   3.237   2.830   4.861
10542SOL     OW32524   6.091   6.988   4.620
10542SOL    HW132525   6.099   6.908   4.561
10542SOL    HW232526   6.161   0.031   4.596
10543SOL     OW32527   0.065   3.236   5.655
10543SOL    HW132528   0.088   3.189   5.740
10543SOL    HW232529   0.028   3.326   5.677
10544SOL     OW32530   1.361   1.420   3.660
10544SOL    HW132531   1.434   1.382   3.604
10544SOL    HW232532   1.273   1.386   3.629
10545SOL     OW32533   2.401   2.161   3.132
10545SOL    HW132534   2.370   2.254   3.115
10545SOL    HW232535   2.477   2.163   3.197
10546SOL     OW32536   3.405   6.638   0.977
10546SOL    HW132537   3.415   6.569   1.049
10546SOL    HW232538   3.434   6.727   1.012
10547SOL     OW32539   4.336   6.695   5.413
10547SOL    HW132540   4.427   6.673   5.379
10547SOL    HW232541   4.288   6.751   5.344
10548SOL     OW32542   1.195   4.862   4.338
10548SOL    HW132543   1.197   4.784   4.400
10548SOL    HW232544   1.110   4.862   4.286
10549SOL     OW32545   0.291   1.186   0.864
10549SOL    HW132546   0.312   1.276   0.903
10549SOL    HW232547   0.307   1.188   0.765
10550SOL     OW32548   3.956   6.148   3.015
10550SOL    HW132549   3.981   6.244   3.001
10550SOL    HW232550   3.989   6.093   2.938
10551SOL     OW32551   3.202   1.925   5.824
10551SOL    HW132552   3.179   1.924   5.921
10551SOL    HW232553   3.276   1.990   5.808
10552SOL     OW32554   3.423   1.249   4.700
10552SOL    HW132555   3.397   1.175   4.638
10552SOL    HW232556   3.423   1.336   4.650
10553SOL     OW32557   0.249   5.070   0.284
10553SOL    HW132558   0.307   5.118   0.350
10553SOL    HW232559   0.182   5.013   0.333
10554SOL     OW32560   6.252   5.004   2.718
10554SOL    HW132561   6.185   5.036   2.652
10554SOL    HW232562   6.278   4.909   2.698
10555SOL     OW32563   3.320   2.216   0.419
10555SOL    HW132564   3.418   2.227   0.436
10555SOL    HW232565   3.304   2.209   0.320
10556SOL     OW32566   1.940   1.701   3.140
10556SOL    HW132567   2.037   1.713   3.158
10556SOL    HW232568   1.921   1.605   3.123
10557SOL     OW32569   2.082   3.588   3.095
10557SOL    HW132570   2.065   3.645   3.175
10557SOL    HW232571   2.174   3.608   3.060
10558SOL     OW32572   3.076   5.523   5.597
10558SOL    HW132573   3.102   5.619   5.587
10558SOL    HW232574   3.155   5.465   5.580
10559SOL     OW32575   3.547   0.272   6.671
10559SOL    HW132576   3.645   0.277   6.692
10559SOL    HW232577   3.517   0.177   6.673
10560SOL     OW32578   5.348   6.610   1.496
10560SOL    HW132579   5.249   6.622   1.504
10560SOL    HW232580   5.369   6.513   1.481
10561SOL     OW32581   5.783   3.941   0.622
10561SOL    HW132582   5.741   3.934   0.713
10561SOL    HW232583   5.776   3.853   0.576
10562SOL     OW32584   2.948   6.875   1.529
10562SOL    HW132585   2.944   6.788   1.579
10562SOL    HW232586   2.939   6.857   1.431
10563SOL     OW32587   0.459   0.219   0.625
10563SOL    HW132588   0.524   0.230   0.550
10563SOL    HW232589   0.365   0.224   0.589
10564SOL     OW32590   6.260   5.906   3.900
10564SOL    HW132591   6.343   5.948   3.937
10564SOL    HW232592   6.231   5.831   3.960
10565SOL     OW32593   6.508   6.690   5.457
10565SOL    HW132594   6.513   6.613   5.521
10565SOL    HW232595   6.416   6.729   5.459
10566SOL     OW32596   2.913   2.776   0.550
10566SOL    HW132597   2.970   2.824   0.617
10566SOL    HW232598   2.824   2.756   0.591
10567SOL     OW32599   1.617   2.104   6.605
10567SOL    HW132600   1.684   2.131   6.535
10567SOL    HW232601   1.619   2.005   6.616
10568SOL     OW32602   5.027   2.484   6.042
10568SOL    HW132603   4.944   2.438   6.008
10568SOL    HW232604   5.099   2.416   6.054
10569SOL     OW32605   5.387   6.956   1.744
10569SOL    HW132606   5.438   0.016   1.725
10569SOL    HW232607   5.450   6.881   1.761
10570SOL     OW32608   0.778   4.957   4.318
10570SOL    HW132609   0.835   5.025   4.365
10570SOL    HW232610   0.835   4.899   4.260
10571SOL     OW32611   6.923   4.330   5.783
10571SOL    HW132612   6.926   4.235   5.815
10571SOL    HW232613   6.974   4.338   5.697
10572SOL     OW32614   6.359   4.812   1.352
10572SOL    HW132615   6.305   4.895   1.338
10572SOL    HW232616   6.299   4.732   1.349
10573SOL     OW32617   6.074   0.776   3.569
10573SOL    HW132618   6.045   0.697   3.515
10573SOL    HW232619   6.062   0.756   3.666
10574SOL     OW32620   0.078   1.476   3.498
10574SOL    HW132621   0.044   1.393   3.543
10574SOL    HW232622   0.028   1.555   3.532
10575SOL     OW32623   6.230   1.086   2.039
10575SOL    HW132624   6.193   1.089   1.946
10575SOL    HW232625   6.189   1.158   2.094
10576SOL     OW32626   2.332   5.031   3.719
10576SOL    HW132627   2.330   4.953   3.656
10576SOL    HW232628   2.388   5.008   3.798
10577SOL     OW32629   4.180   6.060   1.196
10577SOL    HW132630   4.262   6.075   1.252
10577SOL    HW232631   4.122   6.141   1.199
10578SOL     OW32632   6.465   2.164   4.089
10578SOL    HW132633   6.546   2.119   4.128
10578SOL    HW232634   6.487   2.258   4.065
10579SOL     OW32635   2.483   3.165   1.120
10579SOL    HW132636   2.494   3.070   1.150
10579SOL    HW232637   2.554   3.222   1.162
10580SOL     OW32638   6.364   6.900   6.503
10580SOL    HW132639   6.335   6.805   6.518
10580SOL    HW232640   6.459   6.911   6.533
10581SOL     OW32641   5.194   0.319   3.633
10581SOL    HW132642   5.248   0.317   3.717
10581SOL    HW232643   5.143   0.404   3.628
10582SOL     OW32644   5.706   4.919   6.670
10582SOL    HW132645   5.689   5.000   6.727
10582SOL    HW232646   5.783   4.937   6.609
10583SOL     OW32647   2.813   0.584   3.790
10583SOL    HW132648   2.723   0.541   3.789
10583SOL    HW232649   2.825   0.637   3.705
10584SOL     OW32650   6.928   6.954   5.549
10584SOL    HW132651   7.011   6.974   5.601
10584SOL    HW232652   6.951   6.891   5.474
10585SOL     OW32653   0.768   1.388   5.747
10585SOL    HW132654   0.714   1.316   5.789
10585SOL    HW232655   0.711   1.469   5.733
10586SOL     OW32656   4.805   4.666   5.593
10586SOL    HW132657   4.861   4.591   5.559
10586SOL    HW232658   4.773   4.722   5.517
10587SOL     OW32659   1.131   5.831   5.589
10587SOL    HW132660   1.050   5.774   5.604
10587SOL    HW232661   1.196   5.782   5.531
10588SOL     OW32662   0.859   3.620   4.087
10588SOL    HW132663   0.904   3.698   4.131
10588SOL    HW232664   0.866   3.540   4.147
10589SOL     OW32665   5.355   6.486   3.927
10589SOL    HW132666   5.454   6.474   3.926
10589SOL    HW232667   5.324   6.503   4.021
10590SOL     OW32668   0.489   5.337   2.060
10590SOL    HW132669   0.443   5.397   2.125
10590SOL    HW232670   0.433   5.255   2.045
10591SOL     OW32671   1.422   1.759   1.330
10591SOL    HW132672   1.355   1.802   1.390
10591SOL    HW232673   1.511   1.758   1.375
10592SOL     OW32674   5.745   2.156   5.525
10592SOL    HW132675   5.700   2.137   5.613
10592SOL    HW232676   5.686   2.127   5.451
10593SOL     OW32677   2.966   6.520   1.336
10593SOL    HW132678   2.972   6.536   1.435
10593SOL    HW232679   2.918   6.434   1.319
10594SOL     OW32680   3.623   0.363   3.223
10594SOL    HW132681   3.605   0.394   3.316
10594SOL    HW232682   3.656   0.269   3.224
10595SOL     OW32683   5.877   0.490   0.828
10595SOL    HW132684   5.799   0.430   0.847
10595SOL    HW232685   5.853   0.584   0.849
10596SOL     OW32686   4.509   1.644   6.836
10596SOL    HW132687   4.584   1.662   6.900
10596SOL    HW232688   4.450   1.572   6.872
10597SOL     OW32689   2.371   0.243   5.888
10597SOL    HW132690   2.337   0.297   5.811
10597SOL    HW232691   2.373   0.301   5.970
10598SOL     OW32692   2.593   1.721   6.193
10598SOL    HW132693   2.502   1.743   6.157
10598SOL    HW232694   2.662   1.770   6.139
10599SOL     OW32695   6.957   3.480   6.201
10599SOL    HW132696   7.000   3.434   6.279
10599SOL    HW232697   6.928   3.572   6.229
10600SOL     OW32698   2.628   2.013   2.035
10600SOL    HW132699   2.531   2.003   2.012
10600SOL    HW232700   2.667   2.087   1.980
10601SOL     OW32701   0.152   6.752   6.781
10601SOL    HW132702   0.091   6.787   6.710
10601SOL    HW232703   0.203   6.674   6.746
10602SOL     OW32704   0.228   0.035   0.302
10602SOL    HW132705   0.248   0.088   0.220
10602SOL    HW232706   0.238   0.093   0.383
10603SOL     OW32707   4.616   6.643   1.909
10603SOL    HW132708   4.689   6.710   1.909
10603SOL    HW232709   4.576   6.636   1.817
10604SOL     OW32710   0.385   0.069   5.242
10604SOL    HW132711   0.293   0.097   5.268
10604SOL    HW232712   0.436   0.147   5.207
10605SOL     OW32713   2.607   1.378   1.120
10605SOL    HW132714   2.610   1.426   1.208
10605SOL    HW232715   2.647   1.287   1.130
10606SOL     OW32716   6.387   0.966   1.299
10606SOL    HW132717   6.342   0.877   1.296
10606SOL    HW232718   6.367   1.016   1.215
10607SOL     OW32719   4.032   4.327   6.155
10607SOL    HW132720   3.974   4.311   6.075
10607SOL    HW232721   4.055   4.424   6.160
10608SOL     OW32722   6.362   2.706   2.691
10608SOL    HW132723   6.376   2.666   2.782
10608SOL    HW232724   6.270   2.684   2.659
10609SOL     OW32725   3.850   0.198   0.207
10609SOL    HW132726   3.834   0.102   0.184
10609SOL    HW232727   3.866   0.207   0.306
10610SOL     OW32728   0.258   1.247   4.627
10610SOL    HW132729   0.307   1.333   4.644
10610SOL    HW232730   0.297   1.175   4.684
10611SOL     OW32731   2.474   5.775   5.004
10611SOL    HW132732   2.458   5.745   5.098
10611SOL    HW232733   2.532   5.708   4.957
10612SOL     OW32734   4.910   1.360   3.918
10612SOL    HW132735   4.927   1.278   3.864
10612SOL    HW232736   4.867   1.430   3.861
10613SOL     OW32737   6.236   6.619   4.149
10613SOL    HW132738   6.328   6.580   4.153
10613SOL    HW232739   6.234   6.705   4.201
10614SOL     OW32740   5.192   0.294   6.820
10614SOL    HW132741   5.124   0.359   6.788
10614SOL    HW232742   5.218   0.316   6.913
10615SOL     OW32743   2.712   2.301   6.383
10615SOL    HW132744   2.693   2.299   6.285
10615SOL    HW232745   2.703   2.208   6.420
10616SOL     OW32746   2.629   6.227   6.755
10616SOL    HW132747   2.612   6.185   6.844
10616SOL    HW232748   2.622   6.158   6.683
10617SOL     OW32749   2.865   3.243   1.103
10617SOL    HW132750   2.806   3.248   1.183
10617SOL    HW232751   2.958   3.219   1.131
10618SOL     OW32752   0.672   5.402   5.002
10618SOL    HW132753   0.681   5.490   5.048
10618SOL    HW232754   0.760   5.354   5.004
10619SOL     OW32755   1.192   1.894   3.212
10619SOL    HW132756   1.092   1.888   3.222
10619SOL    HW232757   1.215   1.897   3.115
10620SOL     OW32758   2.428   6.805   6.174
10620SOL    HW132759   2.455   6.753   6.093
10620SOL    HW232760   2.476   6.893   6.175
10621SOL     OW32761   1.333   3.390   3.161
10621SOL    HW132762   1.295   3.436   3.242
10621SOL    HW232763   1.260   3.342   3.113
10622SOL     OW32764   4.216   3.335   1.039
10622SOL    HW132765   4.201   3.331   0.940
10622SOL    HW232766   4.307   3.302   1.061
10623SOL     OW32767   5.768   5.921   6.377
10623SOL    HW132768   5.864   5.904   6.357
10623SOL    HW232769   5.729   5.980   6.306
10624SOL     OW32770   0.713   2.567   5.323
10624SOL    HW132771   0.799   2.556   5.272
10624SOL    HW232772   0.721   2.645   5.384
10625SOL     OW32773   6.637   3.839   6.721
10625SOL    HW132774   6.693   3.770   6.676
10625SOL    HW232775   6.671   3.855   6.814
10626SOL     OW32776   3.769   3.246   1.771
10626SOL    HW132777   3.808   3.157   1.795
10626SOL    HW232778   3.843   3.313   1.760
10627SOL     OW32779   5.844   6.466   5.814
10627SOL    HW132780   5.808   6.424   5.731
10627SOL    HW232781   5.775   6.527   5.853
10628SOL     OW32782   4.256   0.498   0.241
10628SOL    HW132783   4.285   0.403   0.251
10628SOL    HW232784   4.335   0.554   0.215
10629SOL     OW32785   3.700   5.274   4.639
10629SOL    HW132786   3.742   5.211   4.573
10629SOL    HW232787   3.702   5.367   4.601
10630SOL     OW32788   4.724   0.453   3.115
10630SOL    HW132789   4.714   0.355   3.099
10630SOL    HW232790   4.726   0.470   3.214
10631SOL     OW32791   4.538   5.995   0.048
10631SOL    HW132792   4.576   5.908   0.015
10631SOL    HW232793   4.497   5.982   0.138
10632SOL     OW32794   4.612   5.894   2.990
10632SOL    HW132795   4.689   5.848   2.946
10632SOL    HW232796   4.578   5.836   3.064
10633SOL     OW32797   2.085   2.781   1.998
10633SOL    HW132798   2.165   2.797   2.055
10633SOL    HW232799   2.041   2.696   2.026
10634SOL     OW32800   0.832   4.583   6.944
10634SOL    HW132801   0.846   4.493   6.905
10634SOL    HW232802   0.921   4.625   6.963
10635SOL     OW32803   2.364   3.656   0.276
10635SOL    HW132804   2.435   3.719   0.307
10635SOL    HW232805   2.374   3.568   0.323
10636SOL     OW32806   6.594   2.451   6.688
10636SOL    HW132807   6.668   2.384   6.674
10636SOL    HW232808   6.512   2.420   6.640
10637SOL     OW32809   2.994   6.657   6.430
10637SOL    HW132810   2.953   6.686   6.344
10637SOL    HW232811   3.018   6.738   6.484
10638SOL     OW32812   6.832   5.223   1.622
10638SOL    HW132813   6.866   5.238   1.714
10638SOL    HW232814   6.860   5.133   1.590
10639SOL     OW32815   2.237   3.423   1.558
10639SOL    HW132816   2.207   3.494   1.620
10639SOL    HW232817   2.321   3.381   1.592
10640SOL     OW32818   3.961   0.067   3.695
10640SOL    HW132819   3.952   0.004   3.618
10640SOL    HW232820   4.044   0.121   3.684
10641SOL     OW32821   0.858   0.296   3.310
10641SOL    HW132822   0.826   0.231   3.378
10641SOL    HW232823   0.942   0.262   3.268
10642SOL     OW32824   6.322   2.446   0.042
10642SOL    HW132825   6.398   2.475   7.009
10642SOL    HW232826   6.352   2.374   0.104
10643SOL     OW32827   1.542   4.905   5.314
10643SOL    HW132828   1.631   4.950   5.308
10643SOL    HW232829   1.474   4.958   5.263
10644SOL     OW32830   0.015   2.425   2.474
10644SOL    HW132831   6.990   2.513   2.476
10644SOL    HW232832   6.996   2.365   2.407
10645SOL     OW32833   2.143   2.722   3.134
10645SOL    HW132834   2.180   2.814   3.150
10645SOL    HW232835   2.099   2.719   3.045
10646SOL     OW32836   5.067   1.567   4.622
10646SOL    HW132837   4.981   1.545   4.576
10646SOL    HW232838   5.092   1.493   4.685
10647SOL     OW32839   4.018   5.067   4.799
10647SOL    HW132840   3.954   5.015   4.742
10647SOL    HW232841   3.995   5.164   4.795
10648SOL     OW32842   5.798   4.952   5.046
10648SOL    HW132843   5.728   5.024   5.038
10648SOL    HW232844   5.836   4.953   5.139
10649SOL     OW32845   0.250   3.291   3.447
10649SOL    HW132846   0.332   3.285   3.391
10649SOL    HW232847   0.205   3.202   3.451
10650SOL     OW32848   7.010   0.095   4.287
10650SOL    HW132849   0.007   0.030   4.213
10650SOL    HW232850   6.955   0.170   4.251
10651SOL     OW32851   4.661   6.072   5.466
10651SOL    HW132852   4.652   6.005   5.393
10651SOL    HW232853   4.607   6.153   5.445
10652SOL     OW32854   1.357   6.952   6.045
10652SOL    HW132855   1.324   6.996   6.129
10652SOL    HW232856   1.364   6.854   6.060
10653SOL     OW32857   3.889   6.250   4.773
10653SOL    HW132858   3.891   6.284   4.679
10653SOL    HW232859   3.840   6.163   4.776
10654SOL     OW32860   5.212   1.693   4.408
10654SOL    HW132861   5.181   1.788   4.400
10654SOL    HW232862   5.169   1.651   4.487
10655SOL     OW32863   1.220   4.833   1.278
10655SOL    HW132864   1.287   4.763   1.304
10655SOL    HW232865   1.144   4.833   1.342
10656SOL     OW32866   6.526   1.307   1.821
10656SOL    HW132867   6.593   1.232   1.814
10656SOL    HW232868   6.571   1.389   1.856
10657SOL     OW32869   6.229   0.792   4.294
10657SOL    HW132870   6.150   0.840   4.255
10657SOL    HW232871   6.196   0.725   4.361
10658SOL     OW32872   5.674   3.216   4.632
10658SOL    HW132873   5.664   3.134   4.689
10658SOL    HW232874   5.675   3.297   4.689
10659SOL     OW32875   0.852   4.589   1.034
10659SOL    HW132876   0.810   4.663   1.086
10659SOL    HW232877   0.893   4.626   0.950
10660SOL     OW32878   6.200   3.354   5.480
10660SOL    HW132879   6.105   3.381   5.497
10660SOL    HW232880   6.262   3.416   5.529
10661SOL     OW32881   1.238   4.487   0.281
10661SOL    HW132882   1.279   4.574   0.252
10661SOL    HW232883   1.304   4.435   0.335
10662SOL     OW32884   2.926   1.290   2.595
10662SOL    HW132885   2.893   1.335   2.512
10662SOL    HW232886   2.849   1.274   2.657
10663SOL     OW32887   1.389   0.978   3.470
10663SOL    HW132888   1.434   0.926   3.397
10663SOL    HW232889   1.353   1.064   3.432
10664SOL     OW32890   1.337   5.271   4.360
10664SOL    HW132891   1.289   5.278   4.272
10664SOL    HW232892   1.381   5.181   4.366
10665SOL     OW32893   2.136   3.247   6.496
10665SOL    HW132894   2.201   3.207   6.431
10665SOL    HW232895   2.068   3.300   6.446
10666SOL     OW32896   3.861   3.370   2.170
10666SOL    HW132897   3.891   3.299   2.235
10666SOL    HW232898   3.785   3.335   2.116
10667SOL     OW32899   5.423   2.063   2.617
10667SOL    HW132900   5.393   2.065   2.713
10667SOL    HW232901   5.391   2.145   2.570
10668SOL     OW32902   3.526   1.930   5.492
10668SOL    HW132903   3.453   1.889   5.437
10668SOL    HW232904   3.611   1.929   5.439
10669SOL     OW32905   6.152   0.655   0.508
10669SOL    HW132906   6.123   0.699   0.423
10669SOL    HW232907   6.091   0.579   0.529
10670SOL     OW32908   4.758   4.043   4.254
10670SOL    HW132909   4.799   4.125   4.294
10670SOL    HW232910   4.659   4.056   4.246
10671SOL     OW32911   1.208   1.626   4.416
10671SOL    HW132912   1.213   1.537   4.369
10671SOL    HW232913   1.125   1.630   4.471
10672SOL     OW32914   6.150   4.046   1.580
10672SOL    HW132915   6.159   3.947   1.593
10672SOL    HW232916   6.240   4.089   1.587
10673SOL     OW32917   1.931   0.514   0.985
10673SOL    HW132918   1.843   0.473   1.011
10673SOL    HW232919   1.937   0.521   0.886
10674SOL     OW32920   4.155   3.345   4.690
10674SOL    HW132921   4.253   3.326   4.698
10674SOL    HW232922   4.113   3.279   4.628
10675SOL     OW32923   3.464   1.190   6.597
10675SOL    HW132924   3.366   1.212   6.592
10675SOL    HW232925   3.508   1.213   6.511
10676SOL     OW32926   0.781   5.806   4.769
10676SOL    HW132927   0.716   5.847   4.834
10676SOL    HW232928   0.748   5.717   4.739
10677SOL     OW32929   1.577   1.754   0.969
10677SOL    HW132930   1.573   1.761   0.870
10677SOL    HW232931   1.537   1.668   0.999
10678SOL     OW32932   3.842   4.953   3.502
10678SOL    HW132933   3.745   4.940   3.523
10678SOL    HW232934   3.897   4.892   3.558
10679SOL     OW32935   3.968   4.892   0.357
10679SOL    HW132936   3.870   4.905   0.344
10679SOL    HW232937   3.995   4.934   0.444
10680SOL     OW32938   3.319   1.892   4.135
10680SOL    HW132939   3.352   1.831   4.063
10680SOL    HW232940   3.312   1.841   4.221
10681SOL     OW32941   6.867   3.551   0.107
10681SOL    HW132942   6.880   3.650   0.106
10681SOL    HW232943   6.783   3.527   0.060
10682SOL     OW32944   6.180   3.010   4.811
10682SOL    HW132945   6.219   3.009   4.903
10682SOL    HW232946   6.081   2.995   4.816
10683SOL     OW32947   4.408   0.258   3.489
10683SOL    HW132948   4.495   0.302   3.507
10683SOL    HW232949   4.348   0.267   3.569
10684SOL     OW32950   5.026   5.323   1.247
10684SOL    HW132951   5.000   5.305   1.342
10684SOL    HW232952   5.120   5.356   1.243
10685SOL     OW32953   6.685   5.648   1.715
10685SOL    HW132954   6.647   5.739   1.732
10685SOL    HW232955   6.785   5.651   1.726
10686SOL     OW32956   1.849   3.810   6.371
10686SOL    HW132957   1.813   3.904   6.371
10686SOL    HW232958   1.927   3.804   6.309
10687SOL     OW32959   6.358   4.891   2.996
10687SOL    HW132960   6.312   4.806   3.022
10687SOL    HW232961   6.441   4.902   3.051
10688SOL     OW32962   5.436   1.148   1.959
10688SOL    HW132963   5.382   1.102   1.889
10688SOL    HW232964   5.501   1.210   1.916
10689SOL     OW32965   0.515   0.140   1.711
10689SOL    HW132966   0.550   0.134   1.617
10689SOL    HW232967   0.421   0.107   1.713
10690SOL     OW32968   0.042   5.113   3.972
10690SOL    HW132969   0.097   5.197   3.966
10690SOL    HW232970   6.970   5.136   3.957
10691SOL     OW32971   2.345   1.876   2.006
10691SOL    HW132972   2.256   1.879   1.959
10691SOL    HW232973   2.378   1.781   2.007
10692SOL     OW32974   3.298   1.054   4.571
10692SOL    HW132975   3.312   0.978   4.507
10692SOL    HW232976   3.272   1.018   4.661
10693SOL     OW32977   0.802   5.737   1.877
10693SOL    HW132978   0.881   5.678   1.866
10693SOL    HW232979   0.786   5.755   1.974
10694SOL     OW32980   4.942   6.583   6.088
10694SOL    HW132981   4.934   6.497   6.037
10694SOL    HW232982   4.899   6.657   6.035
10695SOL     OW32983   1.384   3.018   1.301
10695SOL    HW132984   1.466   3.066   1.269
10695SOL    HW232985   1.392   2.921   1.280
10696SOL     OW32986   5.902   3.560   5.061
10696SOL    HW132987   5.955   3.478   5.083
10696SOL    HW232988   5.805   3.538   5.062
10697SOL     OW32989   0.258   6.401   5.441
10697SOL    HW132990   0.252   6.334   5.367
10697SOL    HW232991   0.214   6.364   5.523
10698SOL     OW32992   4.906   4.358   0.502
10698SOL    HW132993   4.817   4.310   0.500
10698SOL    HW232994   4.903   4.435   0.439
10699SOL     OW32995   4.158   4.359   0.603
10699SOL    HW132996   4.096   4.379   0.679
10699SOL    HW232997   4.167   4.439   0.545
10700SOL     OW32998   5.941   0.090   0.975
10700SOL    HW132999   5.977   0.158   0.912
10700SOL    HW233000   5.934   0.002   0.929
10701SOL     OW33001   3.195   0.281   6.239
10701SOL    HW133002   3.227   0.271   6.145
10701SOL    HW233003   3.272   0.268   6.302
10702SOL     OW33004   4.814   3.152   2.841
10702SOL    HW133005   4.842   3.188   2.752
10702SOL    HW233006   4.735   3.202   2.874
10703SOL     OW33007   2.331   3.000   5.437
10703SOL    HW133008   2.269   2.951   5.376
10703SOL    HW233009   2.402   3.046   5.383
10704SOL     OW33010   7.014   5.173   2.609
10704SOL    HW133011   0.028   5.134   2.692
10704SOL    HW233012   0.045   5.252   2.580
10705SOL     OW33013   5.912   5.265   0.762
10705SOL    HW133014   5.916   5.252   0.861
10705SOL    HW233015   5.966   5.194   0.717
10706SOL     OW33016   4.356   0.058   1.708
10706SOL    HW133017   4.379   0.010   1.793
10706SOL    HW233018   4.440   0.081   1.660
10707SOL     OW33019   0.202   6.719   4.282
10707SOL    HW133020   0.225   6.755   4.192
10707SOL    HW233021   0.157   6.790   4.336
10708SOL     OW33022   4.475   0.942   1.536
10708SOL    HW133023   4.505   0.867   1.595
10708SOL    HW233024   4.552   1.000   1.513
10709SOL     OW33025   5.655   5.396   4.475
10709SOL    HW133026   5.628   5.362   4.565
10709SOL    HW233027   5.625   5.331   4.405
10710SOL     OW33028   5.613   0.911   3.994
10710SOL    HW133029   5.650   0.821   3.968
10710SOL    HW233030   5.555   0.946   3.920
10711SOL     OW33031   2.267   6.587   3.960
10711SOL    HW133032   2.237   6.550   3.872
10711SOL    HW233033   2.214   6.545   4.034
10712SOL     OW33034   3.708   0.539   2.489
10712SOL    HW133035   3.751   0.598   2.557
10712SOL    HW233036   3.624   0.582   2.455
10713SOL     OW33037   1.122   2.828   0.252
10713SOL    HW133038   1.215   2.863   0.266
10713SOL    HW233039   1.124   2.728   0.247
10714SOL     OW33040   4.436   3.386   5.483
10714SOL    HW133041   4.501   3.311   5.472
10714SOL    HW233042   4.437   3.443   5.401
10715SOL     OW33043   4.220   0.325   2.344
10715SOL    HW133044   4.190   0.394   2.409
10715SOL    HW233045   4.239   0.368   2.256
10716SOL     OW33046   6.195   2.837   2.998
10716SOL    HW133047   6.101   2.868   3.011
10716SOL    HW233048   6.239   2.828   3.087
10717SOL     OW33049   1.767   2.960   1.051
10717SOL    HW133050   1.847   2.910   1.085
10717SOL    HW233051   1.778   2.979   0.954
10718SOL     OW33052   1.099   3.942   0.236
10718SOL    HW133053   1.061   3.849   0.237
10718SOL    HW233054   1.024   4.008   0.240
10719SOL     OW33055   6.227   5.768   3.319
10719SOL    HW133056   6.208   5.753   3.222
10719SOL    HW233057   6.197   5.859   3.346
10720SOL     OW33058   6.010   5.159   4.684
10720SOL    HW133059   6.021   5.160   4.784
10720SOL    HW233060   6.060   5.081   4.646
10721SOL     OW33061   5.199   3.928   5.138
10721SOL    HW133062   5.181   3.983   5.057
10721SOL    HW233063   5.199   3.987   5.219
10722SOL     OW33064   6.691   4.430   0.287
10722SOL    HW133065   6.774   4.472   0.251
10722SOL    HW233066   6.616   4.497   0.284
10723SOL     OW33067   0.365   1.799   6.189
10723SOL    HW133068   0.347   1.896   6.177
10723SOL    HW233069   0.464   1.784   6.188
10724SOL     OW33070   6.095   6.693   6.329
10724SOL    HW133071   6.144   6.675   6.414
10724SOL    HW233072   6.016   6.632   6.323
10725SOL     OW33073   2.085   5.682   5.419
10725SOL    HW133074   2.023   5.641   5.353
10725SOL    HW233075   2.059   5.653   5.512
10726SOL     OW33076   5.274   0.875   4.343
10726SOL    HW133077   5.201   0.876   4.276
10726SOL    HW233078   5.262   0.951   4.407
10727SOL     OW33079   0.292   5.505   5.915
10727SOL    HW133080   0.337   5.581   5.963
10727SOL    HW233081   0.326   5.500   5.821
10728SOL     OW33082   1.048   4.880   6.382
10728SOL    HW133083   0.986   4.890   6.460
10728SOL    HW233084   1.023   4.945   6.311
10729SOL     OW33085   6.075   1.194   2.420
10729SOL    HW133086   6.005   1.129   2.451
10729SOL    HW233087   6.091   1.262   2.491
10730SOL     OW33088   2.663   0.211   0.925
10730SOL    HW133089   2.581   0.155   0.934
10730SOL    HW233090   2.705   0.194   0.836
10731SOL     OW33091   3.397   1.033   0.635
10731SOL    HW133092   3.362   0.954   0.585
10731SOL    HW233093   3.497   1.032   0.634
10732SOL     OW33094   0.459   4.694   5.349
10732SOL    HW133095   0.443   4.647   5.435
10732SOL    HW233096   0.482   4.628   5.278
10733SOL     OW33097   6.370   1.743   6.446
10733SOL    HW133098   6.363   1.686   6.364
10733SOL    HW233099   6.412   1.691   6.520
10734SOL     OW33100   1.437   1.353   0.488
10734SOL    HW133101   1.438   1.313   0.396
10734SOL    HW233102   1.355   1.321   0.537
10735SOL     OW33103   0.457   2.831   2.273
10735SOL    HW133104   0.493   2.923   2.256
10735SOL    HW233105   0.403   2.801   2.194
10736SOL     OW33106   1.257   0.345   3.340
10736SOL    HW133107   1.196   0.423   3.357
10736SOL    HW233108   1.335   0.351   3.403
10737SOL     OW33109   1.174   1.747   0.632
10737SOL    HW133110   1.226   1.793   0.704
10737SOL    HW233111   1.082   1.785   0.628
10738SOL     OW33112   3.183   6.919   2.750
10738SOL    HW133113   3.276   6.929   2.714
10738SOL    HW233114   3.118   6.916   2.674
10739SOL     OW33115   2.122   1.156   1.619
10739SOL    HW133116   2.200   1.216   1.633
10739SOL    HW233117   2.060   1.196   1.551
10740SOL     OW33118   0.085   5.384   5.634
10740SOL    HW133119   0.089   5.444   5.554
10740SOL    HW233120   0.011   5.413   5.694
10741SOL     OW33121   4.282   0.867   1.369
10741SOL    HW133122   4.349   0.907   1.432
10741SOL    HW233123   4.195   0.855   1.417
10742SOL     OW33124   6.043   0.158   1.327
10742SOL    HW133125   6.105   0.235   1.343
10742SOL    HW233126   5.949   0.192   1.323
10743SOL     OW33127   1.157   2.704   5.579
10743SOL    HW133128   1.245   2.733   5.618
10743SOL    HW233129   1.099   2.666   5.651
10744SOL     OW33130   3.339   1.260   0.794
10744SOL    HW133131   3.370   1.181   0.741
10744SOL    HW233132   3.419   1.313   0.823
10745SOL     OW33133   6.607   5.868   5.977
10745SOL    HW133134   6.564   5.784   5.943
10745SOL    HW233135   6.641   5.852   6.070
10746SOL     OW33136   1.779   4.451   0.878
10746SOL    HW133137   1.780   4.408   0.968
10746SOL    HW233138   1.720   4.531   0.879
10747SOL     OW33139   3.699   1.250   4.981
10747SOL    HW133140   3.711   1.263   4.882
10747SOL    HW233141   3.633   1.316   5.016
10748SOL     OW33142   5.571   1.388   0.794
10748SOL    HW133143   5.657   1.341   0.810
10748SOL    HW233144   5.519   1.391   0.879
10749SOL     OW33145   0.061   5.474   3.975
10749SOL    HW133146   0.062   5.494   3.877
10749SOL    HW233147   0.063   5.560   4.026
10750SOL     OW33148   4.343   6.297   4.906
10750SOL    HW133149   4.254   6.250   4.908
10750SOL    HW233150   4.396   6.264   4.827
10751SOL     OW33151   1.617   4.999   4.155
10751SOL    HW133152   1.615   5.096   4.130
10751SOL    HW233153   1.711   4.966   4.152
10752SOL     OW33154   6.163   4.719   5.013
10752SOL    HW133155   6.254   4.702   4.975
10752SOL    HW233156   6.153   4.669   5.099
10753SOL     OW33157   6.213   4.845   4.326
10753SOL    HW133158   6.182   4.755   4.355
10753SOL    HW233159   6.254   4.839   4.235
10754SOL     OW33160   0.193   6.698   3.173
10754SOL    HW133161   0.182   6.724   3.269
10754SOL    HW233162   0.241   6.771   3.124
10755SOL     OW33163   0.228   0.537   0.865
10755SOL    HW133164   0.181   0.461   0.819
10755SOL    HW233165   0.278   0.502   0.944
10756SOL     OW33166   6.716   5.154   6.107
10756SOL    HW133167   6.771   5.238   6.110
10756SOL    HW233168   6.704   5.125   6.012
10757SOL     OW33169   1.709   2.584   0.171
10757SOL    HW133170   1.680   2.594   0.267
10757SOL    HW233171   1.630   2.562   0.115
10758SOL     OW33172   1.008   5.861   4.378
10758SOL    HW133173   0.972   5.947   4.414
10758SOL    HW233174   0.995   5.788   4.446
10759SOL     OW33175   1.836   4.152   0.846
10759SOL    HW133176   1.813   4.059   0.875
10759SOL    HW233177   1.927   4.176   0.880
10760SOL     OW33178   5.555   0.571   3.228
10760SOL    HW133179   5.627   0.636   3.206
10760SOL    HW233180   5.564   0.490   3.168
10761SOL     OW33181   0.492   5.882   5.796
10761SOL    HW133182   0.479   5.868   5.698
10761SOL    HW233183   0.502   5.980   5.815
10762SOL     OW33184   2.786   1.354   4.364
10762SOL    HW133185   2.803   1.446   4.329
10762SOL    HW233186   2.836   1.288   4.309
10763SOL     OW33187   3.751   6.661   2.489
10763SOL    HW133188   3.822   6.596   2.461
10763SOL    HW233189   3.793   6.749   2.513
10764SOL     OW33190   5.432   2.180   5.659
10764SOL    HW133191   5.504   2.120   5.694
10764SOL    HW233192   5.356   2.125   5.625
10765SOL     OW33193   4.744   2.736   0.482
10765SOL    HW133194   4.685   2.791   0.423
10765SOL    HW233195   4.707   2.737   0.575
10766SOL     OW33196   4.231   5.146   0.651
10766SOL    HW133197   4.205   5.202   0.572
10766SOL    HW233198   4.293   5.199   0.710
10767SOL     OW33199   2.611   0.426   1.359
10767SOL    HW133200   2.622   0.346   1.299
10767SOL    HW233201   2.701   0.451   1.396
10768SOL     OW33202   5.239   5.247   0.870
10768SOL    HW133203   5.164   5.187   0.842
10768SOL    HW233204   5.205   5.341   0.881
10769SOL     OW33205   2.154   3.985   5.266
10769SOL    HW133206   2.227   3.998   5.198
10769SOL    HW233207   2.194   3.951   5.351
10770SOL     OW33208   5.086   6.424   3.835
10770SOL    HW133209   5.073   6.388   3.743
10770SOL    HW233210   5.180   6.458   3.845
10771SOL     OW33211   4.562   7.001   4.560
10771SOL    HW133212   4.481   0.033   4.573
10771SOL    HW233213   4.638   0.015   4.612
10772SOL     OW33214   6.322   6.978   4.849
10772SOL    HW133215   6.248   7.024   4.798
10772SOL    HW233216   6.368   6.913   4.789
10773SOL     OW33217   5.182   5.148   6.509
10773SOL    HW133218   5.218   5.134   6.601
10773SOL    HW233219   5.083   5.134   6.510
10774SOL     OW33220   2.034   1.352   6.002
10774SOL    HW133221   2.010   1.446   5.975
10774SOL    HW233222   2.117   1.324   5.954
10775SOL     OW33223   0.286   4.966   2.674
10775SOL    HW133224   0.378   4.974   2.710
10775SOL    HW233225   0.229   5.040   2.711
10776SOL     OW33226   0.482   1.000   6.323
10776SOL    HW133227   0.521   1.034   6.409
10776SOL    HW233228   0.389   0.967   6.338
10777SOL     OW33229   3.888   5.164   1.485
10777SOL    HW133230   3.810   5.226   1.493
10777SOL    HW233231   3.930   5.175   1.395
10778SOL     OW33232   4.809   0.356   3.815
10778SOL    HW133233   4.816   0.286   3.744
10778SOL    HW233234   4.891   0.412   3.815
10779SOL     OW33235   5.838   2.894   3.461
10779SOL    HW133236   5.872   2.987   3.480
10779SOL    HW233237   5.892   2.828   3.513
10780SOL     OW33238   1.615   0.602   4.043
10780SOL    HW133239   1.665   0.527   3.999
10780SOL    HW233240   1.528   0.568   4.078
10781SOL     OW33241   4.297   0.846   3.781
10781SOL    HW133242   4.289   0.822   3.684
10781SOL    HW233243   4.310   0.945   3.789
10782SOL     OW33244   7.022   0.907   3.140
10782SOL    HW133245   7.012   0.970   3.218
10782SOL    HW233246   6.949   0.925   3.074
10783SOL     OW33247   0.345   2.149   2.614
10783SOL    HW133248   0.439   2.116   2.610
10783SOL    HW233249   0.286   2.078   2.653
10784SOL     OW33250   3.906   1.054   4.016
10784SOL    HW133251   3.838   1.092   4.078
10784SOL    HW233252   3.944   0.970   4.056
10785SOL     OW33253   0.959   3.939   0.791
10785SOL    HW133254   0.948   4.004   0.866
10785SOL    HW233255   0.870   3.902   0.766
10786SOL     OW33256   5.975   5.259   3.404
10786SOL    HW133257   6.043   5.194   3.438
10786SOL    HW233258   5.993   5.278   3.307
10787SOL     OW33259   1.538   1.100   5.934
10787SOL    HW133260   1.608   1.029   5.940
10787SOL    HW233261   1.508   1.109   5.839
10788SOL     OW33262   0.953   4.310   0.132
10788SOL    HW133263   0.969   4.343   0.225
10788SOL    HW233264   0.880   4.240   0.133
10789SOL     OW33265   6.483   3.456   6.796
10789SOL    HW133266   6.421   3.389   6.755
10789SOL    HW233267   6.578   3.426   6.784
10790SOL     OW33268   1.241   6.624   2.101
10790SOL    HW133269   1.208   6.537   2.065
10790SOL    HW233270   1.287   6.609   2.188
10791SOL     OW33271   0.489   5.665   1.919
10791SOL    HW133272   0.578   5.628   1.894
10791SOL    HW233273   0.421   5.640   1.850
10792SOL     OW33274   3.474   2.854   4.643
10792SOL    HW133275   3.526   2.773   4.617
10792SOL    HW233276   3.436   2.842   4.734
10793SOL     OW33277   6.331   4.031   6.217
10793SOL    HW133278   6.237   4.011   6.241
10793SOL    HW233279   6.391   3.960   6.255
10794SOL     OW33280   4.065   3.777   4.104
10794SOL    HW133281   4.027   3.865   4.078
10794SOL    HW233282   4.054   3.764   4.203
10795SOL     OW33283   0.153   5.510   2.825
10795SOL    HW133284   0.222   5.445   2.793
10795SOL    HW233285   0.063   5.469   2.817
10796SOL     OW33286   6.647   6.969   5.486
10796SOL    HW133287   6.734   6.936   5.523
10796SOL    HW233288   6.579   6.895   5.490
10797SOL     OW33289   3.215   2.444   0.942
10797SOL    HW133290   3.244   2.361   0.989
10797SOL    HW233291   3.215   2.520   1.007
10798SOL     OW33292   2.575   1.145   0.686
10798SOL    HW133293   2.532   1.124   0.598
10798SOL    HW233294   2.517   1.206   0.739
10799SOL     OW33295   4.304   0.899   2.351
10799SOL    HW133296   4.401   0.884   2.335
10799SOL    HW233297   4.292   0.968   2.423
10800SOL     OW33298   0.773   6.341   5.775
10800SOL    HW133299   0.825   6.426   5.774
10800SOL    HW233300   0.832   6.265   5.748
10801SOL     OW33301   1.136   0.242   6.939
10801SOL    HW133302   1.121   0.172   7.010
10801SOL    HW233303   1.049   0.264   6.895
10802SOL     OW33304   0.565   0.276   2.586
10802SOL    HW133305   0.517   0.231   2.661
10802SOL    HW233306   0.593   0.207   2.518
10803SOL     OW33307   1.600   5.909   5.431
10803SOL    HW133308   1.687   5.885   5.388
10803SOL    HW233309   1.606   6.000   5.471
10804SOL     OW33310   6.606   3.144   2.894
10804SOL    HW133311   6.697   3.113   2.866
10804SOL    HW233312   6.539   3.072   2.877
10805SOL     OW33313   5.188   0.945   5.043
10805SOL    HW133314   5.125   1.010   5.000
10805SOL    HW233315   5.207   0.871   4.979
10806SOL     OW33316   3.754   4.458   6.469
10806SOL    HW133317   3.811   4.540   6.472
10806SOL    HW233318   3.732   4.436   6.373
10807SOL     OW33319   1.468   6.073   3.501
10807SOL    HW133320   1.534   6.007   3.467
10807SOL    HW233321   1.378   6.055   3.461
10808SOL     OW33322   0.011   2.263   5.768
10808SOL    HW133323   6.949   2.214   5.768
10808SOL    HW233324   0.069   2.227   5.695
10809SOL     OW33325   2.474   4.532   3.738
10809SOL    HW133326   2.530   4.588   3.799
10809SOL    HW233327   2.459   4.442   3.780
10810SOL     OW33328   6.955   6.938   3.697
10810SOL    HW133329   0.014   6.883   3.687
10810SOL    HW233330   6.978   0.011   3.685
10811SOL     OW33331   4.142   4.872   5.264
10811SOL    HW133332   4.229   4.921   5.257
10811SOL    HW233333   4.084   4.894   5.186
10812SOL     OW33334   6.828   4.107   6.722
10812SOL    HW133335   6.827   4.075   6.817
10812SOL    HW233336   6.899   4.176   6.712
10813SOL     OW33337   0.401   3.946   5.914
10813SOL    HW133338   0.472   4.016   5.918
10813SOL    HW233339   0.406   3.890   5.997
10814SOL     OW33340   1.980   0.014   6.770
10814SOL    HW133341   2.077   0.008   6.795
10814SOL    HW233342   1.940   0.095   6.813
10815SOL     OW33343   5.295   2.746   2.648
10815SOL    HW133344   5.216   2.719   2.703
10815SOL    HW233345   5.278   2.836   2.608
10816SOL     OW33346   3.654   3.669   2.696
10816SOL    HW133347   3.613   3.586   2.734
10816SOL    HW233348   3.606   3.694   2.612
10817SOL     OW33349   3.408   0.705   4.078
10817SOL    HW133350   3.452   0.625   4.037
10817SOL    HW233351   3.479   0.769   4.110
10818SOL     OW33352   4.391   4.610   5.824
10818SOL    HW133353   4.395   4.540   5.895
10818SOL    HW233354   4.301   4.611   5.782
10819SOL     OW33355   5.991   5.527   6.159
10819SOL    HW133356   6.053   5.547   6.234
10819SOL    HW233357   5.934   5.607   6.140
10820SOL     OW33358   0.238   5.237   4.297
10820SOL    HW133359   0.307   5.300   4.333
10820SOL    HW233360   0.149   5.282   4.297
10821SOL     OW33361   4.294   6.863   2.489
10821SOL    HW133362   4.371   6.837   2.430
10821SOL    HW233363   4.209   6.824   2.453
10822SOL     OW33364   6.553   1.753   1.806
10822SOL    HW133365   6.516   1.682   1.867
10822SOL    HW233366   6.638   1.721   1.765
10823SOL     OW33367   0.139   0.384   3.323
10823SOL    HW133368   0.200   0.451   3.365
10823SOL    HW233369   0.083   0.428   3.253
10824SOL     OW33370   0.554   1.310   2.301
10824SOL    HW133371   0.543   1.212   2.314
10824SOL    HW233372   0.623   1.327   2.231
10825SOL     OW33373   1.462   2.382   0.602
10825SOL    HW133374   1.532   2.407   0.668
10825SOL    HW233375   1.473   2.286   0.576
10826SOL     OW33376   0.511   1.868   2.576
10826SOL    HW133377   0.539   1.929   2.502
10826SOL    HW233378   0.426   1.822   2.551
10827SOL     OW33379   6.606   2.991   5.025
10827SOL    HW133380   6.594   2.892   5.013
10827SOL    HW233381   6.685   3.008   5.084
10828SOL     OW33382   0.209   4.491   0.881
10828SOL    HW133383   0.171   4.424   0.818
10828SOL    HW233384   0.304   4.510   0.855
10829SOL     OW33385   4.722   3.597   0.228
10829SOL    HW133386   4.729   3.666   0.156
10829SOL    HW233387   4.804   3.540   0.228
10830SOL     OW33388   4.721   1.620   3.447
10830SOL    HW133389   4.710   1.657   3.355
10830SOL    HW233390   4.669   1.676   3.512
10831SOL     OW33391   3.093   6.636   2.254
10831SOL    HW133392   2.997   6.648   2.278
10831SOL    HW233393   3.151   6.664   2.330
10832SOL     OW33394   6.400   3.723   6.851
10832SOL    HW133395   6.433   3.630   6.838
10832SOL    HW233396   6.448   3.785   6.789
10833SOL     OW33397   0.579   2.351   0.333
10833SOL    HW133398   0.633   2.435   0.335
10833SOL    HW233399   0.631   2.276   0.374
10834SOL     OW33400   0.143   1.692   6.910
10834SOL    HW133401   0.161   1.687   6.812
10834SOL    HW233402   0.190   1.617   6.957
10835SOL     OW33403   5.753   3.183   0.139
10835SOL    HW133404   5.717   3.131   0.216
10835SOL    HW233405   5.739   3.132   0.054
10836SOL     OW33406   0.421   1.222   2.607
10836SOL    HW133407   0.390   1.296   2.548
10836SOL    HW233408   0.351   1.151   2.612
10837SOL     OW33409   6.470   4.638   1.962
10837SOL    HW133410   6.428   4.728   1.948
10837SOL    HW233411   6.402   4.575   1.997
10838SOL     OW33412   5.538   6.363   4.274
10838SOL    HW133413   5.604   6.387   4.345
10838SOL    HW233414   5.586   6.345   4.188
10839SOL     OW33415   4.597   3.353   0.812
10839SOL    HW133416   4.514   3.330   0.861
10839SOL    HW233417   4.650   3.420   0.865
10840SOL     OW33418   3.762   0.278   2.397
10840SOL    HW133419   3.736   0.300   2.303
10840SOL    HW233420   3.752   0.360   2.454
10841SOL     OW33421   6.301   4.972   5.059
10841SOL    HW133422   6.223   4.918   5.027
10841SOL    HW233423   6.293   5.065   5.024
10842SOL     OW33424   4.779   2.139   1.451
10842SOL    HW133425   4.804   2.228   1.413
10842SOL    HW233426   4.693   2.108   1.411
10843SOL     OW33427   2.023   1.252   1.329
10843SOL    HW133428   2.020   1.344   1.292
10843SOL    HW233429   2.086   1.196   1.275
10844SOL     OW33430   6.845   4.409   3.529
10844SOL    HW133431   6.904   4.365   3.596
10844SOL    HW233432   6.759   4.436   3.572
10845SOL     OW33433   4.649   5.673   5.014
10845SOL    HW133434   4.709   5.642   5.088
10845SOL    HW233435   4.569   5.719   5.053
10846SOL     OW33436   5.703   0.032   6.822
10846SOL    HW133437   5.642   0.091   6.876
10846SOL    HW233438   5.663   6.966   6.814
10847SOL     OW33439   3.080   1.856   7.024
10847SOL    HW133440   2.993   1.889   0.035
10847SOL    HW233441   3.137   1.823   0.075
10848SOL     OW33442   0.526   3.974   1.008
10848SOL    HW133443   0.569   4.035   0.942
10848SOL    HW233444   0.429   3.963   0.985
10849SOL     OW33445   2.669   4.621   4.247
10849SOL    HW133446   2.605   4.554   4.209
10849SOL    HW233447   2.668   4.614   4.347
10850SOL     OW33448   3.879   6.632   0.274
10850SOL    HW133449   3.870   6.703   0.344
10850SOL    HW233450   3.861   6.671   0.184
10851SOL     OW33451   3.348   4.045   0.859
10851SOL    HW133452   3.368   4.108   0.785
10851SOL    HW233453   3.266   3.992   0.837
10852SOL     OW33454   2.112   1.399   6.751
10852SOL    HW133455   2.084   1.338   6.826
10852SOL    HW233456   2.203   1.372   6.719
10853SOL     OW33457   2.320   3.418   5.993
10853SOL    HW133458   2.412   3.456   6.005
10853SOL    HW233459   2.304   3.398   5.896
10854SOL     OW33460   4.394   5.073   5.315
10854SOL    HW133461   4.359   5.054   5.407
10854SOL    HW233462   4.436   5.164   5.314
10855SOL     OW33463   4.055   0.731   0.832
10855SOL    HW133464   3.976   0.787   0.856
10855SOL    HW233465   4.129   0.749   0.897
10856SOL     OW33466   6.666   1.249   6.767
10856SOL    HW133467   6.587   1.187   6.767
10856SOL    HW233468   6.661   1.310   6.688
10857SOL     OW33469   0.594   2.216   3.016
10857SOL    HW133470   0.573   2.312   3.001
10857SOL    HW233471   0.517   2.160   2.985
10858SOL     OW33472   1.376   0.075   0.649
10858SOL    HW133473   1.438   0.069   0.727
10858SOL    HW233474   1.287   0.038   0.674
10859SOL     OW33475   6.646   4.339   4.526
10859SOL    HW133476   6.722   4.290   4.484
10859SOL    HW233477   6.673   4.372   4.616
10860SOL     OW33478   0.283   3.071   4.323
10860SOL    HW133479   0.199   3.107   4.282
10860SOL    HW233480   0.289   3.101   4.418
10861SOL     OW33481   3.028   3.161   2.637
10861SOL    HW133482   2.995   3.071   2.609
10861SOL    HW233483   2.993   3.231   2.575
10862SOL     OW33484   1.898   0.802   5.164
10862SOL    HW133485   1.876   0.897   5.183
10862SOL    HW233486   1.825   0.761   5.111
10863SOL     OW33487   2.333   0.743   4.546
10863SOL    HW133488   2.418   0.736   4.597
10863SOL    HW233489   2.269   0.672   4.577
10864SOL     OW33490   3.282   6.421   0.736
10864SOL    HW133491   3.230   6.490   0.786
10864SOL    HW233492   3.293   6.340   0.793
10865SOL     OW33493   6.835   1.637   0.157
10865SOL    HW133494   6.928   1.610   0.180
10865SOL    HW233495   6.775   1.557   0.163
10866SOL     OW33496   5.919   4.828   0.409
10866SOL    HW133497   5.825   4.858   0.424
10866SOL    HW233498   5.976   4.859   0.485
10867SOL     OW33499   2.894   4.441   0.686
10867SOL    HW133500   2.834   4.488   0.750
10867SOL    HW233501   2.900   4.344   0.711
10868SOL     OW33502   5.324   1.892   4.167
10868SOL    HW133503   5.259   1.840   4.223
10868SOL    HW233504   5.405   1.913   4.222
10869NA      NA33505   6.226   2.909   5.718
10870NA      NA33506   4.529   4.620   5.104
10871NA      NA33507   1.813   3.034   1.702
10872NA      NA33508   4.985   3.858   5.244
10873NA      NA33509   4.037   2.217   5.092
10874NA      NA33510   3.699   4.909   1.820
10875NA      NA33511   6.766   4.971   6.277
10876NA      NA33512   3.333   3.336   4.772
10877NA      NA33513   4.468   6.200   6.923
10878NA      NA33514   3.789   6.422   5.687
10879NA      NA33515   6.452   5.149   2.730
10880NA      NA33516   2.430   0.505   3.459
10881NA      NA33517   4.287   5.324   1.721
10882NA      NA33518   3.974   3.513   2.334
   7.02427   7.02427   7.02427
