Generated by trjconv : CNT in water t= 249.00000
33518
    1C        C    1   2.845   2.764   4.743
    1C        C    2   2.897   2.715   4.865
    1C        C    3   2.846   2.774   4.981
    1C        C    4   2.844   2.768   4.256
    1C        C    5   2.896   2.722   4.379
    1C        C    6   2.837   2.762   4.501
    1C        C    7   3.009   2.632   4.621
    1C        C    8   2.892   2.712   4.621
    1C        C    9   3.073   2.597   4.742
    1C        C   10   3.002   2.620   4.862
    1C        C   11   3.182   2.492   4.977
    1C        C   12   3.059   2.557   4.974
    1C        C   13   2.845   2.766   3.768
    1C        C   14   2.899   2.719   3.889
    1C        C   15   2.846   2.767   4.011
    1C        C   16   3.016   2.642   4.137
    1C        C   17   2.899   2.722   4.134
    1C        C   18   3.077   2.605   4.258
    1C        C   19   3.013   2.643   4.378
    1C        C   20   3.206   2.553   4.500
    1C        C   21   3.075   2.605   4.499
    1C        C   22   3.277   2.538   4.622
    1C        C   23   3.205   2.545   4.743
    1C        C   24   3.411   2.485   4.859
    1C        C   25   3.268   2.500   4.862
    1C        C   26   3.487   2.479   4.977
    1C        C   27   2.847   2.766   3.276
    1C        C   28   2.899   2.720   3.399
    1C        C   29   2.849   2.766   3.523
    1C        C   30   3.015   2.637   3.649
    1C        C   31   2.900   2.719   3.647
    1C        C   32   3.073   2.596   3.771
    1C        C   33   3.009   2.630   3.892
    1C        C   34   3.201   2.541   4.013
    1C        C   35   3.072   2.600   4.014
    1C        C   36   3.273   2.524   4.134
    1C        C   37   3.209   2.553   4.256
    1C        C   38   3.414   2.504   4.379
    1C        C   39   3.277   2.539   4.379
    1C        C   40   3.485   2.503   4.501
    1C        C   41   3.414   2.503   4.622
    1C        C   42   3.630   2.480   4.740
    1C        C   43   3.488   2.480   4.740
    1C        C   44   3.704   2.485   4.860
    1C        C   45   3.625   2.467   4.975
    1C        C   46   2.835   2.753   2.788
    1C        C   47   2.891   2.712   2.911
    1C        C   48   2.837   2.760   3.033
    1C        C   49   3.013   2.637   3.161
    1C        C   50   2.898   2.718   3.153
    1C        C   51   3.075   2.601   3.283
    1C        C   52   3.018   2.643   3.405
    1C        C   53   3.207   2.546   3.524
    1C        C   54   3.077   2.603   3.526
    1C        C   55   3.274   2.529   3.647
    1C        C   56   3.206   2.548   3.769
    1C        C   57   3.412   2.505   3.890
    1C        C   58   3.272   2.525   3.892
    1C        C   59   3.484   2.496   4.011
    1C        C   60   3.413   2.501   4.133
    1C        C   61   3.624   2.493   4.256
    1C        C   62   3.483   2.495   4.256
    1C        C   63   3.699   2.504   4.376
    1C        C   64   3.626   2.496   4.496
    1C        C   65   3.836   2.530   4.619
    1C        C   66   3.699   2.497   4.618
    1C        C   67   3.906   2.558   4.738
    1C        C   68   3.839   2.527   4.858
    1C        C   69   4.050   2.579   4.975
    1C        C   70   3.918   2.532   4.974
    1C        C   71   2.827   2.735   2.301
    1C        C   72   2.874   2.685   2.425
    1C        C   73   2.824   2.739   2.546
    1C        C   74   3.001   2.619   2.670
    1C        C   75   2.885   2.699   2.667
    1C        C   76   3.066   2.590   2.792
    1C        C   77   3.008   2.633   2.914
    1C        C   78   3.201   2.545   3.032
    1C        C   79   3.071   2.601   3.037
    1C        C   80   3.269   2.526   3.154
    1C        C   81   3.205   2.546   3.279
    1C        C   82   3.412   2.500   3.399
    1C        C   83   3.273   2.525   3.401
    1C        C   84   3.482   2.495   3.522
    1C        C   85   3.413   2.505   3.645
    1C        C   86   3.624   2.498   3.767
    1C        C   87   3.483   2.500   3.768
    1C        C   88   3.694   2.507   3.889
    1C        C   89   3.625   2.497   4.012
    1C        C   90   3.831   2.542   4.134
    1C        C   91   3.695   2.505   4.134
    1C        C   92   3.902   2.568   4.254
    1C        C   93   3.836   2.540   4.376
    1C        C   94   4.024   2.635   4.496
    1C        C   95   3.901   2.564   4.498
    1C        C   96   4.092   2.667   4.616
    1C        C   97   4.033   2.621   4.736
    1C        C   98   4.189   2.760   4.860
    1C        C   99   4.095   2.652   4.860
    1C        C  100   4.208   2.844   4.971
    1C        C  101   2.818   2.725   2.065
    1C        C  102   2.988   2.586   2.186
    1C        C  103   2.874   2.673   2.182
    1C        C  104   3.061   2.572   2.308
    1C        C  105   2.996   2.613   2.426
    1C        C  106   3.192   2.529   2.548
    1C        C  107   3.061   2.581   2.547
    1C        C  108   3.265   2.514   2.668
    1C        C  109   3.196   2.536   2.789
    1C        C  110   3.407   2.496   2.910
    1C        C  111   3.268   2.522   2.910
    1C        C  112   3.477   2.491   3.033
    1C        C  113   3.408   2.501   3.155
    1C        C  114   3.622   2.499   3.276
    1C        C  115   3.481   2.491   3.276
    1C        C  116   3.691   2.508   3.399
    1C        C  117   3.623   2.499   3.522
    1C        C  118   3.831   2.536   3.644
    1C        C  119   3.694   2.504   3.644
    1C        C  120   3.897   2.565   3.766
    1C        C  121   3.830   2.546   3.889
    1C        C  122   4.020   2.639   4.008
    1C        C  123   3.897   2.570   4.012
    1C        C  124   4.081   2.674   4.130
    1C        C  125   4.025   2.636   4.254
    1C        C  126   4.197   2.762   4.374
    1C        C  127   4.087   2.673   4.376
    1C        C  128   4.242   2.815   4.497
    1C        C  129   4.193   2.766   4.620
    1C        C  130   4.333   2.927   4.738
    1C        C  131   4.246   2.815   4.741
    1C        C  132   4.364   2.996   4.857
    1C        C  133   4.285   2.959   4.967
    1C        C  134   3.172   2.461   2.080
    1C        C  135   3.039   2.504   2.081
    1C        C  136   3.259   2.474   2.190
    1C        C  137   3.194   2.521   2.306
    1C        C  138   3.401   2.475   2.424
    1C        C  139   3.263   2.504   2.428
    1C        C  140   3.475   2.479   2.545
    1C        C  141   3.405   2.495   2.666
    1C        C  142   3.618   2.487   2.786
    1C        C  143   3.477   2.487   2.788
    1C        C  144   3.688   2.502   2.909
    1C        C  145   3.618   2.493   3.031
    1C        C  146   3.826   2.543   3.154
    1C        C  147   3.690   2.503   3.153
    1C        C  148   3.894   2.568   3.275
    1C        C  149   3.828   2.541   3.397
    1C        C  150   4.020   2.626   3.519
    1C        C  151   3.895   2.561   3.521
    1C        C  152   4.079   2.669   3.639
    1C        C  153   4.020   2.633   3.763
    1C        C  154   4.193   2.757   3.886
    1C        C  155   4.076   2.679   3.885
    1C        C  156   4.246   2.806   4.008
    1C        C  157   4.196   2.757   4.130
    1C        C  158   4.341   2.915   4.250
    1C        C  159   4.250   2.806   4.251
    1C        C  160   4.376   2.977   4.372
    1C        C  161   4.336   2.920   4.495
    1C        C  162   4.434   3.112   4.607
    1C        C  163   4.373   2.984   4.615
    1C        C  164   4.458   3.182   4.727
    1C        C  165   4.430   3.121   4.851
    1C        C  166   4.504   3.321   4.968
    1C        C  167   4.485   3.183   4.964
    1C        C  168   3.473   2.434   2.068
    1C        C  169   3.399   2.455   2.184
    1C        C  170   3.615   2.463   2.305
    1C        C  171   3.473   2.455   2.304
    1C        C  172   3.690   2.487   2.423
    1C        C  173   3.616   2.488   2.543
    1C        C  174   3.826   2.530   2.664
    1C        C  175   3.688   2.496   2.664
    1C        C  176   3.892   2.558   2.786
    1C        C  177   3.825   2.537   2.908
    1C        C  178   4.019   2.622   3.027
    1C        C  179   3.890   2.565   3.030
    1C        C  180   4.080   2.661   3.148
    1C        C  181   4.023   2.627   3.273
    1C        C  182   4.196   2.745   3.395
    1C        C  183   4.084   2.658   3.396
    1C        C  184   4.247   2.794   3.517
    1C        C  185   4.195   2.751   3.640
    1C        C  186   4.333   2.912   3.761
    1C        C  187   4.246   2.800   3.762
    1C        C  188   4.373   2.974   3.882
    1C        C  189   4.334   2.917   4.005
    1C        C  190   4.445   3.097   4.125
    1C        C  191   4.382   2.970   4.127
    1C        C  192   4.469   3.166   4.246
    1C        C  193   4.441   3.102   4.369
    1C        C  194   4.505   3.313   4.487
    1C        C  195   4.466   3.177   4.486
    1C        C  196   4.520   3.385   4.608
    1C        C  197   4.507   3.315   4.730
    1C        C  198   4.550   3.532   4.847
    1C        C  199   4.527   3.391   4.849
    1C        C  200   4.578   3.615   4.960
    1C        C  201   3.612   2.415   2.069
    1C        C  202   3.822   2.507   2.177
    1C        C  203   3.688   2.457   2.183
    1C        C  204   3.894   2.533   2.297
    1C        C  205   3.828   2.515   2.421
    1C        C  206   4.018   2.615   2.538
    1C        C  207   3.893   2.549   2.542
    1C        C  208   4.082   2.649   2.660
    1C        C  209   4.019   2.619   2.783
    1C        C  210   4.192   2.742   2.904
    1C        C  211   4.082   2.654   2.904
    1C        C  212   4.242   2.793   3.027
    1C        C  213   4.193   2.746   3.150
    1C        C  214   4.330   2.908   3.270
    1C        C  215   4.245   2.795   3.272
    1C        C  216   4.369   2.967   3.393
    1C        C  217   4.333   2.907   3.515
    1C        C  218   4.426   3.096   3.636
    1C        C  219   4.374   2.965   3.637
    1C        C  220   4.452   3.165   3.756
    1C        C  221   4.437   3.099   3.880
    1C        C  222   4.500   3.301   3.999
    1C        C  223   4.467   3.164   4.002
    1C        C  224   4.512   3.372   4.120
    1C        C  225   4.501   3.303   4.243
    1C        C  226   4.511   3.520   4.360
    1C        C  227   4.512   3.379   4.362
    1C        C  228   4.516   3.594   4.480
    1C        C  229   4.521   3.526   4.604
    1C        C  230   4.495   3.737   4.721
    1C        C  231   4.531   3.600   4.723
    1C        C  232   4.491   3.813   4.840
    1C        C  233   4.547   3.752   4.953
    1C        C  234   4.016   2.604   2.053
    1C        C  235   3.893   2.540   2.061
    1C        C  236   4.076   2.646   2.173
    1C        C  237   4.018   2.603   2.294
    1C        C  238   4.192   2.730   2.418
    1C        C  239   4.078   2.646   2.414
    1C        C  240   4.250   2.778   2.538
    1C        C  241   4.193   2.736   2.660
    1C        C  242   4.333   2.897   2.781
    1C        C  243   4.246   2.786   2.782
    1C        C  244   4.371   2.959   2.902
    1C        C  245   4.333   2.901   3.025
    1C        C  246   4.435   3.089   3.146
    1C        C  247   4.371   2.963   3.147
    1C        C  248   4.454   3.159   3.267
    1C        C  249   4.427   3.096   3.391
    1C        C  250   4.487   3.299   3.511
    1C        C  251   4.450   3.162   3.513
    1C        C  252   4.504   3.369   3.633
    1C        C  253   4.493   3.300   3.756
    1C        C  254   4.518   3.513   3.873
    1C        C  255   4.510   3.372   3.876
    1C        C  256   4.512   3.584   3.995
    1C        C  257   4.510   3.513   4.117
    1C        C  258   4.489   3.729   4.236
    1C        C  259   4.506   3.589   4.236
    1C        C  260   4.468   3.802   4.356
    1C        C  261   4.487   3.732   4.477
    1C        C  262   4.420   3.934   4.599
    1C        C  263   4.471   3.802   4.598
    1C        C  264   4.392   4.003   4.719
    1C        C  265   4.428   3.939   4.840
    1C        C  266   4.315   4.123   4.955
    1C        C  267   4.393   4.008   4.957
    1C        C  268   4.255   2.774   2.059
    1C        C  269   4.190   2.729   2.175
    1C        C  270   4.338   2.885   2.296
    1C        C  271   4.245   2.778   2.296
    1C        C  272   4.379   2.946   2.417
    1C        C  273   4.343   2.884   2.538
    1C        C  274   4.439   3.077   2.655
    1C        C  275   4.381   2.948   2.658
    1C        C  276   4.464   3.147   2.775
    1C        C  277   4.436   3.085   2.898
    1C        C  278   4.492   3.287   3.021
    1C        C  279   4.462   3.149   3.021
    1C        C  280   4.505   3.360   3.141
    1C        C  281   4.493   3.295   3.266
    1C        C  282   4.515   3.507   3.386
    1C        C  283   4.506   3.366   3.388
    1C        C  284   4.511   3.582   3.506
    1C        C  285   4.508   3.510   3.628
    1C        C  286   4.486   3.720   3.749
    1C        C  287   4.509   3.581   3.750
    1C        C  288   4.470   3.789   3.871
    1C        C  289   4.485   3.723   3.995
    1C        C  290   4.421   3.930   4.111
    1C        C  291   4.473   3.798   4.114
    1C        C  292   4.395   3.997   4.232
    1C        C  293   4.427   3.937   4.356
    1C        C  294   4.320   4.122   4.476
    1C        C  295   4.396   4.002   4.478
    1C        C  296   4.282   4.185   4.597
    1C        C  297   4.320   4.126   4.720
    1C        C  298   4.194   4.308   4.834
    1C        C  299   4.275   4.190   4.838
    1C        C  300   4.163   4.396   4.942
    1C        C  301   4.348   2.877   2.060
    1C        C  302   4.463   3.065   2.172
    1C        C  303   4.394   2.939   2.177
    1C        C  304   4.478   3.138   2.293
    1C        C  305   4.446   3.071   2.414
    1C        C  306   4.503   3.279   2.533
    1C        C  307   4.467   3.142   2.533
    1C        C  308   4.511   3.351   2.654
    1C        C  309   4.493   3.286   2.778
    1C        C  310   4.522   3.497   2.894
    1C        C  311   4.510   3.357   2.899
    1C        C  312   4.511   3.569   3.016
    1C        C  313   4.513   3.501   3.139
    1C        C  314   4.480   3.710   3.261
    1C        C  315   4.509   3.572   3.261
    1C        C  316   4.468   3.785   3.380
    1C        C  317   4.489   3.721   3.504
    1C        C  318   4.418   3.921   3.627
    1C        C  319   4.466   3.788   3.627
    1C        C  320   4.391   3.989   3.747
    1C        C  321   4.421   3.922   3.868
    1C        C  322   4.315   4.110   3.988
    1C        C  323   4.389   3.990   3.987
    1C        C  324   4.281   4.175   4.109
    1C        C  325   4.321   4.117   4.232
    1C        C  326   4.185   4.282   4.351
    1C        C  327   4.275   4.174   4.353
    1C        C  328   4.134   4.335   4.472
    1C        C  329   4.189   4.291   4.594
    1C        C  330   4.021   4.433   4.710
    1C        C  331   4.137   4.351   4.711
    1C        C  332   3.965   4.485   4.828
    1C        C  333   4.047   4.475   4.941
    1C        C  334   4.551   3.261   2.058
    1C        C  335   4.528   3.123   2.059
    1C        C  336   4.531   3.345   2.170
    1C        C  337   4.508   3.277   2.291
    1C        C  338   4.520   3.492   2.409
    1C        C  339   4.511   3.351   2.411
    1C        C  340   4.518   3.564   2.530
    1C        C  341   4.516   3.492   2.652
    1C        C  342   4.491   3.706   2.770
    1C        C  343   4.516   3.567   2.771
    1C        C  344   4.473   3.775   2.892
    1C        C  345   4.486   3.708   3.015
    1C        C  346   4.418   3.909   3.132
    1C        C  347   4.466   3.776   3.137
    1C        C  348   4.388   3.975   3.254
    1C        C  349   4.422   3.919   3.379
    1C        C  350   4.320   4.103   3.499
    1C        C  351   4.395   3.983   3.502
    1C        C  352   4.280   4.165   3.619
    1C        C  353   4.319   4.111   3.744
    1C        C  354   4.179   4.272   3.863
    1C        C  355   4.270   4.164   3.866
    1C        C  356   4.127   4.320   3.985
    1C        C  357   4.182   4.275   4.107
    1C        C  358   4.009   4.400   4.227
    1C        C  359   4.130   4.326   4.229
    1C        C  360   3.951   4.445   4.348
    1C        C  361   4.017   4.414   4.469
    1C        C  362   3.823   4.509   4.590
    1C        C  363   3.956   4.461   4.587
    1C        C  364   3.757   4.542   4.710
    1C        C  365   3.835   4.540   4.827
    1C        C  366   3.624   4.587   4.949
    1C        C  367   3.763   4.578   4.941
    1C        C  368   4.502   3.559   2.048
    1C        C  369   4.523   3.485   2.165
    1C        C  370   4.499   3.699   2.284
    1C        C  371   4.519   3.559   2.285
    1C        C  372   4.485   3.772   2.404
    1C        C  373   4.495   3.704   2.527
    1C        C  374   4.420   3.904   2.646
    1C        C  375   4.477   3.775   2.647
    1C        C  376   4.388   3.970   2.767
    1C        C  377   4.422   3.907   2.888
    1C        C  378   4.320   4.095   3.009
    1C        C  379   4.393   3.974   3.009
    1C        C  380   4.276   4.152   3.130
    1C        C  381   4.316   4.096   3.254
    1C        C  382   4.172   4.253   3.375
    1C        C  383   4.275   4.155   3.376
    1C        C  384   4.125   4.309   3.496
    1C        C  385   4.183   4.268   3.618
    1C        C  386   4.010   4.394   3.737
    1C        C  387   4.127   4.314   3.739
    1C        C  388   3.946   4.427   3.859
    1C        C  389   4.007   4.395   3.982
    1C        C  390   3.817   4.485   4.103
    1C        C  391   3.949   4.433   4.104
    1C        C  392   3.748   4.511   4.224
    1C        C  393   3.822   4.502   4.344
    1C        C  394   3.617   4.543   4.470
    1C        C  395   3.757   4.527   4.467
    1C        C  396   3.545   4.563   4.590
    1C        C  397   3.617   4.564   4.712
    1C        C  398   3.407   4.548   4.835
    1C        C  399   3.546   4.572   4.833
    1C        C  400   3.338   4.511   4.952
    1C        C  401   4.503   3.698   2.048
    1C        C  402   4.452   3.910   2.164
    1C        C  403   4.491   3.774   2.165
    1C        C  404   4.409   3.973   2.283
    1C        C  405   4.434   3.904   2.404
    1C        C  406   4.327   4.092   2.522
    1C        C  407   4.399   3.971   2.523
    1C        C  408   4.279   4.149   2.642
    1C        C  409   4.317   4.092   2.766
    1C        C  410   4.177   4.253   2.885
    1C        C  411   4.278   4.153   2.887
    1C        C  412   4.128   4.299   3.009
    1C        C  413   4.180   4.255   3.133
    1C        C  414   4.000   4.373   3.249
    1C        C  415   4.122   4.302   3.253
    1C        C  416   3.937   4.405   3.372
    1C        C  417   4.003   4.380   3.494
    1C        C  418   3.813   4.475   3.615
    1C        C  419   3.944   4.422   3.616
    1C        C  420   3.745   4.500   3.737
    1C        C  421   3.814   4.476   3.858
    1C        C  422   3.608   4.521   3.980
    1C        C  423   3.746   4.494   3.981
    1C        C  424   3.538   4.530   4.103
    1C        C  425   3.608   4.531   4.226
    1C        C  426   3.401   4.536   4.353
    1C        C  427   3.542   4.542   4.350
    1C        C  428   3.331   4.535   4.476
    1C        C  429   3.405   4.550   4.596
    1C        C  430   3.193   4.512   4.719
    1C        C  431   3.331   4.542   4.717
    1C        C  432   3.121   4.489   4.840
    1C        C  433   3.202   4.485   4.955
    1C        C  434   4.376   4.115   2.045
    1C        C  435   4.435   3.988   2.049
    1C        C  436   4.296   4.153   2.158
    1C        C  437   4.327   4.088   2.281
    1C        C  438   4.174   4.241   2.396
    1C        C  439   4.279   4.146   2.400
    1C        C  440   4.121   4.290   2.517
    1C        C  441   4.178   4.247   2.640
    1C        C  442   4.003   4.368   2.759
    1C        C  443   4.124   4.295   2.761
    1C        C  444   3.944   4.404   2.882
    1C        C  445   4.007   4.373   3.004
    1C        C  446   3.812   4.463   3.126
    1C        C  447   3.941   4.405   3.125
    1C        C  448   3.742   4.483   3.247
    1C        C  449   3.808   4.462   3.371
    1C        C  450   3.606   4.522   3.491
    1C        C  451   3.745   4.494   3.493
    1C        C  452   3.537   4.526   3.614
    1C        C  453   3.606   4.521   3.737
    1C        C  454   3.394   4.537   3.859
    1C        C  455   3.535   4.530   3.860
    1C        C  456   3.327   4.529   3.984
    1C        C  457   3.397   4.531   4.107
    1C        C  458   3.192   4.496   4.235
    1C        C  459   3.330   4.529   4.231
    1C        C  460   3.125   4.475   4.357
    1C        C  461   3.193   4.507   4.476
    1C        C  462   2.996   4.429   4.600
    1C        C  463   3.126   4.483   4.598
    1C        C  464   2.926   4.398   4.719
    1C        C  465   2.987   4.440   4.840
    1C        C  466   2.799   4.333   4.956
    1C        C  467   2.904   4.426   4.956
    1C        C  468   4.113   4.273   2.038
    1C        C  469   4.185   4.244   2.154
    1C        C  470   4.006   4.370   2.276
    1C        C  471   4.124   4.290   2.273
    1C        C  472   3.940   4.402   2.396
    1C        C  473   4.006   4.371   2.517
    1C        C  474   3.811   4.460   2.639
    1C        C  475   3.941   4.405   2.638
    1C        C  476   3.745   4.483   2.762
    1C        C  477   3.813   4.459   2.883
    1C        C  478   3.606   4.510   3.005
    1C        C  479   3.744   4.484   3.004
    1C        C  480   3.534   4.520   3.127
    1C        C  481   3.603   4.510   3.249
    1C        C  482   3.392   4.523   3.371
    1C        C  483   3.533   4.528   3.370
    1C        C  484   3.324   4.521   3.496
    1C        C  485   3.396   4.532   3.617
    1C        C  486   3.186   4.493   3.743
    1C        C  487   3.323   4.524   3.738
    1C        C  488   3.122   4.474   3.868
    1C        C  489   3.191   4.493   3.990
    1C        C  490   3.000   4.408   4.113
    1C        C  491   3.124   4.476   4.113
    1C        C  492   2.942   4.373   4.237
    1C        C  493   2.994   4.420   4.359
    1C        C  494   2.824   4.296   4.481
    1C        C  495   2.929   4.391   4.481
    1C        C  496   2.769   4.251   4.603
    1C        C  497   2.813   4.312   4.722
    1C        C  498   2.663   4.159   4.843
    1C        C  499   2.748   4.272   4.841
    1C        C  500   2.595   4.113   4.957
    1C        C  501   3.998   4.352   2.039
    1C        C  502   3.811   4.460   2.152
    1C        C  503   3.940   4.403   2.156
    1C        C  504   3.739   4.469   2.273
    1C        C  505   3.806   4.447   2.395
    1C        C  506   3.601   4.496   2.517
    1C        C  507   3.740   4.472   2.517
    1C        C  508   3.532   4.511   2.639
    1C        C  509   3.605   4.505   2.760
    1C        C  510   3.394   4.515   2.881
    1C        C  511   3.536   4.515   2.882
    1C        C  512   3.323   4.508   3.003
    1C        C  513   3.393   4.524   3.125
    1C        C  514   3.185   4.486   3.254
    1C        C  515   3.323   4.520   3.248
    1C        C  516   3.119   4.462   3.376
    1C        C  517   3.187   4.485   3.497
    1C        C  518   2.993   4.406   3.623
    1C        C  519   3.120   4.468   3.620
    1C        C  520   2.937   4.367   3.747
    1C        C  521   2.998   4.407   3.868
    1C        C  522   2.834   4.275   3.993
    1C        C  523   2.942   4.367   3.991
    1C        C  524   2.783   4.229   4.116
    1C        C  525   2.831   4.285   4.236
    1C        C  526   2.692   4.130   4.362
    1C        C  527   2.774   4.244   4.359
    1C        C  528   2.649   4.074   4.485
    1C        C  529   2.684   4.139   4.605
    1C        C  530   2.577   3.956   4.725
    1C        C  531   2.632   4.087   4.726
    1C        C  532   2.536   3.895   4.847
    1C        C  533   2.529   3.990   4.954
    1C        C  534   3.613   4.552   2.034
    1C        C  535   3.746   4.506   2.037
    1C        C  536   3.532   4.532   2.150
    1C        C  537   3.600   4.499   2.271
    1C        C  538   3.391   4.509   2.398
    1C        C  539   3.532   4.506   2.394
    1C        C  540   3.318   4.503   2.519
    1C        C  541   3.391   4.512   2.639
    1C        C  542   3.181   4.477   2.763
    1C        C  543   3.320   4.504   2.762
    1C        C  544   3.117   4.460   2.888
    1C        C  545   3.187   4.473   3.010
    1C        C  546   2.993   4.392   3.131
    1C        C  547   3.119   4.456   3.133
    1C        C  548   2.935   4.356   3.254
    1C        C  549   2.994   4.396   3.376
    1C        C  550   2.822   4.281   3.503
    1C        C  551   2.934   4.366   3.501
    1C        C  552   2.777   4.228   3.626
    1C        C  553   2.826   4.280   3.748
    1C        C  554   2.693   4.117   3.872
    1C        C  555   2.780   4.229   3.871
    1C        C  556   2.653   4.060   3.995
    1C        C  557   2.691   4.122   4.117
    1C        C  558   2.596   3.937   4.244
    1C        C  559   2.656   4.065   4.242
    1C        C  560   2.563   3.875   4.367
    1C        C  561   2.583   3.949   4.486
    1C        C  562   2.528   3.743   4.612
    1C        C  563   2.556   3.881   4.607
    1C        C  564   2.513   3.675   4.735
    1C        C  565   2.512   3.754   4.853
    1C        C  566   2.523   3.540   4.974
    1C        C  567   2.515   3.678   4.971
    1C        C  568   3.321   4.476   2.039
    1C        C  569   3.391   4.515   2.154
    1C        C  570   3.181   4.475   2.277
    1C        C  571   3.320   4.505   2.276
    1C        C  572   3.112   4.453   2.398
    1C        C  573   3.178   4.479   2.520
    1C        C  574   2.984   4.396   2.645
    1C        C  575   3.109   4.461   2.642
    1C        C  576   2.924   4.360   2.768
    1C        C  577   2.990   4.399   2.887
    1C        C  578   2.820   4.270   3.011
    1C        C  579   2.931   4.357   3.008
    1C        C  580   2.770   4.221   3.135
    1C        C  581   2.822   4.270   3.257
    1C        C  582   2.693   4.111   3.382
    1C        C  583   2.771   4.229   3.381
    1C        C  584   2.656   4.053   3.505
    1C        C  585   2.690   4.117   3.626
    1C        C  586   2.589   3.934   3.754
    1C        C  587   2.652   4.060   3.750
    1C        C  588   2.561   3.869   3.876
    1C        C  589   2.594   3.932   3.998
    1C        C  590   2.540   3.731   4.124
    1C        C  591   2.579   3.867   4.123
    1C        C  592   2.521   3.664   4.247
    1C        C  593   2.528   3.738   4.367
    1C        C  594   2.515   3.531   4.495
    1C        C  595   2.517   3.672   4.491
    1C        C  596   2.520   3.459   4.617
    1C        C  597   2.516   3.533   4.737
    1C        C  598   2.537   3.320   4.860
    1C        C  599   2.524   3.460   4.858
    1C        C  600   2.529   3.244   4.978
    1C        C  601   3.188   4.438   2.039
    1C        C  602   2.975   4.399   2.157
    1C        C  603   3.112   4.442   2.157
    1C        C  604   2.921   4.357   2.282
    1C        C  605   2.986   4.390   2.403
    1C        C  606   2.812   4.268   2.526
    1C        C  607   2.922   4.356   2.524
    1C        C  608   2.759   4.221   2.649
    1C        C  609   2.814   4.271   2.768
    1C        C  610   2.672   4.115   2.893
    1C        C  611   2.765   4.221   2.891
    1C        C  612   2.648   4.051   3.017
    1C        C  613   2.685   4.109   3.140
    1C        C  614   2.586   3.923   3.263
    1C        C  615   2.649   4.049   3.263
    1C        C  616   2.564   3.861   3.388
    1C        C  617   2.593   3.926   3.510
    1C        C  618   2.532   3.726   3.633
    1C        C  619   2.566   3.863   3.634
    1C        C  620   2.519   3.660   3.757
    1C        C  621   2.529   3.731   3.878
    1C        C  622   2.509   3.523   4.008
    1C        C  623   2.521   3.663   4.002
    1C        C  624   2.510   3.449   4.129
    1C        C  625   2.515   3.523   4.250
    1C        C  626   2.538   3.317   4.375
    1C        C  627   2.518   3.456   4.374
    1C        C  628   2.556   3.248   4.497
    1C        C  629   2.541   3.320   4.618
    1C        C  630   2.590   3.111   4.738
    1C        C  631   2.551   3.248   4.739
    1C        C  632   2.611   3.043   4.861
    1C        C  633   2.561   3.108   4.979
    1C        C  634   2.774   4.305   2.054
    1C        C  635   2.883   4.393   2.048
    1C        C  636   2.746   4.227   2.167
    1C        C  637   2.805   4.274   2.286
    1C        C  638   2.672   4.105   2.405
    1C        C  639   2.758   4.218   2.406
    1C        C  640   2.632   4.049   2.529
    1C        C  641   2.669   4.112   2.649
    1C        C  642   2.580   3.921   2.774
    1C        C  643   2.636   4.051   2.772
    1C        C  644   2.561   3.855   2.897
    1C        C  645   2.586   3.923   3.018
    1C        C  646   2.520   3.722   3.143
    1C        C  647   2.558   3.859   3.141
    1C        C  648   2.513   3.654   3.266
    1C        C  649   2.530   3.723   3.388
    1C        C  650   2.512   3.514   3.515
    1C        C  651   2.518   3.655   3.511
    1C        C  652   2.513   3.447   3.639
    1C        C  653   2.513   3.518   3.760
    1C        C  654   2.536   3.313   3.884
    1C        C  655   2.511   3.452   3.885
    1C        C  656   2.549   3.245   4.007
    1C        C  657   2.535   3.310   4.131
    1C        C  658   2.604   3.113   4.251
    1C        C  659   2.551   3.244   4.255
    1C        C  660   2.640   3.055   4.375
    1C        C  661   2.601   3.114   4.497
    1C        C  662   2.703   2.927   4.623
    1C        C  663   2.627   3.046   4.618
    1C        C  664   2.747   2.868   4.743
    1C        C  665   2.692   2.925   4.861
    1C        C  666   2.743   2.867   4.978
    1C        C  667   2.678   4.019   2.051
    1C        C  668   2.677   4.104   2.163
    1C        C  669   2.585   3.910   2.289
    1C        C  670   2.640   4.041   2.284
    1C        C  671   2.553   3.847   2.411
    1C        C  672   2.577   3.918   2.531
    1C        C  673   2.512   3.718   2.659
    1C        C  674   2.554   3.852   2.653
    1C        C  675   2.506   3.647   2.781
    1C        C  676   2.520   3.719   2.902
    1C        C  677   2.506   3.507   3.024
    1C        C  678   2.511   3.648   3.023
    1C        C  679   2.510   3.439   3.148
    1C        C  680   2.504   3.513   3.269
    1C        C  681   2.530   3.304   3.397
    1C        C  682   2.509   3.444   3.392
    1C        C  683   2.553   3.237   3.519
    1C        C  684   2.535   3.307   3.640
    1C        C  685   2.602   3.108   3.765
    1C        C  686   2.552   3.240   3.764
    1C        C  687   2.641   3.051   3.888
    1C        C  688   2.602   3.114   4.009
    1C        C  689   2.704   2.926   4.134
    1C        C  690   2.630   3.046   4.129
    1C        C  691   2.750   2.873   4.257
    1C        C  692   2.713   2.934   4.379
    1C        C  693   2.750   2.874   4.501
    1C        C  694   2.621   3.891   2.053
    1C        C  695   2.529   3.700   2.174
    1C        C  696   2.578   3.832   2.172
    1C        C  697   2.501   3.635   2.297
    1C        C  698   2.512   3.712   2.415
    1C        C  699   2.481   3.504   2.540
    1C        C  700   2.498   3.644   2.539
    1C        C  701   2.497   3.433   2.661
    1C        C  702   2.498   3.506   2.782
    1C        C  703   2.513   3.293   2.906
    1C        C  704   2.502   3.433   2.903
    1C        C  705   2.530   3.224   3.029
    1C        C  706   2.525   3.299   3.149
    1C        C  707   2.595   3.105   3.274
    1C        C  708   2.540   3.235   3.274
    1C        C  709   2.635   3.045   3.395
    1C        C  710   2.606   3.106   3.520
    1C        C  711   2.709   2.924   3.642
    1C        C  712   2.633   3.044   3.643
    1C        C  713   2.752   2.873   3.766
    1C        C  714   2.715   2.931   3.890
    1C        C  715   2.755   2.875   4.013
    1C        C  716   2.451   3.497   2.061
    1C        C  717   2.494   3.630   2.058
    1C        C  718   2.459   3.418   2.180
    1C        C  719   2.474   3.496   2.298
    1C        C  720   2.513   3.288   2.421
    1C        C  721   2.486   3.427   2.421
    1C        C  722   2.534   3.221   2.543
    1C        C  723   2.516   3.293   2.663
    1C        C  724   2.580   3.091   2.785
    1C        C  725   2.526   3.222   2.784
    1C        C  726   2.603   3.025   2.908
    1C        C  727   2.572   3.089   3.030
    1C        C  728   2.702   2.922   3.152
    1C        C  729   2.618   3.036   3.153
    1C        C  730   2.752   2.870   3.274
    1C        C  731   2.715   2.929   3.397
    1C        C  732   2.753   2.869   3.520
    1C        C  733   2.490   3.196   2.065
    1C        C  734   2.487   3.277   2.179
    1C        C  735   2.583   3.085   2.300
    1C        C  736   2.522   3.213   2.301
    1C        C  737   2.614   3.022   2.423
    1C        C  738   2.583   3.088   2.543
    1C        C  739   2.692   2.907   2.665
    1C        C  740   2.613   3.024   2.666
    1C        C  741   2.736   2.853   2.788
    1C        C  742   2.690   2.913   2.908
    1C        C  743   2.739   2.861   3.030
    1C        C  744   2.546   3.069   2.068
    1C        C  745   2.686   2.896   2.181
    1C        C  746   2.608   3.014   2.181
    1C        C  747   2.735   2.843   2.302
    1C        C  748   2.687   2.900   2.422
    1C        C  749   2.734   2.847   2.544
    1C        C  750   2.737   2.838   2.064
    1C        C  751   3.652   2.297   1.989
    1C        O  752   3.696   2.190   2.040
    1C        O  753   3.716   2.316   1.866
    1C        C  754   4.619   3.048   1.969
    1C        O  755   4.600   3.042   1.844
    1C        O  756   4.756   3.043   1.995
    1C        C  757   4.456   4.210   1.966
    1C        O  758   4.557   4.271   2.012
    1C        O  759   4.422   4.271   1.844
    1C        C  760   3.594   4.657   1.931
    1C        O  761   3.519   4.755   1.957
    1C        O  762   3.587   4.640   1.792
    1C        C  763   2.858   4.505   1.955
    1C        O  764   2.923   4.511   1.848
    1C        O  765   2.808   4.632   1.985
    1C        C  766   2.368   3.458   1.946
    1C        O  767   2.420   3.445   1.832
    1C        O  768   2.239   3.403   1.958
    1C        C  769   4.678   3.562   5.056
    1C        O  770   4.631   3.540   5.170
    1C        O  771   4.807   3.617   5.056
    1C        C  772   4.271   4.462   5.018
    1C        O  773   4.288   4.450   5.143
    1C        O  774   4.364   4.554   4.968
    1C        C  775   4.144   2.502   5.059
    1C        O  776   4.204   2.398   5.021
    1C        O  777   4.142   2.520   5.198
    1C        C  778   2.922   4.506   5.079
    1C        O  779   2.867   4.619   5.086
    1C        O  780   2.946   4.439   5.200
    1C        C  781   2.464   3.044   5.070
    1C        O  782   2.375   2.971   5.019
    1C        O  783   2.474   3.043   5.209
    1C        C  784   2.416   3.971   5.048
    1C        O  785   2.298   4.010   5.024
    1C        O  786   2.447   3.939   5.181
    1C        C  787   2.956   2.433   1.980
    1C        O  788   2.928   2.484   1.869
    1C        O  789   2.952   2.294   1.975
    1C        C  790   3.184   2.366   5.054
    1C        O  791   3.126   2.259   5.021
    1C        O  792   3.189   2.386   5.193
    1C        H  793   4.292   3.011   5.060
    1C        H  794   4.131   2.840   5.046
    1C        H  795   4.538   3.119   5.032
    1C        H  796   4.464   3.377   5.050
    1C        H  797   4.535   3.801   5.048
    1C        H  798   4.391   3.961   5.053
    1C        H  799   4.253   4.139   5.041
    1C        H  800   4.043   4.553   5.014
    1C        H  801   3.812   4.578   5.036
    1C        H  802   3.578   4.616   5.041
    1C        H  803   3.383   4.537   5.045
    1C        H  804   3.178   4.402   5.018
    1C        H  805   3.868   2.518   5.068
    1C        H  806   3.667   2.387   5.032
    1C        H  807   3.008   2.572   5.067
    1C        H  808   3.442   2.514   5.068
    1C        H  809   2.886   2.744   5.075
    1C        H  810   2.682   2.867   5.066
    1C        H  811   2.490   3.287   5.067
    1C        H  812   2.477   3.496   5.060
    1C        H  813   2.525   3.727   5.066
    1C        H  814   2.550   4.184   5.023
    1C        H  815   2.816   4.266   5.037
    1C        H  816   2.736   2.894   1.973
    1C        H  817   2.804   2.657   1.983
    1C        H  818   3.192   2.374   2.021
    1C        H  819   3.427   2.431   1.971
    1C        H  820   3.864   2.484   1.975
    1C        H  821   4.041   2.641   1.956
    1C        H  822   4.208   2.758   1.965
    1C        H  823   4.393   2.900   1.966
    1C        H  824   4.564   3.302   1.960
    1C        H  825   4.463   3.508   1.962
    1C        H  826   4.535   3.748   1.959
    1C        H  827   3.783   4.469   1.944
    1C        H  828   3.933   4.332   1.957
    1C        H  829   4.139   4.217   1.950
    1C        H  830   4.429   3.932   1.958
    1C        H  831   2.573   3.868   1.959
    1C        H  832   2.739   4.046   1.968
    1C        H  833   2.696   4.320   1.981
    1C        H  834   3.377   4.458   1.949
    1C        H  835   3.154   4.373   1.962
    1C        H  836   2.527   3.003   1.986
    1C        H  837   2.436   3.220   1.976
    1C        H  838   2.515   3.674   1.962
    2V3OU   H29  839   2.798   3.540   2.487
    2V3OU   C27  840   2.788   3.499   2.591
    2V3OU   H27  841   2.726   3.561   2.661
    2V3OU   H28  842   2.735   3.401   2.578
    2V3OU   O11  843   2.912   3.471   2.656
    2V3OU   C15  844   2.923   3.398   2.773
    2V3OU   C13  845   3.051   3.372   2.827
    2V3OU   C14  846   3.075   3.267   2.916
    2V3OU   C16  847   2.972   3.180   2.949
    2V3OU    H6  848   2.988   3.095   3.016
    2V3OU   C12  849   3.212   3.229   2.955
    2V3OU    O2  850   3.238   3.121   3.013
    2V3OU   C10  851   3.321   3.305   2.891
    2V3OU    C8  852   3.451   3.265   2.921
    2V3OU   O10  853   3.482   3.148   2.983
    2V3OU   H26  854   3.398   3.117   3.020
    2V3OU    C6  855   3.559   3.348   2.879
    2V3OU    C5  856   3.534   3.465   2.809
    2V3OU    C4  857   3.697   3.292   2.884
    2V3OU    H4  858   3.719   3.228   2.975
    2V3OU    H5  859   3.701   3.224   2.794
    2V3OU    C2  860   3.810   3.394   2.882
    2V3OU    O6  861   3.803   3.473   3.001
    2V3OU   H21  862   3.766   3.560   2.977
    2V3OU    C3  863   3.777   3.490   2.767
    2V3OU    H2  864   3.855   3.570   2.759
    2V3OU    H3  865   3.773   3.435   2.669
    2V3OU   C25  866   3.947   3.327   2.869
    2V3OU    O7  867   3.996   3.287   2.764
    2V3OU   C26  868   4.021   3.287   2.996
    2V3OU   H22  869   4.062   3.380   3.043
    2V3OU   H23  870   4.105   3.218   2.970
    2V3OU    O8  871   3.955   3.205   3.089
    2V3OU   H24  872   3.922   3.263   3.160
    2V3OU    C1  873   3.645   3.563   2.787
    2V3OU    H1  874   3.625   3.622   2.693
    2V3OU    O3  875   3.655   3.654   2.897
    2V3OU   C19  876   3.615   3.789   2.873
    2V3OU    H9  877   3.519   3.798   2.814
    2V3OU    O4  878   3.714   3.846   2.790
    2V3OU   C20  879   3.843   3.873   2.847
    2V3OU   H10  880   3.884   3.769   2.865
    2V3OU   C24  881   3.603   3.850   3.012
    2V3OU   H16  882   3.542   3.784   3.079
    2V3OU   H17  883   3.552   3.949   2.998
    2V3OU   C23  884   3.741   3.873   3.074
    2V3OU   H15  885   3.785   3.769   3.090
    2V3OU    N1  886   3.734   3.953   3.195
    2V3OU   H19  887   3.797   3.918   3.264
    2V3OU   H20  888   3.640   3.932   3.221
    2V3OU   C21  889   3.843   3.946   2.981
    2V3OU   H11  890   3.945   3.921   3.023
    2V3OU    O5  891   3.827   4.087   2.978
    2V3OU   H18  892   3.775   4.102   3.059
    2V3OU   C22  893   3.908   3.946   2.730
    2V3OU   H12  894   3.862   4.047   2.717
    2V3OU   H13  895   3.901   3.878   2.642
    2V3OU   H14  896   4.019   3.952   2.748
    2V3OU   C11  897   3.156   3.469   2.792
    2V3OU    O1  898   3.132   3.588   2.763
    2V3OU    C9  899   3.294   3.424   2.818
    2V3OU    C7  900   3.400   3.503   2.774
    2V3OU    O9  901   3.387   3.621   2.704
    2V3OU   H25  902   3.291   3.632   2.695
    2V3OU   C17  903   2.820   3.313   2.816
    2V3OU    H7  904   2.722   3.345   2.781
    2V3OU   C18  905   2.844   3.205   2.901
    2V3OU    H8  906   2.777   3.161   2.977
    3SOL     OW  907   2.437   5.490   0.082
    3SOL    HW1  908   2.503   5.443   0.024
    3SOL    HW2  909   2.417   5.580   0.043
    4SOL     OW  910   6.890   6.942   2.207
    4SOL    HW1  911   6.796   6.910   2.204
    4SOL    HW2  912   6.892   0.025   2.197
    5SOL     OW  913   4.150   1.758   2.649
    5SOL    HW1  914   4.221   1.819   2.613
    5SOL    HW2  915   4.070   1.812   2.674
    6SOL     OW  916   3.992   1.086   1.786
    6SOL    HW1  917   4.041   1.000   1.793
    6SOL    HW2  918   3.997   1.120   1.692
    7SOL     OW  919   0.034   3.938   3.154
    7SOL    HW1  920   0.007   3.940   3.057
    7SOL    HW2  921   0.091   3.857   3.170
    8SOL     OW  922   3.473   0.998   0.298
    8SOL    HW1  923   3.415   1.016   0.218
    8SOL    HW2  924   3.532   0.920   0.279
    9SOL     OW  925   4.896   0.727   6.079
    9SOL    HW1  926   4.842   0.783   6.016
    9SOL    HW2  927   4.991   0.759   6.080
   10SOL     OW  928   1.732   5.066   5.798
   10SOL    HW1  929   1.697   4.989   5.851
   10SOL    HW2  930   1.761   5.035   5.708
   11SOL     OW  931   2.770   0.628   5.827
   11SOL    HW1  932   2.809   0.615   5.918
   11SOL    HW2  933   2.799   0.717   5.791
   12SOL     OW  934   3.446   5.361   3.515
   12SOL    HW1  935   3.507   5.421   3.463
   12SOL    HW2  936   3.359   5.407   3.530
   13SOL     OW  937   4.201   6.391   3.860
   13SOL    HW1  938   4.233   6.361   3.950
   13SOL    HW2  939   4.262   6.461   3.824
   14SOL     OW  940   3.617   5.682   5.845
   14SOL    HW1  941   3.670   5.638   5.773
   14SOL    HW2  942   3.524   5.699   5.813
   15SOL     OW  943   0.424   6.490   2.035
   15SOL    HW1  944   0.382   6.477   2.125
   15SOL    HW2  945   0.523   6.477   2.043
   16SOL     OW  946   5.676   2.748   6.005
   16SOL    HW1  947   5.659   2.808   6.084
   16SOL    HW2  948   5.683   2.653   6.036
   17SOL     OW  949   5.386   6.640   6.335
   17SOL    HW1  950   5.366   6.661   6.431
   17SOL    HW2  951   5.484   6.624   6.323
   18SOL     OW  952   2.975   0.784   5.580
   18SOL    HW1  953   3.007   0.704   5.529
   18SOL    HW2  954   3.042   0.857   5.573
   19SOL     OW  955   0.251   1.259   3.100
   19SOL    HW1  956   0.184   1.215   3.160
   19SOL    HW2  957   0.321   1.193   3.074
   20SOL     OW  958   5.512   1.487   4.160
   20SOL    HW1  959   5.551   1.451   4.075
   20SOL    HW2  960   5.416   1.509   4.146
   21SOL     OW  961   3.246   1.536   2.717
   21SOL    HW1  962   3.228   1.603   2.789
   21SOL    HW2  963   3.243   1.444   2.756
   22SOL     OW  964   1.762   6.637   6.741
   22SOL    HW1  965   1.835   6.706   6.740
   22SOL    HW2  966   1.761   6.591   6.829
   23SOL     OW  967   5.430   5.812   3.135
   23SOL    HW1  968   5.390   5.886   3.081
   23SOL    HW2  969   5.422   5.834   3.232
   24SOL     OW  970   4.299   0.242   3.704
   24SOL    HW1  971   4.283   0.224   3.801
   24SOL    HW2  972   4.241   0.183   3.648
   25SOL     OW  973   3.550   0.532   4.588
   25SOL    HW1  974   3.513   0.460   4.647
   25SOL    HW2  975   3.649   0.533   4.594
   26SOL     OW  976   0.048   0.523   0.710
   26SOL    HW1  977   0.080   0.448   0.653
   26SOL    HW2  978   6.974   0.500   0.748
   27SOL     OW  979   1.393   2.324   2.942
   27SOL    HW1  980   1.370   2.417   2.970
   27SOL    HW2  981   1.474   2.326   2.883
   28SOL     OW  982   2.960   1.457   6.462
   28SOL    HW1  983   2.879   1.447   6.404
   28SOL    HW2  984   2.963   1.382   6.529
   29SOL     OW  985   6.384   1.864   2.135
   29SOL    HW1  986   6.441   1.896   2.210
   29SOL    HW2  987   6.357   1.941   2.078
   30SOL     OW  988   4.129   1.063   3.803
   30SOL    HW1  989   4.155   1.146   3.852
   30SOL    HW2  990   4.036   1.037   3.829
   31SOL     OW  991   0.862   2.815   6.299
   31SOL    HW1  992   0.874   2.906   6.340
   31SOL    HW2  993   0.909   2.747   6.354
   32SOL     OW  994   0.216   1.903   2.680
   32SOL    HW1  995   0.236   1.810   2.712
   32SOL    HW2  996   0.197   1.901   2.582
   33SOL     OW  997   1.352   4.822   5.515
   33SOL    HW1  998   1.299   4.769   5.581
   33SOL    HW2  999   1.307   4.819   5.426
   34SOL     OW 1000   2.942   0.076   4.494
   34SOL    HW1 1001   3.010   0.033   4.554
   34SOL    HW2 1002   2.958   0.048   4.400
   35SOL     OW 1003   4.055   3.436   6.562
   35SOL    HW1 1004   4.118   3.396   6.495
   35SOL    HW2 1005   3.964   3.396   6.551
   36SOL     OW 1006   5.998   1.091   4.701
   36SOL    HW1 1007   6.019   0.996   4.678
   36SOL    HW2 1008   6.069   1.126   4.763
   37SOL     OW 1009   1.261   1.771   0.357
   37SOL    HW1 1010   1.190   1.712   0.316
   37SOL    HW2 1011   1.347   1.758   0.307
   38SOL     OW 1012   0.958   4.760   2.095
   38SOL    HW1 1013   0.866   4.783   2.124
   38SOL    HW2 1014   1.015   4.842   2.095
   39SOL     OW 1015   6.924   4.552   6.606
   39SOL    HW1 1016   6.847   4.543   6.543
   39SOL    HW2 1017   6.903   4.505   6.692
   40SOL     OW 1018   4.714   1.552   0.656
   40SOL    HW1 1019   4.801   1.573   0.611
   40SOL    HW2 1020   4.674   1.471   0.614
   41SOL     OW 1021   6.720   5.019   3.186
   41SOL    HW1 1022   6.806   5.055   3.150
   41SOL    HW2 1023   6.723   4.919   3.186
   42SOL     OW 1024   2.898   4.921   4.645
   42SOL    HW1 1025   2.921   5.004   4.695
   42SOL    HW2 1026   2.826   4.871   4.693
   43SOL     OW 1027   5.136   6.684   5.430
   43SOL    HW1 1028   5.226   6.727   5.423
   43SOL    HW2 1029   5.141   6.590   5.397
   44SOL     OW 1030   4.290   1.538   6.504
   44SOL    HW1 1031   4.241   1.518   6.589
   44SOL    HW2 1032   4.239   1.607   6.452
   45SOL     OW 1033   4.613   6.071   1.747
   45SOL    HW1 1034   4.571   6.129   1.816
   45SOL    HW2 1035   4.582   5.977   1.759
   46SOL     OW 1036   0.217   3.336   3.060
   46SOL    HW1 1037   0.176   3.297   3.142
   46SOL    HW2 1038   0.166   3.307   2.979
   47SOL     OW 1039   4.733   3.789   0.951
   47SOL    HW1 1040   4.664   3.821   1.016
   47SOL    HW2 1041   4.817   3.841   0.963
   48SOL     OW 1042   6.583   3.443   6.077
   48SOL    HW1 1043   6.564   3.432   5.980
   48SOL    HW2 1044   6.497   3.466   6.125
   49SOL     OW 1045   5.091   3.587   1.378
   49SOL    HW1 1046   5.144   3.517   1.331
   49SOL    HW2 1047   5.126   3.677   1.356
   50SOL     OW 1048   5.435   1.100   5.154
   50SOL    HW1 1049   5.392   1.025   5.104
   50SOL    HW2 1050   5.381   1.184   5.141
   51SOL     OW 1051   2.308   6.718   3.400
   51SOL    HW1 1052   2.283   6.623   3.379
   51SOL    HW2 1053   2.278   6.741   3.492
   52SOL     OW 1054   6.357   3.257   2.833
   52SOL    HW1 1055   6.414   3.176   2.844
   52SOL    HW2 1056   6.322   3.260   2.739
   53SOL     OW 1057   4.648   6.020   3.754
   53SOL    HW1 1058   4.612   5.957   3.824
   53SOL    HW2 1059   4.585   6.096   3.743
   54SOL     OW 1060   4.440   5.024   1.062
   54SOL    HW1 1061   4.385   5.088   1.007
   54SOL    HW2 1062   4.462   4.944   1.007
   55SOL     OW 1063   1.953   2.733   6.375
   55SOL    HW1 1064   2.026   2.802   6.375
   55SOL    HW2 1065   1.902   2.739   6.289
   56SOL     OW 1066   6.919   0.847   1.120
   56SOL    HW1 1067   6.828   0.819   1.089
   56SOL    HW2 1068   6.911   0.920   1.188
   57SOL     OW 1069   5.034   0.916   1.226
   57SOL    HW1 1070   4.960   0.923   1.293
   57SOL    HW2 1071   5.088   0.834   1.245
   58SOL     OW 1072   0.468   6.195   6.015
   58SOL    HW1 1073   0.505   6.241   5.934
   58SOL    HW2 1074   0.537   6.194   6.088
   59SOL     OW 1075   1.096   2.392   5.659
   59SOL    HW1 1076   1.048   2.316   5.615
   59SOL    HW2 1077   1.195   2.375   5.656
   60SOL     OW 1078   5.377   2.717   4.580
   60SOL    HW1 1079   5.282   2.700   4.606
   60SOL    HW2 1080   5.389   2.813   4.557
   61SOL     OW 1081   6.595   2.209   4.822
   61SOL    HW1 1082   6.639   2.238   4.736
   61SOL    HW2 1083   6.628   2.118   4.847
   62SOL     OW 1084   1.169   1.353   1.637
   62SOL    HW1 1085   1.224   1.308   1.708
   62SOL    HW2 1086   1.206   1.443   1.617
   63SOL     OW 1087   5.508   1.166   3.284
   63SOL    HW1 1088   5.421   1.120   3.269
   63SOL    HW2 1089   5.497   1.237   3.354
   64SOL     OW 1090   0.548   3.267   5.894
   64SOL    HW1 1091   0.563   3.190   5.955
   64SOL    HW2 1092   0.522   3.233   5.803
   65SOL     OW 1093   0.907   4.758   6.486
   65SOL    HW1 1094   0.884   4.691   6.557
   65SOL    HW2 1095   0.835   4.759   6.416
   66SOL     OW 1096   4.438   0.912   5.281
   66SOL    HW1 1097   4.432   1.000   5.328
   66SOL    HW2 1098   4.527   0.905   5.236
   67SOL     OW 1099   6.325   3.260   6.035
   67SOL    HW1 1100   6.268   3.338   6.061
   67SOL    HW2 1101   6.289   3.218   5.952
   68SOL     OW 1102   6.270   1.195   6.936
   68SOL    HW1 1103   6.242   1.286   6.968
   68SOL    HW2 1104   6.197   1.154   6.882
   69SOL     OW 1105   1.036   3.486   6.358
   69SOL    HW1 1106   1.041   3.541   6.274
   69SOL    HW2 1107   1.018   3.545   6.436
   70SOL     OW 1108   5.677   4.411   5.102
   70SOL    HW1 1109   5.630   4.493   5.136
   70SOL    HW2 1110   5.622   4.367   5.032
   71SOL     OW 1111   3.911   1.822   3.950
   71SOL    HW1 1112   3.838   1.792   3.889
   71SOL    HW2 1113   3.982   1.751   3.954
   72SOL     OW 1114   1.405   0.377   4.058
   72SOL    HW1 1115   1.462   0.307   4.015
   72SOL    HW2 1116   1.319   0.385   4.009
   73SOL     OW 1117   3.725   0.533   1.438
   73SOL    HW1 1118   3.774   0.460   1.486
   73SOL    HW2 1119   3.724   0.615   1.495
   74SOL     OW 1120   3.741   0.884   0.128
   74SOL    HW1 1121   3.748   0.971   0.078
   74SOL    HW2 1122   3.751   0.808   0.065
   75SOL     OW 1123   4.526   0.765   0.944
   75SOL    HW1 1124   4.530   0.714   1.030
   75SOL    HW2 1125   4.619   0.785   0.913
   76SOL     OW 1126   2.892   3.183   1.590
   76SOL    HW1 1127   2.963   3.147   1.651
   76SOL    HW2 1128   2.825   3.235   1.644
   77SOL     OW 1129   0.762   0.065   3.659
   77SOL    HW1 1130   0.824   0.121   3.714
   77SOL    HW2 1131   0.813   7.012   3.609
   78SOL     OW 1132   5.700   1.446   0.071
   78SOL    HW1 1133   5.716   1.355   0.108
   78SOL    HW2 1134   5.698   1.441   6.987
   79SOL     OW 1135   2.927   5.806   1.251
   79SOL    HW1 1136   2.888   5.865   1.322
   79SOL    HW2 1137   3.014   5.768   1.282
   80SOL     OW 1138   4.530   1.183   4.096
   80SOL    HW1 1139   4.594   1.178   4.172
   80SOL    HW2 1140   4.581   1.188   4.010
   81SOL     OW 1141   2.469   0.355   2.257
   81SOL    HW1 1142   2.432   0.385   2.169
   81SOL    HW2 1143   2.556   0.307   2.242
   82SOL     OW 1144   5.794   5.087   0.536
   82SOL    HW1 1145   5.839   5.035   0.463
   82SOL    HW2 1146   5.854   5.092   0.616
   83SOL     OW 1147   0.362   0.410   6.914
   83SOL    HW1 1148   0.366   0.312   6.931
   83SOL    HW2 1149   0.431   0.457   6.969
   84SOL     OW 1150   6.401   2.805   3.170
   84SOL    HW1 1151   6.494   2.770   3.182
   84SOL    HW2 1152   6.359   2.820   3.260
   85SOL     OW 1153   1.754   1.392   3.715
   85SOL    HW1 1154   1.837   1.447   3.724
   85SOL    HW2 1155   1.777   1.305   3.670
   86SOL     OW 1156   0.947   1.421   6.364
   86SOL    HW1 1157   0.866   1.380   6.322
   86SOL    HW2 1158   1.025   1.414   6.301
   87SOL     OW 1159   5.056   4.535   1.118
   87SOL    HW1 1160   5.131   4.546   1.183
   87SOL    HW2 1161   5.093   4.517   1.027
   88SOL     OW 1162   3.504   1.847   6.148
   88SOL    HW1 1163   3.453   1.770   6.112
   88SOL    HW2 1164   3.505   1.843   6.248
   89SOL     OW 1165   2.523   2.535   6.563
   89SOL    HW1 1166   2.450   2.528   6.495
   89SOL    HW2 1167   2.601   2.479   6.534
   90SOL     OW 1168   4.301   4.916   2.035
   90SOL    HW1 1169   4.216   4.863   2.029
   90SOL    HW2 1170   4.302   4.986   1.963
   91SOL     OW 1171   6.231   3.758   6.162
   91SOL    HW1 1172   6.231   3.833   6.227
   91SOL    HW2 1173   6.254   3.673   6.209
   92SOL     OW 1174   4.435   4.446   0.762
   92SOL    HW1 1175   4.351   4.409   0.800
   92SOL    HW2 1176   4.414   4.498   0.679
   93SOL     OW 1177   3.331   3.311   0.697
   93SOL    HW1 1178   3.402   3.373   0.731
   93SOL    HW2 1179   3.287   3.350   0.617
   94SOL     OW 1180   2.377   6.210   6.252
   94SOL    HW1 1181   2.311   6.138   6.273
   94SOL    HW2 1182   2.452   6.172   6.198
   95SOL     OW 1183   0.797   6.800   2.750
   95SOL    HW1 1184   0.894   6.812   2.731
   95SOL    HW2 1185   0.785   6.727   2.817
   96SOL     OW 1186   3.487   0.065   4.959
   96SOL    HW1 1187   3.417   0.043   5.027
   96SOL    HW2 1188   3.445   0.112   4.881
   97SOL     OW 1189   2.296   3.504   6.196
   97SOL    HW1 1190   2.205   3.509   6.237
   97SOL    HW2 1191   2.303   3.420   6.142
   98SOL     OW 1192   0.838   3.501   0.866
   98SOL    HW1 1193   0.896   3.461   0.937
   98SOL    HW2 1194   0.876   3.589   0.837
   99SOL     OW 1195   4.005   2.565   1.262
   99SOL    HW1 1196   4.050   2.564   1.173
   99SOL    HW2 1197   3.935   2.636   1.263
  100SOL     OW 1198   0.904   6.348   4.607
  100SOL    HW1 1199   0.906   6.312   4.514
  100SOL    HW2 1200   0.973   6.301   4.662
  101SOL     OW 1201   1.924   4.897   2.413
  101SOL    HW1 1202   1.964   4.958   2.345
  101SOL    HW2 1203   1.854   4.947   2.464
  102SOL     OW 1204   3.553   5.347   1.470
  102SOL    HW1 1205   3.576   5.253   1.495
  102SOL    HW2 1206   3.477   5.378   1.527
  103SOL     OW 1207   2.281   2.043   1.786
  103SOL    HW1 1208   2.318   1.964   1.737
  103SOL    HW2 1209   2.310   2.127   1.741
  104SOL     OW 1210   1.485   5.846   2.891
  104SOL    HW1 1211   1.531   5.934   2.909
  104SOL    HW2 1212   1.389   5.862   2.870
  105SOL     OW 1213   6.799   1.186   6.032
  105SOL    HW1 1214   6.735   1.152   6.101
  105SOL    HW2 1215   6.753   1.255   5.976
  106SOL     OW 1216   3.726   6.287   4.221
  106SOL    HW1 1217   3.821   6.280   4.251
  106SOL    HW2 1218   3.677   6.204   4.248
  107SOL     OW 1219   0.931   0.980   0.735
  107SOL    HW1 1220   0.920   1.034   0.818
  107SOL    HW2 1221   0.940   0.883   0.760
  108SOL     OW 1222   3.284   6.817   5.629
  108SOL    HW1 1223   3.349   6.816   5.704
  108SOL    HW2 1224   3.273   6.910   5.595
  109SOL     OW 1225   1.152   1.200   2.366
  109SOL    HW1 1226   1.134   1.211   2.268
  109SOL    HW2 1227   1.076   1.150   2.408
  110SOL     OW 1228   3.199   5.129   4.260
  110SOL    HW1 1229   3.137   5.177   4.198
  110SOL    HW2 1230   3.156   5.120   4.350
  111SOL     OW 1231   1.682   1.462   4.002
  111SOL    HW1 1232   1.751   1.433   3.936
  111SOL    HW2 1233   1.602   1.496   3.954
  112SOL     OW 1234   2.988   5.844   6.525
  112SOL    HW1 1235   3.025   5.780   6.458
  112SOL    HW2 1236   2.911   5.893   6.485
  113SOL     OW 1237   0.818   5.347   2.425
  113SOL    HW1 1238   0.756   5.360   2.502
  113SOL    HW2 1239   0.834   5.250   2.411
  114SOL     OW 1240   1.172   6.762   2.306
  114SOL    HW1 1241   1.172   6.663   2.295
  114SOL    HW2 1242   1.080   6.797   2.291
  115SOL     OW 1243   4.969   1.026   3.174
  115SOL    HW1 1244   4.904   1.042   3.099
  115SOL    HW2 1245   4.986   0.928   3.183
  116SOL     OW 1246   6.298   5.975   1.650
  116SOL    HW1 1247   6.239   6.033   1.707
  116SOL    HW2 1248   6.379   6.026   1.623
  117SOL     OW 1249   1.513   1.317   1.044
  117SOL    HW1 1250   1.576   1.378   1.093
  117SOL    HW2 1251   1.479   1.246   1.106
  118SOL     OW 1252   1.529   0.792   2.143
  118SOL    HW1 1253   1.564   0.814   2.234
  118SOL    HW2 1254   1.474   0.868   2.109
  119SOL     OW 1255   0.589   0.511   0.035
  119SOL    HW1 1256   0.590   0.566   0.118
  119SOL    HW2 1257   0.677   0.465   0.025
  120SOL     OW 1258   5.790   0.592   6.385
  120SOL    HW1 1259   5.738   0.508   6.395
  120SOL    HW2 1260   5.748   0.650   6.316
  121SOL     OW 1261   1.825   3.106   6.690
  121SOL    HW1 1262   1.873   3.040   6.748
  121SOL    HW2 1263   1.729   3.113   6.718
  122SOL     OW 1264   1.424   3.695   6.643
  122SOL    HW1 1265   1.419   3.601   6.609
  122SOL    HW2 1266   1.501   3.704   6.706
  123SOL     OW 1267   0.876   1.363   2.642
  123SOL    HW1 1268   0.873   1.264   2.627
  123SOL    HW2 1269   0.834   1.385   2.730
  124SOL     OW 1270   3.643   2.638   1.122
  124SOL    HW1 1271   3.644   2.607   1.027
  124SOL    HW2 1272   3.602   2.568   1.180
  125SOL     OW 1273   3.407   2.239   0.139
  125SOL    HW1 1274   3.377   2.272   0.049
  125SOL    HW2 1275   3.331   2.244   0.203
  126SOL     OW 1276   2.700   4.215   1.035
  126SOL    HW1 1277   2.681   4.296   1.091
  126SOL    HW2 1278   2.628   4.148   1.047
  127SOL     OW 1279   0.943   4.467   6.916
  127SOL    HW1 1280   0.960   4.565   6.904
  127SOL    HW2 1281   0.874   4.453   6.987
  128SOL     OW 1282   5.089   2.175   1.450
  128SOL    HW1 1283   5.158   2.130   1.507
  128SOL    HW2 1284   5.132   2.205   1.365
  129SOL     OW 1285   3.307   3.697   6.263
  129SOL    HW1 1286   3.378   3.767   6.263
  129SOL    HW2 1287   3.230   3.727   6.318
  130SOL     OW 1288   1.520   1.836   4.231
  130SOL    HW1 1289   1.564   1.926   4.233
  130SOL    HW2 1290   1.422   1.846   4.250
  131SOL     OW 1291   4.881   0.334   3.421
  131SOL    HW1 1292   4.846   0.303   3.333
  131SOL    HW2 1293   4.824   0.297   3.494
  132SOL     OW 1294   3.046   3.013   1.785
  132SOL    HW1 1295   3.034   2.917   1.758
  132SOL    HW2 1296   3.136   3.044   1.757
  133SOL     OW 1297   5.062   0.879   4.180
  133SOL    HW1 1298   5.076   0.957   4.120
  133SOL    HW2 1299   5.127   0.806   4.157
  134SOL     OW 1300   6.778   1.045   2.348
  134SOL    HW1 1301   6.795   0.950   2.377
  134SOL    HW2 1302   6.709   1.085   2.408
  135SOL     OW 1303   5.590   4.101   3.553
  135SOL    HW1 1304   5.546   4.037   3.615
  135SOL    HW2 1305   5.639   4.051   3.481
  136SOL     OW 1306   1.948   5.449   5.024
  136SOL    HW1 1307   1.894   5.457   5.108
  136SOL    HW2 1308   1.942   5.534   4.972
  137SOL     OW 1309   5.313   1.520   2.848
  137SOL    HW1 1310   5.383   1.512   2.920
  137SOL    HW2 1311   5.276   1.613   2.848
  138SOL     OW 1312   1.072   3.719   2.847
  138SOL    HW1 1313   1.151   3.666   2.878
  138SOL    HW2 1314   1.031   3.766   2.925
  139SOL     OW 1315   1.500   0.091   5.202
  139SOL    HW1 1316   1.579   0.037   5.232
  139SOL    HW2 1317   1.420   0.068   5.257
  140SOL     OW 1318   1.261   6.615   3.897
  140SOL    HW1 1319   1.165   6.623   3.873
  140SOL    HW2 1320   1.275   6.649   3.991
  141SOL     OW 1321   0.036   2.869   4.949
  141SOL    HW1 1322   0.034   2.770   4.957
  141SOL    HW2 1323   0.131   2.900   4.942
  142SOL     OW 1324   1.474   4.554   1.218
  142SOL    HW1 1325   1.572   4.534   1.214
  142SOL    HW2 1326   1.431   4.495   1.287
  143SOL     OW 1327   5.868   4.160   0.379
  143SOL    HW1 1328   5.802   4.087   0.400
  143SOL    HW2 1329   5.866   4.180   0.281
  144SOL     OW 1330   1.222   4.647   5.681
  144SOL    HW1 1331   1.235   4.569   5.620
  144SOL    HW2 1332   1.192   4.615   5.771
  145SOL     OW 1333   0.854   5.269   1.161
  145SOL    HW1 1334   0.755   5.278   1.168
  145SOL    HW2 1335   0.894   5.356   1.133
  146SOL     OW 1336   4.717   0.781   5.858
  146SOL    HW1 1337   4.632   0.787   5.909
  146SOL    HW2 1338   4.711   0.708   5.789
  147SOL     OW 1339   5.365   2.575   6.100
  147SOL    HW1 1340   5.312   2.503   6.144
  147SOL    HW2 1341   5.342   2.580   6.003
  148SOL     OW 1342   0.021   5.621   0.691
  148SOL    HW1 1343   0.099   5.683   0.692
  148SOL    HW2 1344   0.007   5.587   0.598
  149SOL     OW 1345   3.623   2.101   4.144
  149SOL    HW1 1346   3.538   2.153   4.157
  149SOL    HW2 1347   3.621   2.018   4.199
  150SOL     OW 1348   5.924   6.755   0.563
  150SOL    HW1 1349   5.891   6.842   0.527
  150SOL    HW2 1350   5.892   6.680   0.505
  151SOL     OW 1351   3.144   1.473   1.836
  151SOL    HW1 1352   3.125   1.429   1.748
  151SOL    HW2 1353   3.218   1.540   1.825
  152SOL     OW 1354   0.142   0.969   1.507
  152SOL    HW1 1355   0.120   1.062   1.479
  152SOL    HW2 1356   0.146   0.963   1.606
  153SOL     OW 1357   2.902   0.523   3.422
  153SOL    HW1 1358   2.920   0.538   3.324
  153SOL    HW2 1359   2.988   0.527   3.472
  154SOL     OW 1360   0.676   3.580   1.495
  154SOL    HW1 1361   0.703   3.674   1.475
  154SOL    HW2 1362   0.661   3.569   1.593
  155SOL     OW 1363   0.887   1.702   5.191
  155SOL    HW1 1364   0.880   1.664   5.283
  155SOL    HW2 1365   0.833   1.786   5.185
  156SOL     OW 1366   0.158   0.764   1.128
  156SOL    HW1 1367   0.201   0.848   1.162
  156SOL    HW2 1368   0.059   0.780   1.118
  157SOL     OW 1369   5.437   3.089   1.398
  157SOL    HW1 1370   5.449   3.164   1.332
  157SOL    HW2 1371   5.341   3.062   1.400
  158SOL     OW 1372   1.818   3.511   1.728
  158SOL    HW1 1373   1.737   3.502   1.669
  158SOL    HW2 1374   1.876   3.431   1.717
  159SOL     OW 1375   4.691   4.788   2.293
  159SOL    HW1 1376   4.771   4.756   2.343
  159SOL    HW2 1377   4.623   4.714   2.288
  160SOL     OW 1378   5.494   6.232   0.685
  160SOL    HW1 1379   5.547   6.313   0.710
  160SOL    HW2 1380   5.436   6.205   0.761
  161SOL     OW 1381   1.677   6.501   3.259
  161SOL    HW1 1382   1.730   6.552   3.192
  161SOL    HW2 1383   1.737   6.439   3.309
  162SOL     OW 1384   3.568   6.551   0.168
  162SOL    HW1 1385   3.613   6.626   0.120
  162SOL    HW2 1386   3.519   6.587   0.248
  163SOL     OW 1387   6.239   5.202   1.806
  163SOL    HW1 1388   6.168   5.230   1.871
  163SOL    HW2 1389   6.312   5.270   1.805
  164SOL     OW 1390   0.953   4.725   2.517
  164SOL    HW1 1391   0.969   4.696   2.611
  164SOL    HW2 1392   0.978   4.821   2.506
  165SOL     OW 1393   4.461   3.633   1.508
  165SOL    HW1 1394   4.506   3.717   1.540
  165SOL    HW2 1395   4.484   3.618   1.412
  166SOL     OW 1396   1.632   3.443   2.153
  166SOL    HW1 1397   1.535   3.428   2.129
  166SOL    HW2 1398   1.641   3.530   2.202
  167SOL     OW 1399   4.849   3.533   0.085
  167SOL    HW1 1400   4.771   3.472   0.073
  167SOL    HW2 1401   4.855   3.594   0.006
  168SOL     OW 1402   3.333   2.897   1.183
  168SOL    HW1 1403   3.386   2.861   1.260
  168SOL    HW2 1404   3.274   2.825   1.147
  169SOL     OW 1405   5.702   2.002   1.726
  169SOL    HW1 1406   5.616   1.985   1.773
  169SOL    HW2 1407   5.767   2.043   1.791
  170SOL     OW 1408   0.371   6.930   2.523
  170SOL    HW1 1409   0.358   6.884   2.611
  170SOL    HW2 1410   0.446   6.887   2.474
  171SOL     OW 1411   2.149   4.150   6.643
  171SOL    HW1 1412   2.067   4.208   6.650
  171SOL    HW2 1413   2.223   4.202   6.600
  172SOL     OW 1414   6.215   1.369   2.764
  172SOL    HW1 1415   6.309   1.403   2.774
  172SOL    HW2 1416   6.216   1.269   2.763
  173SOL     OW 1417   6.629   1.143   4.105
  173SOL    HW1 1418   6.555   1.199   4.066
  173SOL    HW2 1419   6.714   1.195   4.102
  174SOL     OW 1420   3.919   5.488   3.713
  174SOL    HW1 1421   3.826   5.519   3.693
  174SOL    HW2 1422   3.921   5.442   3.801
  175SOL     OW 1423   3.039   0.044   1.763
  175SOL    HW1 1424   3.008   0.125   1.813
  175SOL    HW2 1425   3.104   0.072   1.693
  176SOL     OW 1426   6.527   4.317   1.017
  176SOL    HW1 1427   6.622   4.302   1.045
  176SOL    HW2 1428   6.521   4.312   0.917
  177SOL     OW 1429   5.733   3.019   3.579
  177SOL    HW1 1430   5.752   3.097   3.519
  177SOL    HW2 1431   5.694   2.945   3.525
  178SOL     OW 1432   3.394   4.058   6.078
  178SOL    HW1 1433   3.328   4.017   6.015
  178SOL    HW2 1434   3.458   3.988   6.110
  179SOL     OW 1435   4.594   1.391   6.018
  179SOL    HW1 1436   4.503   1.418   5.988
  179SOL    HW2 1437   4.627   1.454   6.088
  180SOL     OW 1438   2.303   6.810   0.369
  180SOL    HW1 1439   2.394   6.851   0.360
  180SOL    HW2 1440   2.272   6.780   0.279
  181SOL     OW 1441   3.747   3.554   5.679
  181SOL    HW1 1442   3.842   3.528   5.699
  181SOL    HW2 1443   3.688   3.526   5.755
  182SOL     OW 1444   3.629   2.055   5.443
  182SOL    HW1 1445   3.618   2.107   5.358
  182SOL    HW2 1446   3.545   2.004   5.462
  183SOL     OW 1447   3.501   2.047   3.133
  183SOL    HW1 1448   3.404   2.063   3.153
  183SOL    HW2 1449   3.548   2.017   3.215
  184SOL     OW 1450   1.127   6.580   4.379
  184SOL    HW1 1451   1.101   6.675   4.399
  184SOL    HW2 1452   1.081   6.550   4.295
  185SOL     OW 1453   0.563   0.763   5.840
  185SOL    HW1 1454   0.579   0.812   5.926
  185SOL    HW2 1455   0.527   0.672   5.860
  186SOL     OW 1456   5.927   0.727   3.967
  186SOL    HW1 1457   5.884   0.706   4.055
  186SOL    HW2 1458   6.026   0.712   3.974
  187SOL     OW 1459   5.094   6.561   2.238
  187SOL    HW1 1460   5.148   6.616   2.174
  187SOL    HW2 1461   4.998   6.587   2.231
  188SOL     OW 1462   0.889   3.197   2.975
  188SOL    HW1 1463   0.966   3.261   2.969
  188SOL    HW2 1464   0.878   3.151   2.887
  189SOL     OW 1465   2.548   5.238   1.045
  189SOL    HW1 1466   2.544   5.175   0.967
  189SOL    HW2 1467   2.594   5.193   1.121
  190SOL     OW 1468   5.192   3.145   5.550
  190SOL    HW1 1469   5.241   3.202   5.617
  190SOL    HW2 1470   5.095   3.170   5.550
  191SOL     OW 1471   6.021   0.262   6.550
  191SOL    HW1 1472   6.010   0.342   6.491
  191SOL    HW2 1473   6.067   0.189   6.500
  192SOL     OW 1474   0.671   4.866   2.062
  192SOL    HW1 1475   0.596   4.887   2.126
  192SOL    HW2 1476   0.648   4.783   2.011
  193SOL     OW 1477   4.430   3.661   5.300
  193SOL    HW1 1478   4.337   3.645   5.268
  193SOL    HW2 1479   4.495   3.616   5.239
  194SOL     OW 1480   3.904   0.754   2.950
  194SOL    HW1 1481   3.866   0.844   2.973
  194SOL    HW2 1482   3.979   0.765   2.885
  195SOL     OW 1483   1.836   0.058   4.221
  195SOL    HW1 1484   1.828   0.046   4.319
  195SOL    HW2 1485   1.811   0.152   4.197
  196SOL     OW 1486   3.395   0.746   0.748
  196SOL    HW1 1487   3.375   0.736   0.845
  196SOL    HW2 1488   3.331   0.690   0.694
  197SOL     OW 1489   2.655   0.543   1.359
  197SOL    HW1 1490   2.678   0.459   1.309
  197SOL    HW2 1491   2.710   0.619   1.323
  198SOL     OW 1492   5.199   0.090   1.621
  198SOL    HW1 1493   5.175   0.184   1.596
  198SOL    HW2 1494   5.272   0.092   1.689
  199SOL     OW 1495   6.671   1.451   3.141
  199SOL    HW1 1496   6.578   1.458   3.179
  199SOL    HW2 1497   6.696   1.538   3.098
  200SOL     OW 1498   1.161   4.548   1.845
  200SOL    HW1 1499   1.244   4.502   1.877
  200SOL    HW2 1500   1.085   4.483   1.847
  201SOL     OW 1501   6.572   6.717   6.196
  201SOL    HW1 1502   6.560   6.622   6.167
  201SOL    HW2 1503   6.490   6.769   6.172
  202SOL     OW 1504   4.883   0.468   5.985
  202SOL    HW1 1505   4.966   0.435   5.939
  202SOL    HW2 1506   4.886   0.567   5.994
  203SOL     OW 1507   4.450   2.547   4.404
  203SOL    HW1 1508   4.499   2.463   4.379
  203SOL    HW2 1509   4.445   2.554   4.504
  204SOL     OW 1510   0.523   0.928   6.538
  204SOL    HW1 1511   0.505   0.836   6.505
  204SOL    HW2 1512   0.451   0.990   6.507
  205SOL     OW 1513   0.681   1.138   3.027
  205SOL    HW1 1514   0.694   1.178   3.118
  205SOL    HW2 1515   0.770   1.125   2.983
  206SOL     OW 1516   7.002   5.095   1.601
  206SOL    HW1 1517   0.002   5.010   1.551
  206SOL    HW2 1518   6.937   5.079   1.675
  207SOL     OW 1519   5.279   1.137   3.640
  207SOL    HW1 1520   5.213   1.152   3.566
  207SOL    HW2 1521   5.263   1.047   3.681
  208SOL     OW 1522   5.743   2.491   5.059
  208SOL    HW1 1523   5.670   2.449   5.113
  208SOL    HW2 1524   5.703   2.553   4.992
  209SOL     OW 1525   0.258   4.431   4.392
  209SOL    HW1 1526   0.292   4.378   4.470
  209SOL    HW2 1527   0.293   4.525   4.398
  210SOL     OW 1528   4.079   1.690   0.667
  210SOL    HW1 1529   4.128   1.700   0.753
  210SOL    HW2 1530   3.981   1.679   0.686
  211SOL     OW 1531   2.460   6.009   3.254
  211SOL    HW1 1532   2.367   6.047   3.258
  211SOL    HW2 1533   2.514   6.061   3.188
  212SOL     OW 1534   1.287   4.302   1.567
  212SOL    HW1 1535   1.237   4.261   1.643
  212SOL    HW2 1536   1.241   4.280   1.481
  213SOL     OW 1537   2.923   0.690   6.825
  213SOL    HW1 1538   2.918   0.757   6.752
  213SOL    HW2 1539   2.969   0.608   6.791
  214SOL     OW 1540   4.683   5.234   1.422
  214SOL    HW1 1541   4.720   5.316   1.465
  214SOL    HW2 1542   4.654   5.170   1.493
  215SOL     OW 1543   2.025   3.791   0.875
  215SOL    HW1 1544   2.014   3.692   0.884
  215SOL    HW2 1545   2.068   3.827   0.958
  216SOL     OW 1546   2.327   5.934   4.148
  216SOL    HW1 1547   2.259   5.887   4.204
  216SOL    HW2 1548   2.390   5.984   4.208
  217SOL     OW 1549   1.925   2.390   3.930
  217SOL    HW1 1550   1.926   2.459   3.858
  217SOL    HW2 1551   2.018   2.378   3.966
  218SOL     OW 1552   1.085   3.072   4.244
  218SOL    HW1 1553   1.028   3.152   4.230
  218SOL    HW2 1554   1.030   2.989   4.231
  219SOL     OW 1555   4.350   6.490   5.945
  219SOL    HW1 1556   4.406   6.497   6.028
  219SOL    HW2 1557   4.309   6.399   5.940
  220SOL     OW 1558   3.868   6.814   0.824
  220SOL    HW1 1559   3.800   6.740   0.816
  220SOL    HW2 1560   3.935   6.804   0.750
  221SOL     OW 1561   6.390   2.864   1.490
  221SOL    HW1 1562   6.433   2.945   1.528
  221SOL    HW2 1563   6.402   2.786   1.552
  222SOL     OW 1564   2.747   4.767   5.375
  222SOL    HW1 1565   2.728   4.707   5.297
  222SOL    HW2 1566   2.758   4.713   5.458
  223SOL     OW 1567   5.541   2.642   0.835
  223SOL    HW1 1568   5.458   2.619   0.886
  223SOL    HW2 1569   5.546   2.585   0.752
  224SOL     OW 1570   1.887   2.432   4.869
  224SOL    HW1 1571   1.800   2.420   4.822
  224SOL    HW2 1572   1.939   2.506   4.826
  225SOL     OW 1573   4.667   2.570   6.207
  225SOL    HW1 1574   4.599   2.541   6.140
  225SOL    HW2 1575   4.637   2.546   6.299
  226SOL     OW 1576   1.254   0.758   6.167
  226SOL    HW1 1577   1.270   0.820   6.090
  226SOL    HW2 1578   1.161   0.722   6.162
  227SOL     OW 1579   1.357   3.181   3.190
  227SOL    HW1 1580   1.378   3.116   3.263
  227SOL    HW2 1581   1.280   3.238   3.217
  228SOL     OW 1582   3.110   6.116   3.777
  228SOL    HW1 1583   3.138   6.027   3.813
  228SOL    HW2 1584   3.072   6.105   3.686
  229SOL     OW 1585   4.700   5.878   6.708
  229SOL    HW1 1586   4.758   5.798   6.690
  229SOL    HW2 1587   4.741   5.959   6.667
  230SOL     OW 1588   3.084   5.001   3.319
  230SOL    HW1 1589   3.015   4.928   3.320
  230SOL    HW2 1590   3.158   4.976   3.255
  231SOL     OW 1591   6.065   1.908   6.933
  231SOL    HW1 1592   6.129   1.892   7.008
  231SOL    HW2 1593   6.070   2.004   6.906
  232SOL     OW 1594   1.193   3.809   6.585
  232SOL    HW1 1595   1.265   3.755   6.630
  232SOL    HW2 1596   1.114   3.750   6.567
  233SOL     OW 1597   2.196   2.416   4.007
  233SOL    HW1 1598   2.212   2.349   3.934
  233SOL    HW2 1599   2.183   2.367   4.093
  234SOL     OW 1600   4.251   6.940   5.020
  234SOL    HW1 1601   4.339   6.897   5.036
  234SOL    HW2 1602   4.254   0.019   5.052
  235SOL     OW 1603   3.611   3.092   1.801
  235SOL    HW1 1604   3.632   3.146   1.720
  235SOL    HW2 1605   3.629   2.995   1.783
  236SOL     OW 1606   4.671   3.338   0.152
  236SOL    HW1 1607   4.579   3.368   0.128
  236SOL    HW2 1608   4.701   3.268   0.087
  237SOL     OW 1609   5.881   5.019   1.951
  237SOL    HW1 1610   5.909   5.115   1.953
  237SOL    HW2 1611   5.962   4.961   1.960
  238SOL     OW 1612   5.063   2.250   0.234
  238SOL    HW1 1613   4.981   2.225   0.286
  238SOL    HW2 1614   5.133   2.284   0.297
  239SOL     OW 1615   0.334   5.391   5.688
  239SOL    HW1 1616   0.420   5.345   5.708
  239SOL    HW2 1617   0.271   5.380   5.765
  240SOL     OW 1618   0.382   2.849   3.714
  240SOL    HW1 1619   0.352   2.760   3.748
  240SOL    HW2 1620   0.416   2.840   3.621
  241SOL     OW 1621   1.596   0.349   4.964
  241SOL    HW1 1622   1.501   0.330   4.987
  241SOL    HW2 1623   1.637   0.267   4.922
  242SOL     OW 1624   3.159   3.286   5.275
  242SOL    HW1 1625   3.112   3.232   5.346
  242SOL    HW2 1626   3.142   3.383   5.291
  243SOL     OW 1627   4.241   0.272   5.896
  243SOL    HW1 1628   4.164   0.319   5.853
  243SOL    HW2 1629   4.279   0.330   5.968
  244SOL     OW 1630   5.635   2.121   4.698
  244SOL    HW1 1631   5.590   2.100   4.611
  244SOL    HW2 1632   5.648   2.220   4.705
  245SOL     OW 1633   6.427   3.447   4.529
  245SOL    HW1 1634   6.376   3.502   4.462
  245SOL    HW2 1635   6.519   3.430   4.494
  246SOL     OW 1636   4.688   2.416   3.174
  246SOL    HW1 1637   4.702   2.363   3.090
  246SOL    HW2 1638   4.615   2.483   3.159
  247SOL     OW 1639   2.836   1.704   1.673
  247SOL    HW1 1640   2.929   1.738   1.657
  247SOL    HW2 1641   2.775   1.780   1.690
  248SOL     OW 1642   3.532   2.097   2.606
  248SOL    HW1 1643   3.507   2.102   2.510
  248SOL    HW2 1644   3.572   2.007   2.625
  249SOL     OW 1645   3.870   0.197   5.680
  249SOL    HW1 1646   3.783   0.184   5.632
  249SOL    HW2 1647   3.927   0.116   5.666
  250SOL     OW 1648   4.961   2.717   0.759
  250SOL    HW1 1649   4.878   2.764   0.791
  250SOL    HW2 1650   4.968   2.629   0.805
  251SOL     OW 1651   4.582   3.882   5.350
  251SOL    HW1 1652   4.519   3.806   5.336
  251SOL    HW2 1653   4.662   3.870   5.291
  252SOL     OW 1654   6.624   7.014   6.754
  252SOL    HW1 1655   6.660   6.929   6.791
  252SOL    HW2 1656   6.642   0.003   6.656
  253SOL     OW 1657   2.456   4.613   6.799
  253SOL    HW1 1658   2.536   4.556   6.780
  253SOL    HW2 1659   2.409   4.580   6.881
  254SOL     OW 1660   4.902   3.087   3.247
  254SOL    HW1 1661   4.917   3.085   3.148
  254SOL    HW2 1662   4.807   3.064   3.267
  255SOL     OW 1663   1.982   3.185   4.790
  255SOL    HW1 1664   2.025   3.267   4.753
  255SOL    HW2 1665   2.032   3.155   4.872
  256SOL     OW 1666   6.750   4.213   6.487
  256SOL    HW1 1667   6.831   4.161   6.513
  256SOL    HW2 1668   6.669   4.174   6.532
  257SOL     OW 1669   4.808   6.900   3.802
  257SOL    HW1 1670   4.822   6.838   3.878
  257SOL    HW2 1671   4.837   6.993   3.828
  258SOL     OW 1672   0.673   5.022   4.927
  258SOL    HW1 1673   0.698   5.117   4.946
  258SOL    HW2 1674   0.697   5.000   4.832
  259SOL     OW 1675   1.534   1.916   2.462
  259SOL    HW1 1676   1.629   1.947   2.463
  259SOL    HW2 1677   1.484   1.959   2.537
  260SOL     OW 1678   4.766   0.863   0.783
  260SOL    HW1 1679   4.788   0.896   0.692
  260SOL    HW2 1680   4.727   0.937   0.837
  261SOL     OW 1681   6.381   3.704   0.081
  261SOL    HW1 1682   6.429   3.726   7.012
  261SOL    HW2 1683   6.357   3.789   0.129
  262SOL     OW 1684   6.699   4.392   0.766
  262SOL    HW1 1685   6.710   4.296   0.742
  262SOL    HW2 1686   6.622   4.431   0.715
  263SOL     OW 1687   0.579   1.123   3.583
  263SOL    HW1 1688   0.495   1.127   3.637
  263SOL    HW2 1689   0.562   1.071   3.499
  264SOL     OW 1690   4.830   3.162   6.112
  264SOL    HW1 1691   4.732   3.165   6.129
  264SOL    HW2 1692   4.875   3.107   6.183
  265SOL     OW 1693   4.587   5.476   3.068
  265SOL    HW1 1694   4.652   5.401   3.069
  265SOL    HW2 1695   4.632   5.560   3.037
  266SOL     OW 1696   3.553   3.028   5.544
  266SOL    HW1 1697   3.569   3.126   5.530
  266SOL    HW2 1698   3.598   2.976   5.471
  267SOL     OW 1699   6.832   2.322   6.161
  267SOL    HW1 1700   6.902   2.328   6.090
  267SOL    HW2 1701   6.744   2.349   6.122
  268SOL     OW 1702   4.202   0.177   5.022
  268SOL    HW1 1703   4.259   0.226   4.956
  268SOL    HW2 1704   4.134   0.239   5.060
  269SOL     OW 1705   1.529   3.116   1.124
  269SOL    HW1 1706   1.489   3.073   1.205
  269SOL    HW2 1707   1.567   3.205   1.149
  270SOL     OW 1708   0.200   0.687   0.311
  270SOL    HW1 1709   0.252   0.736   0.381
  270SOL    HW2 1710   0.115   0.737   0.292
  271SOL     OW 1711   1.802   1.696   0.767
  271SOL    HW1 1712   1.780   1.707   0.863
  271SOL    HW2 1713   1.728   1.647   0.721
  272SOL     OW 1714   3.241   4.877   4.142
  272SOL    HW1 1715   3.312   4.867   4.073
  272SOL    HW2 1716   3.240   4.971   4.176
  273SOL     OW 1717   1.995   4.463   4.903
  273SOL    HW1 1718   2.025   4.551   4.867
  273SOL    HW2 1719   2.023   4.390   4.841
  274SOL     OW 1720   4.821   2.132   3.493
  274SOL    HW1 1721   4.821   2.113   3.591
  274SOL    HW2 1722   4.808   2.047   3.443
  275SOL     OW 1723   6.132   4.622   5.743
  275SOL    HW1 1724   6.116   4.687   5.668
  275SOL    HW2 1725   6.226   4.588   5.738
  276SOL     OW 1726   6.959   5.212   2.578
  276SOL    HW1 1727   6.979   5.294   2.524
  276SOL    HW2 1728   6.978   5.230   2.674
  277SOL     OW 1729   1.751   3.695   0.676
  277SOL    HW1 1730   1.675   3.647   0.721
  277SOL    HW2 1731   1.735   3.697   0.578
  278SOL     OW 1732   0.045   5.384   1.548
  278SOL    HW1 1733   0.002   5.294   1.537
  278SOL    HW2 1734   0.015   5.424   1.635
  279SOL     OW 1735   6.147   2.888   4.677
  279SOL    HW1 1736   6.243   2.866   4.661
  279SOL    HW2 1737   6.089   2.821   4.631
  280SOL     OW 1738   2.333   6.549   2.872
  280SOL    HW1 1739   2.261   6.618   2.866
  280SOL    HW2 1740   2.418   6.592   2.903
  281SOL     OW 1741   3.350   4.879   2.336
  281SOL    HW1 1742   3.334   4.790   2.291
  281SOL    HW2 1743   3.263   4.926   2.349
  282SOL     OW 1744   3.507   1.353   5.418
  282SOL    HW1 1745   3.475   1.441   5.454
  282SOL    HW2 1746   3.603   1.360   5.392
  283SOL     OW 1747   6.787   1.250   5.526
  283SOL    HW1 1748   6.754   1.183   5.593
  283SOL    HW2 1749   6.742   1.233   5.438
  284SOL     OW 1750   0.834   4.440   4.635
  284SOL    HW1 1751   0.804   4.536   4.640
  284SOL    HW2 1752   0.932   4.438   4.613
  285SOL     OW 1753   5.678   5.134   6.002
  285SOL    HW1 1754   5.708   5.054   6.054
  285SOL    HW2 1755   5.638   5.104   5.915
  286SOL     OW 1756   3.121   5.427   5.074
  286SOL    HW1 1757   3.180   5.384   5.143
  286SOL    HW2 1758   3.025   5.418   5.102
  287SOL     OW 1759   0.577   4.629   6.921
  287SOL    HW1 1760   0.487   4.606   6.883
  287SOL    HW2 1761   0.614   4.708   6.872
  288SOL     OW 1762   4.129   2.003   6.247
  288SOL    HW1 1763   4.046   1.959   6.214
  288SOL    HW2 1764   4.110   2.099   6.267
  289SOL     OW 1765   7.002   5.256   5.137
  289SOL    HW1 1766   6.916   5.213   5.108
  289SOL    HW2 1767   0.029   5.201   5.208
  290SOL     OW 1768   5.603   1.325   4.364
  290SOL    HW1 1769   5.693   1.318   4.322
  290SOL    HW2 1770   5.549   1.393   4.316
  291SOL     OW 1771   2.457   1.803   4.765
  291SOL    HW1 1772   2.441   1.902   4.765
  291SOL    HW2 1773   2.473   1.772   4.859
  292SOL     OW 1774   2.064   2.079   2.778
  292SOL    HW1 1775   2.094   2.087   2.873
  292SOL    HW2 1776   2.127   2.128   2.718
  293SOL     OW 1777   4.906   4.846   1.758
  293SOL    HW1 1778   4.925   4.871   1.664
  293SOL    HW2 1779   4.811   4.815   1.766
  294SOL     OW 1780   6.481   5.569   6.295
  294SOL    HW1 1781   6.443   5.656   6.328
  294SOL    HW2 1782   6.410   5.518   6.246
  295SOL     OW 1783   3.363   1.580   4.391
  295SOL    HW1 1784   3.462   1.593   4.387
  295SOL    HW2 1785   3.334   1.515   4.321
  296SOL     OW 1786   5.756   1.888   2.019
  296SOL    HW1 1787   5.734   1.886   2.117
  296SOL    HW2 1788   5.782   1.981   1.993
  297SOL     OW 1789   3.072   4.825   2.989
  297SOL    HW1 1790   2.973   4.838   2.982
  297SOL    HW2 1791   3.091   4.731   3.017
  298SOL     OW 1792   3.284   5.686   0.779
  298SOL    HW1 1793   3.374   5.691   0.821
  298SOL    HW2 1794   3.240   5.776   0.785
  299SOL     OW 1795   3.529   3.586   6.128
  299SOL    HW1 1796   3.602   3.586   6.197
  299SOL    HW2 1797   3.447   3.626   6.167
  300SOL     OW 1798   5.675   0.773   2.325
  300SOL    HW1 1799   5.644   0.728   2.409
  300SOL    HW2 1800   5.744   0.715   2.280
  301SOL     OW 1801   5.635   3.131   0.872
  301SOL    HW1 1802   5.626   3.123   0.772
  301SOL    HW2 1803   5.545   3.147   0.912
  302SOL     OW 1804   0.562   1.046   3.327
  302SOL    HW1 1805   0.600   1.136   3.304
  302SOL    HW2 1806   0.628   0.975   3.302
  303SOL     OW 1807   6.512   6.712   1.927
  303SOL    HW1 1808   6.417   6.736   1.905
  303SOL    HW2 1809   6.513   6.637   1.994
  304SOL     OW 1810   1.807   0.243   5.477
  304SOL    HW1 1811   1.813   0.241   5.378
  304SOL    HW2 1812   1.846   0.159   5.515
  305SOL     OW 1813   0.875   3.460   0.444
  305SOL    HW1 1814   0.779   3.435   0.433
  305SOL    HW2 1815   0.925   3.383   0.483
  306SOL     OW 1816   1.894   0.199   3.888
  306SOL    HW1 1817   1.937   0.134   3.825
  306SOL    HW2 1818   1.963   0.240   3.946
  307SOL     OW 1819   4.924   5.887   0.110
  307SOL    HW1 1820   4.936   5.924   0.202
  307SOL    HW2 1821   5.013   5.883   0.064
  308SOL     OW 1822   6.244   3.229   4.562
  308SOL    HW1 1823   6.176   3.269   4.624
  308SOL    HW2 1824   6.316   3.296   4.545
  309SOL     OW 1825   2.664   5.800   7.005
  309SOL    HW1 1826   2.751   5.763   6.973
  309SOL    HW2 1827   2.677   5.895   0.018
  310SOL     OW 1828   6.085   6.532   5.230
  310SOL    HW1 1829   6.143   6.568   5.303
  310SOL    HW2 1830   5.992   6.567   5.240
  311SOL     OW 1831   4.602   4.892   2.718
  311SOL    HW1 1832   4.659   4.921   2.641
  311SOL    HW2 1833   4.530   4.959   2.734
  312SOL     OW 1834   4.418   1.178   4.584
  312SOL    HW1 1835   4.332   1.128   4.585
  312SOL    HW2 1836   4.414   1.252   4.652
  313SOL     OW 1837   3.006   3.797   2.383
  313SOL    HW1 1838   3.019   3.700   2.402
  313SOL    HW2 1839   2.909   3.817   2.372
  314SOL     OW 1840   3.069   5.661   6.932
  314SOL    HW1 1841   3.085   5.619   0.005
  314SOL    HW2 1842   3.132   5.622   6.865
  315SOL     OW 1843   1.330   2.685   4.002
  315SOL    HW1 1844   1.375   2.626   3.935
  315SOL    HW2 1845   1.327   2.779   3.968
  316SOL     OW 1846   3.192   1.673   4.039
  316SOL    HW1 1847   3.256   1.737   4.083
  316SOL    HW2 1848   3.131   1.635   4.108
  317SOL     OW 1849   0.034   1.495   0.686
  317SOL    HW1 1850   0.127   1.532   0.676
  317SOL    HW2 1851   7.002   1.501   0.599
  318SOL     OW 1852   1.106   5.803   6.766
  318SOL    HW1 1853   1.078   5.831   6.674
  318SOL    HW2 1854   1.133   5.884   6.818
  319SOL     OW 1855   6.449   1.111   3.381
  319SOL    HW1 1856   6.379   1.040   3.388
  319SOL    HW2 1857   6.409   1.201   3.400
  320SOL     OW 1858   6.339   2.245   1.365
  320SOL    HW1 1859   6.425   2.277   1.405
  320SOL    HW2 1860   6.337   2.268   1.268
  321SOL     OW 1861   4.014   2.024   6.833
  321SOL    HW1 1862   4.052   2.116   6.833
  321SOL    HW2 1863   4.033   1.980   6.921
  322SOL     OW 1864   3.903   2.991   4.208
  322SOL    HW1 1865   3.840   2.949   4.142
  322SOL    HW2 1866   3.883   2.956   4.299
  323SOL     OW 1867   1.199   2.961   6.530
  323SOL    HW1 1868   1.154   2.988   6.444
  323SOL    HW2 1869   1.222   2.864   6.526
  324SOL     OW 1870   2.654   1.619   4.945
  324SOL    HW1 1871   2.705   1.585   5.025
  324SOL    HW2 1872   2.702   1.696   4.905
  325SOL     OW 1873   0.958   3.065   2.184
  325SOL    HW1 1874   1.006   3.110   2.108
  325SOL    HW2 1875   0.859   3.078   2.172
  326SOL     OW 1876   1.342   5.032   0.094
  326SOL    HW1 1877   1.266   5.090   0.124
  326SOL    HW2 1878   1.308   4.963   0.031
  327SOL     OW 1879   1.592   5.128   3.596
  327SOL    HW1 1880   1.601   5.043   3.545
  327SOL    HW2 1881   1.553   5.108   3.686
  328SOL     OW 1882   1.652   5.588   1.974
  328SOL    HW1 1883   1.562   5.600   2.017
  328SOL    HW2 1884   1.650   5.507   1.915
  329SOL     OW 1885   4.030   3.659   4.593
  329SOL    HW1 1886   4.003   3.576   4.641
  329SOL    HW2 1887   4.070   3.724   4.658
  330SOL     OW 1888   3.895   6.917   1.692
  330SOL    HW1 1889   3.835   6.910   1.771
  330SOL    HW2 1890   3.922   6.826   1.662
  331SOL     OW 1891   3.696   4.949   0.621
  331SOL    HW1 1892   3.739   4.968   0.710
  331SOL    HW2 1893   3.606   4.992   0.618
  332SOL     OW 1894   4.381   1.742   5.168
  332SOL    HW1 1895   4.328   1.659   5.156
  332SOL    HW2 1896   4.468   1.720   5.213
  333SOL     OW 1897   2.939   0.489   6.062
  333SOL    HW1 1898   2.916   0.408   6.007
  333SOL    HW2 1899   2.990   0.554   6.005
  334SOL     OW 1900   3.013   0.495   1.781
  334SOL    HW1 1901   3.113   0.494   1.783
  334SOL    HW2 1902   2.978   0.419   1.835
  335SOL     OW 1903   4.017   0.008   5.555
  335SOL    HW1 1904   4.116   0.009   5.541
  335SOL    HW2 1905   3.984   6.929   5.556
  336SOL     OW 1906   1.667   0.388   3.352
  336SOL    HW1 1907   1.660   0.435   3.264
  336SOL    HW2 1908   1.687   0.454   3.424
  337SOL     OW 1909   0.583   2.771   0.010
  337SOL    HW1 1910   0.536   2.761   0.098
  337SOL    HW2 1911   0.680   2.790   0.025
  338SOL     OW 1912   2.594   2.094   1.507
  338SOL    HW1 1913   2.691   2.083   1.528
  338SOL    HW2 1914   2.571   2.040   1.426
  339SOL     OW 1915   3.009   6.352   3.912
  339SOL    HW1 1916   3.039   6.259   3.888
  339SOL    HW2 1917   2.967   6.394   3.832
  340SOL     OW 1918   4.794   4.535   5.259
  340SOL    HW1 1919   4.700   4.505   5.240
  340SOL    HW2 1920   4.793   4.606   5.329
  341SOL     OW 1921   6.581   0.662   4.719
  341SOL    HW1 1922   6.612   0.687   4.811
  341SOL    HW2 1923   6.555   0.745   4.669
  342SOL     OW 1924   5.818   3.396   6.848
  342SOL    HW1 1925   5.799   3.308   6.807
  342SOL    HW2 1926   5.909   3.428   6.821
  343SOL     OW 1927   2.295   5.784   0.440
  343SOL    HW1 1928   2.280   5.833   0.354
  343SOL    HW2 1929   2.207   5.771   0.487
  344SOL     OW 1930   1.333   4.432   2.003
  344SOL    HW1 1931   1.316   4.359   2.069
  344SOL    HW2 1932   1.338   4.520   2.050
  345SOL     OW 1933   4.899   1.044   3.562
  345SOL    HW1 1934   4.880   0.991   3.644
  345SOL    HW2 1935   4.824   1.033   3.497
  346SOL     OW 1936   2.217   0.790   2.932
  346SOL    HW1 1937   2.279   0.796   3.010
  346SOL    HW2 1938   2.269   0.768   2.850
  347SOL     OW 1939   3.351   5.354   6.366
  347SOL    HW1 1940   3.393   5.267   6.391
  347SOL    HW2 1941   3.367   5.373   6.269
  348SOL     OW 1942   5.436   3.621   2.223
  348SOL    HW1 1943   5.433   3.702   2.283
  348SOL    HW2 1944   5.432   3.538   2.278
  349SOL     OW 1945   6.820   5.141   1.266
  349SOL    HW1 1946   6.873   5.059   1.243
  349SOL    HW2 1947   6.876   5.223   1.249
  350SOL     OW 1948   3.448   3.399   1.241
  350SOL    HW1 1949   3.430   3.473   1.175
  350SOL    HW2 1950   3.431   3.433   1.333
  351SOL     OW 1951   1.931   2.962   0.855
  351SOL    HW1 1952   1.884   2.959   0.767
  351SOL    HW2 1953   2.029   2.953   0.840
  352SOL     OW 1954   2.875   1.259   4.484
  352SOL    HW1 1955   2.935   1.252   4.405
  352SOL    HW2 1956   2.832   1.350   4.487
  353SOL     OW 1957   2.199   6.796   0.635
  353SOL    HW1 1958   2.258   6.867   0.675
  353SOL    HW2 1959   2.222   6.786   0.538
  354SOL     OW 1960   3.430   2.459   0.495
  354SOL    HW1 1961   3.446   2.551   0.459
  354SOL    HW2 1962   3.435   2.460   0.595
  355SOL     OW 1963   1.100   3.870   2.619
  355SOL    HW1 1964   1.173   3.938   2.611
  355SOL    HW2 1965   1.114   3.816   2.702
  356SOL     OW 1966   3.076   0.370   5.812
  356SOL    HW1 1967   3.153   0.425   5.779
  356SOL    HW2 1968   2.993   0.394   5.761
  357SOL     OW 1969   0.436   6.647   5.418
  357SOL    HW1 1970   0.372   6.672   5.346
  357SOL    HW2 1971   0.514   6.599   5.378
  358SOL     OW 1972   4.246   0.396   1.139
  358SOL    HW1 1973   4.228   0.494   1.132
  358SOL    HW2 1974   4.159   0.347   1.139
  359SOL     OW 1975   1.775   2.832   2.098
  359SOL    HW1 1976   1.702   2.799   2.158
  359SOL    HW2 1977   1.860   2.784   2.119
  360SOL     OW 1978   0.864   5.233   6.774
  360SOL    HW1 1979   0.856   5.174   6.853
  360SOL    HW2 1980   0.960   5.241   6.747
  361SOL     OW 1981   5.636   5.823   2.942
  361SOL    HW1 1982   5.564   5.798   3.006
  361SOL    HW2 1983   5.595   5.858   2.858
  362SOL     OW 1984   3.868   3.788   1.733
  362SOL    HW1 1985   3.851   3.875   1.780
  362SOL    HW2 1986   3.781   3.740   1.719
  363SOL     OW 1987   5.398   4.666   3.548
  363SOL    HW1 1988   5.418   4.590   3.610
  363SOL    HW2 1989   5.471   4.733   3.553
  364SOL     OW 1990   5.767   5.629   6.065
  364SOL    HW1 1991   5.689   5.572   6.040
  364SOL    HW2 1992   5.814   5.660   5.982
  365SOL     OW 1993   5.570   5.793   2.233
  365SOL    HW1 1994   5.506   5.856   2.190
  365SOL    HW2 1995   5.554   5.791   2.332
  366SOL     OW 1996   6.585   1.080   6.166
  366SOL    HW1 1997   6.566   1.061   6.262
  366SOL    HW2 1998   6.532   1.161   6.138
  367SOL     OW 1999   4.482   2.929   1.061
  367SOL    HW1 2000   4.479   2.904   1.158
  367SOL    HW2 2001   4.563   2.890   1.019
  368SOL     OW 2002   0.160   3.604   4.780
  368SOL    HW1 2003   0.171   3.703   4.787
  368SOL    HW2 2004   0.175   3.563   4.870
  369SOL     OW 2005   6.414   5.611   1.647
  369SOL    HW1 2006   6.416   5.555   1.564
  369SOL    HW2 2007   6.490   5.675   1.646
  370SOL     OW 2008   2.574   1.237   5.872
  370SOL    HW1 2009   2.617   1.232   5.782
  370SOL    HW2 2010   2.568   1.332   5.901
  371SOL     OW 2011   2.365   3.875   6.176
  371SOL    HW1 2012   2.398   3.783   6.157
  371SOL    HW2 2013   2.269   3.883   6.148
  372SOL     OW 2014   1.515   6.238   6.495
  372SOL    HW1 2015   1.481   6.147   6.471
  372SOL    HW2 2016   1.584   6.266   6.428
  373SOL     OW 2017   6.888   6.623   4.535
  373SOL    HW1 2018   6.801   6.581   4.511
  373SOL    HW2 2019   6.918   6.683   4.461
  374SOL     OW 2020   2.769   1.774   3.046
  374SOL    HW1 2021   2.848   1.717   3.023
  374SOL    HW2 2022   2.706   1.776   2.968
  375SOL     OW 2023   0.991   4.607   3.574
  375SOL    HW1 2024   1.002   4.701   3.542
  375SOL    HW2 2025   0.894   4.585   3.581
  376SOL     OW 2026   2.313   1.559   4.687
  376SOL    HW1 2027   2.230   1.591   4.641
  376SOL    HW2 2028   2.367   1.637   4.717
  377SOL     OW 2029   0.786   2.054   1.432
  377SOL    HW1 2030   0.772   2.049   1.333
  377SOL    HW2 2031   0.762   1.967   1.474
  378SOL     OW 2032   3.343   2.327   5.616
  378SOL    HW1 2033   3.345   2.231   5.643
  378SOL    HW2 2034   3.404   2.342   5.539
  379SOL     OW 2035   6.080   4.149   0.819
  379SOL    HW1 2036   6.041   4.171   0.729
  379SOL    HW2 2037   6.150   4.216   0.842
  380SOL     OW 2038   2.809   1.023   1.127
  380SOL    HW1 2039   2.819   1.073   1.213
  380SOL    HW2 2040   2.827   1.084   1.050
  381SOL     OW 2041   1.672   4.103   2.814
  381SOL    HW1 2042   1.747   4.038   2.810
  381SOL    HW2 2043   1.604   4.072   2.880
  382SOL     OW 2044   5.432   6.446   6.066
  382SOL    HW1 2045   5.371   6.484   6.136
  382SOL    HW2 2046   5.430   6.346   6.071
  383SOL     OW 2047   4.848   3.416   5.982
  383SOL    HW1 2048   4.838   3.321   6.013
  383SOL    HW2 2049   4.810   3.478   6.051
  384SOL     OW 2050   6.673   5.571   4.660
  384SOL    HW1 2051   6.624   5.576   4.573
  384SOL    HW2 2052   6.722   5.657   4.676
  385SOL     OW 2053   4.077   5.882   5.449
  385SOL    HW1 2054   3.981   5.909   5.436
  385SOL    HW2 2055   4.126   5.889   5.362
  386SOL     OW 2056   2.584   6.291   5.692
  386SOL    HW1 2057   2.490   6.326   5.690
  386SOL    HW2 2058   2.586   6.199   5.654
  387SOL     OW 2059   1.065   6.385   3.419
  387SOL    HW1 2060   0.984   6.385   3.360
  387SOL    HW2 2061   1.088   6.480   3.443
  388SOL     OW 2062   1.342   1.932   3.965
  388SOL    HW1 2063   1.275   1.961   4.033
  388SOL    HW2 2064   1.399   2.010   3.938
  389SOL     OW 2065   4.094   4.834   1.353
  389SOL    HW1 2066   4.024   4.826   1.423
  389SOL    HW2 2067   4.056   4.880   1.273
  390SOL     OW 2068   2.905   1.387   0.187
  390SOL    HW1 2069   2.845   1.434   0.122
  390SOL    HW2 2070   2.999   1.419   0.176
  391SOL     OW 2071   1.809   3.444   5.443
  391SOL    HW1 2072   1.716   3.469   5.469
  391SOL    HW2 2073   1.814   3.433   5.344
  392SOL     OW 2074   1.968   4.265   1.644
  392SOL    HW1 2075   1.940   4.322   1.721
  392SOL    HW2 2076   1.887   4.240   1.590
  393SOL     OW 2077   1.236   4.885   6.872
  393SOL    HW1 2078   1.304   4.814   6.850
  393SOL    HW2 2079   1.172   4.893   6.795
  394SOL     OW 2080   6.956   2.939   0.439
  394SOL    HW1 2081   7.012   2.862   0.409
  394SOL    HW2 2082   6.996   3.024   0.406
  395SOL     OW 2083   4.942   4.588   3.211
  395SOL    HW1 2084   4.875   4.514   3.204
  395SOL    HW2 2085   4.960   4.627   3.121
  396SOL     OW 2086   3.012   3.140   2.204
  396SOL    HW1 2087   3.012   3.041   2.214
  396SOL    HW2 2088   2.961   3.165   2.121
  397SOL     OW 2089   5.635   1.216   6.277
  397SOL    HW1 2090   5.576   1.136   6.285
  397SOL    HW2 2091   5.672   1.239   6.367
  398SOL     OW 2092   1.220   6.991   3.650
  398SOL    HW1 2093   1.222   6.934   3.733
  398SOL    HW2 2094   1.176   0.062   3.670
  399SOL     OW 2095   5.337   6.677   4.162
  399SOL    HW1 2096   5.280   6.755   4.188
  399SOL    HW2 2097   5.280   6.606   4.122
  400SOL     OW 2098   6.436   6.727   5.693
  400SOL    HW1 2099   6.454   6.631   5.675
  400SOL    HW2 2100   6.490   6.757   5.771
  401SOL     OW 2101   5.058   0.137   6.712
  401SOL    HW1 2102   5.111   0.060   6.676
  401SOL    HW2 2103   4.996   0.170   6.642
  402SOL     OW 2104   6.715   0.843   3.739
  402SOL    HW1 2105   6.621   0.825   3.766
  402SOL    HW2 2106   6.716   0.902   3.658
  403SOL     OW 2107   4.152   0.994   5.331
  403SOL    HW1 2108   4.224   0.939   5.289
  403SOL    HW2 2109   4.190   1.046   5.407
  404SOL     OW 2110   1.291   4.818   4.008
  404SOL    HW1 2111   1.326   4.832   3.915
  404SOL    HW2 2112   1.274   4.906   4.051
  405SOL     OW 2113   1.940   3.157   3.147
  405SOL    HW1 2114   2.000   3.089   3.106
  405SOL    HW2 2115   1.993   3.237   3.173
  406SOL     OW 2116   0.412   4.067   4.664
  406SOL    HW1 2117   0.455   4.032   4.747
  406SOL    HW2 2118   0.474   4.131   4.618
  407SOL     OW 2119   1.433   2.394   5.433
  407SOL    HW1 2120   1.532   2.400   5.420
  407SOL    HW2 2121   1.387   2.451   5.365
  408SOL     OW 2122   3.371   2.126   3.450
  408SOL    HW1 2123   3.385   2.044   3.506
  408SOL    HW2 2124   3.368   2.206   3.509
  409SOL     OW 2125   6.464   3.102   1.587
  409SOL    HW1 2126   6.520   3.139   1.513
  409SOL    HW2 2127   6.506   3.126   1.675
  410SOL     OW 2128   0.654   1.761   1.285
  410SOL    HW1 2129   0.685   1.666   1.280
  410SOL    HW2 2130   0.567   1.771   1.236
  411SOL     OW 2131   6.333   0.842   1.622
  411SOL    HW1 2132   6.344   0.748   1.591
  411SOL    HW2 2133   6.368   0.851   1.715
  412SOL     OW 2134   3.488   5.102   2.543
  412SOL    HW1 2135   3.480   5.064   2.635
  412SOL    HW2 2136   3.439   5.043   2.478
  413SOL     OW 2137   5.712   4.076   1.682
  413SOL    HW1 2138   5.615   4.090   1.659
  413SOL    HW2 2139   5.768   4.093   1.601
  414SOL     OW 2140   3.466   5.876   3.902
  414SOL    HW1 2141   3.432   5.783   3.884
  414SOL    HW2 2142   3.415   5.941   3.847
  415SOL     OW 2143   0.158   0.583   0.038
  415SOL    HW1 2144   0.187   0.617   0.128
  415SOL    HW2 2145   0.191   0.490   0.025
  416SOL     OW 2146   5.061   5.227   5.259
  416SOL    HW1 2147   5.002   5.226   5.340
  416SOL    HW2 2148   5.007   5.251   5.178
  417SOL     OW 2149   2.053   6.993   5.443
  417SOL    HW1 2150   2.060   6.932   5.364
  417SOL    HW2 2151   2.109   6.957   5.518
  418SOL     OW 2152   3.336   6.554   6.756
  418SOL    HW1 2153   3.338   6.506   6.844
  418SOL    HW2 2154   3.428   6.586   6.734
  419SOL     OW 2155   1.088   6.832   2.799
  419SOL    HW1 2156   1.136   6.824   2.886
  419SOL    HW2 2157   1.149   6.805   2.725
  420SOL     OW 2158   5.706   1.310   6.558
  420SOL    HW1 2159   5.662   1.236   6.610
  420SOL    HW2 2160   5.659   1.396   6.577
  421SOL     OW 2161   5.595   3.919   4.469
  421SOL    HW1 2162   5.646   3.840   4.503
  421SOL    HW2 2163   5.646   4.003   4.487
  422SOL     OW 2164   4.787   3.240   0.879
  422SOL    HW1 2165   4.809   3.324   0.829
  422SOL    HW2 2166   4.799   3.257   0.977
  423SOL     OW 2167   1.488   2.308   6.806
  423SOL    HW1 2168   1.501   2.252   6.725
  423SOL    HW2 2169   1.555   2.283   6.876
  424SOL     OW 2170   1.773   4.734   2.258
  424SOL    HW1 2171   1.816   4.794   2.326
  424SOL    HW2 2172   1.765   4.642   2.296
  425SOL     OW 2173   5.262   1.564   4.123
  425SOL    HW1 2174   5.241   1.638   4.059
  425SOL    HW2 2175   5.187   1.497   4.121
  426SOL     OW 2176   2.743   1.921   4.369
  426SOL    HW1 2177   2.832   1.938   4.411
  426SOL    HW2 2178   2.671   1.929   4.438
  427SOL     OW 2179   6.426   6.780   3.681
  427SOL    HW1 2180   6.344   6.736   3.716
  427SOL    HW2 2181   6.417   6.880   3.690
  428SOL     OW 2182   3.875   0.412   3.470
  428SOL    HW1 2183   3.954   0.442   3.523
  428SOL    HW2 2184   3.859   0.477   3.395
  429SOL     OW 2185   0.289   4.828   3.613
  429SOL    HW1 2186   0.313   4.793   3.703
  429SOL    HW2 2187   0.367   4.819   3.551
  430SOL     OW 2188   1.250   6.446   4.588
  430SOL    HW1 2189   1.214   6.482   4.502
  430SOL    HW2 2190   1.187   6.467   4.662
  431SOL     OW 2191   2.821   0.639   0.688
  431SOL    HW1 2192   2.848   0.543   0.696
  431SOL    HW2 2193   2.770   0.666   0.770
  432SOL     OW 2194   6.426   2.461   0.932
  432SOL    HW1 2195   6.357   2.533   0.926
  432SOL    HW2 2196   6.491   2.470   0.857
  433SOL     OW 2197   2.028   6.675   5.639
  433SOL    HW1 2198   2.027   6.635   5.548
  433SOL    HW2 2199   2.101   6.743   5.645
  434SOL     OW 2200   4.487   6.248   3.662
  434SOL    HW1 2201   4.518   6.324   3.719
  434SOL    HW2 2202   4.446   6.284   3.578
  435SOL     OW 2203   3.873   1.937   5.476
  435SOL    HW1 2204   3.787   1.987   5.486
  435SOL    HW2 2205   3.928   1.948   5.560
  436SOL     OW 2206   2.624   5.565   1.746
  436SOL    HW1 2207   2.648   5.468   1.750
  436SOL    HW2 2208   2.618   5.602   1.839
  437SOL     OW 2209   0.646   1.116   6.273
  437SOL    HW1 2210   0.551   1.120   6.305
  437SOL    HW2 2211   0.681   1.208   6.258
  438SOL     OW 2212   1.344   4.164   3.900
  438SOL    HW1 2213   1.302   4.154   3.991
  438SOL    HW2 2214   1.380   4.076   3.870
  439SOL     OW 2215   5.831   6.400   2.260
  439SOL    HW1 2216   5.764   6.344   2.212
  439SOL    HW2 2217   5.913   6.346   2.276
  440SOL     OW 2218   2.821   1.445   5.944
  440SOL    HW1 2219   2.829   1.382   5.867
  440SOL    HW2 2220   2.878   1.525   5.928
  441SOL     OW 2221   6.429   3.327   3.652
  441SOL    HW1 2222   6.386   3.294   3.567
  441SOL    HW2 2223   6.527   3.311   3.648
  442SOL     OW 2224   4.796   5.623   5.732
  442SOL    HW1 2225   4.774   5.570   5.813
  442SOL    HW2 2226   4.725   5.608   5.663
  443SOL     OW 2227   5.748   3.607   4.376
  443SOL    HW1 2228   5.807   3.665   4.320
  443SOL    HW2 2229   5.763   3.626   4.472
  444SOL     OW 2230   4.747   0.242   5.889
  444SOL    HW1 2231   4.693   0.327   5.890
  444SOL    HW2 2232   4.821   0.250   5.956
  445SOL     OW 2233   2.504   6.185   2.831
  445SOL    HW1 2234   2.523   6.248   2.756
  445SOL    HW2 2235   2.405   6.169   2.836
  446SOL     OW 2236   4.345   5.985   2.401
  446SOL    HW1 2237   4.363   6.057   2.468
  446SOL    HW2 2238   4.295   5.911   2.445
  447SOL     OW 2239   6.414   4.076   5.125
  447SOL    HW1 2240   6.357   4.005   5.167
  447SOL    HW2 2241   6.468   4.036   5.051
  448SOL     OW 2242   2.586   1.070   2.896
  448SOL    HW1 2243   2.614   1.086   2.802
  448SOL    HW2 2244   2.487   1.077   2.903
  449SOL     OW 2245   3.256   1.424   4.189
  449SOL    HW1 2246   3.161   1.403   4.210
  449SOL    HW2 2247   3.265   1.443   4.091
  450SOL     OW 2248   1.867   4.627   3.580
  450SOL    HW1 2249   1.784   4.583   3.544
  450SOL    HW2 2250   1.854   4.650   3.676
  451SOL     OW 2251   1.967   2.381   4.507
  451SOL    HW1 2252   1.903   2.435   4.561
  451SOL    HW2 2253   2.057   2.426   4.508
  452SOL     OW 2254   4.425   6.529   1.660
  452SOL    HW1 2255   4.442   6.627   1.661
  452SOL    HW2 2256   4.503   6.482   1.618
  453SOL     OW 2257   3.385   6.578   6.338
  453SOL    HW1 2258   3.467   6.521   6.330
  453SOL    HW2 2259   3.318   6.531   6.397
  454SOL     OW 2260   0.281   3.569   6.731
  454SOL    HW1 2261   0.317   3.642   6.673
  454SOL    HW2 2262   0.195   3.598   6.771
  455SOL     OW 2263   5.334   2.575   4.921
  455SOL    HW1 2264   5.321   2.500   4.986
  455SOL    HW2 2265   5.432   2.595   4.913
  456SOL     OW 2266   1.122   0.631   4.453
  456SOL    HW1 2267   1.108   0.532   4.442
  456SOL    HW2 2268   1.209   0.646   4.501
  457SOL     OW 2269   2.102   4.022   4.365
  457SOL    HW1 2270   2.171   4.062   4.304
  457SOL    HW2 2271   2.012   4.027   4.321
  458SOL     OW 2272   3.014   0.272   3.112
  458SOL    HW1 2273   3.060   0.200   3.165
  458SOL    HW2 2274   3.037   0.361   3.150
  459SOL     OW 2275   1.586   0.332   5.550
  459SOL    HW1 2276   1.662   0.279   5.510
  459SOL    HW2 2277   1.555   0.400   5.484
  460SOL     OW 2278   1.417   0.399   4.643
  460SOL    HW1 2279   1.397   0.376   4.738
  460SOL    HW2 2280   1.493   0.343   4.610
  461SOL     OW 2281   6.269   4.628   6.141
  461SOL    HW1 2282   6.172   4.622   6.119
  461SOL    HW2 2283   6.305   4.536   6.156
  462SOL     OW 2284   4.023   3.572   5.477
  462SOL    HW1 2285   3.951   3.641   5.464
  462SOL    HW2 2286   3.982   3.485   5.501
  463SOL     OW 2287   0.344   0.399   3.649
  463SOL    HW1 2288   0.387   0.479   3.689
  463SOL    HW2 2289   0.249   0.421   3.625
  464SOL     OW 2290   2.692   0.909   5.728
  464SOL    HW1 2291   2.608   0.961   5.722
  464SOL    HW2 2292   2.684   0.826   5.673
  465SOL     OW 2293   0.274   2.407   0.015
  465SOL    HW1 2294   0.248   2.443   6.942
  465SOL    HW2 2295   0.338   2.330   0.003
  466SOL     OW 2296   2.656   6.276   4.111
  466SOL    HW1 2297   2.595   6.273   4.032
  466SOL    HW2 2298   2.744   6.315   4.084
  467SOL     OW 2299   1.668   1.276   2.098
  467SOL    HW1 2300   1.651   1.319   2.187
  467SOL    HW2 2301   1.760   1.239   2.096
  468SOL     OW 2302   3.944   5.610   5.121
  468SOL    HW1 2303   3.916   5.693   5.073
  468SOL    HW2 2304   4.044   5.608   5.129
  469SOL     OW 2305   3.075   3.676   6.016
  469SOL    HW1 2306   3.123   3.763   6.000
  469SOL    HW2 2307   3.046   3.637   5.929
  470SOL     OW 2308   3.709   6.167   1.524
  470SOL    HW1 2309   3.703   6.103   1.448
  470SOL    HW2 2310   3.625   6.162   1.578
  471SOL     OW 2311   2.853   2.294   4.051
  471SOL    HW1 2312   2.902   2.290   4.138
  471SOL    HW2 2313   2.783   2.365   4.055
  472SOL     OW 2314   5.865   4.390   6.995
  472SOL    HW1 2315   5.774   4.355   6.974
  472SOL    HW2 2316   5.865   4.427   0.072
  473SOL     OW 2317   1.050   1.896   1.981
  473SOL    HW1 2318   1.086   1.806   2.003
  473SOL    HW2 2319   1.008   1.894   1.890
  474SOL     OW 2320   5.405   5.738   5.016
  474SOL    HW1 2321   5.418   5.829   5.054
  474SOL    HW2 2322   5.485   5.682   5.037
  475SOL     OW 2323   6.213   3.007   0.485
  475SOL    HW1 2324   6.119   3.017   0.452
  475SOL    HW2 2325   6.218   2.926   0.544
  476SOL     OW 2326   0.015   3.741   2.040
  476SOL    HW1 2327   0.089   3.686   2.078
  476SOL    HW2 2328   0.037   3.838   2.052
  477SOL     OW 2329   2.601   5.782   3.316
  477SOL    HW1 2330   2.558   5.760   3.403
  477SOL    HW2 2331   2.545   5.847   3.265
  478SOL     OW 2332   3.870   6.364   3.648
  478SOL    HW1 2333   3.778   6.394   3.623
  478SOL    HW2 2334   3.938   6.429   3.614
  479SOL     OW 2335   3.851   3.017   4.994
  479SOL    HW1 2336   3.909   3.033   4.915
  479SOL    HW2 2337   3.755   3.035   4.970
  480SOL     OW 2338   2.935   0.199   1.459
  480SOL    HW1 2339   2.881   0.196   1.543
  480SOL    HW2 2340   3.029   0.170   1.479
  481SOL     OW 2341   0.829   6.563   1.608
  481SOL    HW1 2342   0.774   6.571   1.525
  481SOL    HW2 2343   0.923   6.591   1.588
  482SOL     OW 2344   4.447   5.159   2.412
  482SOL    HW1 2345   4.537   5.115   2.409
  482SOL    HW2 2346   4.379   5.098   2.370
  483SOL     OW 2347   6.844   2.169   2.913
  483SOL    HW1 2348   6.871   2.172   3.009
  483SOL    HW2 2349   6.744   2.166   2.906
  484SOL     OW 2350   1.512   4.318   4.556
  484SOL    HW1 2351   1.504   4.359   4.465
  484SOL    HW2 2352   1.586   4.251   4.556
  485SOL     OW 2353   4.673   5.011   2.447
  485SOL    HW1 2354   4.743   5.062   2.398
  485SOL    HW2 2355   4.664   4.920   2.408
  486SOL     OW 2356   5.941   1.416   6.866
  486SOL    HW1 2357   5.896   1.505   6.865
  486SOL    HW2 2358   5.956   1.384   6.773
  487SOL     OW 2359   1.008   0.809   2.862
  487SOL    HW1 2360   1.067   0.831   2.785
  487SOL    HW2 2361   1.052   0.739   2.920
  488SOL     OW 2362   0.685   6.432   2.053
  488SOL    HW1 2363   0.738   6.498   2.106
  488SOL    HW2 2364   0.731   6.416   1.965
  489SOL     OW 2365   5.807   5.859   5.269
  489SOL    HW1 2366   5.836   5.857   5.364
  489SOL    HW2 2367   5.887   5.871   5.210
  490SOL     OW 2368   1.516   6.047   3.550
  490SOL    HW1 2369   1.597   5.996   3.521
  490SOL    HW2 2370   1.516   6.137   3.507
  491SOL     OW 2371   1.277   3.512   1.027
  491SOL    HW1 2372   1.257   3.515   0.929
  491SOL    HW2 2373   1.342   3.585   1.050
  492SOL     OW 2374   1.408   0.955   5.731
  492SOL    HW1 2375   1.482   0.920   5.673
  492SOL    HW2 2376   1.435   1.043   5.771
  493SOL     OW 2377   2.860   0.150   5.578
  493SOL    HW1 2378   2.896   0.238   5.609
  493SOL    HW2 2379   2.762   0.160   5.558
  494SOL     OW 2380   1.407   0.880   6.608
  494SOL    HW1 2381   1.394   0.843   6.700
  494SOL    HW2 2382   1.504   0.897   6.592
  495SOL     OW 2383   3.429   6.460   3.986
  495SOL    HW1 2384   3.469   6.484   4.075
  495SOL    HW2 2385   3.502   6.437   3.922
  496SOL     OW 2386   6.701   2.316   2.204
  496SOL    HW1 2387   6.669   2.248   2.270
  496SOL    HW2 2388   6.767   2.376   2.249
  497SOL     OW 2389   3.259   1.309   4.532
  497SOL    HW1 2390   3.226   1.392   4.488
  497SOL    HW2 2391   3.219   1.229   4.487
  498SOL     OW 2392   0.852   4.464   2.326
  498SOL    HW1 2393   0.859   4.562   2.345
  498SOL    HW2 2394   0.803   4.420   2.400
  499SOL     OW 2395   1.989   5.423   4.707
  499SOL    HW1 2396   1.976   5.395   4.803
  499SOL    HW2 2397   1.908   5.398   4.655
  500SOL     OW 2398   5.478   2.640   0.076
  500SOL    HW1 2399   5.532   2.556   0.079
  500SOL    HW2 2400   5.520   2.704   0.012
  501SOL     OW 2401   4.304   0.062   1.106
  501SOL    HW1 2402   4.237   0.014   1.162
  501SOL    HW2 2403   4.299   0.029   1.012
  502SOL     OW 2404   0.864   4.466   6.406
  502SOL    HW1 2405   0.959   4.438   6.398
  502SOL    HW2 2406   0.848   4.547   6.349
  503SOL     OW 2407   1.833   4.965   6.192
  503SOL    HW1 2408   1.733   4.972   6.186
  503SOL    HW2 2409   1.867   5.033   6.256
  504SOL     OW 2410   1.317   5.504   1.845
  504SOL    HW1 2411   1.330   5.603   1.848
  504SOL    HW2 2412   1.324   5.473   1.750
  505SOL     OW 2413   4.203   6.536   4.563
  505SOL    HW1 2414   4.118   6.589   4.560
  505SOL    HW2 2415   4.259   6.559   4.483
  506SOL     OW 2416   3.023   6.048   2.273
  506SOL    HW1 2417   2.928   6.055   2.303
  506SOL    HW2 2418   3.064   6.139   2.269
  507SOL     OW 2419   3.682   6.350   2.891
  507SOL    HW1 2420   3.694   6.425   2.956
  507SOL    HW2 2421   3.767   6.336   2.840
  508SOL     OW 2422   0.154   2.697   2.591
  508SOL    HW1 2423   0.243   2.726   2.556
  508SOL    HW2 2424   0.114   2.771   2.645
  509SOL     OW 2425   3.478   1.378   0.634
  509SOL    HW1 2426   3.511   1.308   0.571
  509SOL    HW2 2427   3.443   1.335   0.717
  510SOL     OW 2428   6.543   4.321   6.272
  510SOL    HW1 2429   6.610   4.350   6.340
  510SOL    HW2 2430   6.571   4.232   6.234
  511SOL     OW 2431   0.689   2.532   6.723
  511SOL    HW1 2432   0.599   2.572   6.737
  511SOL    HW2 2433   0.751   2.563   6.796
  512SOL     OW 2434   6.382   2.603   0.042
  512SOL    HW1 2435   6.426   2.514   0.057
  512SOL    HW2 2436   6.452   2.673   0.030
  513SOL     OW 2437   4.971   6.686   2.834
  513SOL    HW1 2438   4.941   6.592   2.817
  513SOL    HW2 2439   5.024   6.719   2.757
  514SOL     OW 2440   6.632   0.412   4.255
  514SOL    HW1 2441   6.545   0.394   4.300
  514SOL    HW2 2442   6.653   0.510   4.260
  515SOL     OW 2443   1.856   0.534   0.336
  515SOL    HW1 2444   1.902   0.568   0.418
  515SOL    HW2 2445   1.767   0.495   0.362
  516SOL     OW 2446   2.551   4.940   2.307
  516SOL    HW1 2447   2.613   4.862   2.308
  516SOL    HW2 2448   2.564   4.993   2.391
  517SOL     OW 2449   3.376   4.516   1.715
  517SOL    HW1 2450   3.465   4.547   1.748
  517SOL    HW2 2451   3.305   4.544   1.780
  518SOL     OW 2452   2.494   2.206   3.415
  518SOL    HW1 2453   2.394   2.207   3.411
  518SOL    HW2 2454   2.531   2.147   3.343
  519SOL     OW 2455   0.418   6.410   3.246
  519SOL    HW1 2456   0.376   6.484   3.301
  519SOL    HW2 2457   0.479   6.450   3.178
  520SOL     OW 2458   0.061   3.539   6.940
  520SOL    HW1 2459   0.012   3.451   6.940
  520SOL    HW2 2460   7.016   3.611   6.973
  521SOL     OW 2461   5.304   5.458   4.917
  521SOL    HW1 2462   5.313   5.556   4.932
  521SOL    HW2 2463   5.359   5.409   4.984
  522SOL     OW 2464   4.136   3.624   2.908
  522SOL    HW1 2465   4.221   3.674   2.931
  522SOL    HW2 2466   4.070   3.636   2.983
  523SOL     OW 2467   0.102   5.784   1.731
  523SOL    HW1 2468   0.172   5.738   1.786
  523SOL    HW2 2469   0.143   5.820   1.648
  524SOL     OW 2470   1.783   2.746   2.560
  524SOL    HW1 2471   1.860   2.797   2.521
  524SOL    HW2 2472   1.698   2.796   2.542
  525SOL     OW 2473   1.863   3.918   6.029
  525SOL    HW1 2474   1.851   4.014   6.004
  525SOL    HW2 2475   1.949   3.884   5.990
  526SOL     OW 2476   3.098   6.472   3.491
  526SOL    HW1 2477   3.162   6.525   3.547
  526SOL    HW2 2478   3.085   6.381   3.530
  527SOL     OW 2479   7.004   2.170   1.059
  527SOL    HW1 2480   0.039   2.119   1.128
  527SOL    HW2 2481   0.047   2.239   1.018
  528SOL     OW 2482   1.879   2.799   4.004
  528SOL    HW1 2483   1.965   2.749   4.009
  528SOL    HW2 2484   1.881   2.876   4.068
  529SOL     OW 2485   1.514   6.751   4.991
  529SOL    HW1 2486   1.513   6.783   4.897
  529SOL    HW2 2487   1.608   6.753   5.026
  530SOL     OW 2488   4.100   3.523   2.650
  530SOL    HW1 2489   4.097   3.426   2.672
  530SOL    HW2 2490   4.113   3.576   2.734
  531SOL     OW 2491   1.314   0.984   2.835
  531SOL    HW1 2492   1.261   0.943   2.760
  531SOL    HW2 2493   1.407   1.003   2.804
  532SOL     OW 2494   1.474   3.188   0.446
  532SOL    HW1 2495   1.426   3.250   0.508
  532SOL    HW2 2496   1.571   3.182   0.472
  533SOL     OW 2497   4.563   0.084   3.437
  533SOL    HW1 2498   4.522   0.166   3.477
  533SOL    HW2 2499   4.615   0.109   3.355
  534SOL     OW 2500   5.755   5.873   2.638
  534SOL    HW1 2501   5.756   5.786   2.686
  534SOL    HW2 2502   5.846   5.894   2.603
  535SOL     OW 2503   0.108   4.199   2.867
  535SOL    HW1 2504   0.206   4.181   2.866
  535SOL    HW2 2505   0.081   4.235   2.777
  536SOL     OW 2506   6.059   4.654   2.367
  536SOL    HW1 2507   6.055   4.625   2.271
  536SOL    HW2 2508   6.146   4.625   2.407
  537SOL     OW 2509   3.592   0.158   4.511
  537SOL    HW1 2510   3.629   0.068   4.487
  537SOL    HW2 2511   3.512   0.146   4.570
  538SOL     OW 2512   0.725   4.439   4.229
  538SOL    HW1 2513   0.707   4.381   4.150
  538SOL    HW2 2514   0.655   4.511   4.235
  539SOL     OW 2515   2.308   4.898   1.906
  539SOL    HW1 2516   2.305   4.968   1.834
  539SOL    HW2 2517   2.216   4.858   1.916
  540SOL     OW 2518   1.548   1.380   3.133
  540SOL    HW1 2519   1.476   1.381   3.064
  540SOL    HW2 2520   1.517   1.329   3.213
  541SOL     OW 2521   4.969   5.545   3.687
  541SOL    HW1 2522   5.044   5.498   3.641
  541SOL    HW2 2523   5.005   5.621   3.742
  542SOL     OW 2524   4.389   6.376   0.066
  542SOL    HW1 2525   4.414   6.411   0.156
  542SOL    HW2 2526   4.293   6.346   0.068
  543SOL     OW 2527   6.232   3.698   3.847
  543SOL    HW1 2528   6.155   3.759   3.863
  543SOL    HW2 2529   6.202   3.617   3.797
  544SOL     OW 2530   0.830   5.066   6.985
  544SOL    HW1 2531   0.823   4.967   6.998
  544SOL    HW2 2532   0.840   5.111   0.059
  545SOL     OW 2533   3.627   0.744   1.589
  545SOL    HW1 2534   3.594   0.780   1.502
  545SOL    HW2 2535   3.589   0.797   1.664
  546SOL     OW 2536   1.386   4.007   1.644
  546SOL    HW1 2537   1.439   4.092   1.648
  546SOL    HW2 2538   1.332   4.005   1.560
  547SOL     OW 2539   3.280   2.334   1.094
  547SOL    HW1 2540   3.204   2.393   1.123
  547SOL    HW2 2541   3.245   2.243   1.072
  548SOL     OW 2542   3.177   3.431   1.677
  548SOL    HW1 2543   3.193   3.337   1.648
  548SOL    HW2 2544   3.121   3.432   1.760
  549SOL     OW 2545   5.499   2.437   1.625
  549SOL    HW1 2546   5.571   2.499   1.656
  549SOL    HW2 2547   5.443   2.409   1.702
  550SOL     OW 2548   1.214   5.619   3.368
  550SOL    HW1 2549   1.140   5.618   3.301
  550SOL    HW2 2550   1.176   5.641   3.459
  551SOL     OW 2551   0.239   0.092   1.490
  551SOL    HW1 2552   0.228   0.130   1.399
  551SOL    HW2 2553   0.257   0.166   1.555
  552SOL     OW 2554   6.049   4.259   6.641
  552SOL    HW1 2555   6.067   4.299   6.731
  552SOL    HW2 2556   5.951   4.249   6.628
  553SOL     OW 2557   2.584   6.696   4.216
  553SOL    HW1 2558   2.571   6.611   4.166
  553SOL    HW2 2559   2.677   6.730   4.202
  554SOL     OW 2560   5.839   0.020   0.464
  554SOL    HW1 2561   5.923   0.073   0.454
  554SOL    HW2 2562   5.809   7.003   0.375
  555SOL     OW 2563   2.967   5.044   5.056
  555SOL    HW1 2564   2.901   4.970   5.058
  555SOL    HW2 2565   3.059   5.008   5.074
  556SOL     OW 2566   4.916   1.675   3.881
  556SOL    HW1 2567   5.009   1.644   3.859
  556SOL    HW2 2568   4.874   1.715   3.800
  557SOL     OW 2569   6.582   5.486   0.318
  557SOL    HW1 2570   6.675   5.521   0.322
  557SOL    HW2 2571   6.531   5.534   0.247
  558SOL     OW 2572   3.560   3.128   3.491
  558SOL    HW1 2573   3.628   3.061   3.522
  558SOL    HW2 2574   3.469   3.102   3.523
  559SOL     OW 2575   7.008   5.511   5.733
  559SOL    HW1 2576   6.910   5.501   5.717
  559SOL    HW2 2577   0.012   5.499   5.830
  560SOL     OW 2578   6.332   3.449   4.009
  560SOL    HW1 2579   6.285   3.393   3.941
  560SOL    HW2 2580   6.264   3.493   4.068
  561SOL     OW 2581   0.477   1.839   1.023
  561SOL    HW1 2582   0.530   1.792   0.952
  561SOL    HW2 2583   0.426   1.915   0.981
  562SOL     OW 2584   4.316   0.484   6.063
  562SOL    HW1 2585   4.273   0.552   6.122
  562SOL    HW2 2586   4.415   0.495   6.066
  563SOL     OW 2587   3.062   1.049   3.951
  563SOL    HW1 2588   3.032   0.960   3.984
  563SOL    HW2 2589   2.996   1.119   3.979
  564SOL     OW 2590   0.932   3.304   6.859
  564SOL    HW1 2591   1.021   3.295   6.816
  564SOL    HW2 2592   0.877   3.223   6.841
  565SOL     OW 2593   3.332   3.827   4.620
  565SOL    HW1 2594   3.320   3.915   4.575
  565SOL    HW2 2595   3.301   3.832   4.714
  566SOL     OW 2596   0.730   3.761   3.175
  566SOL    HW1 2597   0.677   3.822   3.235
  566SOL    HW2 2598   0.763   3.683   3.227
  567SOL     OW 2599   3.043   2.858   1.362
  567SOL    HW1 2600   3.070   2.870   1.266
  567SOL    HW2 2601   3.122   2.874   1.421
  568SOL     OW 2602   4.423   0.152   0.023
  568SOL    HW1 2603   4.469   0.086   0.083
  568SOL    HW2 2604   4.338   0.112   7.005
  569SOL     OW 2605   1.150   3.399   0.289
  569SOL    HW1 2606   1.212   3.370   0.216
  569SOL    HW2 2607   1.070   3.445   0.248
  570SOL     OW 2608   3.635   0.292   6.488
  570SOL    HW1 2609   3.597   0.336   6.569
  570SOL    HW2 2610   3.562   0.249   6.435
  571SOL     OW 2611   3.259   4.964   3.128
  571SOL    HW1 2612   3.302   5.026   3.062
  571SOL    HW2 2613   3.189   4.910   3.081
  572SOL     OW 2614   2.646   5.192   5.209
  572SOL    HW1 2615   2.697   5.179   5.294
  572SOL    HW2 2616   2.616   5.104   5.174
  573SOL     OW 2617   5.679   0.816   5.679
  573SOL    HW1 2618   5.618   0.802   5.601
  573SOL    HW2 2619   5.747   0.885   5.656
  574SOL     OW 2620   3.728   1.443   4.648
  574SOL    HW1 2621   3.646   1.470   4.598
  574SOL    HW2 2622   3.766   1.359   4.608
  575SOL     OW 2623   4.742   3.290   1.637
  575SOL    HW1 2624   4.767   3.355   1.566
  575SOL    HW2 2625   4.693   3.213   1.596
  576SOL     OW 2626   1.497   2.834   3.000
  576SOL    HW1 2627   1.473   2.764   3.068
  576SOL    HW2 2628   1.459   2.808   2.911
  577SOL     OW 2629   1.729   1.159   2.480
  577SOL    HW1 2630   1.662   1.162   2.554
  577SOL    HW2 2631   1.682   1.163   2.392
  578SOL     OW 2632   6.755   5.034   4.806
  578SOL    HW1 2633   6.839   4.980   4.807
  578SOL    HW2 2634   6.757   5.098   4.729
  579SOL     OW 2635   1.783   3.344   3.958
  579SOL    HW1 2636   1.841   3.367   3.880
  579SOL    HW2 2637   1.687   3.339   3.928
  580SOL     OW 2638   4.486   4.996   5.336
  580SOL    HW1 2639   4.438   4.908   5.333
  580SOL    HW2 2640   4.451   5.050   5.412
  581SOL     OW 2641   1.714   2.566   1.912
  581SOL    HW1 2642   1.765   2.523   1.838
  581SOL    HW2 2643   1.689   2.659   1.887
  582SOL     OW 2644   5.107   5.971   2.547
  582SOL    HW1 2645   5.018   6.013   2.528
  582SOL    HW2 2646   5.179   6.039   2.539
  583SOL     OW 2647   2.552   6.580   4.827
  583SOL    HW1 2648   2.610   6.536   4.759
  583SOL    HW2 2649   2.567   6.679   4.826
  584SOL     OW 2650   2.885   6.169   6.826
  584SOL    HW1 2651   2.914   6.083   6.785
  584SOL    HW2 2652   2.954   6.239   6.810
  585SOL     OW 2653   4.679   1.404   6.667
  585SOL    HW1 2654   4.658   1.476   6.733
  585SOL    HW2 2655   4.650   1.315   6.703
  586SOL     OW 2656   3.241   0.052   6.324
  586SOL    HW1 2657   3.287   0.135   6.356
  586SOL    HW2 2658   3.284   6.988   6.366
  587SOL     OW 2659   4.645   2.397   4.242
  587SOL    HW1 2660   4.574   2.428   4.180
  587SOL    HW2 2661   4.632   2.300   4.263
  588SOL     OW 2662   2.365   5.054   1.395
  588SOL    HW1 2663   2.356   4.976   1.458
  588SOL    HW2 2664   2.360   5.139   1.447
  589SOL     OW 2665   3.621   5.088   1.550
  589SOL    HW1 2666   3.666   5.151   1.613
  589SOL    HW2 2667   3.571   5.019   1.602
  590SOL     OW 2668   5.172   2.564   1.778
  590SOL    HW1 2669   5.075   2.538   1.772
  590SOL    HW2 2670   5.215   2.551   1.689
  591SOL     OW 2671   3.573   5.583   3.419
  591SOL    HW1 2672   3.642   5.609   3.351
  591SOL    HW2 2673   3.502   5.654   3.423
  592SOL     OW 2674   4.478   1.105   1.130
  592SOL    HW1 2675   4.415   1.166   1.081
  592SOL    HW2 2676   4.520   1.155   1.206
  593SOL     OW 2677   4.469   2.499   4.070
  593SOL    HW1 2678   4.397   2.454   4.123
  593SOL    HW2 2679   4.437   2.588   4.039
  594SOL     OW 2680   5.585   0.717   0.574
  594SOL    HW1 2681   5.562   0.666   0.657
  594SOL    HW2 2682   5.643   0.796   0.598
  595SOL     OW 2683   5.813   0.312   3.382
  595SOL    HW1 2684   5.795   0.326   3.480
  595SOL    HW2 2685   5.855   0.222   3.369
  596SOL     OW 2686   0.565   5.055   3.638
  596SOL    HW1 2687   0.560   4.974   3.579
  596SOL    HW2 2688   0.476   5.099   3.642
  597SOL     OW 2689   2.187   0.257   6.792
  597SOL    HW1 2690   2.173   0.200   6.873
  597SOL    HW2 2691   2.277   0.236   6.752
  598SOL     OW 2692   4.126   3.809   4.802
  598SOL    HW1 2693   4.210   3.855   4.828
  598SOL    HW2 2694   4.048   3.871   4.814
  599SOL     OW 2695   2.788   6.138   2.881
  599SOL    HW1 2696   2.811   6.189   2.798
  599SOL    HW2 2697   2.689   6.135   2.891
  600SOL     OW 2698   6.186   1.738   6.758
  600SOL    HW1 2699   6.130   1.779   6.830
  600SOL    HW2 2700   6.129   1.717   6.679
  601SOL     OW 2701   1.359   0.826   3.857
  601SOL    HW1 2702   1.438   0.765   3.848
  601SOL    HW2 2703   1.372   0.888   3.934
  602SOL     OW 2704   1.045   0.906   6.489
  602SOL    HW1 2705   0.973   0.893   6.422
  602SOL    HW2 2706   1.014   0.971   6.559
  603SOL     OW 2707   3.020   2.912   5.326
  603SOL    HW1 2708   3.088   2.890   5.256
  603SOL    HW2 2709   2.952   2.839   5.330
  604SOL     OW 2710   0.694   1.823   1.539
  604SOL    HW1 2711   0.670   1.792   1.447
  604SOL    HW2 2712   0.660   1.757   1.606
  605SOL     OW 2713   6.439   5.255   0.031
  605SOL    HW1 2714   6.358   5.297   7.006
  605SOL    HW2 2715   6.512   5.323   0.039
  606SOL     OW 2716   4.948   6.281   5.689
  606SOL    HW1 2717   4.989   6.241   5.606
  606SOL    HW2 2718   4.928   6.208   5.754
  607SOL     OW 2719   6.052   4.975   5.391
  607SOL    HW1 2720   6.045   4.994   5.489
  607SOL    HW2 2721   6.050   5.061   5.340
  608SOL     OW 2722   3.928   6.236   6.427
  608SOL    HW1 2723   4.024   6.210   6.441
  608SOL    HW2 2724   3.873   6.204   6.504
  609SOL     OW 2725   4.014   3.187   2.509
  609SOL    HW1 2726   4.004   3.217   2.604
  609SOL    HW2 2727   3.958   3.106   2.494
  610SOL     OW 2728   6.116   3.621   1.029
  610SOL    HW1 2729   6.184   3.559   1.069
  610SOL    HW2 2730   6.134   3.715   1.058
  611SOL     OW 2731   4.692   0.041   1.835
  611SOL    HW1 2732   4.776   0.059   1.785
  611SOL    HW2 2733   4.613   0.057   1.775
  612SOL     OW 2734   3.832   5.911   4.533
  612SOL    HW1 2735   3.762   5.901   4.604
  612SOL    HW2 2736   3.788   5.932   4.446
  613SOL     OW 2737   4.832   5.434   4.935
  613SOL    HW1 2738   4.765   5.490   4.886
  613SOL    HW2 2739   4.924   5.458   4.904
  614SOL     OW 2740   5.120   5.222   6.634
  614SOL    HW1 2741   5.042   5.273   6.597
  614SOL    HW2 2742   5.198   5.284   6.642
  615SOL     OW 2743   6.946   2.298   1.850
  615SOL    HW1 2744   6.861   2.249   1.867
  615SOL    HW2 2745   0.007   2.235   1.852
  616SOL     OW 2746   0.424   3.528   2.751
  616SOL    HW1 2747   0.447   3.562   2.842
  616SOL    HW2 2748   0.389   3.435   2.758
  617SOL     OW 2749   0.477   4.506   6.092
  617SOL    HW1 2750   0.469   4.445   6.013
  617SOL    HW2 2751   0.385   4.526   6.127
  618SOL     OW 2752   6.899   2.735   0.758
  618SOL    HW1 2753   6.844   2.817   0.741
  618SOL    HW2 2754   6.996   2.759   0.756
  619SOL     OW 2755   4.125   1.379   0.005
  619SOL    HW1 2756   4.090   1.354   0.096
  619SOL    HW2 2757   4.050   1.372   6.954
  620SOL     OW 2758   4.136   2.311   1.732
  620SOL    HW1 2759   4.215   2.364   1.762
  620SOL    HW2 2760   4.081   2.285   1.812
  621SOL     OW 2761   2.510   6.715   6.466
  621SOL    HW1 2762   2.496   6.801   6.514
  621SOL    HW2 2763   2.531   6.643   6.533
  622SOL     OW 2764   1.140   0.497   6.411
  622SOL    HW1 2765   1.226   0.465   6.370
  622SOL    HW2 2766   1.091   0.554   6.346
  623SOL     OW 2767   0.594   5.348   5.634
  623SOL    HW1 2768   0.581   5.366   5.536
  623SOL    HW2 2769   0.669   5.404   5.669
  624SOL     OW 2770   6.894   2.511   0.911
  624SOL    HW1 2771   6.906   2.597   0.862
  624SOL    HW2 2772   6.977   2.457   0.905
  625SOL     OW 2773   2.093   1.103   1.396
  625SOL    HW1 2774   2.191   1.109   1.415
  625SOL    HW2 2775   2.072   1.153   1.312
  626SOL     OW 2776   2.197   5.925   3.496
  626SOL    HW1 2777   2.126   5.901   3.429
  626SOL    HW2 2778   2.207   6.024   3.500
  627SOL     OW 2779   5.048   6.669   0.316
  627SOL    HW1 2780   4.962   6.651   0.364
  627SOL    HW2 2781   5.047   6.622   0.228
  628SOL     OW 2782   6.283   5.454   6.104
  628SOL    HW1 2783   6.261   5.379   6.042
  628SOL    HW2 2784   6.234   5.441   6.190
  629SOL     OW 2785   0.032   6.884   0.191
  629SOL    HW1 2786   0.073   6.926   0.272
  629SOL    HW2 2787   0.105   6.856   0.128
  630SOL     OW 2788   6.548   1.912   2.374
  630SOL    HW1 2789   6.486   1.874   2.442
  630SOL    HW2 2790   6.550   2.012   2.381
  631SOL     OW 2791   3.139   6.664   5.304
  631SOL    HW1 2792   3.171   6.643   5.396
  631SOL    HW2 2793   3.217   6.685   5.245
  632SOL     OW 2794   2.528   1.478   0.368
  632SOL    HW1 2795   2.544   1.519   0.278
  632SOL    HW2 2796   2.430   1.476   0.387
  633SOL     OW 2797   4.838   4.602   6.950
  633SOL    HW1 2798   4.772   4.618   6.877
  633SOL    HW2 2799   4.796   4.548   0.007
  634SOL     OW 2800   4.602   4.449   1.762
  634SOL    HW1 2801   4.561   4.375   1.815
  634SOL    HW2 2802   4.558   4.536   1.788
  635SOL     OW 2803   4.578   4.884   0.797
  635SOL    HW1 2804   4.623   4.972   0.816
  635SOL    HW2 2805   4.496   4.901   0.742
  636SOL     OW 2806   4.269   5.547   6.396
  636SOL    HW1 2807   4.367   5.527   6.399
  636SOL    HW2 2808   4.249   5.624   6.457
  637SOL     OW 2809   6.572   3.551   2.053
  637SOL    HW1 2810   6.663   3.531   2.090
  637SOL    HW2 2811   6.512   3.582   2.127
  638SOL     OW 2812   5.650   2.170   2.562
  638SOL    HW1 2813   5.585   2.238   2.595
  638SOL    HW2 2814   5.742   2.193   2.594
  639SOL     OW 2815   5.561   4.051   2.549
  639SOL    HW1 2816   5.478   4.061   2.494
  639SOL    HW2 2817   5.629   4.117   2.517
  640SOL     OW 2818   0.551   4.963   4.125
  640SOL    HW1 2819   0.631   5.021   4.124
  640SOL    HW2 2820   0.468   5.019   4.119
  641SOL     OW 2821   6.926   6.132   4.655
  641SOL    HW1 2822   6.829   6.110   4.653
  641SOL    HW2 2823   6.940   6.217   4.705
  642SOL     OW 2824   0.295   3.302   4.737
  642SOL    HW1 2825   0.220   3.305   4.803
  642SOL    HW2 2826   0.307   3.392   4.697
  643SOL     OW 2827   4.775   5.300   5.188
  643SOL    HW1 2828   4.756   5.202   5.200
  643SOL    HW2 2829   4.797   5.318   5.092
  644SOL     OW 2830   1.397   5.985   4.402
  644SOL    HW1 2831   1.491   5.970   4.432
  644SOL    HW2 2832   1.350   6.046   4.466
  645SOL     OW 2833   5.171   1.631   4.801
  645SOL    HW1 2834   5.266   1.659   4.808
  645SOL    HW2 2835   5.157   1.548   4.855
  646SOL     OW 2836   3.341   1.363   3.950
  646SOL    HW1 2837   3.418   1.423   3.926
  646SOL    HW2 2838   3.370   1.268   3.947
  647SOL     OW 2839   5.313   1.897   5.152
  647SOL    HW1 2840   5.272   1.844   5.226
  647SOL    HW2 2841   5.380   1.961   5.190
  648SOL     OW 2842   6.812   4.049   4.001
  648SOL    HW1 2843   6.855   4.139   3.999
  648SOL    HW2 2844   6.724   4.055   4.049
  649SOL     OW 2845   3.601   3.901   0.475
  649SOL    HW1 2846   3.685   3.848   0.470
  649SOL    HW2 2847   3.532   3.849   0.525
  650SOL     OW 2848   5.982   4.761   0.800
  650SOL    HW1 2849   5.952   4.854   0.821
  650SOL    HW2 2850   5.943   4.732   0.712
  651SOL     OW 2851   6.601   6.813   6.432
  651SOL    HW1 2852   6.621   6.911   6.434
  651SOL    HW2 2853   6.596   6.783   6.337
  652SOL     OW 2854   5.195   6.486   4.015
  652SOL    HW1 2855   5.280   6.449   3.977
  652SOL    HW2 2856   5.130   6.502   3.941
  653SOL     OW 2857   3.146   6.491   4.650
  653SOL    HW1 2858   3.176   6.400   4.619
  653SOL    HW2 2859   3.190   6.561   4.594
  654SOL     OW 2860   0.375   4.142   5.553
  654SOL    HW1 2861   0.285   4.164   5.591
  654SOL    HW2 2862   0.404   4.052   5.586
  655SOL     OW 2863   1.071   6.554   1.881
  655SOL    HW1 2864   1.010   6.479   1.855
  655SOL    HW2 2865   1.166   6.528   1.862
  656SOL     OW 2866   1.852   6.063   1.797
  656SOL    HW1 2867   1.752   6.056   1.788
  656SOL    HW2 2868   1.894   5.982   1.757
  657SOL     OW 2869   1.377   2.218   1.860
  657SOL    HW1 2870   1.374   2.163   1.943
  657SOL    HW2 2871   1.297   2.198   1.803
  658SOL     OW 2872   2.707   3.488   6.046
  658SOL    HW1 2873   2.723   3.444   5.958
  658SOL    HW2 2874   2.708   3.419   6.119
  659SOL     OW 2875   2.330   5.994   6.075
  659SOL    HW1 2876   2.249   5.938   6.061
  659SOL    HW2 2877   2.412   5.937   6.067
  660SOL     OW 2878   4.949   4.303   2.012
  660SOL    HW1 2879   4.903   4.281   2.097
  660SOL    HW2 2880   4.907   4.252   1.937
  661SOL     OW 2881   4.154   5.874   3.478
  661SOL    HW1 2882   4.092   5.831   3.544
  661SOL    HW2 2883   4.203   5.949   3.523
  662SOL     OW 2884   3.703   0.542   5.513
  662SOL    HW1 2885   3.720   0.444   5.501
  662SOL    HW2 2886   3.750   0.574   5.594
  663SOL     OW 2887   2.400   4.311   6.278
  663SOL    HW1 2888   2.475   4.245   6.270
  663SOL    HW2 2889   2.437   4.403   6.285
  664SOL     OW 2890   6.887   5.628   6.211
  664SOL    HW1 2891   6.850   5.645   6.119
  664SOL    HW2 2892   6.812   5.607   6.274
  665SOL     OW 2893   5.013   5.552   2.026
  665SOL    HW1 2894   5.059   5.496   1.957
  665SOL    HW2 2895   4.917   5.524   2.032
  666SOL     OW 2896   5.400   2.241   2.356
  666SOL    HW1 2897   5.436   2.218   2.446
  666SOL    HW2 2898   5.363   2.159   2.313
  667SOL     OW 2899   1.560   4.874   3.432
  667SOL    HW1 2900   1.573   4.779   3.407
  667SOL    HW2 2901   1.482   4.912   3.382
  668SOL     OW 2902   4.778   6.486   5.766
  668SOL    HW1 2903   4.833   6.567   5.788
  668SOL    HW2 2904   4.836   6.417   5.723
  669SOL     OW 2905   4.175   0.601   2.744
  669SOL    HW1 2906   4.157   0.534   2.672
  669SOL    HW2 2907   4.175   0.555   2.832
  670SOL     OW 2908   3.248   2.539   1.647
  670SOL    HW1 2909   3.263   2.613   1.713
  670SOL    HW2 2910   3.316   2.467   1.661
  671SOL     OW 2911   1.908   6.679   0.597
  671SOL    HW1 2912   2.008   6.683   0.588
  671SOL    HW2 2913   1.873   6.607   0.537
  672SOL     OW 2914   0.361   5.471   2.118
  672SOL    HW1 2915   0.369   5.507   2.211
  672SOL    HW2 2916   0.445   5.422   2.094
  673SOL     OW 2917   6.916   6.771   1.508
  673SOL    HW1 2918   6.945   6.867   1.506
  673SOL    HW2 2919   6.992   6.712   1.481
  674SOL     OW 2920   1.385   1.538   5.057
  674SOL    HW1 2921   1.301   1.559   5.107
  674SOL    HW2 2922   1.464   1.555   5.116
  675SOL     OW 2923   0.457   0.857   2.794
  675SOL    HW1 2924   0.523   0.882   2.723
  675SOL    HW2 2925   0.460   0.926   2.867
  676SOL     OW 2926   3.268   5.774   2.609
  676SOL    HW1 2927   3.363   5.794   2.633
  676SOL    HW2 2928   3.219   5.860   2.594
  677SOL     OW 2929   5.419   1.758   0.714
  677SOL    HW1 2930   5.461   1.827   0.774
  677SOL    HW2 2931   5.340   1.797   0.667
  678SOL     OW 2932   2.587   0.360   5.209
  678SOL    HW1 2933   2.664   0.326   5.156
  678SOL    HW2 2934   2.512   0.384   5.148
  679SOL     OW 2935   4.506   2.293   3.364
  679SOL    HW1 2936   4.561   2.313   3.282
  679SOL    HW2 2937   4.457   2.207   3.351
  680SOL     OW 2938   5.463   5.422   5.164
  680SOL    HW1 2939   5.533   5.486   5.195
  680SOL    HW2 2940   5.388   5.419   5.231
  681SOL     OW 2941   5.015   4.573   1.628
  681SOL    HW1 2942   4.930   4.526   1.602
  681SOL    HW2 2943   5.004   4.610   1.720
  682SOL     OW 2944   6.606   1.259   1.433
  682SOL    HW1 2945   6.606   1.334   1.367
  682SOL    HW2 2946   6.550   1.184   1.398
  683SOL     OW 2947   5.046   3.348   0.400
  683SOL    HW1 2948   4.975   3.298   0.449
  683SOL    HW2 2949   5.007   3.433   0.363
  684SOL     OW 2950   6.472   0.997   0.479
  684SOL    HW1 2951   6.513   1.034   0.395
  684SOL    HW2 2952   6.541   0.946   0.530
  685SOL     OW 2953   4.180   1.561   3.686
  685SOL    HW1 2954   4.186   1.640   3.625
  685SOL    HW2 2955   4.247   1.570   3.760
  686SOL     OW 2956   5.051   2.736   3.792
  686SOL    HW1 2957   4.999   2.720   3.708
  686SOL    HW2 2958   5.098   2.652   3.818
  687SOL     OW 2959   0.379   2.217   4.919
  687SOL    HW1 2960   0.311   2.192   4.850
  687SOL    HW2 2961   0.399   2.315   4.911
  688SOL     OW 2962   0.225   1.693   0.214
  688SOL    HW1 2963   0.273   1.646   0.140
  688SOL    HW2 2964   0.129   1.705   0.190
  689SOL     OW 2965   0.656   5.238   6.288
  689SOL    HW1 2966   0.623   5.163   6.230
  689SOL    HW2 2967   0.666   5.205   6.382
  690SOL     OW 2968   0.318   3.869   2.860
  690SOL    HW1 2969   0.316   3.969   2.849
  690SOL    HW2 2970   0.224   3.836   2.873
  691SOL     OW 2971   2.478   0.299   0.665
  691SOL    HW1 2972   2.533   0.321   0.584
  691SOL    HW2 2973   2.445   0.205   0.658
  692SOL     OW 2974   3.580   0.757   3.717
  692SOL    HW1 2975   3.501   0.706   3.685
  692SOL    HW2 2976   3.590   0.746   3.815
  693SOL     OW 2977   5.496   0.489   4.052
  693SOL    HW1 2978   5.501   0.471   3.954
  693SOL    HW2 2979   5.510   0.404   4.103
  694SOL     OW 2980   4.560   6.574   3.660
  694SOL    HW1 2981   4.526   6.553   3.752
  694SOL    HW2 2982   4.581   6.671   3.654
  695SOL     OW 2983   4.651   6.689   4.000
  695SOL    HW1 2984   4.740   6.645   3.990
  695SOL    HW2 2985   4.579   6.621   3.990
  696SOL     OW 2986   4.910   4.729   2.960
  696SOL    HW1 2987   4.913   4.665   2.882
  696SOL    HW2 2988   4.962   4.811   2.938
  697SOL     OW 2989   1.225   3.908   3.572
  697SOL    HW1 2990   1.220   4.003   3.601
  697SOL    HW2 2991   1.133   3.875   3.550
  698SOL     OW 2992   4.488   6.642   0.842
  698SOL    HW1 2993   4.522   6.558   0.883
  698SOL    HW2 2994   4.389   6.633   0.826
  699SOL     OW 2995   2.280   3.892   6.658
  699SOL    HW1 2996   2.232   3.813   6.696
  699SOL    HW2 2997   2.223   3.974   6.669
  700SOL     OW 2998   2.667   0.625   2.029
  700SOL    HW1 2999   2.685   0.703   2.090
  700SOL    HW2 3000   2.681   0.653   1.934
  701SOL     OW 3001   6.652   3.862   6.575
  701SOL    HW1 3002   6.743   3.859   6.614
  701SOL    HW2 3003   6.655   3.908   6.486
  702SOL     OW 3004   1.501   6.342   5.076
  702SOL    HW1 3005   1.507   6.414   5.144
  702SOL    HW2 3006   1.411   6.298   5.081
  703SOL     OW 3007   3.599   3.422   6.683
  703SOL    HW1 3008   3.553   3.437   6.596
  703SOL    HW2 3009   3.537   3.444   6.758
  704SOL     OW 3010   1.483   2.609   0.196
  704SOL    HW1 3011   1.512   2.589   0.102
  704SOL    HW2 3012   1.401   2.556   0.217
  705SOL     OW 3013   6.030   4.931   2.752
  705SOL    HW1 3014   6.016   4.856   2.817
  705SOL    HW2 3015   6.001   5.017   2.793
  706SOL     OW 3016   4.430   2.361   5.356
  706SOL    HW1 3017   4.500   2.425   5.323
  706SOL    HW2 3018   4.468   2.306   5.430
  707SOL     OW 3019   4.142   4.729   2.901
  707SOL    HW1 3020   4.183   4.793   2.967
  707SOL    HW2 3021   4.086   4.780   2.836
  708SOL     OW 3022   3.812   0.263   2.143
  708SOL    HW1 3023   3.897   0.294   2.101
  708SOL    HW2 3024   3.828   0.176   2.190
  709SOL     OW 3025   0.497   5.840   0.662
  709SOL    HW1 3026   0.580   5.820   0.715
  709SOL    HW2 3027   0.485   5.940   0.656
  710SOL     OW 3028   3.274   2.556   1.388
  710SOL    HW1 3029   3.192   2.567   1.332
  710SOL    HW2 3030   3.250   2.567   1.485
  711SOL     OW 3031   0.008   3.197   5.793
  711SOL    HW1 3032   6.946   3.218   5.852
  711SOL    HW2 3033   0.008   3.260   5.715
  712SOL     OW 3034   4.142   2.101   1.280
  712SOL    HW1 3035   4.167   2.025   1.340
  712SOL    HW2 3036   4.071   2.157   1.323
  713SOL     OW 3037   4.265   2.669   6.233
  713SOL    HW1 3038   4.229   2.667   6.140
  713SOL    HW2 3039   4.200   2.715   6.294
  714SOL     OW 3040   0.222   4.364   3.555
  714SOL    HW1 3041   0.179   4.442   3.509
  714SOL    HW2 3042   0.268   4.307   3.488
  715SOL     OW 3043   4.808   6.151   6.828
  715SOL    HW1 3044   4.723   6.203   6.824
  715SOL    HW2 3045   4.804   6.086   6.903
  716SOL     OW 3046   0.596   1.107   2.395
  716SOL    HW1 3047   0.690   1.110   2.361
  716SOL    HW2 3048   0.533   1.089   2.320
  717SOL     OW 3049   6.538   4.355   3.777
  717SOL    HW1 3050   6.511   4.267   3.815
  717SOL    HW2 3051   6.605   4.398   3.837
  718SOL     OW 3052   4.493   3.540   6.170
  718SOL    HW1 3053   4.460   3.508   6.081
  718SOL    HW2 3054   4.447   3.625   6.194
  719SOL     OW 3055   6.623   0.683   2.811
  719SOL    HW1 3056   6.558   0.666   2.885
  719SOL    HW2 3057   6.712   0.707   2.850
  720SOL     OW 3058   2.395   0.386   5.970
  720SOL    HW1 3059   2.373   0.329   5.891
  720SOL    HW2 3060   2.311   0.421   6.010
  721SOL     OW 3061   2.808   1.995   2.592
  721SOL    HW1 3062   2.748   1.950   2.658
  721SOL    HW2 3063   2.843   1.928   2.527
  722SOL     OW 3064   2.701   0.607   5.264
  722SOL    HW1 3065   2.688   0.511   5.240
  722SOL    HW2 3066   2.653   0.665   5.199
  723SOL     OW 3067   1.543   4.732   3.693
  723SOL    HW1 3068   1.541   4.801   3.621
  723SOL    HW2 3069   1.611   4.756   3.761
  724SOL     OW 3070   1.233   2.164   4.082
  724SOL    HW1 3071   1.329   2.191   4.092
  724SOL    HW2 3072   1.175   2.244   4.096
  725SOL     OW 3073   2.135   5.149   1.734
  725SOL    HW1 3074   2.127   5.192   1.645
  725SOL    HW2 3075   2.044   5.142   1.776
  726SOL     OW 3076   3.579   4.364   1.320
  726SOL    HW1 3077   3.564   4.391   1.225
  726SOL    HW2 3078   3.497   4.384   1.374
  727SOL     OW 3079   6.389   4.551   5.717
  727SOL    HW1 3080   6.442   4.476   5.757
  727SOL    HW2 3081   6.388   4.542   5.618
  728SOL     OW 3082   6.209   2.815   3.417
  728SOL    HW1 3083   6.185   2.904   3.456
  728SOL    HW2 3084   6.151   2.744   3.457
  729SOL     OW 3085   0.474   2.069   1.411
  729SOL    HW1 3086   0.391   2.118   1.438
  729SOL    HW2 3087   0.554   2.112   1.451
  730SOL     OW 3088   6.409   6.778   4.198
  730SOL    HW1 3089   6.319   6.763   4.158
  730SOL    HW2 3090   6.473   6.807   4.126
  731SOL     OW 3091   4.764   5.094   6.477
  731SOL    HW1 3092   4.779   5.131   6.386
  731SOL    HW2 3093   4.774   5.167   6.545
  732SOL     OW 3094   5.340   2.907   1.650
  732SOL    HW1 3095   5.351   3.004   1.631
  732SOL    HW2 3096   5.246   2.879   1.629
  733SOL     OW 3097   5.378   0.188   4.450
  733SOL    HW1 3098   5.332   0.117   4.503
  733SOL    HW2 3099   5.389   0.270   4.505
  734SOL     OW 3100   6.075   4.474   3.023
  734SOL    HW1 3101   6.162   4.469   3.072
  734SOL    HW2 3102   6.007   4.417   3.070
  735SOL     OW 3103   3.915   1.810   0.164
  735SOL    HW1 3104   3.851   1.739   0.135
  735SOL    HW2 3105   3.865   1.894   0.183
  736SOL     OW 3106   0.099   1.881   3.559
  736SOL    HW1 3107   0.162   1.929   3.621
  736SOL    HW2 3108   0.152   1.835   3.488
  737SOL     OW 3109   5.493   2.048   5.314
  737SOL    HW1 3110   5.530   1.995   5.390
  737SOL    HW2 3111   5.443   2.127   5.349
  738SOL     OW 3112   2.913   3.851   1.182
  738SOL    HW1 3113   2.832   3.849   1.124
  738SOL    HW2 3114   2.887   3.835   1.277
  739SOL     OW 3115   5.223   0.885   4.593
  739SOL    HW1 3116   5.238   0.851   4.685
  739SOL    HW2 3117   5.217   0.985   4.595
  740SOL     OW 3118   6.048   1.551   1.662
  740SOL    HW1 3119   6.142   1.559   1.695
  740SOL    HW2 3120   6.046   1.565   1.563
  741SOL     OW 3121   1.603   0.153   3.207
  741SOL    HW1 3122   1.569   0.172   3.299
  741SOL    HW2 3123   1.702   0.142   3.209
  742SOL     OW 3124   2.453   6.646   2.119
  742SOL    HW1 3125   2.492   6.729   2.159
  742SOL    HW2 3126   2.356   6.641   2.138
  743SOL     OW 3127   1.068   5.214   3.436
  743SOL    HW1 3128   1.012   5.196   3.516
  743SOL    HW2 3129   1.110   5.129   3.404
  744SOL     OW 3130   5.783   0.531   1.401
  744SOL    HW1 3131   5.821   0.453   1.350
  744SOL    HW2 3132   5.817   0.616   1.362
  745SOL     OW 3133   1.665   5.396   4.881
  745SOL    HW1 3134   1.639   5.491   4.899
  745SOL    HW2 3135   1.655   5.377   4.783
  746SOL     OW 3136   6.305   4.224   6.553
  746SOL    HW1 3137   6.211   4.216   6.587
  746SOL    HW2 3138   6.331   4.320   6.548
  747SOL     OW 3139   3.603   6.540   4.228
  747SOL    HW1 3140   3.662   6.620   4.238
  747SOL    HW2 3141   3.660   6.459   4.213
  748SOL     OW 3142   4.018   5.137   2.377
  748SOL    HW1 3143   3.955   5.068   2.341
  748SOL    HW2 3144   4.111   5.102   2.373
  749SOL     OW 3145   5.747   3.344   4.246
  749SOL    HW1 3146   5.771   3.430   4.291
  749SOL    HW2 3147   5.786   3.342   4.154
  750SOL     OW 3148   2.739   1.179   1.369
  750SOL    HW1 3149   2.664   1.231   1.327
  750SOL    HW2 3150   2.711   1.083   1.379
  751SOL     OW 3151   4.692   1.664   6.786
  751SOL    HW1 3152   4.742   1.743   6.822
  751SOL    HW2 3153   4.702   1.661   6.687
  752SOL     OW 3154   3.126   1.405   1.440
  752SOL    HW1 3155   3.040   1.452   1.419
  752SOL    HW2 3156   3.202   1.470   1.435
  753SOL     OW 3157   1.140   3.716   5.962
  753SOL    HW1 3158   1.164   3.813   5.957
  753SOL    HW2 3159   1.222   3.662   5.973
  754SOL     OW 3160   4.882   2.042   5.855
  754SOL    HW1 3161   4.943   1.989   5.795
  754SOL    HW2 3162   4.924   2.049   5.946
  755SOL     OW 3163   1.712   4.647   4.677
  755SOL    HW1 3164   1.730   4.639   4.579
  755SOL    HW2 3165   1.798   4.655   4.726
  756SOL     OW 3166   2.891   6.252   6.367
  756SOL    HW1 3167   2.964   6.276   6.304
  756SOL    HW2 3168   2.902   6.301   6.453
  757SOL     OW 3169   0.246   0.006   4.047
  757SOL    HW1 3170   0.335   0.045   4.023
  757SOL    HW2 3171   0.235   0.009   4.147
  758SOL     OW 3172   3.605   0.745   3.083
  758SOL    HW1 3173   3.616   0.650   3.055
  758SOL    HW2 3174   3.532   0.752   3.150
  759SOL     OW 3175   0.832   2.535   2.127
  759SOL    HW1 3176   0.776   2.573   2.053
  759SOL    HW2 3177   0.820   2.589   2.210
  760SOL     OW 3178   6.509   6.393   3.841
  760SOL    HW1 3179   6.411   6.411   3.846
  760SOL    HW2 3180   6.552   6.464   3.785
  761SOL     OW 3181   5.561   3.874   5.986
  761SOL    HW1 3182   5.616   3.916   5.913
  761SOL    HW2 3183   5.513   3.946   6.036
  762SOL     OW 3184   2.473   0.256   4.795
  762SOL    HW1 3185   2.557   0.309   4.780
  762SOL    HW2 3186   2.451   0.205   4.712
  763SOL     OW 3187   3.853   5.742   6.492
  763SOL    HW1 3188   3.783   5.704   6.431
  763SOL    HW2 3189   3.810   5.805   6.557
  764SOL     OW 3190   5.499   0.778   5.486
  764SOL    HW1 3191   5.528   0.789   5.391
  764SOL    HW2 3192   5.410   0.732   5.488
  765SOL     OW 3193   1.550   5.595   1.048
  765SOL    HW1 3194   1.570   5.671   1.110
  765SOL    HW2 3195   1.635   5.551   1.019
  766SOL     OW 3196   2.697   1.946   5.934
  766SOL    HW1 3197   2.797   1.948   5.939
  766SOL    HW2 3198   2.665   2.024   5.879
  767SOL     OW 3199   6.348   5.992   3.398
  767SOL    HW1 3200   6.361   6.025   3.491
  767SOL    HW2 3201   6.436   5.964   3.359
  768SOL     OW 3202   2.215   5.340   2.471
  768SOL    HW1 3203   2.147   5.272   2.498
  768SOL    HW2 3204   2.182   5.391   2.392
  769SOL     OW 3205   2.442   0.989   5.420
  769SOL    HW1 3206   2.436   0.992   5.520
  769SOL    HW2 3207   2.504   0.916   5.393
  770SOL     OW 3208   1.834   5.294   3.522
  770SOL    HW1 3209   1.747   5.244   3.531
  770SOL    HW2 3210   1.860   5.331   3.612
  771SOL     OW 3211   1.265   5.267   2.562
  771SOL    HW1 3212   1.287   5.225   2.650
  771SOL    HW2 3213   1.212   5.350   2.577
  772SOL     OW 3214   5.391   4.980   6.216
  772SOL    HW1 3215   5.328   4.915   6.259
  772SOL    HW2 3216   5.430   5.040   6.286
  773SOL     OW 3217   6.954   4.297   3.975
  773SOL    HW1 3218   0.004   4.314   3.901
  773SOL    HW2 3219   7.001   4.264   4.056
  774SOL     OW 3220   2.016   1.255   1.140
  774SOL    HW1 3221   1.998   1.353   1.141
  774SOL    HW2 3222   2.035   1.226   1.046
  775SOL     OW 3223   2.315   2.167   4.386
  775SOL    HW1 3224   2.291   2.122   4.473
  775SOL    HW2 3225   2.360   2.101   4.326
  776SOL     OW 3226   0.174   0.247   5.295
  776SOL    HW1 3227   0.257   0.230   5.242
  776SOL    HW2 3228   0.100   0.189   5.260
  777SOL     OW 3229   1.481   4.881   1.256
  777SOL    HW1 3230   1.408   4.848   1.316
  777SOL    HW2 3231   1.560   4.820   1.261
  778SOL     OW 3232   2.455   0.323   1.781
  778SOL    HW1 3233   2.504   0.376   1.711
  778SOL    HW2 3234   2.446   0.378   1.864
  779SOL     OW 3235   6.792   2.620   2.668
  779SOL    HW1 3236   6.806   2.535   2.617
  779SOL    HW2 3237   6.744   2.600   2.753
  780SOL     OW 3238   0.851   2.903   4.233
  780SOL    HW1 3239   0.846   2.829   4.166
  780SOL    HW2 3240   0.764   2.953   4.235
  781SOL     OW 3241   6.184   6.666   0.582
  781SOL    HW1 3242   6.089   6.685   0.604
  781SOL    HW2 3243   6.229   6.624   0.661
  782SOL     OW 3244   1.300   3.496   5.911
  782SOL    HW1 3245   1.356   3.505   5.993
  782SOL    HW2 3246   1.307   3.402   5.876
  783SOL     OW 3247   5.179   4.868   1.891
  783SOL    HW1 3248   5.197   4.938   1.821
  783SOL    HW2 3249   5.239   4.789   1.876
  784SOL     OW 3250   4.423   4.939   0.388
  784SOL    HW1 3251   4.345   4.927   0.327
  784SOL    HW2 3252   4.508   4.919   0.339
  785SOL     OW 3253   0.454   2.075   3.329
  785SOL    HW1 3254   0.380   2.108   3.387
  785SOL    HW2 3255   0.419   2.005   3.267
  786SOL     OW 3256   0.748   6.927   3.246
  786SOL    HW1 3257   0.768   7.010   3.195
  786SOL    HW2 3258   0.649   6.920   3.262
  787SOL     OW 3259   1.329   0.402   0.080
  787SOL    HW1 3260   1.419   0.387   0.122
  787SOL    HW2 3261   1.338   0.402   6.996
  788SOL     OW 3262   3.971   1.308   0.247
  788SOL    HW1 3263   3.943   1.386   0.304
  788SOL    HW2 3264   3.895   1.244   0.239
  789SOL     OW 3265   4.132   4.523   1.590
  789SOL    HW1 3266   4.206   4.552   1.651
  789SOL    HW2 3267   4.109   4.597   1.527
  790SOL     OW 3268   1.709   1.795   2.818
  790SOL    HW1 3269   1.722   1.746   2.905
  790SOL    HW2 3270   1.669   1.734   2.750
  791SOL     OW 3271   1.624   5.947   4.545
  791SOL    HW1 3272   1.578   6.003   4.614
  791SOL    HW2 3273   1.704   5.995   4.510
  792SOL     OW 3274   0.700   0.747   1.877
  792SOL    HW1 3275   0.775   0.691   1.841
  792SOL    HW2 3276   0.674   0.815   1.809
  793SOL     OW 3277   5.328   5.290   4.259
  793SOL    HW1 3278   5.427   5.299   4.248
  793SOL    HW2 3279   5.307   5.203   4.304
  794SOL     OW 3280   2.785   3.817   5.907
  794SOL    HW1 3281   2.821   3.760   5.833
  794SOL    HW2 3282   2.765   3.909   5.872
  795SOL     OW 3283   4.033   0.032   4.810
  795SOL    HW1 3284   4.097   0.048   4.735
  795SOL    HW2 3285   4.068   0.075   4.893
  796SOL     OW 3286   1.065   2.254   6.256
  796SOL    HW1 3287   1.083   2.353   6.256
  796SOL    HW2 3288   1.110   2.212   6.177
  797SOL     OW 3289   5.481   1.028   1.133
  797SOL    HW1 3290   5.403   1.079   1.169
  797SOL    HW2 3291   5.561   1.046   1.189
  798SOL     OW 3292   3.222   6.533   1.897
  798SOL    HW1 3293   3.208   6.625   1.860
  798SOL    HW2 3294   3.228   6.538   1.997
  799SOL     OW 3295   0.051   6.770   6.267
  799SOL    HW1 3296   0.130   6.830   6.256
  799SOL    HW2 3297   0.081   6.674   6.267
  800SOL     OW 3298   5.534   1.294   2.379
  800SOL    HW1 3299   5.513   1.224   2.310
  800SOL    HW2 3300   5.595   1.256   2.448
  801SOL     OW 3301   2.285   4.315   4.839
  801SOL    HW1 3302   2.308   4.399   4.791
  801SOL    HW2 3303   2.288   4.238   4.775
  802SOL     OW 3304   3.019   1.576   0.840
  802SOL    HW1 3305   2.936   1.566   0.896
  802SOL    HW2 3306   3.010   1.656   0.782
  803SOL     OW 3307   1.507   0.448   5.980
  803SOL    HW1 3308   1.423   0.414   5.939
  803SOL    HW2 3309   1.499   0.547   5.995
  804SOL     OW 3310   5.792   6.687   0.828
  804SOL    HW1 3311   5.831   6.706   0.737
  804SOL    HW2 3312   5.845   6.616   0.873
  805SOL     OW 3313   2.640   1.263   4.165
  805SOL    HW1 3314   2.549   1.236   4.133
  805SOL    HW2 3315   2.638   1.358   4.195
  806SOL     OW 3316   5.409   0.867   5.005
  806SOL    HW1 3317   5.321   0.828   4.979
  806SOL    HW2 3318   5.461   0.891   4.922
  807SOL     OW 3319   0.420   0.602   5.231
  807SOL    HW1 3320   0.422   0.604   5.331
  807SOL    HW2 3321   0.498   0.549   5.198
  808SOL     OW 3322   3.782   4.142   6.401
  808SOL    HW1 3323   3.730   4.202   6.341
  808SOL    HW2 3324   3.722   4.104   6.471
  809SOL     OW 3325   0.743   5.054   0.827
  809SOL    HW1 3326   0.681   5.114   0.878
  809SOL    HW2 3327   0.838   5.079   0.848
  810SOL     OW 3328   3.631   4.172   0.486
  810SOL    HW1 3329   3.606   4.081   0.521
  810SOL    HW2 3330   3.565   4.199   0.416
  811SOL     OW 3331   5.398   6.332   5.393
  811SOL    HW1 3332   5.322   6.391   5.365
  811SOL    HW2 3333   5.371   6.236   5.384
  812SOL     OW 3334   6.921   0.617   2.846
  812SOL    HW1 3335   6.897   0.581   2.937
  812SOL    HW2 3336   6.969   0.704   2.855
  813SOL     OW 3337   4.018   6.574   4.212
  813SOL    HW1 3338   3.999   6.654   4.268
  813SOL    HW2 3339   3.984   6.589   4.119
  814SOL     OW 3340   6.132   5.747   2.676
  814SOL    HW1 3341   6.097   5.805   2.603
  814SOL    HW2 3342   6.166   5.661   2.637
  815SOL     OW 3343   6.700   3.530   3.368
  815SOL    HW1 3344   6.657   3.580   3.443
  815SOL    HW2 3345   6.782   3.578   3.338
  816SOL     OW 3346   6.007   5.897   0.634
  816SOL    HW1 3347   6.075   5.960   0.669
  816SOL    HW2 3348   5.939   5.877   0.705
  817SOL     OW 3349   1.214   5.667   1.450
  817SOL    HW1 3350   1.127   5.715   1.447
  817SOL    HW2 3351   1.242   5.642   1.357
  818SOL     OW 3352   6.108   2.385   3.512
  818SOL    HW1 3353   6.161   2.351   3.589
  818SOL    HW2 3354   6.087   2.482   3.527
  819SOL     OW 3355   5.962   2.955   1.612
  819SOL    HW1 3356   5.924   2.905   1.690
  819SOL    HW2 3357   5.889   2.978   1.548
  820SOL     OW 3358   3.158   2.113   4.798
  820SOL    HW1 3359   3.165   2.172   4.878
  820SOL    HW2 3360   3.073   2.060   4.803
  821SOL     OW 3361   6.856   4.087   6.941
  821SOL    HW1 3362   6.947   4.109   6.905
  821SOL    HW2 3363   6.821   4.165   6.993
  822SOL     OW 3364   0.456   3.770   3.566
  822SOL    HW1 3365   0.390   3.705   3.529
  822SOL    HW2 3366   0.518   3.722   3.628
  823SOL     OW 3367   6.279   4.348   6.230
  823SOL    HW1 3368   6.226   4.269   6.260
  823SOL    HW2 3369   6.376   4.331   6.247
  824SOL     OW 3370   4.140   0.962   6.059
  824SOL    HW1 3371   4.197   0.942   6.139
  824SOL    HW2 3372   4.045   0.972   6.087
  825SOL     OW 3373   0.081   5.888   1.253
  825SOL    HW1 3374   0.072   5.792   1.280
  825SOL    HW2 3375   0.007   5.941   1.295
  826SOL     OW 3376   3.638   1.841   5.918
  826SOL    HW1 3377   3.647   1.937   5.893
  826SOL    HW2 3378   3.591   1.834   6.006
  827SOL     OW 3379   2.605   4.264   5.500
  827SOL    HW1 3380   2.509   4.271   5.472
  827SOL    HW2 3381   2.614   4.287   5.596
  828SOL     OW 3382   5.219   6.403   6.391
  828SOL    HW1 3383   5.278   6.475   6.354
  828SOL    HW2 3384   5.153   6.375   6.322
  829SOL     OW 3385   4.102   3.621   2.229
  829SOL    HW1 3386   4.114   3.544   2.292
  829SOL    HW2 3387   4.070   3.701   2.280
  830SOL     OW 3388   5.423   5.220   6.877
  830SOL    HW1 3389   5.433   5.207   6.975
  830SOL    HW2 3390   5.512   5.207   6.832
  831SOL     OW 3391   6.174   6.872   0.038
  831SOL    HW1 3392   6.260   6.828   0.013
  831SOL    HW2 3393   6.128   6.819   0.109
  832SOL     OW 3394   4.228   1.255   2.460
  832SOL    HW1 3395   4.212   1.346   2.498
  832SOL    HW2 3396   4.165   1.190   2.502
  833SOL     OW 3397   1.649   3.450   6.388
  833SOL    HW1 3398   1.666   3.549   6.390
  833SOL    HW2 3399   1.718   3.404   6.444
  834SOL     OW 3400   4.423   3.963   1.067
  834SOL    HW1 3401   4.421   4.016   0.983
  834SOL    HW2 3402   4.329   3.941   1.095
  835SOL     OW 3403   3.304   0.482   5.699
  835SOL    HW1 3404   3.331   0.576   5.721
  835SOL    HW2 3405   3.383   0.421   5.708
  836SOL     OW 3406   3.744   0.124   5.015
  836SOL    HW1 3407   3.738   0.222   5.035
  836SOL    HW2 3408   3.653   0.089   4.993
  837SOL     OW 3409   6.696   0.029   1.084
  837SOL    HW1 3410   6.770   0.044   1.149
  837SOL    HW2 3411   6.707   0.091   1.006
  838SOL     OW 3412   2.204   0.370   4.552
  838SOL    HW1 3413   2.221   0.291   4.610
  838SOL    HW2 3414   2.229   0.349   4.458
  839SOL     OW 3415   1.774   1.489   1.914
  839SOL    HW1 3416   1.854   1.430   1.907
  839SOL    HW2 3417   1.693   1.440   1.882
  840SOL     OW 3418   6.158   6.254   6.780
  840SOL    HW1 3419   6.177   6.235   6.877
  840SOL    HW2 3420   6.136   6.351   6.769
  841SOL     OW 3421   3.172   5.187   6.017
  841SOL    HW1 3422   3.248   5.251   6.027
  841SOL    HW2 3423   3.090   5.237   5.988
  842SOL     OW 3424   3.527   0.297   5.257
  842SOL    HW1 3425   3.499   0.201   5.264
  842SOL    HW2 3426   3.495   0.335   5.170
  843SOL     OW 3427   0.872   1.478   1.473
  843SOL    HW1 3428   0.946   1.536   1.438
  843SOL    HW2 3429   0.796   1.479   1.408
  844SOL     OW 3430   6.059   0.057   6.894
  844SOL    HW1 3431   6.110   6.993   6.928
  844SOL    HW2 3432   6.092   0.081   6.803
  845SOL     OW 3433   4.876   3.641   3.612
  845SOL    HW1 3434   4.876   3.546   3.579
  845SOL    HW2 3435   4.802   3.652   3.680
  846SOL     OW 3436   2.145   1.034   5.737
  846SOL    HW1 3437   2.195   0.975   5.801
  846SOL    HW2 3438   2.156   1.129   5.763
  847SOL     OW 3439   1.475   3.698   1.065
  847SOL    HW1 3440   1.571   3.684   1.088
  847SOL    HW2 3441   1.450   3.793   1.082
  848SOL     OW 3442   6.850   6.789   6.107
  848SOL    HW1 3443   6.757   6.781   6.144
  848SOL    HW2 3444   6.916   6.773   6.181
  849SOL     OW 3445   6.541   4.104   6.641
  849SOL    HW1 3446   6.530   4.011   6.676
  849SOL    HW2 3447   6.451   4.143   6.623
  850SOL     OW 3448   5.137   1.203   4.564
  850SOL    HW1 3449   5.212   1.220   4.628
  850SOL    HW2 3450   5.083   1.287   4.554
  851SOL     OW 3451   0.166   2.799   1.183
  851SOL    HW1 3452   0.158   2.891   1.144
  851SOL    HW2 3453   0.078   2.752   1.177
  852SOL     OW 3454   1.068   4.061   0.531
  852SOL    HW1 3455   0.976   4.099   0.533
  852SOL    HW2 3456   1.069   3.978   0.474
  853SOL     OW 3457   0.917   4.766   1.181
  853SOL    HW1 3458   0.990   4.711   1.220
  853SOL    HW2 3459   0.932   4.863   1.201
  854SOL     OW 3460   5.193   5.294   0.655
  854SOL    HW1 3461   5.256   5.287   0.578
  854SOL    HW2 3462   5.197   5.210   0.709
  855SOL     OW 3463   6.872   0.380   1.815
  855SOL    HW1 3464   6.932   0.455   1.787
  855SOL    HW2 3465   6.783   0.416   1.841
  856SOL     OW 3466   1.158   1.921   6.830
  856SOL    HW1 3467   1.160   2.002   6.887
  856SOL    HW2 3468   1.063   1.897   6.807
  857SOL     OW 3469   6.086   4.848   1.993
  857SOL    HW1 3470   6.174   4.856   1.945
  857SOL    HW2 3471   6.054   4.753   1.987
  858SOL     OW 3472   3.207   4.162   1.039
  858SOL    HW1 3473   3.211   4.244   0.982
  858SOL    HW2 3474   3.120   4.114   1.024
  859SOL     OW 3475   5.945   0.014   5.050
  859SOL    HW1 3476   5.894   6.996   4.971
  859SOL    HW2 3477   5.931   6.968   5.128
  860SOL     OW 3478   6.541   2.855   0.516
  860SOL    HW1 3479   6.531   2.806   0.602
  860SOL    HW2 3480   6.563   2.951   0.535
  861SOL     OW 3481   2.614   5.269   4.009
  861SOL    HW1 3482   2.646   5.359   3.978
  861SOL    HW2 3483   2.688   5.223   4.059
  862SOL     OW 3484   1.264   4.161   3.653
  862SOL    HW1 3485   1.186   4.220   3.632
  862SOL    HW2 3486   1.297   4.182   3.745
  863SOL     OW 3487   5.943   0.998   0.034
  863SOL    HW1 3488   5.924   0.970   6.956
  863SOL    HW2 3489   6.023   0.948   0.068
  864SOL     OW 3490   4.036   5.403   4.088
  864SOL    HW1 3491   4.047   5.434   4.183
  864SOL    HW2 3492   4.034   5.303   4.086
  865SOL     OW 3493   1.407   6.419   6.183
  865SOL    HW1 3494   1.506   6.432   6.185
  865SOL    HW2 3495   1.385   6.323   6.201
  866SOL     OW 3496   2.517   1.285   1.247
  866SOL    HW1 3497   2.521   1.374   1.202
  866SOL    HW2 3498   2.506   1.213   1.179
  867SOL     OW 3499   5.300   3.842   0.261
  867SOL    HW1 3500   5.257   3.752   0.255
  867SOL    HW2 3501   5.383   3.835   0.316
  868SOL     OW 3502   6.228   1.186   0.829
  868SOL    HW1 3503   6.156   1.122   0.804
  868SOL    HW2 3504   6.192   1.256   0.890
  869SOL     OW 3505   0.262   4.385   3.074
  869SOL    HW1 3506   0.344   4.424   3.033
  869SOL    HW2 3507   0.185   4.448   3.061
  870SOL     OW 3508   3.760   3.423   0.155
  870SOL    HW1 3509   3.820   3.486   0.105
  870SOL    HW2 3510   3.774   3.434   0.253
  871SOL     OW 3511   4.981   2.423   2.888
  871SOL    HW1 3512   4.926   2.357   2.939
  871SOL    HW2 3513   5.036   2.477   2.951
  872SOL     OW 3514   5.646   3.196   3.793
  872SOL    HW1 3515   5.573   3.171   3.857
  872SOL    HW2 3516   5.646   3.134   3.716
  873SOL     OW 3517   6.039   6.247   5.232
  873SOL    HW1 3518   6.045   6.344   5.209
  873SOL    HW2 3519   6.113   6.198   5.186
  874SOL     OW 3520   0.331   3.785   6.272
  874SOL    HW1 3521   0.291   3.876   6.288
  874SOL    HW2 3522   0.412   3.774   6.328
  875SOL     OW 3523   5.230   4.444   0.522
  875SOL    HW1 3524   5.240   4.471   0.426
  875SOL    HW2 3525   5.133   4.447   0.546
  876SOL     OW 3526   1.101   4.571   2.228
  876SOL    HW1 3527   1.032   4.639   2.201
  876SOL    HW2 3528   1.186   4.589   2.180
  877SOL     OW 3529   3.758   4.651   5.746
  877SOL    HW1 3530   3.729   4.680   5.655
  877SOL    HW2 3531   3.827   4.579   5.738
  878SOL     OW 3532   3.919   6.019   4.764
  878SOL    HW1 3533   3.895   5.969   4.681
  878SOL    HW2 3534   3.850   6.088   4.784
  879SOL     OW 3535   3.921   1.825   1.138
  879SOL    HW1 3536   3.919   1.910   1.191
  879SOL    HW2 3537   3.855   1.760   1.177
  880SOL     OW 3538   2.869   3.675   4.788
  880SOL    HW1 3539   2.896   3.732   4.709
  880SOL    HW2 3540   2.775   3.643   4.775
  881SOL     OW 3541   5.807   3.631   5.755
  881SOL    HW1 3542   5.861   3.671   5.681
  881SOL    HW2 3543   5.720   3.599   5.718
  882SOL     OW 3544   1.213   2.576   4.233
  882SOL    HW1 3545   1.147   2.637   4.278
  882SOL    HW2 3546   1.249   2.621   4.152
  883SOL     OW 3547   3.830   0.633   0.314
  883SOL    HW1 3548   3.762   0.704   0.293
  883SOL    HW2 3549   3.920   0.676   0.326
  884SOL     OW 3550   7.011   4.474   6.956
  884SOL    HW1 3551   6.982   4.509   0.029
  884SOL    HW2 3552   6.963   4.388   6.937
  885SOL     OW 3553   4.168   6.629   5.316
  885SOL    HW1 3554   4.151   6.605   5.220
  885SOL    HW2 3555   4.140   6.723   5.333
  886SOL     OW 3556   4.385   0.529   0.698
  886SOL    HW1 3557   4.367   0.594   0.773
  886SOL    HW2 3558   4.364   0.436   0.729
  887SOL     OW 3559   3.961   5.748   3.607
  887SOL    HW1 3560   3.950   5.674   3.673
  887SOL    HW2 3561   3.880   5.806   3.607
  888SOL     OW 3562   6.806   6.289   3.168
  888SOL    HW1 3563   6.722   6.342   3.181
  888SOL    HW2 3564   6.884   6.338   3.208
  889SOL     OW 3565   6.820   1.336   6.450
  889SOL    HW1 3566   6.800   1.397   6.526
  889SOL    HW2 3567   6.770   1.367   6.369
  890SOL     OW 3568   2.880   5.171   2.795
  890SOL    HW1 3569   2.802   5.218   2.838
  890SOL    HW2 3570   2.872   5.073   2.812
  891SOL     OW 3571   6.581   3.498   0.573
  891SOL    HW1 3572   6.587   3.597   0.561
  891SOL    HW2 3573   6.485   3.470   0.566
  892SOL     OW 3574   3.597   3.089   4.897
  892SOL    HW1 3575   3.564   3.153   4.967
  892SOL    HW2 3576   3.520   3.037   4.860
  893SOL     OW 3577   1.915   6.702   2.546
  893SOL    HW1 3578   1.815   6.695   2.556
  893SOL    HW2 3579   1.936   6.743   2.457
  894SOL     OW 3580   1.336   2.597   2.942
  894SOL    HW1 3581   1.279   2.574   2.863
  894SOL    HW2 3582   1.278   2.618   3.020
  895SOL     OW 3583   1.086   5.111   3.926
  895SOL    HW1 3584   1.023   5.034   3.919
  895SOL    HW2 3585   1.046   5.191   3.882
  896SOL     OW 3586   6.014   5.292   1.316
  896SOL    HW1 3587   6.023   5.272   1.414
  896SOL    HW2 3588   5.995   5.208   1.266
  897SOL     OW 3589   3.970   0.332   6.670
  897SOL    HW1 3590   3.935   0.410   6.617
  897SOL    HW2 3591   3.940   0.339   6.765
  898SOL     OW 3592   4.003   5.999   2.384
  898SOL    HW1 3593   4.080   5.941   2.356
  898SOL    HW2 3594   3.959   6.038   2.303
  899SOL     OW 3595   0.260   5.933   0.345
  899SOL    HW1 3596   0.352   5.927   0.383
  899SOL    HW2 3597   0.237   6.029   0.330
  900SOL     OW 3598   4.885   6.435   6.474
  900SOL    HW1 3599   4.958   6.368   6.478
  900SOL    HW2 3600   4.898   6.494   6.394
  901SOL     OW 3601   1.088   0.890   4.096
  901SOL    HW1 3602   1.060   0.986   4.093
  901SOL    HW2 3603   1.160   0.874   4.028
  902SOL     OW 3604   1.274   2.912   1.125
  902SOL    HW1 3605   1.342   2.949   1.189
  902SOL    HW2 3606   1.208   2.856   1.176
  903SOL     OW 3607   0.610   3.556   6.978
  903SOL    HW1 3608   0.657   3.485   0.015
  903SOL    HW2 3609   0.512   3.536   6.975
  904SOL     OW 3610   2.257   2.910   2.626
  904SOL    HW1 3611   2.286   2.825   2.669
  904SOL    HW2 3612   2.305   2.922   2.539
  905SOL     OW 3613   5.235   4.551   5.957
  905SOL    HW1 3614   5.137   4.569   5.953
  905SOL    HW2 3615   5.276   4.570   5.867
  906SOL     OW 3616   0.747   2.273   6.627
  906SOL    HW1 3617   0.735   2.356   6.682
  906SOL    HW2 3618   0.675   2.269   6.558
  907SOL     OW 3619   5.340   2.631   1.515
  907SOL    HW1 3620   5.367   2.721   1.548
  907SOL    HW2 3621   5.415   2.566   1.529
  908SOL     OW 3622   2.173   4.699   3.099
  908SOL    HW1 3623   2.165   4.610   3.142
  908SOL    HW2 3624   2.148   4.770   3.165
  909SOL     OW 3625   3.622   5.753   1.979
  909SOL    HW1 3626   3.547   5.809   2.013
  909SOL    HW2 3627   3.695   5.748   2.047
  910SOL     OW 3628   3.418   1.320   0.910
  910SOL    HW1 3629   3.377   1.230   0.920
  910SOL    HW2 3630   3.360   1.389   0.953
  911SOL     OW 3631   0.670   5.833   6.627
  911SOL    HW1 3632   0.760   5.793   6.611
  911SOL    HW2 3633   0.636   5.803   6.717
  912SOL     OW 3634   5.072   0.765   3.270
  912SOL    HW1 3635   4.989   0.712   3.278
  912SOL    HW2 3636   5.124   0.760   3.355
  913SOL     OW 3637   2.613   0.916   3.842
  913SOL    HW1 3638   2.577   0.823   3.833
  913SOL    HW2 3639   2.538   0.981   3.850
  914SOL     OW 3640   2.509   6.428   5.106
  914SOL    HW1 3641   2.582   6.360   5.112
  914SOL    HW2 3642   2.523   6.487   5.027
  915SOL     OW 3643   6.791   3.351   0.973
  915SOL    HW1 3644   6.760   3.335   0.879
  915SOL    HW2 3645   6.821   3.265   1.012
  916SOL     OW 3646   2.082   3.176   2.717
  916SOL    HW1 3647   2.010   3.205   2.654
  916SOL    HW2 3648   2.165   3.154   2.665
  917SOL     OW 3649   6.897   0.193   2.122
  917SOL    HW1 3650   6.852   0.279   2.144
  917SOL    HW2 3651   6.975   0.210   2.061
  918SOL     OW 3652   3.488   0.334   1.469
  918SOL    HW1 3653   3.503   0.430   1.447
  918SOL    HW2 3654   3.489   0.322   1.569
  919SOL     OW 3655   6.671   6.822   3.368
  919SOL    HW1 3656   6.740   6.750   3.371
  919SOL    HW2 3657   6.652   6.854   3.461
  920SOL     OW 3658   2.605   4.859   2.702
  920SOL    HW1 3659   2.540   4.818   2.638
  920SOL    HW2 3660   2.626   4.953   2.673
  921SOL     OW 3661   4.076   5.385   3.515
  921SOL    HW1 3662   4.006   5.428   3.572
  921SOL    HW2 3663   4.167   5.413   3.546
  922SOL     OW 3664   2.970   3.267   4.601
  922SOL    HW1 3665   2.998   3.347   4.654
  922SOL    HW2 3666   2.944   3.193   4.664
  923SOL     OW 3667   2.367   3.900   5.736
  923SOL    HW1 3668   2.407   3.959   5.806
  923SOL    HW2 3669   2.417   3.814   5.732
  924SOL     OW 3670   6.469   2.957   2.812
  924SOL    HW1 3671   6.545   2.935   2.873
  924SOL    HW2 3672   6.384   2.917   2.849
  925SOL     OW 3673   0.080   2.187   6.681
  925SOL    HW1 3674   0.056   2.149   6.770
  925SOL    HW2 3675   0.021   2.265   6.660
  926SOL     OW 3676   6.314   1.052   1.062
  926SOL    HW1 3677   6.305   1.116   0.985
  926SOL    HW2 3678   6.273   0.964   1.037
  927SOL     OW 3679   5.518   4.025   2.825
  927SOL    HW1 3680   5.524   4.031   2.725
  927SOL    HW2 3681   5.582   3.956   2.858
  928SOL     OW 3682   1.344   6.557   0.109
  928SOL    HW1 3683   1.301   6.505   0.183
  928SOL    HW2 3684   1.390   6.494   0.047
  929SOL     OW 3685   0.634   0.206   0.123
  929SOL    HW1 3686   0.635   0.106   0.118
  929SOL    HW2 3687   0.594   0.243   0.039
  930SOL     OW 3688   5.199   6.296   4.694
  930SOL    HW1 3689   5.211   6.339   4.783
  930SOL    HW2 3690   5.256   6.214   4.688
  931SOL     OW 3691   5.860   1.304   4.848
  931SOL    HW1 3692   5.769   1.302   4.807
  931SOL    HW2 3693   5.915   1.230   4.810
  932SOL     OW 3694   3.090   0.264   3.724
  932SOL    HW1 3695   3.179   0.234   3.757
  932SOL    HW2 3696   3.095   0.284   3.627
  933SOL     OW 3697   1.983   5.880   3.697
  933SOL    HW1 3698   1.942   5.971   3.707
  933SOL    HW2 3699   2.012   5.867   3.602
  934SOL     OW 3700   1.771   6.877   6.974
  934SOL    HW1 3701   1.832   6.904   6.899
  934SOL    HW2 3702   1.676   6.881   6.943
  935SOL     OW 3703   4.980   4.262   3.507
  935SOL    HW1 3704   4.892   4.244   3.551
  935SOL    HW2 3705   5.046   4.193   3.537
  936SOL     OW 3706   0.490   0.707   6.303
  936SOL    HW1 3707   0.403   0.701   6.351
  936SOL    HW2 3708   0.539   0.620   6.311
  937SOL     OW 3709   5.304   1.723   5.727
  937SOL    HW1 3710   5.312   1.659   5.803
  937SOL    HW2 3711   5.388   1.720   5.673
  938SOL     OW 3712   5.998   5.138   6.141
  938SOL    HW1 3713   6.007   5.048   6.097
  938SOL    HW2 3714   5.933   5.132   6.216
  939SOL     OW 3715   6.961   6.824   4.697
  939SOL    HW1 3716   6.943   6.898   4.633
  939SOL    HW2 3717   6.929   6.737   4.657
  940SOL     OW 3718   1.465   3.899   1.288
  940SOL    HW1 3719   1.389   3.958   1.315
  940SOL    HW2 3720   1.498   3.850   1.369
  941SOL     OW 3721   5.234   1.265   6.427
  941SOL    HW1 3722   5.229   1.210   6.511
  941SOL    HW2 3723   5.201   1.211   6.350
  942SOL     OW 3724   5.753   0.222   3.060
  942SOL    HW1 3725   5.683   0.157   3.086
  942SOL    HW2 3726   5.844   0.182   3.075
  943SOL     OW 3727   1.932   3.429   3.726
  943SOL    HW1 3728   1.936   3.522   3.760
  943SOL    HW2 3729   1.979   3.424   3.637
  944SOL     OW 3730   0.152   4.756   6.117
  944SOL    HW1 3731   0.132   4.662   6.142
  944SOL    HW2 3732   0.172   4.810   6.199
  945SOL     OW 3733   6.491   3.119   6.211
  945SOL    HW1 3734   6.461   3.175   6.133
  945SOL    HW2 3735   6.571   3.161   6.254
  946SOL     OW 3736   5.117   3.798   5.470
  946SOL    HW1 3737   5.131   3.822   5.373
  946SOL    HW2 3738   5.061   3.716   5.476
  947SOL     OW 3739   3.929   2.988   3.287
  947SOL    HW1 3740   3.966   3.055   3.222
  947SOL    HW2 3741   3.887   2.913   3.237
  948SOL     OW 3742   4.571   0.826   2.896
  948SOL    HW1 3743   4.497   0.799   2.957
  948SOL    HW2 3744   4.573   0.925   2.886
  949SOL     OW 3745   1.463   5.651   0.255
  949SOL    HW1 3746   1.558   5.633   0.278
  949SOL    HW2 3747   1.408   5.654   0.339
  950SOL     OW 3748   4.748   5.559   2.175
  950SOL    HW1 3749   4.747   5.491   2.248
  950SOL    HW2 3750   4.674   5.625   2.190
  951SOL     OW 3751   1.650   0.584   4.192
  951SOL    HW1 3752   1.587   0.585   4.114
  951SOL    HW2 3753   1.631   0.661   4.252
  952SOL     OW 3754   4.359   2.036   3.316
  952SOL    HW1 3755   4.382   1.963   3.381
  952SOL    HW2 3756   4.316   2.112   3.365
  953SOL     OW 3757   5.596   5.247   4.232
  953SOL    HW1 3758   5.580   5.191   4.313
  953SOL    HW2 3759   5.578   5.193   4.150
  954SOL     OW 3760   3.970   5.817   1.220
  954SOL    HW1 3761   3.901   5.790   1.288
  954SOL    HW2 3762   3.931   5.812   1.129
  955SOL     OW 3763   0.288   3.939   2.097
  955SOL    HW1 3764   0.232   4.021   2.081
  955SOL    HW2 3765   0.294   3.921   2.195
  956SOL     OW 3766   6.605   0.108   2.023
  956SOL    HW1 3767   6.704   0.121   2.012
  956SOL    HW2 3768   6.557   0.173   1.964
  957SOL     OW 3769   5.824   3.322   3.987
  957SOL    HW1 3770   5.896   3.254   3.977
  957SOL    HW2 3771   5.751   3.304   3.921
  958SOL     OW 3772   4.014   1.636   1.519
  958SOL    HW1 3773   3.929   1.611   1.565
  958SOL    HW2 3774   3.997   1.650   1.422
  959SOL     OW 3775   3.747   5.958   3.584
  959SOL    HW1 3776   3.719   5.979   3.678
  959SOL    HW2 3777   3.805   6.031   3.549
  960SOL     OW 3778   0.630   6.272   2.474
  960SOL    HW1 3779   0.695   6.348   2.482
  960SOL    HW2 3780   0.631   6.237   2.381
  961SOL     OW 3781   4.220   6.081   3.326
  961SOL    HW1 3782   4.212   6.081   3.226
  961SOL    HW2 3783   4.195   5.991   3.361
  962SOL     OW 3784   0.380   1.443   5.611
  962SOL    HW1 3785   0.321   1.384   5.556
  962SOL    HW2 3786   0.330   1.472   5.693
  963SOL     OW 3787   5.544   1.556   6.614
  963SOL    HW1 3788   5.450   1.549   6.580
  963SOL    HW2 3789   5.599   1.607   6.548
  964SOL     OW 3790   5.467   4.743   0.212
  964SOL    HW1 3791   5.516   4.825   0.242
  964SOL    HW2 3792   5.475   4.672   0.281
  965SOL     OW 3793   5.352   1.918   1.690
  965SOL    HW1 3794   5.294   1.918   1.771
  965SOL    HW2 3795   5.387   2.010   1.673
  966SOL     OW 3796   5.808   3.003   2.097
  966SOL    HW1 3797   5.746   2.928   2.121
  966SOL    HW2 3798   5.790   3.082   2.155
  967SOL     OW 3799   2.758   4.395   1.351
  967SOL    HW1 3800   2.761   4.319   1.417
  967SOL    HW2 3801   2.663   4.418   1.331
  968SOL     OW 3802   3.876   0.057   2.325
  968SOL    HW1 3803   3.939   6.997   2.344
  968SOL    HW2 3804   3.782   0.025   2.336
  969SOL     OW 3805   2.060   5.288   5.459
  969SOL    HW1 3806   2.023   5.370   5.502
  969SOL    HW2 3807   2.113   5.314   5.378
  970SOL     OW 3808   5.863   0.955   6.738
  970SOL    HW1 3809   5.945   1.002   6.704
  970SOL    HW2 3810   5.857   0.864   6.696
  971SOL     OW 3811   0.408   2.766   2.512
  971SOL    HW1 3812   0.492   2.774   2.565
  971SOL    HW2 3813   0.425   2.796   2.418
  972SOL     OW 3814   5.890   2.283   1.443
  972SOL    HW1 3815   5.954   2.268   1.367
  972SOL    HW2 3816   5.815   2.218   1.437
  973SOL     OW 3817   0.156   5.175   6.633
  973SOL    HW1 3818   0.251   5.180   6.602
  973SOL    HW2 3819   0.151   5.117   6.715
  974SOL     OW 3820   5.228   6.536   2.556
  974SOL    HW1 3821   5.262   6.566   2.467
  974SOL    HW2 3822   5.259   6.600   2.627
  975SOL     OW 3823   1.967   0.851   6.500
  975SOL    HW1 3824   1.947   0.801   6.415
  975SOL    HW2 3825   1.981   0.948   6.479
  976SOL     OW 3826   0.110   3.689   2.421
  976SOL    HW1 3827   0.199   3.703   2.465
  976SOL    HW2 3828   0.059   3.775   2.422
  977SOL     OW 3829   0.671   6.666   1.791
  977SOL    HW1 3830   0.723   6.651   1.875
  977SOL    HW2 3831   0.726   6.640   1.712
  978SOL     OW 3832   5.701   3.378   5.414
  978SOL    HW1 3833   5.787   3.374   5.466
  978SOL    HW2 3834   5.665   3.285   5.403
  979SOL     OW 3835   0.096   2.567   0.192
  979SOL    HW1 3836   0.038   2.496   0.232
  979SOL    HW2 3837   0.167   2.524   0.136
  980SOL     OW 3838   4.452   1.895   3.705
  980SOL    HW1 3839   4.489   1.980   3.741
  980SOL    HW2 3840   4.497   1.873   3.619
  981SOL     OW 3841   0.109   1.848   5.137
  981SOL    HW1 3842   0.050   1.894   5.071
  981SOL    HW2 3843   0.152   1.769   5.094
  982SOL     OW 3844   1.729   1.616   4.694
  982SOL    HW1 3845   1.735   1.659   4.604
  982SOL    HW2 3846   1.652   1.552   4.696
  983SOL     OW 3847   5.795   2.888   3.841
  983SOL    HW1 3848   5.755   2.920   3.755
  983SOL    HW2 3849   5.833   2.966   3.891
  984SOL     OW 3850   2.585   2.334   4.818
  984SOL    HW1 3851   2.572   2.428   4.848
  984SOL    HW2 3852   2.663   2.294   4.866
  985SOL     OW 3853   6.258   3.049   5.056
  985SOL    HW1 3854   6.235   2.960   5.095
  985SOL    HW2 3855   6.285   3.112   5.130
  986SOL     OW 3856   4.542   4.678   1.168
  986SOL    HW1 3857   4.479   4.663   1.244
  986SOL    HW2 3858   4.592   4.763   1.183
  987SOL     OW 3859   4.772   6.705   2.560
  987SOL    HW1 3860   4.685   6.659   2.539
  987SOL    HW2 3861   4.764   6.802   2.539
  988SOL     OW 3862   3.636   3.904   2.175
  988SOL    HW1 3863   3.709   3.947   2.228
  988SOL    HW2 3864   3.552   3.958   2.183
  989SOL     OW 3865   6.602   1.886   6.221
  989SOL    HW1 3866   6.514   1.929   6.242
  989SOL    HW2 3867   6.641   1.848   6.305
  990SOL     OW 3868   4.398   1.224   2.227
  990SOL    HW1 3869   4.344   1.213   2.144
  990SOL    HW2 3870   4.338   1.252   2.303
  991SOL     OW 3871   0.865   3.905   4.604
  991SOL    HW1 3872   0.787   3.931   4.548
  991SOL    HW2 3873   0.836   3.889   4.698
  992SOL     OW 3874   0.169   3.692   1.133
  992SOL    HW1 3875   0.190   3.597   1.157
  992SOL    HW2 3876   0.200   3.752   1.207
  993SOL     OW 3877   6.724   4.776   0.375
  993SOL    HW1 3878   6.735   4.681   0.347
  993SOL    HW2 3879   6.799   4.802   0.436
  994SOL     OW 3880   4.095   4.896   1.690
  994SOL    HW1 3881   4.034   4.973   1.674
  994SOL    HW2 3882   4.047   4.824   1.740
  995SOL     OW 3883   4.171   2.784   5.810
  995SOL    HW1 3884   4.172   2.780   5.910
  995SOL    HW2 3885   4.090   2.736   5.776
  996SOL     OW 3886   3.318   5.271   4.626
  996SOL    HW1 3887   3.323   5.204   4.700
  996SOL    HW2 3888   3.410   5.297   4.598
  997SOL     OW 3889   1.011   0.169   3.465
  997SOL    HW1 3890   1.068   0.234   3.515
  997SOL    HW2 3891   0.920   0.208   3.451
  998SOL     OW 3892   5.286   0.608   5.253
  998SOL    HW1 3893   5.227   0.688   5.241
  998SOL    HW2 3894   5.248   0.530   5.204
  999SOL     OW 3895   5.365   4.406   2.522
  999SOL    HW1 3896   5.430   4.409   2.445
  999SOL    HW2 3897   5.413   4.430   2.606
 1000SOL     OW 3898   3.313   1.625   1.600
 1000SOL    HW1 3899   3.309   1.638   1.501
 1000SOL    HW2 3900   3.391   1.566   1.622
 1001SOL     OW 3901   5.258   6.038   1.165
 1001SOL    HW1 3902   5.210   6.113   1.120
 1001SOL    HW2 3903   5.232   6.034   1.261
 1002SOL     OW 3904   5.760   2.000   1.199
 1002SOL    HW1 3905   5.661   1.993   1.204
 1002SOL    HW2 3906   5.801   1.955   1.278
 1003SOL     OW 3907   1.917   6.540   2.796
 1003SOL    HW1 3908   1.918   6.578   2.703
 1003SOL    HW2 3909   1.833   6.569   2.842
 1004SOL     OW 3910   0.619   0.817   2.199
 1004SOL    HW1 3911   0.639   0.842   2.104
 1004SOL    HW2 3912   0.531   0.856   2.226
 1005SOL     OW 3913   2.102   2.226   4.187
 1005SOL    HW1 3914   2.003   2.217   4.185
 1005SOL    HW2 3915   2.136   2.205   4.279
 1006SOL     OW 3916   1.324   4.619   0.237
 1006SOL    HW1 3917   1.409   4.656   0.200
 1006SOL    HW2 3918   1.342   4.570   0.322
 1007SOL     OW 3919   4.509   0.518   5.021
 1007SOL    HW1 3920   4.453   0.450   5.069
 1007SOL    HW2 3921   4.471   0.609   5.036
 1008SOL     OW 3922   0.842   3.020   6.093
 1008SOL    HW1 3923   0.853   2.957   6.170
 1008SOL    HW2 3924   0.781   3.094   6.120
 1009SOL     OW 3925   0.403   4.994   5.291
 1009SOL    HW1 3926   0.389   4.917   5.230
 1009SOL    HW2 3927   0.412   5.078   5.238
 1010SOL     OW 3928   2.882   1.807   0.157
 1010SOL    HW1 3929   2.889   1.888   0.215
 1010SOL    HW2 3930   2.788   1.796   0.125
 1011SOL     OW 3931   1.566   5.376   2.910
 1011SOL    HW1 3932   1.560   5.448   2.841
 1011SOL    HW2 3933   1.562   5.416   3.001
 1012SOL     OW 3934   0.254   6.700   2.850
 1012SOL    HW1 3935   0.266   6.799   2.840
 1012SOL    HW2 3936   0.160   6.675   2.826
 1013SOL     OW 3937   1.126   1.593   6.718
 1013SOL    HW1 3938   1.047   1.654   6.716
 1013SOL    HW2 3939   1.174   1.604   6.804
 1014SOL     OW 3940   6.678   4.604   5.619
 1014SOL    HW1 3941   6.588   4.648   5.616
 1014SOL    HW2 3942   6.668   4.508   5.595
 1015SOL     OW 3943   2.868   6.535   5.994
 1015SOL    HW1 3944   2.814   6.455   5.971
 1015SOL    HW2 3945   2.810   6.616   5.994
 1016SOL     OW 3946   4.117   3.837   6.958
 1016SOL    HW1 3947   4.179   3.840   6.879
 1016SOL    HW2 3948   4.066   3.923   6.963
 1017SOL     OW 3949   4.282   2.727   1.337
 1017SOL    HW1 3950   4.353   2.785   1.379
 1017SOL    HW2 3951   4.194   2.744   1.383
 1018SOL     OW 3952   0.924   4.730   4.264
 1018SOL    HW1 3953   0.882   4.647   4.299
 1018SOL    HW2 3954   0.987   4.707   4.190
 1019SOL     OW 3955   7.000   6.402   0.939
 1019SOL    HW1 3956   0.022   6.311   0.919
 1019SOL    HW2 3957   6.901   6.398   0.935
 1020SOL     OW 3958   6.448   1.058   1.297
 1020SOL    HW1 3959   6.417   0.991   1.364
 1020SOL    HW2 3960   6.381   1.066   1.224
 1021SOL     OW 3961   5.723   6.831   1.541
 1021SOL    HW1 3962   5.695   6.916   1.587
 1021SOL    HW2 3963   5.720   6.845   1.442
 1022SOL     OW 3964   2.831   4.359   5.426
 1022SOL    HW1 3965   2.736   4.327   5.434
 1022SOL    HW2 3966   2.853   4.376   5.330
 1023SOL     OW 3967   0.210   0.833   2.626
 1023SOL    HW1 3968   0.223   0.756   2.563
 1023SOL    HW2 3969   0.295   0.849   2.677
 1024SOL     OW 3970   0.556   2.981   4.201
 1024SOL    HW1 3971   0.534   2.951   4.109
 1024SOL    HW2 3972   0.506   3.065   4.222
 1025SOL     OW 3973   3.780   3.935   1.494
 1025SOL    HW1 3974   3.745   3.846   1.466
 1025SOL    HW2 3975   3.853   3.922   1.561
 1026SOL     OW 3976   2.475   2.750   1.820
 1026SOL    HW1 3977   2.549   2.697   1.778
 1026SOL    HW2 3978   2.505   2.845   1.832
 1027SOL     OW 3979   3.499   6.591   2.174
 1027SOL    HW1 3980   3.498   6.615   2.271
 1027SOL    HW2 3981   3.591   6.564   2.147
 1028SOL     OW 3982   1.900   0.040   2.391
 1028SOL    HW1 3983   1.804   0.028   2.416
 1028SOL    HW2 3984   1.956   0.049   2.473
 1029SOL     OW 3985   1.447   0.708   6.343
 1029SOL    HW1 3986   1.464   0.795   6.389
 1029SOL    HW2 3987   1.374   0.719   6.275
 1030SOL     OW 3988   3.399   3.220   1.961
 1030SOL    HW1 3989   3.456   3.272   2.025
 1030SOL    HW2 3990   3.456   3.158   1.907
 1031SOL     OW 3991   4.416   4.046   1.449
 1031SOL    HW1 3992   4.487   3.992   1.493
 1031SOL    HW2 3993   4.333   4.045   1.505
 1032SOL     OW 3994   1.698   1.606   6.171
 1032SOL    HW1 3995   1.679   1.703   6.159
 1032SOL    HW2 3996   1.714   1.587   6.268
 1033SOL     OW 3997   1.357   6.072   1.478
 1033SOL    HW1 3998   1.411   5.988   1.476
 1033SOL    HW2 3999   1.281   6.061   1.543
 1034SOL     OW 4000   0.764   5.171   4.433
 1034SOL    HW1 4001   0.831   5.097   4.434
 1034SOL    HW2 4002   0.792   5.239   4.365
 1035SOL     OW 4003   0.376   1.233   4.977
 1035SOL    HW1 4004   0.420   1.146   4.954
 1035SOL    HW2 4005   0.342   1.277   4.894
 1036SOL     OW 4006   3.996   0.421   1.964
 1036SOL    HW1 4007   3.967   0.381   1.877
 1036SOL    HW2 4008   4.064   0.362   2.007
 1037SOL     OW 4009   1.574   1.382   2.356
 1037SOL    HW1 4010   1.492   1.387   2.299
 1037SOL    HW2 4011   1.635   1.458   2.333
 1038SOL     OW 4012   1.993   0.950   5.519
 1038SOL    HW1 4013   2.056   0.970   5.595
 1038SOL    HW2 4014   1.912   1.008   5.528
 1039SOL     OW 4015   3.854   3.854   4.478
 1039SOL    HW1 4016   3.915   3.805   4.540
 1039SOL    HW2 4017   3.768   3.874   4.526
 1040SOL     OW 4018   5.279   1.196   2.473
 1040SOL    HW1 4019   5.241   1.174   2.383
 1040SOL    HW2 4020   5.372   1.233   2.462
 1041SOL     OW 4021   0.088   6.358   3.518
 1041SOL    HW1 4022   0.076   6.428   3.588
 1041SOL    HW2 4023   0.171   6.305   3.539
 1042SOL     OW 4024   4.114   5.226   2.701
 1042SOL    HW1 4025   4.041   5.254   2.640
 1042SOL    HW2 4026   4.076   5.178   2.780
 1043SOL     OW 4027   3.023   2.128   3.898
 1043SOL    HW1 4028   2.971   2.197   3.948
 1043SOL    HW2 4029   3.086   2.172   3.834
 1044SOL     OW 4030   5.913   5.127   2.429
 1044SOL    HW1 4031   5.991   5.068   2.451
 1044SOL    HW2 4032   5.867   5.155   2.513
 1045SOL     OW 4033   3.856   0.085   2.724
 1045SOL    HW1 4034   3.877   0.139   2.806
 1045SOL    HW2 4035   3.852   7.004   2.749
 1046SOL     OW 4036   1.516   1.105   0.386
 1046SOL    HW1 4037   1.582   1.117   0.313
 1046SOL    HW2 4038   1.440   1.048   0.353
 1047SOL     OW 4039   1.789   0.346   4.230
 1047SOL    HW1 4040   1.868   0.345   4.291
 1047SOL    HW2 4041   1.754   0.439   4.222
 1048SOL     OW 4042   4.201   6.094   3.020
 1048SOL    HW1 4043   4.144   6.038   2.959
 1048SOL    HW2 4044   4.297   6.087   2.991
 1049SOL     OW 4045   6.729   6.260   3.951
 1049SOL    HW1 4046   6.640   6.306   3.951
 1049SOL    HW2 4047   6.795   6.317   3.903
 1050SOL     OW 4048   3.267   5.120   1.859
 1050SOL    HW1 4049   3.356   5.084   1.886
 1050SOL    HW2 4050   3.224   5.058   1.793
 1051SOL     OW 4051   0.585   5.222   0.239
 1051SOL    HW1 4052   0.575   5.231   0.338
 1051SOL    HW2 4053   0.682   5.217   0.216
 1052SOL     OW 4054   4.370   0.765   5.050
 1052SOL    HW1 4055   4.287   0.711   5.042
 1052SOL    HW2 4056   4.376   0.803   5.142
 1053SOL     OW 4057   5.688   4.603   3.249
 1053SOL    HW1 4058   5.723   4.672   3.186
 1053SOL    HW2 4059   5.645   4.529   3.197
 1054SOL     OW 4060   3.209   3.596   0.780
 1054SOL    HW1 4061   3.176   3.575   0.872
 1054SOL    HW2 4062   3.246   3.514   0.737
 1055SOL     OW 4063   3.954   6.420   5.160
 1055SOL    HW1 4064   3.949   6.447   5.064
 1055SOL    HW2 4065   3.989   6.327   5.166
 1056SOL     OW 4066   2.463   3.707   7.007
 1056SOL    HW1 4067   2.503   3.659   0.070
 1056SOL    HW2 4068   2.374   3.744   0.017
 1057SOL     OW 4069   3.434   3.491   1.806
 1057SOL    HW1 4070   3.423   3.398   1.841
 1057SOL    HW2 4071   3.371   3.506   1.730
 1058SOL     OW 4072   4.863   2.373   3.373
 1058SOL    HW1 4073   4.788   2.407   3.317
 1058SOL    HW2 4074   4.837   2.287   3.416
 1059SOL     OW 4075   2.923   0.553   2.137
 1059SOL    HW1 4076   2.834   0.538   2.094
 1059SOL    HW2 4077   2.932   0.649   2.163
 1060SOL     OW 4078   0.299   4.944   4.396
 1060SOL    HW1 4079   0.347   5.031   4.390
 1060SOL    HW2 4080   0.202   4.957   4.373
 1061SOL     OW 4081   6.857   3.321   0.105
 1061SOL    HW1 4082   6.910   3.266   0.040
 1061SOL    HW2 4083   6.818   3.260   0.175
 1062SOL     OW 4084   5.485   5.106   5.812
 1062SOL    HW1 4085   5.421   5.154   5.871
 1062SOL    HW2 4086   5.455   5.115   5.717
 1063SOL     OW 4087   1.097   5.672   0.850
 1063SOL    HW1 4088   1.084   5.744   0.782
 1063SOL    HW2 4089   1.105   5.713   0.941
 1064SOL     OW 4090   1.832   4.465   2.884
 1064SOL    HW1 4091   1.865   4.422   2.800
 1064SOL    HW2 4092   1.839   4.564   2.876
 1065SOL     OW 4093   4.387   0.947   3.775
 1065SOL    HW1 4094   4.449   1.008   3.725
 1065SOL    HW2 4095   4.293   0.977   3.762
 1066SOL     OW 4096   4.962   6.492   2.630
 1066SOL    HW1 4097   4.899   6.559   2.592
 1066SOL    HW2 4098   5.055   6.513   2.601
 1067SOL     OW 4099   0.667   3.168   0.696
 1067SOL    HW1 4100   0.673   3.117   0.610
 1067SOL    HW2 4101   0.720   3.122   0.767
 1068SOL     OW 4102   6.136   4.957   2.230
 1068SOL    HW1 4103   6.085   4.986   2.311
 1068SOL    HW2 4104   6.072   4.940   2.154
 1069SOL     OW 4105   4.848   5.709   0.793
 1069SOL    HW1 4106   4.783   5.637   0.818
 1069SOL    HW2 4107   4.809   5.765   0.721
 1070SOL     OW 4108   0.286   0.596   1.334
 1070SOL    HW1 4109   0.371   0.643   1.312
 1070SOL    HW2 4110   0.293   0.500   1.309
 1071SOL     OW 4111   1.385   0.956   4.093
 1071SOL    HW1 4112   1.398   1.040   4.040
 1071SOL    HW2 4113   1.402   0.975   4.190
 1072SOL     OW 4114   1.662   0.901   1.022
 1072SOL    HW1 4115   1.673   0.935   1.116
 1072SOL    HW2 4116   1.597   0.958   0.973
 1073SOL     OW 4117   5.008   0.346   3.042
 1073SOL    HW1 4118   5.006   0.383   3.134
 1073SOL    HW2 4119   5.023   0.247   3.046
 1074SOL     OW 4120   2.008   5.442   1.623
 1074SOL    HW1 4121   1.921   5.403   1.653
 1074SOL    HW2 4122   2.076   5.432   1.696
 1075SOL     OW 4123   5.484   0.189   3.452
 1075SOL    HW1 4124   5.403   0.170   3.397
 1075SOL    HW2 4125   5.517   0.281   3.434
 1076SOL     OW 4126   0.797   2.575   5.711
 1076SOL    HW1 4127   0.704   2.609   5.727
 1076SOL    HW2 4128   0.797   2.514   5.632
 1077SOL     OW 4129   6.070   0.086   1.036
 1077SOL    HW1 4130   6.099   0.135   0.954
 1077SOL    HW2 4131   5.979   0.046   1.020
 1078SOL     OW 4132   0.746   0.538   2.182
 1078SOL    HW1 4133   0.698   0.612   2.135
 1078SOL    HW2 4134   0.755   0.460   2.120
 1079SOL     OW 4135   1.334   6.168   2.151
 1079SOL    HW1 4136   1.403   6.099   2.127
 1079SOL    HW2 4137   1.340   6.244   2.085
 1080SOL     OW 4138   1.831   5.563   3.082
 1080SOL    HW1 4139   1.859   5.470   3.062
 1080SOL    HW2 4140   1.820   5.575   3.181
 1081SOL     OW 4141   6.568   4.834   5.735
 1081SOL    HW1 4142   6.638   4.896   5.772
 1081SOL    HW2 4143   6.535   4.774   5.808
 1082SOL     OW 4144   5.406   2.401   5.156
 1082SOL    HW1 4145   5.404   2.453   5.241
 1082SOL    HW2 4146   5.487   2.343   5.154
 1083SOL     OW 4147   4.710   4.331   0.413
 1083SOL    HW1 4148   4.680   4.237   0.434
 1083SOL    HW2 4149   4.805   4.329   0.382
 1084SOL     OW 4150   5.955   6.177   6.439
 1084SOL    HW1 4151   5.989   6.112   6.370
 1084SOL    HW2 4152   5.947   6.131   6.527
 1085SOL     OW 4153   1.929   3.587   4.813
 1085SOL    HW1 4154   2.002   3.530   4.774
 1085SOL    HW2 4155   1.871   3.530   4.870
 1086SOL     OW 4156   0.459   4.766   0.135
 1086SOL    HW1 4157   0.475   4.748   0.232
 1086SOL    HW2 4158   0.538   4.737   0.082
 1087SOL     OW 4159   6.534   2.050   5.414
 1087SOL    HW1 4160   6.584   1.964   5.407
 1087SOL    HW2 4161   6.436   2.033   5.401
 1088SOL     OW 4162   0.305   3.760   2.590
 1088SOL    HW1 4163   0.303   3.824   2.666
 1088SOL    HW2 4164   0.332   3.669   2.624
 1089SOL     OW 4165   0.443   6.202   4.599
 1089SOL    HW1 4166   0.475   6.272   4.662
 1089SOL    HW2 4167   0.366   6.153   4.640
 1090SOL     OW 4168   2.960   1.937   3.305
 1090SOL    HW1 4169   3.051   1.902   3.285
 1090SOL    HW2 4170   2.894   1.862   3.298
 1091SOL     OW 4171   3.013   1.943   4.493
 1091SOL    HW1 4172   3.049   1.884   4.421
 1091SOL    HW2 4173   3.073   2.021   4.506
 1092SOL     OW 4174   0.785   4.483   1.085
 1092SOL    HW1 4175   0.730   4.526   1.157
 1092SOL    HW2 4176   0.825   4.554   1.027
 1093SOL     OW 4177   2.209   0.594   1.627
 1093SOL    HW1 4178   2.196   0.497   1.607
 1093SOL    HW2 4179   2.260   0.637   1.552
 1094SOL     OW 4180   0.910   6.901   2.392
 1094SOL    HW1 4181   0.860   6.896   2.306
 1094SOL    HW2 4182   0.940   6.995   2.408
 1095SOL     OW 4183   1.223   3.147   6.259
 1095SOL    HW1 4184   1.315   3.109   6.257
 1095SOL    HW2 4185   1.219   3.226   6.197
 1096SOL     OW 4186   3.436   4.248   1.702
 1096SOL    HW1 4187   3.427   4.348   1.706
 1096SOL    HW2 4188   3.393   4.208   1.783
 1097SOL     OW 4189   2.541   4.570   3.587
 1097SOL    HW1 4190   2.526   4.475   3.560
 1097SOL    HW2 4191   2.465   4.602   3.643
 1098SOL     OW 4192   4.363   3.391   6.839
 1098SOL    HW1 4193   4.308   3.311   6.812
 1098SOL    HW2 4194   4.351   3.408   6.937
 1099SOL     OW 4195   3.422   1.050   6.002
 1099SOL    HW1 4196   3.442   1.017   6.094
 1099SOL    HW2 4197   3.359   1.128   6.008
 1100SOL     OW 4198   4.231   1.551   4.494
 1100SOL    HW1 4199   4.199   1.478   4.555
 1100SOL    HW2 4200   4.315   1.522   4.448
 1101SOL     OW 4201   5.689   3.039   5.896
 1101SOL    HW1 4202   5.713   2.969   5.828
 1101SOL    HW2 4203   5.673   3.126   5.850
 1102SOL     OW 4204   0.933   0.330   4.851
 1102SOL    HW1 4205   0.991   0.256   4.818
 1102SOL    HW2 4206   0.916   0.394   4.776
 1103SOL     OW 4207   4.202   1.883   0.086
 1103SOL    HW1 4208   4.109   1.850   0.103
 1103SOL    HW2 4209   4.226   1.952   0.154
 1104SOL     OW 4210   1.672   3.117   5.537
 1104SOL    HW1 4211   1.681   3.030   5.586
 1104SOL    HW2 4212   1.740   3.121   5.465
 1105SOL     OW 4213   5.931   3.576   5.011
 1105SOL    HW1 4214   6.026   3.568   5.041
 1105SOL    HW2 4215   5.870   3.560   5.088
 1106SOL     OW 4216   6.767   2.291   1.046
 1106SOL    HW1 4217   6.858   2.250   1.048
 1106SOL    HW2 4218   6.773   2.382   1.004
 1107SOL     OW 4219   0.991   0.592   0.053
 1107SOL    HW1 4220   1.043   0.550   6.995
 1107SOL    HW2 4221   0.936   0.522   0.099
 1108SOL     OW 4222   3.424   0.042   5.335
 1108SOL    HW1 4223   3.501   7.000   5.361
 1108SOL    HW2 4224   3.348   0.026   5.398
 1109SOL     OW 4225   5.514   1.183   3.818
 1109SOL    HW1 4226   5.580   1.119   3.777
 1109SOL    HW2 4227   5.431   1.185   3.763
 1110SOL     OW 4228   3.806   1.932   3.137
 1110SOL    HW1 4229   3.744   1.929   3.059
 1110SOL    HW2 4230   3.901   1.934   3.105
 1111SOL     OW 4231   4.546   5.507   6.330
 1111SOL    HW1 4232   4.625   5.508   6.391
 1111SOL    HW2 4233   4.566   5.563   6.249
 1112SOL     OW 4234   5.689   1.149   2.544
 1112SOL    HW1 4235   5.723   1.182   2.631
 1112SOL    HW2 4236   5.722   1.056   2.527
 1113SOL     OW 4237   5.809   4.292   1.455
 1113SOL    HW1 4238   5.818   4.273   1.357
 1113SOL    HW2 4239   5.727   4.348   1.470
 1114SOL     OW 4240   3.287   1.543   5.742
 1114SOL    HW1 4241   3.244   1.634   5.746
 1114SOL    HW2 4242   3.216   1.473   5.741
 1115SOL     OW 4243   3.971   3.215   5.869
 1115SOL    HW1 4244   4.010   3.164   5.792
 1115SOL    HW2 4245   3.944   3.306   5.839
 1116SOL     OW 4246   4.536   6.478   5.658
 1116SOL    HW1 4247   4.616   6.507   5.710
 1116SOL    HW2 4248   4.476   6.423   5.716
 1117SOL     OW 4249   1.904   2.575   2.112
 1117SOL    HW1 4250   1.981   2.512   2.099
 1117SOL    HW2 4251   1.845   2.572   2.031
 1118SOL     OW 4252   3.354   4.598   0.714
 1118SOL    HW1 4253   3.328   4.687   0.752
 1118SOL    HW2 4254   3.452   4.582   0.731
 1119SOL     OW 4255   4.282   4.482   1.846
 1119SOL    HW1 4256   4.357   4.420   1.826
 1119SOL    HW2 4257   4.259   4.476   1.943
 1120SOL     OW 4258   6.058   6.431   0.461
 1120SOL    HW1 4259   6.038   6.440   0.559
 1120SOL    HW2 4260   5.973   6.436   0.409
 1121SOL     OW 4261   6.225   4.492   4.637
 1121SOL    HW1 4262   6.277   4.563   4.685
 1121SOL    HW2 4263   6.207   4.522   4.543
 1122SOL     OW 4264   4.909   2.505   1.712
 1122SOL    HW1 4265   4.945   2.510   1.619
 1122SOL    HW2 4266   4.823   2.455   1.711
 1123SOL     OW 4267   5.212   1.778   2.868
 1123SOL    HW1 4268   5.233   1.800   2.964
 1123SOL    HW2 4269   5.113   1.779   2.855
 1124SOL     OW 4270   0.030   3.649   5.210
 1124SOL    HW1 4271   6.959   3.678   5.170
 1124SOL    HW2 4272   0.103   3.661   5.143
 1125SOL     OW 4273   2.437   2.283   3.836
 1125SOL    HW1 4274   2.451   2.200   3.890
 1125SOL    HW2 4275   2.510   2.348   3.856
 1126SOL     OW 4276   5.451   5.477   0.110
 1126SOL    HW1 4277   5.360   5.493   0.148
 1126SOL    HW2 4278   5.488   5.391   0.146
 1127SOL     OW 4279   5.250   5.566   4.329
 1127SOL    HW1 4280   5.304   5.574   4.412
 1127SOL    HW2 4281   5.233   5.470   4.309
 1128SOL     OW 4282   6.219   1.138   4.837
 1128SOL    HW1 4283   6.255   1.211   4.895
 1128SOL    HW2 4284   6.230   1.050   4.884
 1129SOL     OW 4285   1.339   0.402   0.978
 1129SOL    HW1 4286   1.349   0.327   1.043
 1129SOL    HW2 4287   1.382   0.378   0.892
 1130SOL     OW 4288   2.649   4.916   0.543
 1130SOL    HW1 4289   2.649   4.816   0.546
 1130SOL    HW2 4290   2.571   4.948   0.490
 1131SOL     OW 4291   1.296   6.113   6.039
 1131SOL    HW1 4292   1.271   6.165   5.957
 1131SOL    HW2 4293   1.393   6.130   6.060
 1132SOL     OW 4294   5.211   0.265   2.622
 1132SOL    HW1 4295   5.143   0.194   2.643
 1132SOL    HW2 4296   5.246   0.305   2.707
 1133SOL     OW 4297   0.643   1.093   0.430
 1133SOL    HW1 4298   0.716   1.053   0.375
 1133SOL    HW2 4299   0.618   1.031   0.503
 1134SOL     OW 4300   5.158   6.767   2.384
 1134SOL    HW1 4301   5.143   6.832   2.310
 1134SOL    HW2 4302   5.131   6.675   2.354
 1135SOL     OW 4303   2.692   6.945   3.530
 1135SOL    HW1 4304   2.614   6.998   3.497
 1135SOL    HW2 4305   2.662   6.886   3.606
 1136SOL     OW 4306   4.553   4.860   3.333
 1136SOL    HW1 4307   4.481   4.796   3.305
 1136SOL    HW2 4308   4.606   4.887   3.252
 1137SOL     OW 4309   1.206   6.251   0.071
 1137SOL    HW1 4310   1.239   6.303   7.008
 1137SOL    HW2 4311   1.238   6.295   0.156
 1138SOL     OW 4312   0.510   1.124   6.023
 1138SOL    HW1 4313   0.594   1.138   6.076
 1138SOL    HW2 4314   0.526   1.154   5.929
 1139SOL     OW 4315   3.150   4.997   2.758
 1139SOL    HW1 4316   3.101   4.943   2.826
 1139SOL    HW2 4317   3.152   5.093   2.786
 1140SOL     OW 4318   2.951   1.073   2.384
 1140SOL    HW1 4319   2.871   1.093   2.327
 1140SOL    HW2 4320   3.033   1.104   2.337
 1141SOL     OW 4321   0.656   6.195   6.853
 1141SOL    HW1 4322   0.733   6.137   6.828
 1141SOL    HW2 4323   0.572   6.141   6.850
 1142SOL     OW 4324   3.120   0.188   4.172
 1142SOL    HW1 4325   3.168   0.124   4.232
 1142SOL    HW2 4326   3.144   0.282   4.198
 1143SOL     OW 4327   2.275   2.797   3.473
 1143SOL    HW1 4328   2.310   2.794   3.567
 1143SOL    HW2 4329   2.271   2.892   3.442
 1144SOL     OW 4330   6.192   4.342   3.882
 1144SOL    HW1 4331   6.238   4.392   3.809
 1144SOL    HW2 4332   6.109   4.299   3.846
 1145SOL     OW 4333   6.365   3.930   1.513
 1145SOL    HW1 4334   6.303   3.873   1.460
 1145SOL    HW2 4335   6.356   3.907   1.610
 1146SOL     OW 4336   6.877   0.996   2.736
 1146SOL    HW1 4337   6.931   1.062   2.684
 1146SOL    HW2 4338   6.938   0.926   2.774
 1147SOL     OW 4339   3.000   5.551   1.703
 1147SOL    HW1 4340   2.908   5.533   1.668
 1147SOL    HW2 4341   3.066   5.495   1.653
 1148SOL     OW 4342   4.280   5.992   0.106
 1148SOL    HW1 4343   4.334   6.025   0.028
 1148SOL    HW2 4344   4.231   5.909   0.081
 1149SOL     OW 4345   6.050   3.038   2.974
 1149SOL    HW1 4346   6.140   2.996   2.961
 1149SOL    HW2 4347   5.978   2.971   2.957
 1150SOL     OW 4348   0.645   3.915   0.398
 1150SOL    HW1 4349   0.585   3.845   0.360
 1150SOL    HW2 4350   0.739   3.882   0.400
 1151SOL     OW 4351   5.694   4.475   6.170
 1151SOL    HW1 4352   5.768   4.442   6.111
 1151SOL    HW2 4353   5.624   4.404   6.178
 1152SOL     OW 4354   4.945   5.064   0.139
 1152SOL    HW1 4355   4.864   5.028   0.092
 1152SOL    HW2 4356   4.926   5.157   0.171
 1153SOL     OW 4357   0.557   0.171   1.928
 1153SOL    HW1 4358   0.530   0.261   1.893
 1153SOL    HW2 4359   0.574   0.110   1.850
 1154SOL     OW 4360   6.791   4.415   1.441
 1154SOL    HW1 4361   6.726   4.490   1.444
 1154SOL    HW2 4362   6.773   4.351   1.516
 1155SOL     OW 4363   2.336   4.536   5.962
 1155SOL    HW1 4364   2.306   4.627   5.932
 1155SOL    HW2 4365   2.284   4.466   5.912
 1156SOL     OW 4366   4.441   1.908   4.939
 1156SOL    HW1 4367   4.366   1.900   4.873
 1156SOL    HW2 4368   4.422   1.850   5.018
 1157SOL     OW 4369   5.250   1.473   6.158
 1157SOL    HW1 4370   5.336   1.454   6.207
 1157SOL    HW2 4371   5.179   1.495   6.224
 1158SOL     OW 4372   0.045   5.040   5.351
 1158SOL    HW1 4373   0.107   5.012   5.424
 1158SOL    HW2 4374   0.056   4.980   5.272
 1159SOL     OW 4375   6.404   0.123   3.471
 1159SOL    HW1 4376   6.460   0.189   3.421
 1159SOL    HW2 4377   6.452   0.094   3.554
 1160SOL     OW 4378   5.154   4.438   0.893
 1160SOL    HW1 4379   5.226   4.495   0.853
 1160SOL    HW2 4380   5.189   4.345   0.906
 1161SOL     OW 4381   6.143   5.687   5.783
 1161SOL    HW1 4382   6.047   5.665   5.798
 1161SOL    HW2 4383   6.199   5.605   5.801
 1162SOL     OW 4384   2.696   2.630   6.941
 1162SOL    HW1 4385   2.617   2.643   7.000
 1162SOL    HW2 4386   2.696   2.698   6.868
 1163SOL     OW 4387   6.672   3.719   1.681
 1163SOL    HW1 4388   6.664   3.698   1.584
 1163SOL    HW2 4389   6.740   3.659   1.723
 1164SOL     OW 4390   5.315   2.858   3.727
 1164SOL    HW1 4391   5.228   2.825   3.764
 1164SOL    HW2 4392   5.352   2.930   3.786
 1165SOL     OW 4393   4.171   5.067   3.473
 1165SOL    HW1 4394   4.147   4.970   3.478
 1165SOL    HW2 4395   4.180   5.094   3.377
 1166SOL     OW 4396   3.651   7.012   0.057
 1166SOL    HW1 4397   3.744   0.021   0.081
 1166SOL    HW2 4398   3.649   6.918   0.023
 1167SOL     OW 4399   3.943   6.686   0.449
 1167SOL    HW1 4400   3.902   6.707   0.360
 1167SOL    HW2 4401   3.943   6.588   0.463
 1168SOL     OW 4402   5.642   2.734   2.346
 1168SOL    HW1 4403   5.646   2.830   2.375
 1168SOL    HW2 4404   5.587   2.682   2.411
 1169SOL     OW 4405   5.081   2.818   5.850
 1169SOL    HW1 4406   5.085   2.733   5.798
 1169SOL    HW2 4407   5.151   2.817   5.921
 1170SOL     OW 4408   5.072   0.043   2.757
 1170SOL    HW1 4409   5.057   6.979   2.700
 1170SOL    HW2 4410   5.168   0.046   2.786
 1171SOL     OW 4411   2.424   6.573   6.921
 1171SOL    HW1 4412   2.418   6.672   6.904
 1171SOL    HW2 4413   2.480   6.530   6.851
 1172SOL     OW 4414   3.268   3.936   1.666
 1172SOL    HW1 4415   3.266   4.009   1.734
 1172SOL    HW2 4416   3.219   3.856   1.701
 1173SOL     OW 4417   3.391   1.651   0.566
 1173SOL    HW1 4418   3.388   1.551   0.568
 1173SOL    HW2 4419   3.352   1.684   0.480
 1174SOL     OW 4420   2.550   4.677   1.683
 1174SOL    HW1 4421   2.636   4.687   1.632
 1174SOL    HW2 4422   2.560   4.720   1.773
 1175SOL     OW 4423   4.249   4.842   6.734
 1175SOL    HW1 4424   4.198   4.793   6.804
 1175SOL    HW2 4425   4.347   4.836   6.753
 1176SOL     OW 4426   5.732   3.882   6.451
 1176SOL    HW1 4427   5.815   3.933   6.471
 1176SOL    HW2 4428   5.748   3.821   6.373
 1177SOL     OW 4429   0.085   3.495   4.514
 1177SOL    HW1 4430   0.117   3.557   4.586
 1177SOL    HW2 4431   0.041   3.548   4.442
 1178SOL     OW 4432   4.060   4.329   0.811
 1178SOL    HW1 4433   3.992   4.260   0.835
 1178SOL    HW2 4434   4.052   4.352   0.714
 1179SOL     OW 4435   2.110   6.246   0.832
 1179SOL    HW1 4436   2.043   6.317   0.812
 1179SOL    HW2 4437   2.202   6.283   0.818
 1180SOL     OW 4438   2.675   5.824   4.439
 1180SOL    HW1 4439   2.675   5.881   4.357
 1180SOL    HW2 4440   2.665   5.728   4.412
 1181SOL     OW 4441   0.039   4.607   5.466
 1181SOL    HW1 4442   0.011   4.513   5.484
 1181SOL    HW2 4443   6.995   4.670   5.516
 1182SOL     OW 4444   4.356   5.006   3.695
 1182SOL    HW1 4445   4.305   5.052   3.623
 1182SOL    HW2 4446   4.454   5.015   3.678
 1183SOL     OW 4447   2.919   4.360   1.633
 1183SOL    HW1 4448   2.921   4.412   1.719
 1183SOL    HW2 4449   2.950   4.418   1.558
 1184SOL     OW 4450   7.015   1.598   5.576
 1184SOL    HW1 4451   7.016   1.509   5.532
 1184SOL    HW2 4452   0.008   1.670   5.507
 1185SOL     OW 4453   1.198   0.886   0.532
 1185SOL    HW1 4454   1.106   0.850   0.521
 1185SOL    HW2 4455   1.232   0.920   0.444
 1186SOL     OW 4456   4.798   6.332   5.245
 1186SOL    HW1 4457   4.734   6.300   5.315
 1186SOL    HW2 4458   4.781   6.429   5.228
 1187SOL     OW 4459   5.016   0.320   4.875
 1187SOL    HW1 4460   4.920   0.343   4.860
 1187SOL    HW2 4461   5.069   0.343   4.793
 1188SOL     OW 4462   2.947   5.395   6.141
 1188SOL    HW1 4463   2.959   5.380   6.043
 1188SOL    HW2 4464   2.967   5.310   6.190
 1189SOL     OW 4465   6.131   2.056   1.817
 1189SOL    HW1 4466   6.121   1.980   1.753
 1189SOL    HW2 4467   6.084   2.137   1.781
 1190SOL     OW 4468   3.241   5.930   2.922
 1190SOL    HW1 4469   3.263   6.003   2.857
 1190SOL    HW2 4470   3.147   5.899   2.907
 1191SOL     OW 4471   4.364   5.027   4.501
 1191SOL    HW1 4472   4.326   5.050   4.411
 1191SOL    HW2 4473   4.290   5.003   4.563
 1192SOL     OW 4474   4.964   4.955   3.243
 1192SOL    HW1 4475   5.059   4.925   3.238
 1192SOL    HW2 4476   4.934   4.985   3.153
 1193SOL     OW 4477   0.526   2.329   5.795
 1193SOL    HW1 4478   0.574   2.329   5.882
 1193SOL    HW2 4479   0.584   2.287   5.725
 1194SOL     OW 4480   6.074   1.069   1.439
 1194SOL    HW1 4481   6.160   1.066   1.490
 1194SOL    HW2 4482   6.084   1.127   1.359
 1195SOL     OW 4483   0.010   3.663   0.363
 1195SOL    HW1 4484   6.933   3.639   0.335
 1195SOL    HW2 4485   0.026   3.635   0.457
 1196SOL     OW 4486   6.806   4.866   3.631
 1196SOL    HW1 4487   6.816   4.772   3.598
 1196SOL    HW2 4488   6.755   4.866   3.717
 1197SOL     OW 4489   4.388   6.647   4.729
 1197SOL    HW1 4490   4.339   6.657   4.816
 1197SOL    HW2 4491   4.327   6.604   4.662
 1198SOL     OW 4492   1.657   3.643   2.816
 1198SOL    HW1 4493   1.690   3.709   2.748
 1198SOL    HW2 4494   1.557   3.644   2.818
 1199SOL     OW 4495   3.707   3.459   2.379
 1199SOL    HW1 4496   3.705   3.454   2.279
 1199SOL    HW2 4497   3.634   3.520   2.410
 1200SOL     OW 4498   3.068   4.073   4.903
 1200SOL    HW1 4499   3.040   4.122   4.986
 1200SOL    HW2 4500   2.988   4.052   4.847
 1201SOL     OW 4501   0.975   1.342   4.161
 1201SOL    HW1 4502   1.028   1.277   4.106
 1201SOL    HW2 4503   0.891   1.365   4.113
 1202SOL     OW 4504   0.298   5.329   5.425
 1202SOL    HW1 4505   0.308   5.359   5.520
 1202SOL    HW2 4506   0.202   5.337   5.397
 1203SOL     OW 4507   0.291   5.202   0.575
 1203SOL    HW1 4508   0.232   5.238   0.647
 1203SOL    HW2 4509   0.346   5.276   0.536
 1204SOL     OW 4510   4.830   1.358   1.210
 1204SOL    HW1 4511   4.782   1.343   1.123
 1204SOL    HW2 4512   4.771   1.410   1.272
 1205SOL     OW 4513   3.815   3.160   0.629
 1205SOL    HW1 4514   3.810   3.178   0.727
 1205SOL    HW2 4515   3.906   3.184   0.595
 1206SOL     OW 4516   2.582   2.718   5.527
 1206SOL    HW1 4517   2.510   2.723   5.596
 1206SOL    HW2 4518   2.541   2.731   5.436
 1207SOL     OW 4519   1.125   6.946   1.252
 1207SOL    HW1 4520   1.108   0.022   1.288
 1207SOL    HW2 4521   1.060   6.882   1.292
 1208SOL     OW 4522   3.683   3.692   1.398
 1208SOL    HW1 4523   3.663   3.729   1.307
 1208SOL    HW2 4524   3.766   3.636   1.393
 1209SOL     OW 4525   5.290   0.458   3.553
 1209SOL    HW1 4526   5.252   0.367   3.572
 1209SOL    HW2 4527   5.290   0.512   3.637
 1210SOL     OW 4528   4.351   6.946   3.606
 1210SOL    HW1 4529   4.311   6.885   3.538
 1210SOL    HW2 4530   4.346   0.024   3.574
 1211SOL     OW 4531   1.054   2.935   3.015
 1211SOL    HW1 4532   0.957   2.956   3.017
 1211SOL    HW2 4533   1.102   3.002   2.958
 1212SOL     OW 4534   6.751   0.649   6.089
 1212SOL    HW1 4535   6.684   0.707   6.042
 1212SOL    HW2 4536   6.821   0.620   6.024
 1213SOL     OW 4537   6.348   2.706   1.246
 1213SOL    HW1 4538   6.256   2.667   1.256
 1213SOL    HW2 4539   6.373   2.755   1.329
 1214SOL     OW 4540   0.813   3.720   0.092
 1214SOL    HW1 4541   0.869   3.781   0.036
 1214SOL    HW2 4542   0.735   3.688   0.038
 1215SOL     OW 4543   0.405   4.612   3.276
 1215SOL    HW1 4544   0.396   4.599   3.374
 1215SOL    HW2 4545   0.331   4.566   3.228
 1216SOL     OW 4546   5.088   0.312   0.792
 1216SOL    HW1 4547   4.995   0.323   0.756
 1216SOL    HW2 4548   5.133   0.401   0.794
 1217SOL     OW 4549   2.462   4.357   0.842
 1217SOL    HW1 4550   2.393   4.380   0.774
 1217SOL    HW2 4551   2.529   4.431   0.848
 1218SOL     OW 4552   1.211   3.233   4.792
 1218SOL    HW1 4553   1.276   3.202   4.723
 1218SOL    HW2 4554   1.260   3.254   4.877
 1219SOL     OW 4555   5.715   6.087   1.804
 1219SOL    HW1 4556   5.723   6.170   1.859
 1219SOL    HW2 4557   5.790   6.024   1.826
 1220SOL     OW 4558   1.054   4.826   2.861
 1220SOL    HW1 4559   1.044   4.890   2.937
 1220SOL    HW2 4560   0.966   4.785   2.840
 1221SOL     OW 4561   4.251   4.474   6.331
 1221SOL    HW1 4562   4.190   4.396   6.317
 1221SOL    HW2 4563   4.208   4.557   6.295
 1222SOL     OW 4564   6.579   1.126   6.774
 1222SOL    HW1 4565   6.533   1.044   6.741
 1222SOL    HW2 4566   6.675   1.123   6.748
 1223SOL     OW 4567   3.964   2.135   0.481
 1223SOL    HW1 4568   3.873   2.153   0.518
 1223SOL    HW2 4569   3.993   2.043   0.509
 1224SOL     OW 4570   3.796   5.862   0.657
 1224SOL    HW1 4571   3.700   5.869   0.684
 1224SOL    HW2 4572   3.817   5.766   0.637
 1225SOL     OW 4573   3.312   3.371   6.732
 1225SOL    HW1 4574   3.248   3.361   6.657
 1225SOL    HW2 4575   3.360   3.285   6.747
 1226SOL     OW 4576   2.576   6.765   1.561
 1226SOL    HW1 4577   2.670   6.775   1.592
 1226SOL    HW2 4578   2.546   6.670   1.573
 1227SOL     OW 4579   5.803   4.735   6.189
 1227SOL    HW1 4580   5.897   4.715   6.217
 1227SOL    HW2 4581   5.751   4.650   6.184
 1228SOL     OW 4582   2.991   1.920   6.046
 1228SOL    HW1 4583   3.091   1.914   6.047
 1228SOL    HW2 4584   2.956   1.875   5.964
 1229SOL     OW 4585   3.545   5.132   6.360
 1229SOL    HW1 4586   3.567   5.064   6.290
 1229SOL    HW2 4587   3.612   5.126   6.434
 1230SOL     OW 4588   4.838   6.683   2.196
 1230SOL    HW1 4589   4.799   6.766   2.158
 1230SOL    HW2 4590   4.779   6.605   2.173
 1231SOL     OW 4591   1.685   2.204   4.793
 1231SOL    HW1 4592   1.597   2.235   4.756
 1231SOL    HW2 4593   1.696   2.239   4.886
 1232SOL     OW 4594   0.316   2.298   5.597
 1232SOL    HW1 4595   0.406   2.271   5.629
 1232SOL    HW2 4596   0.246   2.246   5.647
 1233SOL     OW 4597   1.001   5.104   5.196
 1233SOL    HW1 4598   0.994   5.058   5.284
 1233SOL    HW2 4599   1.092   5.091   5.158
 1234SOL     OW 4600   6.402   2.887   5.797
 1234SOL    HW1 4601   6.335   2.958   5.820
 1234SOL    HW2 4602   6.439   2.904   5.706
 1235SOL     OW 4603   6.162   5.291   2.972
 1235SOL    HW1 4604   6.237   5.355   2.956
 1235SOL    HW2 4605   6.083   5.340   3.009
 1236SOL     OW 4606   4.936   0.729   6.886
 1236SOL    HW1 4607   4.945   0.632   6.909
 1236SOL    HW2 4608   4.895   0.779   6.962
 1237SOL     OW 4609   2.249   4.563   6.216
 1237SOL    HW1 4610   2.303   4.520   6.145
 1237SOL    HW2 4611   2.242   4.661   6.198
 1238SOL     OW 4612   1.165   1.238   0.956
 1238SOL    HW1 4613   1.073   1.277   0.943
 1238SOL    HW2 4614   1.233   1.303   0.923
 1239SOL     OW 4615   6.930   6.201   6.377
 1239SOL    HW1 4616   7.000   6.224   6.445
 1239SOL    HW2 4617   6.849   6.257   6.392
 1240SOL     OW 4618   5.435   6.283   1.437
 1240SOL    HW1 4619   5.426   6.199   1.384
 1240SOL    HW2 4620   5.532   6.306   1.447
 1241SOL     OW 4621   5.224   3.356   4.235
 1241SOL    HW1 4622   5.165   3.408   4.297
 1241SOL    HW2 4623   5.184   3.266   4.217
 1242SOL     OW 4624   0.735   3.839   1.418
 1242SOL    HW1 4625   0.645   3.860   1.381
 1242SOL    HW2 4626   0.801   3.829   1.343
 1243SOL     OW 4627   0.229   6.713   5.036
 1243SOL    HW1 4628   0.221   6.772   5.116
 1243SOL    HW2 4629   0.218   6.767   4.953
 1244SOL     OW 4630   5.831   0.020   4.793
 1244SOL    HW1 4631   5.786   0.105   4.765
 1244SOL    HW2 4632   5.789   6.958   4.746
 1245SOL     OW 4633   5.462   4.655   0.493
 1245SOL    HW1 4634   5.388   4.598   0.528
 1245SOL    HW2 4635   5.536   4.596   0.459
 1246SOL     OW 4636   2.969   0.320   1.070
 1246SOL    HW1 4637   2.909   0.345   1.146
 1246SOL    HW2 4638   2.931   0.240   1.023
 1247SOL     OW 4639   0.830   6.636   6.269
 1247SOL    HW1 4640   0.825   6.691   6.185
 1247SOL    HW2 4641   0.898   6.563   6.257
 1248SOL     OW 4642   1.789   6.981   4.843
 1248SOL    HW1 4643   1.710   6.952   4.788
 1248SOL    HW2 4644   1.837   6.901   4.877
 1249SOL     OW 4645   6.344   1.970   2.562
 1249SOL    HW1 4646   6.336   2.065   2.595
 1249SOL    HW2 4647   6.298   1.961   2.474
 1250SOL     OW 4648   5.803   5.223   3.948
 1250SOL    HW1 4649   5.812   5.295   4.017
 1250SOL    HW2 4650   5.872   5.153   3.965
 1251SOL     OW 4651   2.676   0.729   3.490
 1251SOL    HW1 4652   2.732   0.646   3.492
 1251SOL    HW2 4653   2.724   0.803   3.536
 1252SOL     OW 4654   4.633   3.292   6.468
 1252SOL    HW1 4655   4.585   3.266   6.384
 1252SOL    HW2 4656   4.584   3.256   6.547
 1253SOL     OW 4657   2.872   5.978   3.086
 1253SOL    HW1 4658   2.851   6.029   3.002
 1253SOL    HW2 4659   2.875   5.880   3.065
 1254SOL     OW 4660   0.928   2.996   2.467
 1254SOL    HW1 4661   0.944   3.038   2.378
 1254SOL    HW2 4662   0.898   2.901   2.454
 1255SOL     OW 4663   5.839   1.759   5.464
 1255SOL    HW1 4664   5.827   1.677   5.407
 1255SOL    HW2 4665   5.909   1.743   5.532
 1256SOL     OW 4666   0.030   6.481   3.293
 1256SOL    HW1 4667   0.053   6.430   3.376
 1256SOL    HW2 4668   0.079   6.442   3.215
 1257SOL     OW 4669   7.007   6.356   5.335
 1257SOL    HW1 4670   0.036   6.312   5.413
 1257SOL    HW2 4671   6.952   6.288   5.285
 1258SOL     OW 4672   2.050   5.174   2.571
 1258SOL    HW1 4673   1.967   5.154   2.519
 1258SOL    HW2 4674   2.113   5.097   2.564
 1259SOL     OW 4675   4.249   0.790   3.974
 1259SOL    HW1 4676   4.203   0.719   3.920
 1259SOL    HW2 4677   4.315   0.838   3.916
 1260SOL     OW 4678   1.625   1.729   0.458
 1260SOL    HW1 4679   1.708   1.701   0.411
 1260SOL    HW2 4680   1.569   1.785   0.397
 1261SOL     OW 4681   6.732   5.830   6.612
 1261SOL    HW1 4682   6.738   5.731   6.600
 1261SOL    HW2 4683   6.683   5.870   6.534
 1262SOL     OW 4684   5.272   4.628   1.288
 1262SOL    HW1 4685   5.318   4.546   1.322
 1262SOL    HW2 4686   5.235   4.681   1.364
 1263SOL     OW 4687   0.221   2.421   1.916
 1263SOL    HW1 4688   0.187   2.360   1.844
 1263SOL    HW2 4689   0.163   2.413   1.997
 1264SOL     OW 4690   6.559   4.798   0.751
 1264SOL    HW1 4691   6.515   4.887   0.742
 1264SOL    HW2 4692   6.537   4.758   0.840
 1265SOL     OW 4693   5.792   5.495   4.587
 1265SOL    HW1 4694   5.788   5.588   4.552
 1265SOL    HW2 4695   5.769   5.431   4.514
 1266SOL     OW 4696   0.679   1.571   4.309
 1266SOL    HW1 4697   0.729   1.608   4.387
 1266SOL    HW2 4698   0.721   1.601   4.224
 1267SOL     OW 4699   4.782   0.436   1.533
 1267SOL    HW1 4700   4.807   0.343   1.507
 1267SOL    HW2 4701   4.754   0.487   1.451
 1268SOL     OW 4702   2.476   2.503   0.350
 1268SOL    HW1 4703   2.445   2.573   0.415
 1268SOL    HW2 4704   2.538   2.440   0.396
 1269SOL     OW 4705   5.873   4.009   4.427
 1269SOL    HW1 4706   5.899   3.950   4.351
 1269SOL    HW2 4707   5.819   4.086   4.392
 1270SOL     OW 4708   1.314   3.640   3.606
 1270SOL    HW1 4709   1.294   3.727   3.561
 1270SOL    HW2 4710   1.409   3.614   3.588
 1271SOL     OW 4711   2.873   2.156   2.877
 1271SOL    HW1 4712   2.929   2.087   2.830
 1271SOL    HW2 4713   2.781   2.120   2.891
 1272SOL     OW 4714   5.881   4.149   0.101
 1272SOL    HW1 4715   5.885   4.231   0.044
 1272SOL    HW2 4716   5.797   4.099   0.081
 1273SOL     OW 4717   0.484   3.192   6.880
 1273SOL    HW1 4718   0.574   3.205   6.839
 1273SOL    HW2 4719   0.414   3.205   6.811
 1274SOL     OW 4720   0.013   4.718   1.773
 1274SOL    HW1 4721   0.038   4.739   1.868
 1274SOL    HW2 4722   0.018   4.620   1.758
 1275SOL     OW 4723   4.072   1.199   4.348
 1275SOL    HW1 4724   4.171   1.188   4.361
 1275SOL    HW2 4725   4.051   1.195   4.251
 1276SOL     OW 4726   6.503   5.143   5.404
 1276SOL    HW1 4727   6.499   5.072   5.334
 1276SOL    HW2 4728   6.551   5.223   5.368
 1277SOL     OW 4729   1.565   5.673   5.962
 1277SOL    HW1 4730   1.578   5.609   5.886
 1277SOL    HW2 4731   1.652   5.719   5.982
 1278SOL     OW 4732   0.966   7.001   5.089
 1278SOL    HW1 4733   0.928   6.958   5.007
 1278SOL    HW2 4734   0.959   6.938   5.166
 1279SOL     OW 4735   2.081   4.645   0.239
 1279SOL    HW1 4736   2.109   4.713   0.307
 1279SOL    HW2 4737   2.075   4.688   0.149
 1280SOL     OW 4738   4.535   6.371   4.360
 1280SOL    HW1 4739   4.574   6.437   4.424
 1280SOL    HW2 4740   4.524   6.282   4.406
 1281SOL     OW 4741   2.431   6.384   3.336
 1281SOL    HW1 4742   2.472   6.390   3.427
 1281SOL    HW2 4743   2.474   6.309   3.285
 1282SOL     OW 4744   6.619   2.659   0.364
 1282SOL    HW1 4745   6.718   2.653   0.350
 1282SOL    HW2 4746   6.600   2.731   0.431
 1283SOL     OW 4747   6.831   3.728   5.048
 1283SOL    HW1 4748   6.837   3.797   4.975
 1283SOL    HW2 4749   6.770   3.654   5.019
 1284SOL     OW 4750   4.638   1.902   1.803
 1284SOL    HW1 4751   4.639   1.998   1.833
 1284SOL    HW2 4752   4.620   1.843   1.882
 1285SOL     OW 4753   4.344   1.809   6.189
 1285SOL    HW1 4754   4.293   1.891   6.214
 1285SOL    HW2 4755   4.283   1.743   6.145
 1286SOL     OW 4756   4.157   3.789   1.526
 1286SOL    HW1 4757   4.236   3.728   1.520
 1286SOL    HW2 4758   4.132   3.802   1.622
 1287SOL     OW 4759   5.365   4.816   4.992
 1287SOL    HW1 4760   5.437   4.882   5.013
 1287SOL    HW2 4761   5.367   4.742   5.059
 1288SOL     OW 4762   3.812   3.287   6.583
 1288SOL    HW1 4763   3.737   3.338   6.625
 1288SOL    HW2 4764   3.824   3.200   6.631
 1289SOL     OW 4765   6.863   6.783   1.109
 1289SOL    HW1 4766   6.847   6.881   1.117
 1289SOL    HW2 4767   6.775   6.735   1.105
 1290SOL     OW 4768   0.691   6.250   0.108
 1290SOL    HW1 4769   0.681   6.164   0.158
 1290SOL    HW2 4770   0.632   6.249   0.028
 1291SOL     OW 4771   0.643   4.049   3.924
 1291SOL    HW1 4772   0.678   4.056   4.017
 1291SOL    HW2 4773   0.670   3.961   3.885
 1292SOL     OW 4774   0.363   5.984   2.400
 1292SOL    HW1 4775   0.398   6.065   2.449
 1292SOL    HW2 4776   0.372   5.999   2.302
 1293SOL     OW 4777   1.628   2.336   0.364
 1293SOL    HW1 4778   1.564   2.297   0.297
 1293SOL    HW2 4779   1.584   2.413   0.411
 1294SOL     OW 4780   0.711   3.486   6.011
 1294SOL    HW1 4781   0.655   3.555   5.964
 1294SOL    HW2 4782   0.667   3.397   6.004
 1295SOL     OW 4783   0.206   3.440   1.321
 1295SOL    HW1 4784   0.232   3.353   1.280
 1295SOL    HW2 4785   0.289   3.492   1.344
 1296SOL     OW 4786   3.611   6.741   5.187
 1296SOL    HW1 4787   3.602   6.667   5.253
 1296SOL    HW2 4788   3.692   6.796   5.210
 1297SOL     OW 4789   0.100   0.217   1.171
 1297SOL    HW1 4790   0.191   0.248   1.198
 1297SOL    HW2 4791   0.075   0.260   1.084
 1298SOL     OW 4792   5.375   5.787   3.617
 1298SOL    HW1 4793   5.282   5.794   3.582
 1298SOL    HW2 4794   5.372   5.766   3.715
 1299SOL     OW 4795   2.246   2.871   3.743
 1299SOL    HW1 4796   2.158   2.884   3.697
 1299SOL    HW2 4797   2.255   2.936   3.818
 1300SOL     OW 4798   1.668   3.276   0.805
 1300SOL    HW1 4799   1.621   3.230   0.880
 1300SOL    HW2 4800   1.687   3.211   0.732
 1301SOL     OW 4801   0.533   6.206   1.118
 1301SOL    HW1 4802   0.470   6.148   1.066
 1301SOL    HW2 4803   0.617   6.156   1.136
 1302SOL     OW 4804   4.697   6.603   5.269
 1302SOL    HW1 4805   4.706   6.643   5.177
 1302SOL    HW2 4806   4.607   6.624   5.305
 1303SOL     OW 4807   3.760   2.102   1.681
 1303SOL    HW1 4808   3.852   2.108   1.642
 1303SOL    HW2 4809   3.749   2.171   1.752
 1304SOL     OW 4810   1.635   0.590   0.043
 1304SOL    HW1 4811   1.730   0.616   0.022
 1304SOL    HW2 4812   1.586   0.670   0.078
 1305SOL     OW 4813   5.652   3.340   0.244
 1305SOL    HW1 4814   5.650   3.426   0.192
 1305SOL    HW2 4815   5.727   3.343   0.310
 1306SOL     OW 4816   1.051   5.464   3.857
 1306SOL    HW1 4817   0.953   5.476   3.868
 1306SOL    HW2 4818   1.089   5.540   3.803
 1307SOL     OW 4819   1.491   4.377   3.905
 1307SOL    HW1 4820   1.591   4.385   3.907
 1307SOL    HW2 4821   1.465   4.284   3.881
 1308SOL     OW 4822   6.545   0.023   5.521
 1308SOL    HW1 4823   6.607   6.989   5.461
 1308SOL    HW2 4824   6.482   0.078   5.466
 1309SOL     OW 4825   5.563   4.999   5.013
 1309SOL    HW1 4826   5.569   5.086   5.061
 1309SOL    HW2 4827   5.647   4.947   5.027
 1310SOL     OW 4828   6.426   3.855   3.770
 1310SOL    HW1 4829   6.485   3.794   3.718
 1310SOL    HW2 4830   6.350   3.804   3.810
 1311SOL     OW 4831   6.756   5.561   5.659
 1311SOL    HW1 4832   6.714   5.615   5.733
 1311SOL    HW2 4833   6.694   5.560   5.581
 1312SOL     OW 4834   1.314   6.638   6.588
 1312SOL    HW1 4835   1.408   6.667   6.602
 1312SOL    HW2 4836   1.256   6.676   6.660
 1313SOL     OW 4837   0.374   4.730   2.911
 1313SOL    HW1 4838   0.413   4.638   2.909
 1313SOL    HW2 4839   0.445   4.796   2.933
 1314SOL     OW 4840   4.062   1.634   4.767
 1314SOL    HW1 4841   4.066   1.564   4.696
 1314SOL    HW2 4842   4.106   1.600   4.850
 1315SOL     OW 4843   0.510   1.763   2.623
 1315SOL    HW1 4844   0.585   1.753   2.689
 1315SOL    HW2 4845   0.423   1.765   2.672
 1316SOL     OW 4846   2.784   6.800   6.059
 1316SOL    HW1 4847   2.740   6.760   6.139
 1316SOL    HW2 4848   2.714   6.838   5.998
 1317SOL     OW 4849   1.861   4.312   5.743
 1317SOL    HW1 4850   1.891   4.232   5.692
 1317SOL    HW2 4851   1.895   4.395   5.697
 1318SOL     OW 4852   0.669   2.839   1.289
 1318SOL    HW1 4853   0.723   2.797   1.216
 1318SOL    HW2 4854   0.714   2.924   1.319
 1319SOL     OW 4855   6.809   6.131   0.656
 1319SOL    HW1 4856   6.840   6.211   0.606
 1319SOL    HW2 4857   6.881   6.061   0.655
 1320SOL     OW 4858   3.859   4.570   6.854
 1320SOL    HW1 4859   3.835   4.511   6.777
 1320SOL    HW2 4860   3.794   4.556   6.928
 1321SOL     OW 4861   5.206   2.502   6.320
 1321SOL    HW1 4862   5.237   2.411   6.349
 1321SOL    HW2 4863   5.246   2.572   6.380
 1322SOL     OW 4864   4.155   1.677   4.021
 1322SOL    HW1 4865   4.150   1.590   4.070
 1322SOL    HW2 4866   4.218   1.668   3.944
 1323SOL     OW 4867   4.166   6.873   6.073
 1323SOL    HW1 4868   4.227   6.920   6.009
 1323SOL    HW2 4869   4.081   6.925   6.083
 1324SOL     OW 4870   0.661   3.960   0.001
 1324SOL    HW1 4871   0.636   4.055   0.020
 1324SOL    HW2 4872   0.687   3.914   0.086
 1325SOL     OW 4873   2.623   6.323   4.364
 1325SOL    HW1 4874   2.526   6.337   4.386
 1325SOL    HW2 4875   2.635   6.324   4.265
 1326SOL     OW 4876   4.951   3.579   5.520
 1326SOL    HW1 4877   4.942   3.560   5.618
 1326SOL    HW2 4878   4.861   3.589   5.480
 1327SOL     OW 4879   1.179   6.465   1.035
 1327SOL    HW1 4880   1.232   6.493   1.115
 1327SOL    HW2 4881   1.174   6.540   0.970
 1328SOL     OW 4882   2.490   3.220   1.369
 1328SOL    HW1 4883   2.566   3.166   1.404
 1328SOL    HW2 4884   2.521   3.314   1.352
 1329SOL     OW 4885   0.825   2.063   2.022
 1329SOL    HW1 4886   0.776   2.042   1.937
 1329SOL    HW2 4887   0.917   2.025   2.017
 1330SOL     OW 4888   1.192   1.183   2.072
 1330SOL    HW1 4889   1.094   1.165   2.076
 1330SOL    HW2 4890   1.220   1.191   1.976
 1331SOL     OW 4891   5.004   3.243   2.771
 1331SOL    HW1 4892   4.992   3.166   2.708
 1331SOL    HW2 4893   5.011   3.328   2.719
 1332SOL     OW 4894   2.741   0.026   6.704
 1332SOL    HW1 4895   2.776   6.979   6.774
 1332SOL    HW2 4896   2.805   0.029   6.628
 1333SOL     OW 4897   3.442   3.643   3.810
 1333SOL    HW1 4898   3.451   3.547   3.838
 1333SOL    HW2 4899   3.458   3.702   3.888
 1334SOL     OW 4900   6.104   1.314   3.982
 1334SOL    HW1 4901   6.069   1.221   3.988
 1334SOL    HW2 4902   6.195   1.318   4.022
 1335SOL     OW 4903   2.098   2.102   1.972
 1335SOL    HW1 4904   2.123   2.085   2.067
 1335SOL    HW2 4905   2.160   2.050   1.912
 1336SOL     OW 4906   2.487   2.122   5.135
 1336SOL    HW1 4907   2.584   2.138   5.150
 1336SOL    HW2 4908   2.437   2.208   5.149
 1337SOL     OW 4909   1.379   1.211   3.309
 1337SOL    HW1 4910   1.447   1.160   3.361
 1337SOL    HW2 4911   1.378   1.179   3.214
 1338SOL     OW 4912   6.328   2.215   4.816
 1338SOL    HW1 4913   6.312   2.194   4.913
 1338SOL    HW2 4914   6.424   2.199   4.794
 1339SOL     OW 4915   6.021   2.187   6.760
 1339SOL    HW1 4916   6.072   2.240   6.693
 1339SOL    HW2 4917   5.932   2.230   6.776
 1340SOL     OW 4918   5.815   1.898   2.825
 1340SOL    HW1 4919   5.813   1.983   2.772
 1340SOL    HW2 4920   5.788   1.917   2.919
 1341SOL     OW 4921   4.715   6.516   6.699
 1341SOL    HW1 4922   4.640   6.456   6.727
 1341SOL    HW2 4923   4.779   6.466   6.641
 1342SOL     OW 4924   3.062   5.665   5.908
 1342SOL    HW1 4925   3.063   5.584   5.850
 1342SOL    HW2 4926   2.970   5.703   5.911
 1343SOL     OW 4927   4.997   5.768   2.200
 1343SOL    HW1 4928   5.010   5.706   2.123
 1343SOL    HW2 4929   5.010   5.718   2.286
 1344SOL     OW 4930   0.678   6.123   4.480
 1344SOL    HW1 4931   0.591   6.145   4.525
 1344SOL    HW2 4932   0.700   6.194   4.414
 1345SOL     OW 4933   0.974   5.975   3.229
 1345SOL    HW1 4934   0.900   5.972   3.296
 1345SOL    HW2 4935   0.940   6.013   3.143
 1346SOL     OW 4936   1.136   5.516   4.710
 1346SOL    HW1 4937   1.052   5.462   4.719
 1346SOL    HW2 4938   1.126   5.603   4.758
 1347SOL     OW 4939   0.154   6.543   6.009
 1347SOL    HW1 4940   0.098   6.624   5.993
 1347SOL    HW2 4941   0.218   6.562   6.084
 1348SOL     OW 4942   5.646   6.583   3.939
 1348SOL    HW1 4943   5.556   6.546   3.917
 1348SOL    HW2 4944   5.711   6.557   3.867
 1349SOL     OW 4945   4.853   3.018   5.600
 1349SOL    HW1 4946   4.855   3.035   5.699
 1349SOL    HW2 4947   4.908   2.937   5.580
 1350SOL     OW 4948   5.330   4.876   5.911
 1350SOL    HW1 4949   5.377   4.960   5.885
 1350SOL    HW2 4950   5.267   4.896   5.987
 1351SOL     OW 4951   5.878   1.798   3.114
 1351SOL    HW1 4952   5.787   1.797   3.157
 1351SOL    HW2 4953   5.907   1.704   3.096
 1352SOL     OW 4954   6.886   5.682   3.810
 1352SOL    HW1 4955   6.889   5.622   3.890
 1352SOL    HW2 4956   6.937   5.640   3.735
 1353SOL     OW 4957   0.497   2.791   0.283
 1353SOL    HW1 4958   0.538   2.727   0.349
 1353SOL    HW2 4959   0.455   2.867   0.332
 1354SOL     OW 4960   0.840   3.853   1.678
 1354SOL    HW1 4961   0.794   3.870   1.591
 1354SOL    HW2 4962   0.936   3.829   1.661
 1355SOL     OW 4963   5.585   2.649   4.325
 1355SOL    HW1 4964   5.569   2.569   4.383
 1355SOL    HW2 4965   5.499   2.676   4.281
 1356SOL     OW 4966   3.631   3.389   2.070
 1356SOL    HW1 4967   3.635   3.489   2.083
 1356SOL    HW2 4968   3.717   3.357   2.031
 1357SOL     OW 4969   0.275   4.047   6.253
 1357SOL    HW1 4970   0.176   4.061   6.258
 1357SOL    HW2 4971   0.322   4.134   6.271
 1358SOL     OW 4972   4.138   6.604   6.059
 1358SOL    HW1 4973   4.215   6.573   6.004
 1358SOL    HW2 4974   4.134   6.704   6.057
 1359SOL     OW 4975   5.611   5.010   2.641
 1359SOL    HW1 4976   5.599   4.992   2.544
 1359SOL    HW2 4977   5.671   5.090   2.654
 1360SOL     OW 4978   2.724   3.410   0.347
 1360SOL    HW1 4979   2.782   3.442   0.422
 1360SOL    HW2 4980   2.676   3.487   0.306
 1361SOL     OW 4981   6.034   4.335   5.776
 1361SOL    HW1 4982   6.126   4.314   5.808
 1361SOL    HW2 4983   6.033   4.429   5.740
 1362SOL     OW 4984   3.503   4.131   3.977
 1362SOL    HW1 4985   3.452   4.147   3.893
 1362SOL    HW2 4986   3.595   4.170   3.968
 1363SOL     OW 4987   6.484   5.127   3.232
 1363SOL    HW1 4988   6.470   5.092   3.325
 1363SOL    HW2 4989   6.562   5.082   3.191
 1364SOL     OW 4990   5.807   4.419   0.985
 1364SOL    HW1 4991   5.783   4.463   0.898
 1364SOL    HW2 4992   5.906   4.421   0.997
 1365SOL     OW 4993   0.763   4.640   6.189
 1365SOL    HW1 4994   0.859   4.624   6.166
 1365SOL    HW2 4995   0.705   4.600   6.118
 1366SOL     OW 4996   1.702   5.347   6.850
 1366SOL    HW1 4997   1.630   5.292   6.892
 1366SOL    HW2 4998   1.689   5.443   6.875
 1367SOL     OW 4999   1.453   0.127   3.536
 1367SOL    HW1 5000   1.381   0.079   3.586
 1367SOL    HW2 5001   1.515   0.060   3.495
 1368SOL     OW 5002   6.218   0.257   3.671
 1368SOL    HW1 5003   6.204   0.224   3.578
 1368SOL    HW2 5004   6.136   0.242   3.725
 1369SOL     OW 5005   2.601   6.692   1.899
 1369SOL    HW1 5006   2.572   6.784   1.870
 1369SOL    HW2 5007   2.545   6.663   1.976
 1370SOL     OW 5008   3.796   0.555   1.138
 1370SOL    HW1 5009   3.773   0.549   1.236
 1370SOL    HW2 5010   3.789   0.465   1.097
 1371SOL     OW 5011   5.938   1.827   4.292
 1371SOL    HW1 5012   5.872   1.893   4.256
 1371SOL    HW2 5013   6.029   1.869   4.293
 1372SOL     OW 5014   1.292   3.301   0.077
 1372SOL    HW1 5015   1.310   3.334   7.000
 1372SOL    HW2 5016   1.370   3.246   0.108
 1373SOL     OW 5017   5.404   3.906   6.989
 1373SOL    HW1 5018   5.335   3.950   6.932
 1373SOL    HW2 5019   5.362   3.868   0.055
 1374SOL     OW 5020   4.499   2.560   0.119
 1374SOL    HW1 5021   4.458   2.513   0.197
 1374SOL    HW2 5022   4.589   2.595   0.144
 1375SOL     OW 5023   0.159   4.250   6.592
 1375SOL    HW1 5024   0.071   4.206   6.610
 1375SOL    HW2 5025   0.161   4.339   6.636
 1376SOL     OW 5026   4.893   3.950   4.149
 1376SOL    HW1 5027   4.961   3.897   4.199
 1376SOL    HW2 5028   4.880   3.910   4.058
 1377SOL     OW 5029   6.782   3.743   5.605
 1377SOL    HW1 5030   6.847   3.816   5.625
 1377SOL    HW2 5031   6.702   3.781   5.558
 1378SOL     OW 5032   6.519   0.994   4.749
 1378SOL    HW1 5033   6.538   1.091   4.765
 1378SOL    HW2 5034   6.565   0.965   4.665
 1379SOL     OW 5035   3.070   0.039   2.510
 1379SOL    HW1 5036   3.083   0.012   2.605
 1379SOL    HW2 5037   3.079   0.139   2.502
 1380SOL     OW 5038   0.235   0.281   2.668
 1380SOL    HW1 5039   0.198   0.373   2.656
 1380SOL    HW2 5040   0.234   0.257   2.765
 1381SOL     OW 5041   5.458   2.178   6.740
 1381SOL    HW1 5042   5.521   2.113   6.782
 1381SOL    HW2 5043   5.435   2.249   6.806
 1382SOL     OW 5044   4.715   4.461   0.643
 1382SOL    HW1 5045   4.685   4.555   0.632
 1382SOL    HW2 5046   4.699   4.410   0.558
 1383SOL     OW 5047   0.697   0.146   0.556
 1383SOL    HW1 5048   0.624   0.177   0.616
 1383SOL    HW2 5049   0.733   0.059   0.590
 1384SOL     OW 5050   3.839   1.097   2.245
 1384SOL    HW1 5051   3.841   1.156   2.325
 1384SOL    HW2 5052   3.900   1.019   2.259
 1385SOL     OW 5053   0.860   3.069   2.732
 1385SOL    HW1 5054   0.913   2.991   2.765
 1385SOL    HW2 5055   0.843   3.060   2.634
 1386SOL     OW 5056   2.439   1.261   4.425
 1386SOL    HW1 5057   2.436   1.232   4.521
 1386SOL    HW2 5058   2.446   1.181   4.366
 1387SOL     OW 5059   3.926   6.114   3.386
 1387SOL    HW1 5060   4.023   6.113   3.364
 1387SOL    HW2 5061   3.883   6.195   3.346
 1388SOL     OW 5062   0.381   6.229   3.443
 1388SOL    HW1 5063   0.388   6.304   3.377
 1388SOL    HW2 5064   0.318   6.159   3.410
 1389SOL     OW 5065   0.619   1.377   3.881
 1389SOL    HW1 5066   0.660   1.454   3.931
 1389SOL    HW2 5067   0.679   1.352   3.805
 1390SOL     OW 5068   4.652   2.064   6.110
 1390SOL    HW1 5069   4.681   2.160   6.120
 1390SOL    HW2 5070   4.562   2.062   6.067
 1391SOL     OW 5071   6.540   0.805   5.612
 1391SOL    HW1 5072   6.634   0.769   5.612
 1391SOL    HW2 5073   6.476   0.733   5.586
 1392SOL     OW 5074   5.593   5.401   6.004
 1392SOL    HW1 5075   5.652   5.320   5.998
 1392SOL    HW2 5076   5.554   5.407   6.095
 1393SOL     OW 5077   5.327   3.044   6.667
 1393SOL    HW1 5078   5.304   3.008   6.577
 1393SOL    HW2 5079   5.427   3.049   6.676
 1394SOL     OW 5080   3.669   0.091   3.470
 1394SOL    HW1 5081   3.747   0.069   3.529
 1394SOL    HW2 5082   3.587   0.045   3.504
 1395SOL     OW 5083   1.552   3.851   3.297
 1395SOL    HW1 5084   1.595   3.767   3.263
 1395SOL    HW2 5085   1.472   3.873   3.241
 1396SOL     OW 5086   1.734   6.761   3.677
 1396SOL    HW1 5087   1.710   6.701   3.601
 1396SOL    HW2 5088   1.651   6.796   3.720
 1397SOL     OW 5089   0.923   6.617   4.595
 1397SOL    HW1 5090   0.902   6.520   4.592
 1397SOL    HW2 5091   1.010   6.632   4.642
 1398SOL     OW 5092   0.925   1.897   0.175
 1398SOL    HW1 5093   0.905   1.943   0.262
 1398SOL    HW2 5094   0.846   1.903   0.115
 1399SOL     OW 5095   4.470   0.122   0.490
 1399SOL    HW1 5096   4.504   0.150   0.580
 1399SOL    HW2 5097   4.546   0.090   0.434
 1400SOL     OW 5098   6.337   0.910   4.298
 1400SOL    HW1 5099   6.257   0.952   4.340
 1400SOL    HW2 5100   6.419   0.963   4.321
 1401SOL     OW 5101   6.063   6.902   4.393
 1401SOL    HW1 5102   6.074   6.922   4.296
 1401SOL    HW2 5103   6.005   6.821   4.404
 1402SOL     OW 5104   5.474   4.231   0.205
 1402SOL    HW1 5105   5.506   4.136   0.204
 1402SOL    HW2 5106   5.528   4.285   0.141
 1403SOL     OW 5107   2.413   2.439   1.018
 1403SOL    HW1 5108   2.385   2.519   1.070
 1403SOL    HW2 5109   2.394   2.356   1.071
 1404SOL     OW 5110   4.668   0.042   0.330
 1404SOL    HW1 5111   4.674   0.009   0.236
 1404SOL    HW2 5112   4.744   0.104   0.349
 1405SOL     OW 5113   2.483   3.548   0.266
 1405SOL    HW1 5114   2.389   3.518   0.252
 1405SOL    HW2 5115   2.495   3.577   0.361
 1406SOL     OW 5116   2.295   4.785   1.008
 1406SOL    HW1 5117   2.348   4.810   1.089
 1406SOL    HW2 5118   2.355   4.785   0.928
 1407SOL     OW 5119   1.689   3.603   3.278
 1407SOL    HW1 5120   1.742   3.605   3.363
 1407SOL    HW2 5121   1.636   3.519   3.274
 1408SOL     OW 5122   5.306   6.330   6.656
 1408SOL    HW1 5123   5.281   6.412   6.707
 1408SOL    HW2 5124   5.283   6.343   6.559
 1409SOL     OW 5125   0.130   0.856   5.313
 1409SOL    HW1 5126   0.228   0.873   5.326
 1409SOL    HW2 5127   0.102   0.780   5.373
 1410SOL     OW 5128   3.356   3.957   6.925
 1410SOL    HW1 5129   3.421   3.996   6.990
 1410SOL    HW2 5130   3.302   3.886   6.971
 1411SOL     OW 5131   3.623   6.075   6.180
 1411SOL    HW1 5132   3.534   6.076   6.225
 1411SOL    HW2 5133   3.667   6.164   6.191
 1412SOL     OW 5134   0.862   4.615   1.731
 1412SOL    HW1 5135   0.829   4.694   1.783
 1412SOL    HW2 5136   0.921   4.559   1.789
 1413SOL     OW 5137   1.954   1.909   4.402
 1413SOL    HW1 5138   1.947   1.995   4.452
 1413SOL    HW2 5139   1.928   1.924   4.306
 1414SOL     OW 5140   1.435   2.656   1.618
 1414SOL    HW1 5141   1.405   2.577   1.673
 1414SOL    HW2 5142   1.368   2.674   1.547
 1415SOL     OW 5143   3.171   2.191   4.531
 1415SOL    HW1 5144   3.171   2.145   4.619
 1415SOL    HW2 5145   3.188   2.289   4.545
 1416SOL     OW 5146   4.198   0.133   4.603
 1416SOL    HW1 5147   4.140   0.208   4.569
 1416SOL    HW2 5148   4.263   0.106   4.532
 1417SOL     OW 5149   3.364   3.133   6.136
 1417SOL    HW1 5150   3.378   3.206   6.069
 1417SOL    HW2 5151   3.271   3.138   6.172
 1418SOL     OW 5152   3.044   3.363   0.391
 1418SOL    HW1 5153   3.139   3.394   0.406
 1418SOL    HW2 5154   2.993   3.372   0.477
 1419SOL     OW 5155   1.763   5.437   4.219
 1419SOL    HW1 5156   1.744   5.510   4.285
 1419SOL    HW2 5157   1.789   5.477   4.131
 1420SOL     OW 5158   3.988   5.598   2.476
 1420SOL    HW1 5159   4.011   5.606   2.379
 1420SOL    HW2 5160   3.977   5.501   2.501
 1421SOL     OW 5161   1.258   4.694   4.479
 1421SOL    HW1 5162   1.276   4.773   4.420
 1421SOL    HW2 5163   1.292   4.611   4.434
 1422SOL     OW 5164   2.846   4.566   5.597
 1422SOL    HW1 5165   2.918   4.548   5.664
 1422SOL    HW2 5166   2.866   4.515   5.513
 1423SOL     OW 5167   4.210   1.864   4.799
 1423SOL    HW1 5168   4.168   1.919   4.872
 1423SOL    HW2 5169   4.166   1.775   4.795
 1424SOL     OW 5170   6.103   3.405   6.869
 1424SOL    HW1 5171   6.108   3.498   6.905
 1424SOL    HW2 5172   6.104   3.339   6.944
 1425SOL     OW 5173   2.285   6.025   4.936
 1425SOL    HW1 5174   2.384   6.041   4.934
 1425SOL    HW2 5175   2.266   5.928   4.925
 1426SOL     OW 5176   1.697   1.859   5.965
 1426SOL    HW1 5177   1.719   1.790   5.896
 1426SOL    HW2 5178   1.764   1.933   5.961
 1427SOL     OW 5179   0.317   0.911   3.410
 1427SOL    HW1 5180   0.283   0.868   3.327
 1427SOL    HW2 5181   0.408   0.948   3.394
 1428SOL     OW 5182   7.003   2.406   1.598
 1428SOL    HW1 5183   6.954   2.341   1.657
 1428SOL    HW2 5184   6.954   2.416   1.511
 1429SOL     OW 5185   5.566   1.868   0.093
 1429SOL    HW1 5186   5.586   1.886   0.189
 1429SOL    HW2 5187   5.519   1.780   0.085
 1430SOL     OW 5188   2.098   3.806   4.558
 1430SOL    HW1 5189   2.111   3.722   4.505
 1430SOL    HW2 5190   2.089   3.883   4.495
 1431SOL     OW 5191   2.514   2.324   6.205
 1431SOL    HW1 5192   2.483   2.404   6.256
 1431SOL    HW2 5193   2.609   2.303   6.231
 1432SOL     OW 5194   2.078   1.127   1.693
 1432SOL    HW1 5195   2.067   1.105   1.597
 1432SOL    HW2 5196   2.034   1.058   1.749
 1433SOL     OW 5197   3.226   6.590   3.880
 1433SOL    HW1 5198   3.170   6.647   3.941
 1433SOL    HW2 5199   3.309   6.561   3.928
 1434SOL     OW 5200   6.449   1.614   6.532
 1434SOL    HW1 5201   6.523   1.678   6.553
 1434SOL    HW2 5202   6.396   1.648   6.455
 1435SOL     OW 5203   0.287   0.881   3.962
 1435SOL    HW1 5204   0.279   0.862   3.864
 1435SOL    HW2 5205   0.246   0.971   3.981
 1436SOL     OW 5206   5.940   3.308   0.466
 1436SOL    HW1 5207   5.922   3.400   0.432
 1436SOL    HW2 5208   6.015   3.311   0.532
 1437SOL     OW 5209   3.624   0.920   5.195
 1437SOL    HW1 5210   3.699   0.855   5.203
 1437SOL    HW2 5211   3.628   0.966   5.107
 1438SOL     OW 5212   2.988   0.969   1.637
 1438SOL    HW1 5213   2.973   0.882   1.684
 1438SOL    HW2 5214   3.067   1.016   1.677
 1439SOL     OW 5215   0.670   5.249   0.525
 1439SOL    HW1 5216   0.660   5.349   0.526
 1439SOL    HW2 5217   0.765   5.225   0.543
 1440SOL     OW 5218   3.689   3.248   4.695
 1440SOL    HW1 5219   3.661   3.339   4.726
 1440SOL    HW2 5220   3.632   3.179   4.740
 1441SOL     OW 5221   6.236   3.258   3.844
 1441SOL    HW1 5222   6.295   3.195   3.896
 1441SOL    HW2 5223   6.288   3.298   3.769
 1442SOL     OW 5224   6.110   4.531   0.473
 1442SOL    HW1 5225   6.133   4.499   0.381
 1442SOL    HW2 5226   6.151   4.620   0.489
 1443SOL     OW 5227   1.270   1.919   4.264
 1443SOL    HW1 5228   1.203   1.865   4.314
 1443SOL    HW2 5229   1.236   2.013   4.252
 1444SOL     OW 5230   4.589   6.302   1.554
 1444SOL    HW1 5231   4.581   6.232   1.626
 1444SOL    HW2 5232   4.558   6.264   1.467
 1445SOL     OW 5233   0.610   2.910   2.326
 1445SOL    HW1 5234   0.655   2.823   2.344
 1445SOL    HW2 5235   0.557   2.903   2.241
 1446SOL     OW 5236   4.927   2.742   6.870
 1446SOL    HW1 5237   5.009   2.797   6.855
 1446SOL    HW2 5238   4.933   2.696   6.958
 1447SOL     OW 5239   6.611   0.316   4.907
 1447SOL    HW1 5240   6.526   0.361   4.935
 1447SOL    HW2 5241   6.612   0.308   4.807
 1448SOL     OW 5242   5.744   1.859   0.317
 1448SOL    HW1 5243   5.709   1.807   0.396
 1448SOL    HW2 5244   5.767   1.795   0.243
 1449SOL     OW 5245   6.327   6.768   6.488
 1449SOL    HW1 5246   6.286   6.732   6.404
 1449SOL    HW2 5247   6.420   6.801   6.468
 1450SOL     OW 5248   0.237   2.489   2.385
 1450SOL    HW1 5249   0.208   2.520   2.295
 1450SOL    HW2 5250   0.224   2.562   2.452
 1451SOL     OW 5251   3.089   0.805   2.746
 1451SOL    HW1 5252   3.181   0.822   2.782
 1451SOL    HW2 5253   3.086   0.828   2.649
 1452SOL     OW 5254   5.391   2.165   4.410
 1452SOL    HW1 5255   5.351   2.088   4.360
 1452SOL    HW2 5256   5.355   2.167   4.503
 1453SOL     OW 5257   6.143   3.698   5.368
 1453SOL    HW1 5258   6.144   3.795   5.342
 1453SOL    HW2 5259   6.116   3.643   5.289
 1454SOL     OW 5260   6.276   2.985   2.070
 1454SOL    HW1 5261   6.275   3.083   2.048
 1454SOL    HW2 5262   6.218   2.936   2.005
 1455SOL     OW 5263   1.523   0.137   1.661
 1455SOL    HW1 5264   1.544   0.222   1.613
 1455SOL    HW2 5265   1.433   0.104   1.632
 1456SOL     OW 5266   6.759   6.723   5.551
 1456SOL    HW1 5267   6.795   6.790   5.616
 1456SOL    HW2 5268   6.690   6.767   5.493
 1457SOL     OW 5269   1.594   0.378   1.498
 1457SOL    HW1 5270   1.606   0.308   1.427
 1457SOL    HW2 5271   1.680   0.388   1.549
 1458SOL     OW 5272   4.812   6.405   3.958
 1458SOL    HW1 5273   4.827   6.307   3.967
 1458SOL    HW2 5274   4.868   6.441   3.884
 1459SOL     OW 5275   2.995   4.278   6.356
 1459SOL    HW1 5276   2.960   4.349   6.417
 1459SOL    HW2 5277   2.959   4.292   6.264
 1460SOL     OW 5278   0.195   5.299   5.904
 1460SOL    HW1 5279   0.116   5.341   5.947
 1460SOL    HW2 5280   0.185   5.199   5.906
 1461SOL     OW 5281   0.101   4.535   3.404
 1461SOL    HW1 5282   0.075   4.630   3.388
 1461SOL    HW2 5283   0.022   4.476   3.388
 1462SOL     OW 5284   6.186   1.421   6.508
 1462SOL    HW1 5285   6.193   1.514   6.471
 1462SOL    HW2 5286   6.268   1.399   6.560
 1463SOL     OW 5287   6.925   5.934   6.351
 1463SOL    HW1 5288   6.832   5.897   6.353
 1463SOL    HW2 5289   6.922   6.033   6.337
 1464SOL     OW 5290   6.655   6.626   0.990
 1464SOL    HW1 5291   6.666   6.540   0.940
 1464SOL    HW2 5292   6.662   6.703   0.927
 1465SOL     OW 5293   1.592   1.615   2.668
 1465SOL    HW1 5294   1.496   1.635   2.650
 1465SOL    HW2 5295   1.615   1.525   2.631
 1466SOL     OW 5296   1.030   0.066   2.695
 1466SOL    HW1 5297   0.999   0.121   2.773
 1466SOL    HW2 5298   1.033   6.986   2.721
 1467SOL     OW 5299   2.149   0.256   1.966
 1467SOL    HW1 5300   2.158   0.215   1.875
 1467SOL    HW2 5301   2.135   0.355   1.957
 1468SOL     OW 5302   5.415   5.911   2.794
 1468SOL    HW1 5303   5.317   5.893   2.786
 1468SOL    HW2 5304   5.430   6.003   2.830
 1469SOL     OW 5305   0.543   0.185   2.843
 1469SOL    HW1 5306   0.618   0.125   2.872
 1469SOL    HW2 5307   0.532   0.179   2.744
 1470SOL     OW 5308   1.279   0.943   2.398
 1470SOL    HW1 5309   1.227   0.861   2.374
 1470SOL    HW2 5310   1.233   1.024   2.364
 1471SOL     OW 5311   0.867   0.849   0.039
 1471SOL    HW1 5312   0.886   0.753   0.057
 1471SOL    HW2 5313   0.768   0.863   0.033
 1472SOL     OW 5314   4.305   5.391   4.707
 1472SOL    HW1 5315   4.335   5.313   4.762
 1472SOL    HW2 5316   4.331   5.376   4.611
 1473SOL     OW 5317   5.389   6.686   3.686
 1473SOL    HW1 5318   5.300   6.691   3.640
 1473SOL    HW2 5319   5.381   6.726   3.778
 1474SOL     OW 5320   6.632   6.082   3.751
 1474SOL    HW1 5321   6.713   6.029   3.723
 1474SOL    HW2 5322   6.659   6.149   3.820
 1475SOL     OW 5323   6.823   0.355   1.260
 1475SOL    HW1 5324   6.871   0.271   1.287
 1475SOL    HW2 5325   6.872   0.398   1.184
 1476SOL     OW 5326   1.186   1.309   1.243
 1476SOL    HW1 5327   1.198   1.276   1.149
 1476SOL    HW2 5328   1.137   1.241   1.297
 1477SOL     OW 5329   2.459   0.398   6.542
 1477SOL    HW1 5330   2.399   0.474   6.567
 1477SOL    HW2 5331   2.525   0.428   6.473
 1478SOL     OW 5332   5.185   4.158   0.834
 1478SOL    HW1 5333   5.254   4.156   0.761
 1478SOL    HW2 5334   5.230   4.149   0.922
 1479SOL     OW 5335   1.589   3.777   6.836
 1479SOL    HW1 5336   1.662   3.722   6.795
 1479SOL    HW2 5337   1.606   3.787   6.934
 1480SOL     OW 5338   2.652   0.089   0.259
 1480SOL    HW1 5339   2.648   0.186   0.280
 1480SOL    HW2 5340   2.730   0.070   0.200
 1481SOL     OW 5341   6.632   1.589   4.841
 1481SOL    HW1 5342   6.557   1.645   4.807
 1481SOL    HW2 5343   6.719   1.631   4.816
 1482SOL     OW 5344   5.358   2.089   1.018
 1482SOL    HW1 5345   5.263   2.086   0.988
 1482SOL    HW2 5346   5.417   2.049   0.949
 1483SOL     OW 5347   0.392   2.915   6.198
 1483SOL    HW1 5348   0.294   2.914   6.219
 1483SOL    HW2 5349   0.411   2.854   6.121
 1484SOL     OW 5350   6.321   4.529   3.705
 1484SOL    HW1 5351   6.380   4.448   3.712
 1484SOL    HW2 5352   6.378   4.611   3.703
 1485SOL     OW 5353   4.544   1.876   3.151
 1485SOL    HW1 5354   4.474   1.948   3.160
 1485SOL    HW2 5355   4.632   1.918   3.130
 1486SOL     OW 5356   4.679   2.732   3.130
 1486SOL    HW1 5357   4.654   2.753   3.225
 1486SOL    HW2 5358   4.778   2.717   3.124
 1487SOL     OW 5359   5.896   2.518   6.792
 1487SOL    HW1 5360   5.976   2.482   6.839
 1487SOL    HW2 5361   5.843   2.575   6.855
 1488SOL     OW 5362   6.173   2.048   2.821
 1488SOL    HW1 5363   6.114   2.042   2.902
 1488SOL    HW2 5364   6.116   2.059   2.740
 1489SOL     OW 5365   3.762   4.997   4.492
 1489SOL    HW1 5366   3.743   4.955   4.403
 1489SOL    HW2 5367   3.678   5.035   4.530
 1490SOL     OW 5368   1.329   2.609   1.310
 1490SOL    HW1 5369   1.407   2.663   1.341
 1490SOL    HW2 5370   1.250   2.668   1.297
 1491SOL     OW 5371   6.588   3.648   3.590
 1491SOL    HW1 5372   6.570   3.577   3.658
 1491SOL    HW2 5373   6.655   3.713   3.626
 1492SOL     OW 5374   5.934   1.827   1.689
 1492SOL    HW1 5375   5.920   1.733   1.720
 1492SOL    HW2 5376   5.854   1.882   1.712
 1493SOL     OW 5377   5.186   0.756   4.919
 1493SOL    HW1 5378   5.135   0.753   5.005
 1493SOL    HW2 5379   5.138   0.701   4.850
 1494SOL     OW 5380   4.411   2.099   5.954
 1494SOL    HW1 5381   4.375   2.007   5.941
 1494SOL    HW2 5382   4.347   2.165   5.915
 1495SOL     OW 5383   0.475   3.451   3.374
 1495SOL    HW1 5384   0.403   3.519   3.359
 1495SOL    HW2 5385   0.541   3.456   3.300
 1496SOL     OW 5386   1.125   0.672   2.017
 1496SOL    HW1 5387   1.070   0.755   2.017
 1496SOL    HW2 5388   1.089   0.608   1.949
 1497SOL     OW 5389   0.595   4.055   2.865
 1497SOL    HW1 5390   0.688   4.031   2.837
 1497SOL    HW2 5391   0.579   4.025   2.959
 1498SOL     OW 5392   1.505   4.679   6.288
 1498SOL    HW1 5393   1.456   4.749   6.339
 1498SOL    HW2 5394   1.572   4.634   6.347
 1499SOL     OW 5395   1.038   3.480   5.360
 1499SOL    HW1 5396   0.966   3.540   5.397
 1499SOL    HW2 5397   1.124   3.530   5.357
 1500SOL     OW 5398   5.749   6.591   6.960
 1500SOL    HW1 5399   5.700   6.550   0.022
 1500SOL    HW2 5400   5.779   6.518   6.898
 1501SOL     OW 5401   4.010   1.097   6.359
 1501SOL    HW1 5402   3.940   1.147   6.308
 1501SOL    HW2 5403   4.101   1.129   6.334
 1502SOL     OW 5404   6.141   6.610   1.468
 1502SOL    HW1 5405   6.086   6.664   1.531
 1502SOL    HW2 5406   6.094   6.524   1.448
 1503SOL     OW 5407   2.890   1.544   1.434
 1503SOL    HW1 5408   2.852   1.610   1.498
 1503SOL    HW2 5409   2.885   1.582   1.341
 1504SOL     OW 5410   1.729   0.678   5.233
 1504SOL    HW1 5411   1.687   0.769   5.234
 1504SOL    HW2 5412   1.822   0.684   5.271
 1505SOL     OW 5413   5.567   0.705   6.712
 1505SOL    HW1 5414   5.579   0.690   6.810
 1505SOL    HW2 5415   5.497   0.643   6.677
 1506SOL     OW 5416   1.882   5.596   2.200
 1506SOL    HW1 5417   1.824   5.617   2.279
 1506SOL    HW2 5418   1.869   5.666   2.130
 1507SOL     OW 5419   1.380   2.114   5.377
 1507SOL    HW1 5420   1.295   2.065   5.391
 1507SOL    HW2 5421   1.361   2.205   5.340
 1508SOL     OW 5422   5.894   0.317   0.961
 1508SOL    HW1 5423   5.844   0.231   0.967
 1508SOL    HW2 5424   5.886   0.354   0.869
 1509SOL     OW 5425   3.891   1.901   6.087
 1509SOL    HW1 5426   3.882   1.806   6.116
 1509SOL    HW2 5427   3.809   1.952   6.113
 1510SOL     OW 5428   5.780   2.053   3.879
 1510SOL    HW1 5429   5.718   1.979   3.904
 1510SOL    HW2 5430   5.865   2.015   3.843
 1511SOL     OW 5431   2.439   2.725   0.497
 1511SOL    HW1 5432   2.506   2.774   0.552
 1511SOL    HW2 5433   2.361   2.785   0.478
 1512SOL     OW 5434   0.237   6.873   1.654
 1512SOL    HW1 5435   0.210   6.934   1.728
 1512SOL    HW2 5436   0.286   6.924   1.584
 1513SOL     OW 5437   4.669   0.396   3.904
 1513SOL    HW1 5438   4.765   0.397   3.933
 1513SOL    HW2 5439   4.643   0.487   3.873
 1514SOL     OW 5440   5.592   2.666   4.897
 1514SOL    HW1 5441   5.687   2.659   4.867
 1514SOL    HW2 5442   5.555   2.755   4.872
 1515SOL     OW 5443   6.805   3.330   5.913
 1515SOL    HW1 5444   6.705   3.335   5.915
 1515SOL    HW2 5445   6.843   3.384   5.989
 1516SOL     OW 5446   0.597   0.243   0.953
 1516SOL    HW1 5447   0.630   0.162   1.003
 1516SOL    HW2 5448   0.675   0.299   0.926
 1517SOL     OW 5449   4.576   5.879   3.524
 1517SOL    HW1 5450   4.485   5.839   3.516
 1517SOL    HW2 5451   4.582   5.931   3.609
 1518SOL     OW 5452   0.067   3.092   0.105
 1518SOL    HW1 5453   0.061   3.113   0.202
 1518SOL    HW2 5454   0.156   3.053   0.085
 1519SOL     OW 5455   0.032   4.578   2.286
 1519SOL    HW1 5456   6.974   4.544   2.344
 1519SOL    HW2 5457   0.028   4.534   2.196
 1520SOL     OW 5458   1.473   3.356   2.397
 1520SOL    HW1 5459   1.470   3.261   2.429
 1520SOL    HW2 5460   1.490   3.358   2.299
 1521SOL     OW 5461   1.938   3.375   6.962
 1521SOL    HW1 5462   1.859   3.344   7.015
 1521SOL    HW2 5463   2.002   3.299   6.951
 1522SOL     OW 5464   6.461   1.553   5.438
 1522SOL    HW1 5465   6.527   1.588   5.505
 1522SOL    HW2 5466   6.474   1.599   5.351
 1523SOL     OW 5467   5.021   4.136   6.733
 1523SOL    HW1 5468   5.016   4.214   6.796
 1523SOL    HW2 5469   4.930   4.099   6.719
 1524SOL     OW 5470   0.933   1.870   1.735
 1524SOL    HW1 5471   0.971   1.847   1.646
 1524SOL    HW2 5472   0.836   1.845   1.738
 1525SOL     OW 5473   5.220   2.677   6.567
 1525SOL    HW1 5474   5.136   2.730   6.580
 1525SOL    HW2 5475   5.269   2.671   6.654
 1526SOL     OW 5476   1.043   1.559   0.725
 1526SOL    HW1 5477   1.087   1.474   0.697
 1526SOL    HW2 5478   1.109   1.634   0.725
 1527SOL     OW 5479   3.815   0.705   5.293
 1527SOL    HW1 5480   3.820   0.607   5.314
 1527SOL    HW2 5481   3.884   0.755   5.345
 1528SOL     OW 5482   5.232   6.294   2.713
 1528SOL    HW1 5483   5.321   6.256   2.735
 1528SOL    HW2 5484   5.241   6.360   2.638
 1529SOL     OW 5485   3.728   1.616   0.034
 1529SOL    HW1 5486   3.734   1.517   0.047
 1529SOL    HW2 5487   3.695   1.635   6.957
 1530SOL     OW 5488   2.982   0.565   1.452
 1530SOL    HW1 5489   3.059   0.627   1.469
 1530SOL    HW2 5490   2.932   0.549   1.537
 1531SOL     OW 5491   6.078   0.715   5.339
 1531SOL    HW1 5492   5.989   0.761   5.339
 1531SOL    HW2 5493   6.118   0.720   5.248
 1532SOL     OW 5494   2.525   2.328   5.383
 1532SOL    HW1 5495   2.500   2.411   5.432
 1532SOL    HW2 5496   2.482   2.329   5.292
 1533SOL     OW 5497   0.192   3.309   6.207
 1533SOL    HW1 5498   0.224   3.269   6.121
 1533SOL    HW2 5499   0.123   3.249   6.248
 1534SOL     OW 5500   1.905   4.934   0.213
 1534SOL    HW1 5501   1.914   4.882   0.128
 1534SOL    HW2 5502   1.981   5.000   0.220
 1535SOL     OW 5503   5.197   5.939   4.162
 1535SOL    HW1 5504   5.167   6.027   4.124
 1535SOL    HW2 5505   5.126   5.870   4.146
 1536SOL     OW 5506   3.538   4.730   5.398
 1536SOL    HW1 5507   3.580   4.819   5.416
 1536SOL    HW2 5508   3.444   4.742   5.368
 1537SOL     OW 5509   4.045   5.798   3.108
 1537SOL    HW1 5510   4.006   5.760   3.191
 1537SOL    HW2 5511   3.983   5.781   3.031
 1538SOL     OW 5512   3.308   5.257   5.470
 1538SOL    HW1 5513   3.211   5.250   5.491
 1538SOL    HW2 5514   3.361   5.225   5.549
 1539SOL     OW 5515   3.885   4.321   1.414
 1539SOL    HW1 5516   3.786   4.315   1.416
 1539SOL    HW2 5517   3.923   4.242   1.366
 1540SOL     OW 5518   1.044   0.143   5.668
 1540SOL    HW1 5519   1.071   0.220   5.610
 1540SOL    HW2 5520   1.085   0.154   5.759
 1541SOL     OW 5521   3.249   2.869   1.572
 1541SOL    HW1 5522   3.235   2.854   1.670
 1541SOL    HW2 5523   3.334   2.825   1.543
 1542SOL     OW 5524   6.830   6.006   1.385
 1542SOL    HW1 5525   6.833   6.091   1.438
 1542SOL    HW2 5526   6.762   6.015   1.313
 1543SOL     OW 5527   3.194   3.152   3.787
 1543SOL    HW1 5528   3.136   3.230   3.808
 1543SOL    HW2 5529   3.288   3.172   3.814
 1544SOL     OW 5530   3.230   3.884   2.512
 1544SOL    HW1 5531   3.257   3.964   2.458
 1544SOL    HW2 5532   3.145   3.847   2.476
 1545SOL     OW 5533   5.512   0.762   5.213
 1545SOL    HW1 5534   5.478   0.810   5.133
 1545SOL    HW2 5535   5.444   0.696   5.245
 1546SOL     OW 5536   5.047   6.672   6.132
 1546SOL    HW1 5537   5.037   6.655   6.034
 1546SOL    HW2 5538   4.965   6.640   6.180
 1547SOL     OW 5539   2.103   4.115   2.828
 1547SOL    HW1 5540   2.132   4.203   2.790
 1547SOL    HW2 5541   2.120   4.113   2.926
 1548SOL     OW 5542   4.707   4.018   5.828
 1548SOL    HW1 5543   4.734   3.950   5.760
 1548SOL    HW2 5544   4.665   4.097   5.782
 1549SOL     OW 5545   5.520   1.017   2.259
 1549SOL    HW1 5546   5.552   1.054   2.172
 1549SOL    HW2 5547   5.575   0.937   2.283
 1550SOL     OW 5548   2.981   6.803   5.670
 1550SOL    HW1 5549   3.072   6.809   5.711
 1550SOL    HW2 5550   2.989   6.805   5.570
 1551SOL     OW 5551   1.848   3.479   0.858
 1551SOL    HW1 5552   1.780   3.407   0.860
 1551SOL    HW2 5553   1.821   3.552   0.922
 1552SOL     OW 5554   0.695   0.026   1.651
 1552SOL    HW1 5555   0.772   0.056   1.707
 1552SOL    HW2 5556   0.625   7.001   1.710
 1553SOL     OW 5557   6.471   2.144   6.516
 1553SOL    HW1 5558   6.487   2.200   6.435
 1553SOL    HW2 5559   6.425   2.199   6.586
 1554SOL     OW 5560   3.408   2.069   2.329
 1554SOL    HW1 5561   3.459   2.118   2.259
 1554SOL    HW2 5562   3.312   2.063   2.302
 1555SOL     OW 5563   4.441   2.429   6.066
 1555SOL    HW1 5564   4.479   2.400   5.978
 1555SOL    HW2 5565   4.344   2.452   6.055
 1556SOL     OW 5566   4.176   1.155   0.388
 1556SOL    HW1 5567   4.100   1.197   0.337
 1556SOL    HW2 5568   4.259   1.161   0.334
 1557SOL     OW 5569   3.268   1.988   0.539
 1557SOL    HW1 5570   3.257   1.921   0.466
 1557SOL    HW2 5571   3.347   1.965   0.596
 1558SOL     OW 5572   6.020   1.486   4.600
 1558SOL    HW1 5573   6.056   1.406   4.553
 1558SOL    HW2 5574   6.022   1.470   4.699
 1559SOL     OW 5575   0.430   3.146   1.003
 1559SOL    HW1 5576   0.501   3.181   1.064
 1559SOL    HW2 5577   0.464   3.066   0.954
 1560SOL     OW 5578   2.774   1.130   6.905
 1560SOL    HW1 5579   2.774   1.032   6.924
 1560SOL    HW2 5580   2.689   1.171   6.940
 1561SOL     OW 5581   5.219   5.150   3.644
 1561SOL    HW1 5582   5.190   5.229   3.591
 1561SOL    HW2 5583   5.312   5.165   3.678
 1562SOL     OW 5584   4.063   6.523   1.995
 1562SOL    HW1 5585   4.011   6.602   2.027
 1562SOL    HW2 5586   4.135   6.553   1.933
 1563SOL     OW 5587   2.224   1.783   5.927
 1563SOL    HW1 5588   2.182   1.701   5.887
 1563SOL    HW2 5589   2.154   1.854   5.940
 1564SOL     OW 5590   1.354   2.295   2.516
 1564SOL    HW1 5591   1.352   2.384   2.563
 1564SOL    HW2 5592   1.305   2.303   2.429
 1565SOL     OW 5593   3.876   5.026   4.742
 1565SOL    HW1 5594   3.932   4.952   4.781
 1565SOL    HW2 5595   3.856   5.005   4.646
 1566SOL     OW 5596   5.945   5.531   4.906
 1566SOL    HW1 5597   5.936   5.432   4.893
 1566SOL    HW2 5598   6.002   5.568   4.833
 1567SOL     OW 5599   6.203   5.327   0.164
 1567SOL    HW1 5600   6.241   5.410   0.204
 1567SOL    HW2 5601   6.262   5.249   0.186
 1568SOL     OW 5602   2.432   6.421   2.643
 1568SOL    HW1 5603   2.465   6.511   2.616
 1568SOL    HW2 5604   2.371   6.430   2.722
 1569SOL     OW 5605   3.660   6.552   3.096
 1569SOL    HW1 5606   3.666   6.613   3.176
 1569SOL    HW2 5607   3.608   6.597   3.024
 1570SOL     OW 5608   1.644   6.575   0.002
 1570SOL    HW1 5609   1.561   6.617   6.981
 1570SOL    HW2 5610   1.675   6.627   0.081
 1571SOL     OW 5611   0.563   2.514   3.390
 1571SOL    HW1 5612   0.518   2.472   3.468
 1571SOL    HW2 5613   0.662   2.515   3.405
 1572SOL     OW 5614   1.854   5.352   2.071
 1572SOL    HW1 5615   1.861   5.437   2.124
 1572SOL    HW2 5616   1.943   5.331   2.030
 1573SOL     OW 5617   5.634   5.312   2.024
 1573SOL    HW1 5618   5.676   5.363   2.099
 1573SOL    HW2 5619   5.656   5.357   1.938
 1574SOL     OW 5620   6.708   2.881   3.008
 1574SOL    HW1 5621   6.700   2.833   3.096
 1574SOL    HW2 5622   6.798   2.863   2.968
 1575SOL     OW 5623   2.573   0.901   1.947
 1575SOL    HW1 5624   2.663   0.935   1.975
 1575SOL    HW2 5625   2.550   0.938   1.857
 1576SOL     OW 5626   0.907   6.923   3.478
 1576SOL    HW1 5627   0.957   7.009   3.480
 1576SOL    HW2 5628   0.847   6.921   3.397
 1577SOL     OW 5629   2.373   0.682   5.512
 1577SOL    HW1 5630   2.390   0.584   5.520
 1577SOL    HW2 5631   2.289   0.706   5.561
 1578SOL     OW 5632   5.036   1.139   6.000
 1578SOL    HW1 5633   5.006   1.232   6.021
 1578SOL    HW2 5634   4.975   1.099   5.932
 1579SOL     OW 5635   6.727   1.984   1.586
 1579SOL    HW1 5636   6.826   1.986   1.600
 1579SOL    HW2 5637   6.685   1.926   1.656
 1580SOL     OW 5638   3.414   4.163   3.184
 1580SOL    HW1 5639   3.439   4.068   3.204
 1580SOL    HW2 5640   3.357   4.199   3.257
 1581SOL     OW 5641   6.996   4.371   5.588
 1581SOL    HW1 5642   6.897   4.363   5.598
 1581SOL    HW2 5643   0.024   4.289   5.627
 1582SOL     OW 5644   3.309   6.312   4.522
 1582SOL    HW1 5645   3.388   6.371   4.503
 1582SOL    HW2 5646   3.301   6.243   4.450
 1583SOL     OW 5647   1.191   5.668   4.083
 1583SOL    HW1 5648   1.178   5.573   4.111
 1583SOL    HW2 5649   1.247   5.716   4.151
 1584SOL     OW 5650   0.825   5.282   6.093
 1584SOL    HW1 5651   0.872   5.194   6.093
 1584SOL    HW2 5652   0.747   5.278   6.155
 1585SOL     OW 5653   4.337   1.988   2.866
 1585SOL    HW1 5654   4.388   1.946   2.791
 1585SOL    HW2 5655   4.270   2.052   2.829
 1586SOL     OW 5656   3.404   5.131   2.985
 1586SOL    HW1 5657   3.407   5.194   2.907
 1586SOL    HW2 5658   3.402   5.183   3.070
 1587SOL     OW 5659   2.319   5.179   5.144
 1587SOL    HW1 5660   2.220   5.184   5.130
 1587SOL    HW2 5661   2.341   5.201   5.239
 1588SOL     OW 5662   4.718   0.852   2.007
 1588SOL    HW1 5663   4.654   0.913   2.053
 1588SOL    HW2 5664   4.793   0.829   2.069
 1589SOL     OW 5665   0.452   3.406   2.335
 1589SOL    HW1 5666   0.505   3.463   2.398
 1589SOL    HW2 5667   0.354   3.419   2.353
 1590SOL     OW 5668   5.343   0.844   3.922
 1590SOL    HW1 5669   5.292   0.928   3.903
 1590SOL    HW2 5670   5.383   0.851   4.014
 1591SOL     OW 5671   0.035   6.155   0.890
 1591SOL    HW1 5672   6.978   6.094   0.861
 1591SOL    HW2 5673   0.094   6.108   0.956
 1592SOL     OW 5674   2.051   3.379   6.687
 1592SOL    HW1 5675   1.990   3.364   6.609
 1592SOL    HW2 5676   2.002   3.360   6.772
 1593SOL     OW 5677   0.968   6.958   5.968
 1593SOL    HW1 5678   1.028   6.889   5.926
 1593SOL    HW2 5679   0.994   0.033   5.936
 1594SOL     OW 5680   0.395   6.200   1.942
 1594SOL    HW1 5681   0.453   6.266   1.990
 1594SOL    HW2 5682   0.313   6.247   1.909
 1595SOL     OW 5683   1.058   4.665   0.910
 1595SOL    HW1 5684   0.990   4.702   0.972
 1595SOL    HW2 5685   1.120   4.605   0.959
 1596SOL     OW 5686   6.687   3.003   2.557
 1596SOL    HW1 5687   6.694   3.078   2.621
 1596SOL    HW2 5688   6.612   2.943   2.584
 1597SOL     OW 5689   1.320   6.257   0.935
 1597SOL    HW1 5690   1.325   6.180   0.999
 1597SOL    HW2 5691   1.277   6.335   0.980
 1598SOL     OW 5692   1.304   4.911   6.232
 1598SOL    HW1 5693   1.256   4.965   6.301
 1598SOL    HW2 5694   1.253   4.826   6.215
 1599SOL     OW 5695   5.338   4.891   5.310
 1599SOL    HW1 5696   5.291   4.961   5.256
 1599SOL    HW2 5697   5.433   4.919   5.325
 1600SOL     OW 5698   2.981   1.584   2.960
 1600SOL    HW1 5699   3.069   1.619   2.930
 1600SOL    HW2 5700   2.975   1.486   2.939
 1601SOL     OW 5701   6.907   6.994   4.166
 1601SOL    HW1 5702   6.947   0.069   4.156
 1601SOL    HW2 5703   6.889   6.955   4.075
 1602SOL     OW 5704   4.403   5.149   4.127
 1602SOL    HW1 5705   4.372   5.094   4.049
 1602SOL    HW2 5706   4.502   5.166   4.119
 1603SOL     OW 5707   3.090   5.331   3.354
 1603SOL    HW1 5708   3.124   5.418   3.391
 1603SOL    HW2 5709   3.101   5.260   3.424
 1604SOL     OW 5710   4.351   4.779   1.395
 1604SOL    HW1 5711   4.406   4.863   1.397
 1604SOL    HW2 5712   4.254   4.803   1.393
 1605SOL     OW 5713   6.779   5.555   1.655
 1605SOL    HW1 5714   6.735   5.638   1.689
 1605SOL    HW2 5715   6.787   5.560   1.556
 1606SOL     OW 5716   3.683   5.634   5.581
 1606SOL    HW1 5717   3.766   5.580   5.569
 1606SOL    HW2 5718   3.615   5.606   5.513
 1607SOL     OW 5719   4.340   0.284   0.865
 1607SOL    HW1 5720   4.331   0.292   0.964
 1607SOL    HW2 5721   4.286   0.206   0.833
 1608SOL     OW 5722   6.579   0.895   2.656
 1608SOL    HW1 5723   6.661   0.934   2.695
 1608SOL    HW2 5724   6.561   0.805   2.697
 1609SOL     OW 5725   3.566   6.725   0.424
 1609SOL    HW1 5726   3.603   6.638   0.456
 1609SOL    HW2 5727   3.472   6.712   0.393
 1610SOL     OW 5728   5.080   5.997   0.626
 1610SOL    HW1 5729   5.155   6.010   0.690
 1610SOL    HW2 5730   5.077   5.901   0.596
 1611SOL     OW 5731   2.424   3.813   0.503
 1611SOL    HW1 5732   2.339   3.813   0.556
 1611SOL    HW2 5733   2.403   3.816   0.406
 1612SOL     OW 5734   4.060   6.887   1.241
 1612SOL    HW1 5735   4.014   6.933   1.164
 1612SOL    HW2 5736   4.050   6.942   1.323
 1613SOL     OW 5737   1.573   5.929   1.830
 1613SOL    HW1 5738   1.528   5.946   1.918
 1613SOL    HW2 5739   1.551   6.003   1.766
 1614SOL     OW 5740   5.802   1.632   6.189
 1614SOL    HW1 5741   5.744   1.667   6.263
 1614SOL    HW2 5742   5.797   1.695   6.112
 1615SOL     OW 5743   6.065   6.139   0.402
 1615SOL    HW1 5744   6.034   6.047   0.381
 1615SOL    HW2 5745   6.156   6.154   0.364
 1616SOL     OW 5746   4.184   0.361   3.997
 1616SOL    HW1 5747   4.128   0.313   4.064
 1616SOL    HW2 5748   4.245   0.426   4.043
 1617SOL     OW 5749   5.478   6.244   2.844
 1617SOL    HW1 5750   5.538   6.306   2.895
 1617SOL    HW2 5751   5.409   6.207   2.907
 1618SOL     OW 5752   2.054   6.527   3.287
 1618SOL    HW1 5753   2.139   6.489   3.249
 1618SOL    HW2 5754   2.016   6.462   3.353
 1619SOL     OW 5755   0.081   4.826   0.327
 1619SOL    HW1 5756   0.126   4.915   0.321
 1619SOL    HW2 5757   0.010   4.829   0.398
 1620SOL     OW 5758   3.479   4.815   1.628
 1620SOL    HW1 5759   3.507   4.749   1.698
 1620SOL    HW2 5760   3.382   4.802   1.608
 1621SOL     OW 5761   6.271   0.288   1.545
 1621SOL    HW1 5762   6.177   0.302   1.576
 1621SOL    HW2 5763   6.297   0.193   1.560
 1622SOL     OW 5764   0.849   3.606   5.517
 1622SOL    HW1 5765   0.906   3.550   5.576
 1622SOL    HW2 5766   0.856   3.702   5.544
 1623SOL     OW 5767   0.452   2.729   4.811
 1623SOL    HW1 5768   0.548   2.715   4.838
 1623SOL    HW2 5769   0.440   2.822   4.778
 1624SOL     OW 5770   4.381   1.074   5.481
 1624SOL    HW1 5771   4.350   1.163   5.514
 1624SOL    HW2 5772   4.394   1.012   5.558
 1625SOL     OW 5773   1.646   4.914   6.829
 1625SOL    HW1 5774   1.644   4.950   6.922
 1625SOL    HW2 5775   1.654   4.814   6.833
 1626SOL     OW 5776   3.189   1.027   0.740
 1626SOL    HW1 5777   3.259   1.040   0.811
 1626SOL    HW2 5778   3.232   0.990   0.658
 1627SOL     OW 5779   5.376   2.774   3.483
 1627SOL    HW1 5780   5.344   2.783   3.577
 1627SOL    HW2 5781   5.299   2.749   3.424
 1628SOL     OW 5782   4.180   5.740   0.076
 1628SOL    HW1 5783   4.173   5.688   7.006
 1628SOL    HW2 5784   4.090   5.742   0.121
 1629SOL     OW 5785   2.373   1.077   3.795
 1629SOL    HW1 5786   2.334   1.088   3.887
 1629SOL    HW2 5787   2.353   1.159   3.741
 1630SOL     OW 5788   0.285   4.678   5.528
 1630SOL    HW1 5789   0.334   4.681   5.441
 1630SOL    HW2 5790   0.195   4.638   5.514
 1631SOL     OW 5791   0.606   3.439   0.421
 1631SOL    HW1 5792   0.572   3.527   0.389
 1631SOL    HW2 5793   0.560   3.413   0.506
 1632SOL     OW 5794   4.854   2.967   2.633
 1632SOL    HW1 5795   4.849   2.888   2.572
 1632SOL    HW2 5796   4.795   2.953   2.712
 1633SOL     OW 5797   4.850   4.002   4.653
 1633SOL    HW1 5798   4.809   3.914   4.632
 1633SOL    HW2 5799   4.844   4.062   4.572
 1634SOL     OW 5800   4.478   6.914   4.272
 1634SOL    HW1 5801   4.575   6.906   4.252
 1634SOL    HW2 5802   4.462   6.991   4.333
 1635SOL     OW 5803   0.415   5.167   6.533
 1635SOL    HW1 5804   0.449   5.134   6.445
 1635SOL    HW2 5805   0.424   5.266   6.537
 1636SOL     OW 5806   3.155   4.722   1.504
 1636SOL    HW1 5807   3.095   4.655   1.460
 1636SOL    HW2 5808   3.162   4.701   1.602
 1637SOL     OW 5809   0.141   6.556   3.697
 1637SOL    HW1 5810   0.198   6.551   3.779
 1637SOL    HW2 5811   0.056   6.604   3.719
 1638SOL     OW 5812   0.863   3.344   2.283
 1638SOL    HW1 5813   0.835   3.373   2.374
 1638SOL    HW2 5814   0.810   3.264   2.255
 1639SOL     OW 5815   5.314   5.065   1.388
 1639SOL    HW1 5816   5.409   5.068   1.419
 1639SOL    HW2 5817   5.261   5.004   1.448
 1640SOL     OW 5818   6.123   0.794   0.641
 1640SOL    HW1 5819   6.211   0.751   0.658
 1640SOL    HW2 5820   6.075   0.745   0.568
 1641SOL     OW 5821   6.027   1.680   3.786
 1641SOL    HW1 5822   6.081   1.642   3.710
 1641SOL    HW2 5823   6.085   1.740   3.840
 1642SOL     OW 5824   6.474   3.365   6.855
 1642SOL    HW1 5825   6.417   3.333   6.779
 1642SOL    HW2 5826   6.435   3.332   6.942
 1643SOL     OW 5827   2.907   4.798   3.387
 1643SOL    HW1 5828   2.836   4.728   3.381
 1643SOL    HW2 5829   2.941   4.803   3.481
 1644SOL     OW 5830   5.495   3.713   6.568
 1644SOL    HW1 5831   5.541   3.717   6.479
 1644SOL    HW2 5832   5.545   3.771   6.633
 1645SOL     OW 5833   2.694   5.855   6.300
 1645SOL    HW1 5834   2.757   5.778   6.291
 1645SOL    HW2 5835   2.743   5.933   6.340
 1646SOL     OW 5836   2.827   6.566   0.488
 1646SOL    HW1 5837   2.763   6.526   0.422
 1646SOL    HW2 5838   2.855   6.496   0.554
 1647SOL     OW 5839   5.976   2.230   4.302
 1647SOL    HW1 5840   6.018   2.194   4.385
 1647SOL    HW2 5841   5.880   2.203   4.298
 1648SOL     OW 5842   5.170   5.923   7.007
 1648SOL    HW1 5843   5.182   5.824   6.992
 1648SOL    HW2 5844   5.217   5.973   6.935
 1649SOL     OW 5845   3.655   1.562   4.362
 1649SOL    HW1 5846   3.747   1.571   4.401
 1649SOL    HW2 5847   3.637   1.640   4.303
 1650SOL     OW 5848   0.488   5.759   5.028
 1650SOL    HW1 5849   0.417   5.797   4.969
 1650SOL    HW2 5850   0.477   5.795   5.120
 1651SOL     OW 5851   0.481   2.482   1.725
 1651SOL    HW1 5852   0.393   2.489   1.679
 1651SOL    HW2 5853   0.469   2.498   1.823
 1652SOL     OW 5854   1.630   3.177   2.677
 1652SOL    HW1 5855   1.703   3.156   2.742
 1652SOL    HW2 5856   1.550   3.212   2.727
 1653SOL     OW 5857   0.916   6.282   0.484
 1653SOL    HW1 5858   0.911   6.208   0.417
 1653SOL    HW2 5859   0.926   6.244   0.576
 1654SOL     OW 5860   6.823   3.312   1.634
 1654SOL    HW1 5861   6.757   3.310   1.559
 1654SOL    HW2 5862   6.792   3.377   1.703
 1655SOL     OW 5863   6.979   2.116   4.796
 1655SOL    HW1 5864   0.025   2.161   4.731
 1655SOL    HW2 5865   6.911   2.063   4.746
 1656SOL     OW 5866   2.072   5.121   2.863
 1656SOL    HW1 5867   2.083   5.162   2.773
 1656SOL    HW2 5868   1.996   5.056   2.862
 1657SOL     OW 5869   5.820   0.361   4.312
 1657SOL    HW1 5870   5.916   0.332   4.311
 1657SOL    HW2 5871   5.804   0.422   4.389
 1658SOL     OW 5872   5.957   1.093   0.845
 1658SOL    HW1 5873   5.878   1.091   0.906
 1658SOL    HW2 5874   5.938   1.156   0.769
 1659SOL     OW 5875   3.480   0.394   0.127
 1659SOL    HW1 5876   3.469   0.300   0.161
 1659SOL    HW2 5877   3.415   0.454   0.173
 1660SOL     OW 5878   1.767   6.236   2.222
 1660SOL    HW1 5879   1.725   6.300   2.158
 1660SOL    HW2 5880   1.743   6.142   2.195
 1661SOL     OW 5881   1.747   6.577   1.631
 1661SOL    HW1 5882   1.840   6.612   1.621
 1661SOL    HW2 5883   1.688   6.615   1.560
 1662SOL     OW 5884   0.217   0.984   4.246
 1662SOL    HW1 5885   0.173   0.957   4.161
 1662SOL    HW2 5886   0.251   1.078   4.239
 1663SOL     OW 5887   4.538   5.363   3.443
 1663SOL    HW1 5888   4.473   5.373   3.367
 1663SOL    HW2 5889   4.567   5.454   3.474
 1664SOL     OW 5890   2.016   6.170   5.059
 1664SOL    HW1 5891   2.075   6.089   5.060
 1664SOL    HW2 5892   2.072   6.251   5.040
 1665SOL     OW 5893   6.713   3.468   1.826
 1665SOL    HW1 5894   6.794   3.490   1.880
 1665SOL    HW2 5895   6.632   3.504   1.871
 1666SOL     OW 5896   5.817   0.600   0.128
 1666SOL    HW1 5897   5.747   0.559   0.070
 1666SOL    HW2 5898   5.792   0.694   0.149
 1667SOL     OW 5899   0.244   6.300   1.429
 1667SOL    HW1 5900   0.187   6.288   1.510
 1667SOL    HW2 5901   0.339   6.312   1.457
 1668SOL     OW 5902   4.829   5.014   3.683
 1668SOL    HW1 5903   4.853   5.057   3.596
 1668SOL    HW2 5904   4.877   5.060   3.757
 1669SOL     OW 5905   6.642   4.119   6.074
 1669SOL    HW1 5906   6.590   4.062   6.011
 1669SOL    HW2 5907   6.730   4.075   6.094
 1670SOL     OW 5908   6.784   4.387   5.234
 1670SOL    HW1 5909   6.749   4.468   5.281
 1670SOL    HW2 5910   6.869   4.411   5.186
 1671SOL     OW 5911   5.524   1.750   3.697
 1671SOL    HW1 5912   5.493   1.845   3.700
 1671SOL    HW2 5913   5.622   1.748   3.675
 1672SOL     OW 5914   2.419   3.515   0.649
 1672SOL    HW1 5915   2.429   3.542   0.744
 1672SOL    HW2 5916   2.503   3.472   0.617
 1673SOL     OW 5917   1.404   1.844   4.757
 1673SOL    HW1 5918   1.432   1.907   4.685
 1673SOL    HW2 5919   1.395   1.752   4.719
 1674SOL     OW 5920   0.509   3.316   2.088
 1674SOL    HW1 5921   0.533   3.383   2.019
 1674SOL    HW2 5922   0.507   3.359   2.178
 1675SOL     OW 5923   4.415   0.340   0.358
 1675SOL    HW1 5924   4.454   0.425   0.394
 1675SOL    HW2 5925   4.439   0.264   0.417
 1676SOL     OW 5926   2.258   2.749   2.028
 1676SOL    HW1 5927   2.340   2.748   1.971
 1676SOL    HW2 5928   2.275   2.697   2.111
 1677SOL     OW 5929   3.741   3.826   3.868
 1677SOL    HW1 5930   3.689   3.765   3.928
 1677SOL    HW2 5931   3.828   3.782   3.844
 1678SOL     OW 5932   0.058   4.732   2.493
 1678SOL    HW1 5933   0.064   4.830   2.476
 1678SOL    HW2 5934   0.071   4.682   2.407
 1679SOL     OW 5935   2.085   1.165   4.686
 1679SOL    HW1 5936   2.178   1.177   4.721
 1679SOL    HW2 5937   2.060   1.244   4.630
 1680SOL     OW 5938   0.272   3.789   5.640
 1680SOL    HW1 5939   0.362   3.828   5.659
 1680SOL    HW2 5940   0.205   3.826   5.705
 1681SOL     OW 5941   0.356   5.407   6.263
 1681SOL    HW1 5942   0.271   5.452   6.236
 1681SOL    HW2 5943   0.386   5.346   6.189
 1682SOL     OW 5944   1.222   0.496   5.653
 1682SOL    HW1 5945   1.243   0.434   5.728
 1682SOL    HW2 5946   1.177   0.444   5.579
 1683SOL     OW 5947   5.674   5.383   2.939
 1683SOL    HW1 5948   5.621   5.300   2.926
 1683SOL    HW2 5949   5.618   5.450   2.988
 1684SOL     OW 5950   0.368   5.992   2.134
 1684SOL    HW1 5951   0.400   5.916   2.077
 1684SOL    HW2 5952   0.384   6.078   2.086
 1685SOL     OW 5953   1.818   1.173   5.624
 1685SOL    HW1 5954   1.859   1.239   5.560
 1685SOL    HW2 5955   1.866   1.178   5.712
 1686SOL     OW 5956   2.145   6.295   4.290
 1686SOL    HW1 5957   2.144   6.207   4.338
 1686SOL    HW2 5958   2.052   6.317   4.259
 1687SOL     OW 5959   1.393   2.855   1.930
 1687SOL    HW1 5960   1.386   2.803   2.015
 1687SOL    HW2 5961   1.484   2.842   1.890
 1688SOL     OW 5962   2.206   1.734   3.675
 1688SOL    HW1 5963   2.137   1.739   3.602
 1688SOL    HW2 5964   2.174   1.671   3.746
 1689SOL     OW 5965   6.454   1.134   2.745
 1689SOL    HW1 5966   6.393   1.166   2.673
 1689SOL    HW2 5967   6.489   1.044   2.722
 1690SOL     OW 5968   1.148   2.458   4.742
 1690SOL    HW1 5969   1.226   2.407   4.706
 1690SOL    HW2 5970   1.092   2.491   4.666
 1691SOL     OW 5971   5.435   3.003   4.140
 1691SOL    HW1 5972   5.508   3.038   4.198
 1691SOL    HW2 5973   5.436   2.903   4.141
 1692SOL     OW 5974   4.266   6.218   1.305
 1692SOL    HW1 5975   4.260   6.176   1.396
 1692SOL    HW2 5976   4.219   6.307   1.306
 1693SOL     OW 5977   6.858   2.361   3.342
 1693SOL    HW1 5978   6.890   2.344   3.435
 1693SOL    HW2 5979   6.884   2.453   3.314
 1694SOL     OW 5980   6.594   1.942   3.772
 1694SOL    HW1 5981   6.621   1.846   3.770
 1694SOL    HW2 5982   6.604   1.982   3.681
 1695SOL     OW 5983   3.732   0.563   6.118
 1695SOL    HW1 5984   3.817   0.581   6.070
 1695SOL    HW2 5985   3.752   0.543   6.214
 1696SOL     OW 5986   3.350   5.762   1.319
 1696SOL    HW1 5987   3.398   5.821   1.384
 1696SOL    HW2 5988   3.407   5.682   1.299
 1697SOL     OW 5989   6.603   1.792   0.654
 1697SOL    HW1 5990   6.561   1.842   0.730
 1697SOL    HW2 5991   6.631   1.701   0.685
 1698SOL     OW 5992   3.898   0.013   1.005
 1698SOL    HW1 5993   3.813   0.066   0.995
 1698SOL    HW2 5994   3.897   6.953   0.941
 1699SOL     OW 5995   2.019   1.623   6.615
 1699SOL    HW1 5996   2.039   1.710   6.571
 1699SOL    HW2 5997   2.087   1.604   6.687
 1700SOL     OW 5998   6.232   4.432   3.432
 1700SOL    HW1 5999   6.241   4.467   3.526
 1700SOL    HW2 6000   6.259   4.336   3.430
 1701SOL     OW 6001   5.553   5.625   5.524
 1701SOL    HW1 6002   5.459   5.652   5.544
 1701SOL    HW2 6003   5.567   5.530   5.549
 1702SOL     OW 6004   6.303   1.336   1.051
 1702SOL    HW1 6005   6.311   1.415   1.113
 1702SOL    HW2 6006   6.390   1.287   1.048
 1703SOL     OW 6007   3.615   1.593   6.782
 1703SOL    HW1 6008   3.584   1.684   6.756
 1703SOL    HW2 6009   3.537   1.531   6.787
 1704SOL     OW 6010   0.890   2.524   0.254
 1704SOL    HW1 6011   0.928   2.564   0.337
 1704SOL    HW2 6012   0.808   2.471   0.277
 1705SOL     OW 6013   3.328   2.087   1.719
 1705SOL    HW1 6014   3.305   2.055   1.627
 1705SOL    HW2 6015   3.248   2.078   1.778
 1706SOL     OW 6016   4.942   1.433   1.830
 1706SOL    HW1 6017   5.022   1.444   1.890
 1706SOL    HW2 6018   4.881   1.365   1.870
 1707SOL     OW 6019   4.538   2.526   2.788
 1707SOL    HW1 6020   4.629   2.485   2.799
 1707SOL    HW2 6021   4.471   2.455   2.771
 1708SOL     OW 6022   4.533   5.802   1.752
 1708SOL    HW1 6023   4.589   5.721   1.773
 1708SOL    HW2 6024   4.445   5.773   1.714
 1709SOL     OW 6025   3.337   6.432   2.998
 1709SOL    HW1 6026   3.302   6.476   3.081
 1709SOL    HW2 6027   3.366   6.339   3.019
 1710SOL     OW 6028   4.206   4.891   3.114
 1710SOL    HW1 6029   4.234   4.831   3.189
 1710SOL    HW2 6030   4.255   4.978   3.122
 1711SOL     OW 6031   1.655   5.605   4.407
 1711SOL    HW1 6032   1.601   5.629   4.487
 1711SOL    HW2 6033   1.688   5.689   4.363
 1712SOL     OW 6034   6.698   1.972   4.915
 1712SOL    HW1 6035   6.614   1.924   4.940
 1712SOL    HW2 6036   6.744   2.005   4.998
 1713SOL     OW 6037   4.638   2.148   2.429
 1713SOL    HW1 6038   4.615   2.107   2.517
 1713SOL    HW2 6039   4.676   2.078   2.369
 1714SOL     OW 6040   4.042   1.621   5.821
 1714SOL    HW1 6041   4.014   1.540   5.770
 1714SOL    HW2 6042   4.109   1.673   5.767
 1715SOL     OW 6043   2.313   6.162   3.517
 1715SOL    HW1 6044   2.393   6.114   3.555
 1715SOL    HW2 6045   2.262   6.205   3.591
 1716SOL     OW 6046   3.962   6.895   4.037
 1716SOL    HW1 6047   3.905   6.914   3.957
 1716SOL    HW2 6048   4.052   6.938   4.025
 1717SOL     OW 6049   3.354   6.106   4.953
 1717SOL    HW1 6050   3.427   6.162   4.992
 1717SOL    HW2 6051   3.314   6.049   5.025
 1718SOL     OW 6052   2.814   1.366   2.274
 1718SOL    HW1 6053   2.820   1.391   2.371
 1718SOL    HW2 6054   2.776   1.274   2.265
 1719SOL     OW 6055   2.000   3.228   0.773
 1719SOL    HW1 6056   1.961   3.300   0.830
 1719SOL    HW2 6057   1.971   3.138   0.808
 1720SOL     OW 6058   6.870   3.016   6.766
 1720SOL    HW1 6059   6.780   3.041   6.801
 1720SOL    HW2 6060   6.898   2.928   6.806
 1721SOL     OW 6061   2.036   6.633   1.614
 1721SOL    HW1 6062   2.064   6.726   1.635
 1721SOL    HW2 6063   2.091   6.568   1.666
 1722SOL     OW 6064   3.867   1.463   3.740
 1722SOL    HW1 6065   3.928   1.542   3.738
 1722SOL    HW2 6066   3.831   1.446   3.648
 1723SOL     OW 6067   5.197   2.683   0.036
 1723SOL    HW1 6068   5.183   2.755   6.984
 1723SOL    HW2 6069   5.295   2.661   0.042
 1724SOL     OW 6070   0.438   2.829   2.137
 1724SOL    HW1 6071   0.420   2.736   2.107
 1724SOL    HW2 6072   0.465   2.884   2.058
 1725SOL     OW 6073   1.658   4.725   6.510
 1725SOL    HW1 6074   1.626   4.807   6.557
 1725SOL    HW2 6075   1.748   4.743   6.470
 1726SOL     OW 6076   5.364   4.088   4.202
 1726SOL    HW1 6077   5.312   4.173   4.188
 1726SOL    HW2 6078   5.337   4.047   4.290
 1727SOL     OW 6079   3.925   3.635   3.554
 1727SOL    HW1 6080   3.857   3.641   3.481
 1727SOL    HW2 6081   4.016   3.626   3.515
 1728SOL     OW 6082   5.764   4.840   5.496
 1728SOL    HW1 6083   5.714   4.793   5.569
 1728SOL    HW2 6084   5.803   4.773   5.433
 1729SOL     OW 6085   2.047   3.722   3.487
 1729SOL    HW1 6086   2.099   3.796   3.531
 1729SOL    HW2 6087   2.042   3.740   3.389
 1730SOL     OW 6088   2.582   0.557   4.957
 1730SOL    HW1 6089   2.593   0.649   4.996
 1730SOL    HW2 6090   2.519   0.561   4.880
 1731SOL     OW 6091   0.097   4.236   3.755
 1731SOL    HW1 6092   0.117   4.296   3.678
 1731SOL    HW2 6093   0.103   4.141   3.726
 1732SOL     OW 6094   2.225   4.825   5.927
 1732SOL    HW1 6095   2.231   4.863   5.835
 1732SOL    HW2 6096   2.129   4.819   5.954
 1733SOL     OW 6097   1.753   4.140   1.506
 1733SOL    HW1 6098   1.744   4.124   1.408
 1733SOL    HW2 6099   1.688   4.210   1.535
 1734SOL     OW 6100   5.206   2.865   1.331
 1734SOL    HW1 6101   5.160   2.839   1.415
 1734SOL    HW2 6102   5.229   2.783   1.278
 1735SOL     OW 6103   4.773   5.480   6.514
 1735SOL    HW1 6104   4.870   5.466   6.497
 1735SOL    HW2 6105   4.739   5.409   6.576
 1736SOL     OW 6106   3.832   3.738   1.052
 1736SOL    HW1 6107   3.768   3.814   1.037
 1736SOL    HW2 6108   3.917   3.758   1.004
 1737SOL     OW 6109   5.002   0.051   4.704
 1737SOL    HW1 6110   5.052   0.044   4.791
 1737SOL    HW2 6111   4.920   0.106   4.717
 1738SOL     OW 6112   2.691   2.235   4.382
 1738SOL    HW1 6113   2.639   2.226   4.467
 1738SOL    HW2 6114   2.634   2.281   4.313
 1739SOL     OW 6115   0.137   1.311   4.415
 1739SOL    HW1 6116   0.078   1.253   4.470
 1739SOL    HW2 6117   0.230   1.312   4.454
 1740SOL     OW 6118   0.248   2.128   5.346
 1740SOL    HW1 6119   0.286   2.212   5.385
 1740SOL    HW2 6120   0.292   2.111   5.258
 1741SOL     OW 6121   2.452   0.996   4.469
 1741SOL    HW1 6122   2.372   0.938   4.478
 1741SOL    HW2 6123   2.499   1.002   4.557
 1742SOL     OW 6124   5.540   0.377   5.322
 1742SOL    HW1 6125   5.461   0.391   5.382
 1742SOL    HW2 6126   5.608   0.448   5.338
 1743SOL     OW 6127   0.695   1.550   2.514
 1743SOL    HW1 6128   0.599   1.552   2.543
 1743SOL    HW2 6129   0.748   1.495   2.579
 1744SOL     OW 6130   6.064   3.661   3.200
 1744SOL    HW1 6131   6.029   3.744   3.157
 1744SOL    HW2 6132   6.100   3.684   3.291
 1745SOL     OW 6133   5.616   6.289   2.419
 1745SOL    HW1 6134   5.593   6.240   2.503
 1745SOL    HW2 6135   5.669   6.371   2.443
 1746SOL     OW 6136   1.602   4.698   4.259
 1746SOL    HW1 6137   1.549   4.651   4.189
 1746SOL    HW2 6138   1.567   4.791   4.272
 1747SOL     OW 6139   3.898   1.441   2.622
 1747SOL    HW1 6140   3.933   1.489   2.542
 1747SOL    HW2 6141   3.863   1.351   2.595
 1748SOL     OW 6142   6.790   1.962   4.651
 1748SOL    HW1 6143   6.710   1.965   4.591
 1748SOL    HW2 6144   6.760   1.949   4.746
 1749SOL     OW 6145   1.814   0.061   5.877
 1749SOL    HW1 6146   1.851   0.150   5.907
 1749SOL    HW2 6147   1.838   0.046   5.781
 1750SOL     OW 6148   5.583   0.184   3.964
 1750SOL    HW1 6149   5.490   0.155   3.943
 1750SOL    HW2 6150   5.594   0.195   4.062
 1751SOL     OW 6151   4.880   1.697   4.820
 1751SOL    HW1 6152   4.955   1.636   4.796
 1751SOL    HW2 6153   4.805   1.687   4.755
 1752SOL     OW 6154   6.035   0.875   1.844
 1752SOL    HW1 6155   5.957   0.843   1.790
 1752SOL    HW2 6156   6.098   0.799   1.860
 1753SOL     OW 6157   6.786   0.547   1.435
 1753SOL    HW1 6158   6.832   0.634   1.415
 1753SOL    HW2 6159   6.813   0.479   1.367
 1754SOL     OW 6160   1.959   5.114   6.377
 1754SOL    HW1 6161   1.948   5.059   6.460
 1754SOL    HW2 6162   1.988   5.206   6.400
 1755SOL     OW 6163   6.785   5.216   6.596
 1755SOL    HW1 6164   6.870   5.266   6.614
 1755SOL    HW2 6165   6.782   5.134   6.654
 1756SOL     OW 6166   4.223   5.597   6.139
 1756SOL    HW1 6167   4.275   5.679   6.114
 1756SOL    HW2 6168   4.239   5.577   6.236
 1757SOL     OW 6169   3.638   5.579   5.203
 1757SOL    HW1 6170   3.633   5.545   5.109
 1757SOL    HW2 6171   3.637   5.501   5.266
 1758SOL     OW 6172   1.874   1.137   3.989
 1758SOL    HW1 6173   1.807   1.112   4.059
 1758SOL    HW2 6174   1.830   1.134   3.899
 1759SOL     OW 6175   2.628   6.772   5.477
 1759SOL    HW1 6176   2.719   6.756   5.438
 1759SOL    HW2 6177   2.618   6.718   5.560
 1760SOL     OW 6178   6.184   0.904   3.841
 1760SOL    HW1 6179   6.247   0.957   3.785
 1760SOL    HW2 6180   6.189   0.808   3.815
 1761SOL     OW 6181   0.686   1.104   1.933
 1761SOL    HW1 6182   0.589   1.081   1.933
 1761SOL    HW2 6183   0.712   1.141   1.844
 1762SOL     OW 6184   0.080   1.549   4.836
 1762SOL    HW1 6185   0.128   1.626   4.879
 1762SOL    HW2 6186   0.142   1.503   4.773
 1763SOL     OW 6187   0.938   4.968   4.379
 1763SOL    HW1 6188   0.993   4.927   4.452
 1763SOL    HW2 6189   0.909   4.897   4.315
 1764SOL     OW 6190   1.635   3.347   1.891
 1764SOL    HW1 6191   1.660   3.406   1.967
 1764SOL    HW2 6192   1.710   3.283   1.872
 1765SOL     OW 6193   3.327   0.849   1.741
 1765SOL    HW1 6194   3.290   0.932   1.784
 1765SOL    HW2 6195   3.406   0.818   1.793
 1766SOL     OW 6196   5.652   4.432   3.963
 1766SOL    HW1 6197   5.649   4.401   3.868
 1766SOL    HW2 6198   5.737   4.482   3.979
 1767SOL     OW 6199   0.686   4.353   3.959
 1767SOL    HW1 6200   0.592   4.386   3.952
 1767SOL    HW2 6201   0.687   4.253   3.954
 1768SOL     OW 6202   3.290   1.269   0.057
 1768SOL    HW1 6203   3.326   1.266   0.150
 1768SOL    HW2 6204   3.321   1.188   0.007
 1769SOL     OW 6205   6.014   1.263   0.056
 1769SOL    HW1 6206   5.982   1.303   6.986
 1769SOL    HW2 6207   5.976   1.172   0.068
 1770SOL     OW 6208   0.489   4.690   5.172
 1770SOL    HW1 6209   0.496   4.687   5.272
 1770SOL    HW2 6210   0.542   4.767   5.138
 1771SOL     OW 6211   1.669   5.569   0.461
 1771SOL    HW1 6212   1.615   5.505   0.515
 1771SOL    HW2 6213   1.689   5.650   0.515
 1772SOL     OW 6214   3.667   5.559   3.666
 1772SOL    HW1 6215   3.633   5.589   3.577
 1772SOL    HW2 6216   3.595   5.509   3.714
 1773SOL     OW 6217   2.218   2.107   5.923
 1773SOL    HW1 6218   2.309   2.106   5.965
 1773SOL    HW2 6219   2.189   2.202   5.909
 1774SOL     OW 6220   5.461   6.707   1.545
 1774SOL    HW1 6221   5.422   6.712   1.637
 1774SOL    HW2 6222   5.561   6.700   1.551
 1775SOL     OW 6223   1.805   5.599   6.203
 1775SOL    HW1 6224   1.820   5.689   6.244
 1775SOL    HW2 6225   1.707   5.578   6.206
 1776SOL     OW 6226   5.072   0.203   6.112
 1776SOL    HW1 6227   5.154   0.194   6.167
 1776SOL    HW2 6228   4.996   0.233   6.170
 1777SOL     OW 6229   3.145   6.821   6.523
 1777SOL    HW1 6230   3.239   6.833   6.492
 1777SOL    HW2 6231   3.144   6.788   6.617
 1778SOL     OW 6232   4.928   2.171   4.408
 1778SOL    HW1 6233   5.006   2.217   4.451
 1778SOL    HW2 6234   4.884   2.234   4.344
 1779SOL     OW 6235   5.108   0.106   5.815
 1779SOL    HW1 6236   5.137   0.104   5.911
 1779SOL    HW2 6237   5.107   0.201   5.782
 1780SOL     OW 6238   1.578   3.361   5.561
 1780SOL    HW1 6239   1.645   3.287   5.557
 1780SOL    HW2 6240   1.592   3.414   5.645
 1781SOL     OW 6241   5.789   6.551   5.264
 1781SOL    HW1 6242   5.726   6.581   5.336
 1781SOL    HW2 6243   5.779   6.452   5.252
 1782SOL     OW 6244   2.318   1.101   2.862
 1782SOL    HW1 6245   2.272   1.025   2.815
 1782SOL    HW2 6246   2.279   1.188   2.831
 1783SOL     OW 6247   2.993   3.715   6.641
 1783SOL    HW1 6248   2.902   3.726   6.681
 1783SOL    HW2 6249   3.044   3.645   6.692
 1784SOL     OW 6250   1.969   1.634   1.464
 1784SOL    HW1 6251   2.053   1.600   1.423
 1784SOL    HW2 6252   1.979   1.636   1.564
 1785SOL     OW 6253   6.542   6.989   4.345
 1785SOL    HW1 6254   6.639   6.964   4.349
 1785SOL    HW2 6255   6.488   6.909   4.320
 1786SOL     OW 6256   2.237   4.948   6.930
 1786SOL    HW1 6257   2.269   5.027   6.984
 1786SOL    HW2 6258   2.231   4.974   6.834
 1787SOL     OW 6259   2.276   1.719   6.184
 1787SOL    HW1 6260   2.182   1.725   6.217
 1787SOL    HW2 6261   2.280   1.748   6.088
 1788SOL     OW 6262   4.560   4.100   6.623
 1788SOL    HW1 6263   4.542   4.148   6.537
 1788SOL    HW2 6264   4.530   4.005   6.614
 1789SOL     OW 6265   5.510   3.357   1.555
 1789SOL    HW1 6266   5.491   3.300   1.474
 1789SOL    HW2 6267   5.577   3.427   1.531
 1790SOL     OW 6268   3.093   1.208   4.220
 1790SOL    HW1 6269   3.016   1.240   4.165
 1790SOL    HW2 6270   3.179   1.225   4.172
 1791SOL     OW 6271   6.893   1.544   3.915
 1791SOL    HW1 6272   6.853   1.595   3.839
 1791SOL    HW2 6273   6.865   1.448   3.908
 1792SOL     OW 6274   6.870   1.682   4.720
 1792SOL    HW1 6275   6.965   1.664   4.696
 1792SOL    HW2 6276   6.826   1.731   4.644
 1793SOL     OW 6277   6.619   1.705   4.424
 1793SOL    HW1 6278   6.637   1.649   4.343
 1793SOL    HW2 6279   6.587   1.796   4.395
 1794SOL     OW 6280   5.616   6.619   5.469
 1794SOL    HW1 6281   5.614   6.528   5.510
 1794SOL    HW2 6282   5.626   6.688   5.541
 1795SOL     OW 6283   6.293   4.924   1.777
 1795SOL    HW1 6284   6.385   4.900   1.749
 1795SOL    HW2 6285   6.280   5.023   1.768
 1796SOL     OW 6286   2.481   1.492   5.921
 1796SOL    HW1 6287   2.482   1.548   5.838
 1796SOL    HW2 6288   2.514   1.546   5.998
 1797SOL     OW 6289   1.274   6.852   5.698
 1797SOL    HW1 6290   1.185   6.852   5.653
 1797SOL    HW2 6291   1.324   6.935   5.673
 1798SOL     OW 6292   3.157   3.178   4.849
 1798SOL    HW1 6293   3.060   3.190   4.868
 1798SOL    HW2 6294   3.200   3.132   4.927
 1799SOL     OW 6295   4.429   2.932   6.734
 1799SOL    HW1 6296   4.352   2.905   6.792
 1799SOL    HW2 6297   4.515   2.897   6.774
 1800SOL     OW 6298   4.931   4.679   3.494
 1800SOL    HW1 6299   4.847   4.718   3.532
 1800SOL    HW2 6300   4.919   4.666   3.395
 1801SOL     OW 6301   0.725   1.691   2.078
 1801SOL    HW1 6302   0.778   1.718   1.997
 1801SOL    HW2 6303   0.787   1.655   2.148
 1802SOL     OW 6304   6.062   6.043   3.287
 1802SOL    HW1 6305   6.068   6.116   3.219
 1802SOL    HW2 6306   6.155   6.010   3.308
 1803SOL     OW 6307   0.317   6.925   2.160
 1803SOL    HW1 6308   0.307   0.003   2.126
 1803SOL    HW2 6309   0.302   6.861   2.085
 1804SOL     OW 6310   3.953   3.147   4.791
 1804SOL    HW1 6311   3.866   3.181   4.754
 1804SOL    HW2 6312   4.017   3.224   4.801
 1805SOL     OW 6313   0.865   5.420   5.852
 1805SOL    HW1 6314   0.858   5.381   5.944
 1805SOL    HW2 6315   0.899   5.351   5.788
 1806SOL     OW 6316   0.561   2.960   1.920
 1806SOL    HW1 6317   0.623   3.037   1.921
 1806SOL    HW2 6318   0.527   2.944   1.827
 1807SOL     OW 6319   5.172   2.892   6.860
 1807SOL    HW1 6320   5.149   2.967   6.922
 1807SOL    HW2 6321   5.246   2.921   6.799
 1808SOL     OW 6322   5.889   3.782   4.850
 1808SOL    HW1 6323   5.884   3.711   4.921
 1808SOL    HW2 6324   5.984   3.812   4.840
 1809SOL     OW 6325   3.085   1.773   5.447
 1809SOL    HW1 6326   3.105   1.718   5.367
 1809SOL    HW2 6327   2.986   1.789   5.453
 1810SOL     OW 6328   0.961   0.885   5.280
 1810SOL    HW1 6329   0.954   0.897   5.181
 1810SOL    HW2 6330   0.871   0.868   5.319
 1811SOL     OW 6331   5.348   4.686   1.805
 1811SOL    HW1 6332   5.304   4.599   1.826
 1811SOL    HW2 6333   5.412   4.673   1.728
 1812SOL     OW 6334   3.913   6.587   6.387
 1812SOL    HW1 6335   4.009   6.593   6.362
 1812SOL    HW2 6336   3.887   6.491   6.400
 1813SOL     OW 6337   5.300   4.620   2.226
 1813SOL    HW1 6338   5.239   4.580   2.294
 1813SOL    HW2 6339   5.266   4.711   2.201
 1814SOL     OW 6340   6.174   0.197   0.784
 1814SOL    HW1 6341   6.157   0.154   0.695
 1814SOL    HW2 6342   6.120   0.280   0.792
 1815SOL     OW 6343   6.475   6.772   2.576
 1815SOL    HW1 6344   6.413   6.755   2.652
 1815SOL    HW2 6345   6.425   6.761   2.490
 1816SOL     OW 6346   3.776   4.904   6.117
 1816SOL    HW1 6347   3.823   4.920   6.203
 1816SOL    HW2 6348   3.825   4.835   6.064
 1817SOL     OW 6349   3.572   1.289   2.803
 1817SOL    HW1 6350   3.598   1.373   2.754
 1817SOL    HW2 6351   3.629   1.279   2.884
 1818SOL     OW 6352   1.647   6.666   0.297
 1818SOL    HW1 6353   1.572   6.721   0.334
 1818SOL    HW2 6354   1.632   6.570   0.320
 1819SOL     OW 6355   1.713   4.929   1.986
 1819SOL    HW1 6356   1.634   4.872   1.962
 1819SOL    HW2 6357   1.754   4.895   2.070
 1820SOL     OW 6358   3.591   0.136   2.672
 1820SOL    HW1 6359   3.689   0.141   2.691
 1820SOL    HW2 6360   3.572   0.059   2.612
 1821SOL     OW 6361   3.170   0.786   2.017
 1821SOL    HW1 6362   3.163   0.752   2.111
 1821SOL    HW2 6363   3.253   0.748   1.974
 1822SOL     OW 6364   1.131   3.446   1.631
 1822SOL    HW1 6365   1.115   3.369   1.570
 1822SOL    HW2 6366   1.206   3.424   1.694
 1823SOL     OW 6367   3.309   6.008   3.168
 1823SOL    HW1 6368   3.284   5.990   3.073
 1823SOL    HW2 6369   3.371   6.086   3.172
 1824SOL     OW 6370   3.812   3.743   0.460
 1824SOL    HW1 6371   3.852   3.767   0.548
 1824SOL    HW2 6372   3.875   3.769   0.387
 1825SOL     OW 6373   0.471   2.997   4.745
 1825SOL    HW1 6374   0.559   2.992   4.792
 1825SOL    HW2 6375   0.478   3.060   4.667
 1826SOL     OW 6376   3.009   1.226   0.812
 1826SOL    HW1 6377   3.049   1.258   0.898
 1826SOL    HW2 6378   3.057   1.144   0.782
 1827SOL     OW 6379   5.199   5.532   1.321
 1827SOL    HW1 6380   5.126   5.595   1.346
 1827SOL    HW2 6381   5.202   5.457   1.387
 1828SOL     OW 6382   1.839   3.292   6.500
 1828SOL    HW1 6383   1.897   3.277   6.420
 1828SOL    HW2 6384   1.836   3.208   6.554
 1829SOL     OW 6385   3.751   6.883   3.818
 1829SOL    HW1 6386   3.832   6.825   3.814
 1829SOL    HW2 6387   3.706   6.885   3.729
 1830SOL     OW 6388   5.945   6.662   4.975
 1830SOL    HW1 6389   5.897   6.676   5.061
 1830SOL    HW2 6390   5.894   6.706   4.901
 1831SOL     OW 6391   5.142   5.880   2.822
 1831SOL    HW1 6392   5.139   5.908   2.726
 1831SOL    HW2 6393   5.064   5.821   2.843
 1832SOL     OW 6394   3.196   3.155   0.035
 1832SOL    HW1 6395   3.104   3.189   0.015
 1832SOL    HW2 6396   3.230   3.101   6.974
 1833SOL     OW 6397   5.463   0.778   1.093
 1833SOL    HW1 6398   5.558   0.750   1.107
 1833SOL    HW2 6399   5.451   0.872   1.123
 1834SOL     OW 6400   2.209   3.262   1.304
 1834SOL    HW1 6401   2.219   3.291   1.209
 1834SOL    HW2 6402   2.294   3.280   1.354
 1835SOL     OW 6403   1.241   4.808   1.422
 1835SOL    HW1 6404   1.242   4.792   1.521
 1835SOL    HW2 6405   1.162   4.866   1.399
 1836SOL     OW 6406   5.527   2.501   1.983
 1836SOL    HW1 6407   5.490   2.548   1.903
 1836SOL    HW2 6408   5.456   2.493   2.053
 1837SOL     OW 6409   1.930   0.321   5.834
 1837SOL    HW1 6410   1.835   0.352   5.831
 1837SOL    HW2 6411   1.976   0.344   5.749
 1838SOL     OW 6412   6.357   0.759   6.311
 1838SOL    HW1 6413   6.288   0.810   6.260
 1838SOL    HW2 6414   6.338   0.767   6.409
 1839SOL     OW 6415   6.051   1.262   6.194
 1839SOL    HW1 6416   5.959   1.300   6.186
 1839SOL    HW2 6417   6.068   1.198   6.119
 1840SOL     OW 6418   4.136   0.422   2.540
 1840SOL    HW1 6419   4.091   0.493   2.487
 1840SOL    HW2 6420   4.075   0.343   2.549
 1841SOL     OW 6421   2.231   0.239   3.273
 1841SOL    HW1 6422   2.284   0.308   3.224
 1841SOL    HW2 6423   2.260   0.148   3.243
 1842SOL     OW 6424   0.995   5.228   0.448
 1842SOL    HW1 6425   1.048   5.311   0.430
 1842SOL    HW2 6426   1.053   5.161   0.493
 1843SOL     OW 6427   4.924   0.431   3.949
 1843SOL    HW1 6428   4.897   0.455   4.042
 1843SOL    HW2 6429   5.016   0.391   3.950
 1844SOL     OW 6430   4.579   1.595   5.582
 1844SOL    HW1 6431   4.540   1.503   5.579
 1844SOL    HW2 6432   4.652   1.598   5.651
 1845SOL     OW 6433   2.972   6.952   3.803
 1845SOL    HW1 6434   2.926   0.018   3.770
 1845SOL    HW2 6435   3.066   6.974   3.830
 1846SOL     OW 6436   5.308   1.008   3.208
 1846SOL    HW1 6437   5.212   1.007   3.235
 1846SOL    HW2 6438   5.333   0.918   3.171
 1847SOL     OW 6439   1.504   0.061   4.922
 1847SOL    HW1 6440   1.538   0.092   5.011
 1847SOL    HW2 6441   1.415   0.017   4.934
 1848SOL     OW 6442   1.528   6.397   4.181
 1848SOL    HW1 6443   1.538   6.298   4.187
 1848SOL    HW2 6444   1.603   6.436   4.127
 1849SOL     OW 6445   4.710   2.597   1.429
 1849SOL    HW1 6446   4.669   2.616   1.339
 1849SOL    HW2 6447   4.637   2.574   1.494
 1850SOL     OW 6448   6.086   1.761   2.682
 1850SOL    HW1 6449   6.000   1.799   2.716
 1850SOL    HW2 6450   6.163   1.813   2.720
 1851SOL     OW 6451   0.842   3.557   6.794
 1851SOL    HW1 6452   0.867   3.462   6.814
 1851SOL    HW2 6453   0.743   3.562   6.777
 1852SOL     OW 6454   0.399   5.027   1.909
 1852SOL    HW1 6455   0.303   5.049   1.928
 1852SOL    HW2 6456   0.430   5.078   1.829
 1853SOL     OW 6457   7.015   2.584   3.221
 1853SOL    HW1 6458   0.051   2.603   3.138
 1853SOL    HW2 6459   0.062   2.567   3.297
 1854SOL     OW 6460   1.210   5.291   2.908
 1854SOL    HW1 6461   1.160   5.236   2.841
 1854SOL    HW2 6462   1.149   5.310   2.986
 1855SOL     OW 6463   5.087   3.231   5.196
 1855SOL    HW1 6464   5.160   3.256   5.260
 1855SOL    HW2 6465   4.999   3.253   5.236
 1856SOL     OW 6466   4.042   3.314   6.294
 1856SOL    HW1 6467   3.954   3.347   6.258
 1856SOL    HW2 6468   4.108   3.389   6.292
 1857SOL     OW 6469   4.894   1.247   0.128
 1857SOL    HW1 6470   4.855   1.338   0.118
 1857SOL    HW2 6471   4.869   1.192   0.048
 1858SOL     OW 6472   5.823   2.841   3.271
 1858SOL    HW1 6473   5.842   2.748   3.240
 1858SOL    HW2 6474   5.766   2.838   3.353
 1859SOL     OW 6475   4.791   1.751   3.631
 1859SOL    HW1 6476   4.752   1.842   3.617
 1859SOL    HW2 6477   4.781   1.697   3.547
 1860SOL     OW 6478   0.861   1.892   5.490
 1860SOL    HW1 6479   0.845   1.793   5.489
 1860SOL    HW2 6480   0.775   1.939   5.471
 1861SOL     OW 6481   5.192   0.574   2.976
 1861SOL    HW1 6482   5.111   0.621   2.942
 1861SOL    HW2 6483   5.199   0.485   2.932
 1862SOL     OW 6484   1.145   6.742   6.795
 1862SOL    HW1 6485   1.095   6.828   6.810
 1862SOL    HW2 6486   1.084   6.665   6.809
 1863SOL     OW 6487   6.979   3.084   1.610
 1863SOL    HW1 6488   6.991   3.054   1.704
 1863SOL    HW2 6489   6.936   3.175   1.609
 1864SOL     OW 6490   3.712   5.707   3.965
 1864SOL    HW1 6491   3.723   5.615   4.001
 1864SOL    HW2 6492   3.640   5.708   3.896
 1865SOL     OW 6493   3.572   1.041   1.305
 1865SOL    HW1 6494   3.547   0.945   1.296
 1865SOL    HW2 6495   3.494   1.098   1.280
 1866SOL     OW 6496   6.424   4.779   3.681
 1866SOL    HW1 6497   6.386   4.812   3.595
 1866SOL    HW2 6498   6.467   4.855   3.730
 1867SOL     OW 6499   2.074   3.297   1.060
 1867SOL    HW1 6500   2.024   3.334   1.139
 1867SOL    HW2 6501   2.117   3.373   1.010
 1868SOL     OW 6502   4.821   3.557   5.761
 1868SOL    HW1 6503   4.730   3.544   5.721
 1868SOL    HW2 6504   4.828   3.502   5.844
 1869SOL     OW 6505   5.537   2.756   4.031
 1869SOL    HW1 6506   5.623   2.782   4.076
 1869SOL    HW2 6507   5.556   2.692   3.957
 1870SOL     OW 6508   1.009   3.141   4.626
 1870SOL    HW1 6509   1.004   3.103   4.719
 1870SOL    HW2 6510   0.916   3.149   4.589
 1871SOL     OW 6511   6.898   6.587   0.094
 1871SOL    HW1 6512   6.857   6.506   0.051
 1871SOL    HW2 6513   6.949   6.638   0.025
 1872SOL     OW 6514   3.736   2.430   0.425
 1872SOL    HW1 6515   3.645   2.471   0.434
 1872SOL    HW2 6516   3.737   2.341   0.471
 1873SOL     OW 6517   6.282   0.905   5.646
 1873SOL    HW1 6518   6.377   0.921   5.674
 1873SOL    HW2 6519   6.275   0.814   5.604
 1874SOL     OW 6520   0.896   1.104   6.949
 1874SOL    HW1 6521   0.887   1.171   0.007
 1874SOL    HW2 6522   0.898   1.012   6.988
 1875SOL     OW 6523   6.512   6.512   0.662
 1875SOL    HW1 6524   6.452   6.546   0.734
 1875SOL    HW2 6525   6.606   6.542   0.679
 1876SOL     OW 6526   5.118   6.370   6.103
 1876SOL    HW1 6527   5.140   6.464   6.076
 1876SOL    HW2 6528   5.125   6.311   6.023
 1877SOL     OW 6529   0.290   1.871   3.067
 1877SOL    HW1 6530   0.326   1.784   3.033
 1877SOL    HW2 6531   0.360   1.942   3.058
 1878SOL     OW 6532   6.887   4.134   3.214
 1878SOL    HW1 6533   6.803   4.107   3.262
 1878SOL    HW2 6534   6.949   4.055   3.210
 1879SOL     OW 6535   2.647   5.357   3.692
 1879SOL    HW1 6536   2.606   5.379   3.603
 1879SOL    HW2 6537   2.721   5.291   3.679
 1880SOL     OW 6538   1.152   2.709   3.130
 1880SOL    HW1 6539   1.158   2.799   3.085
 1880SOL    HW2 6540   1.057   2.677   3.125
 1881SOL     OW 6541   0.826   1.954   3.510
 1881SOL    HW1 6542   0.919   1.967   3.476
 1881SOL    HW2 6543   0.772   2.036   3.489
 1882SOL     OW 6544   0.734   5.478   6.730
 1882SOL    HW1 6545   0.776   5.396   6.767
 1882SOL    HW2 6546   0.731   5.472   6.630
 1883SOL     OW 6547   0.981   3.813   3.543
 1883SOL    HW1 6548   0.942   3.724   3.569
 1883SOL    HW2 6549   0.915   3.885   3.561
 1884SOL     OW 6550   5.186   1.083   1.463
 1884SOL    HW1 6551   5.242   1.159   1.495
 1884SOL    HW2 6552   5.187   1.080   1.363
 1885SOL     OW 6553   6.903   2.110   0.614
 1885SOL    HW1 6554   6.840   2.103   0.692
 1885SOL    HW2 6555   6.922   2.018   0.578
 1886SOL     OW 6556   1.814   2.176   0.269
 1886SOL    HW1 6557   1.770   2.237   0.335
 1886SOL    HW2 6558   1.913   2.186   0.274
 1887SOL     OW 6559   0.331   4.083   5.981
 1887SOL    HW1 6560   0.310   4.174   5.944
 1887SOL    HW2 6561   0.342   4.089   6.080
 1888SOL     OW 6562   2.383   1.655   6.624
 1888SOL    HW1 6563   2.345   1.592   6.692
 1888SOL    HW2 6564   2.372   1.749   6.657
 1889SOL     OW 6565   4.178   3.781   6.428
 1889SOL    HW1 6566   4.186   3.719   6.506
 1889SOL    HW2 6567   4.138   3.867   6.458
 1890SOL     OW 6568   1.372   5.656   6.147
 1890SOL    HW1 6569   1.416   5.634   6.234
 1890SOL    HW2 6570   1.442   5.675   6.078
 1891SOL     OW 6571   5.081   2.651   4.131
 1891SOL    HW1 6572   5.063   2.578   4.197
 1891SOL    HW2 6573   5.019   2.641   4.053
 1892SOL     OW 6574   3.561   6.365   1.210
 1892SOL    HW1 6575   3.497   6.435   1.178
 1892SOL    HW2 6576   3.513   6.279   1.223
 1893SOL     OW 6577   3.697   2.042   4.938
 1893SOL    HW1 6578   3.607   2.021   4.900
 1893SOL    HW2 6579   3.752   2.091   4.871
 1894SOL     OW 6580   4.261   3.282   1.332
 1894SOL    HW1 6581   4.241   3.188   1.304
 1894SOL    HW2 6582   4.229   3.345   1.262
 1895SOL     OW 6583   6.614   0.437   2.417
 1895SOL    HW1 6584   6.664   0.450   2.503
 1895SOL    HW2 6585   6.623   0.342   2.387
 1896SOL     OW 6586   6.698   1.031   2.936
 1896SOL    HW1 6587   6.773   1.031   2.869
 1896SOL    HW2 6588   6.705   1.113   2.993
 1897SOL     OW 6589   6.223   5.127   3.161
 1897SOL    HW1 6590   6.322   5.115   3.168
 1897SOL    HW2 6591   6.201   5.184   3.082
 1898SOL     OW 6592   3.714   6.492   1.713
 1898SOL    HW1 6593   3.778   6.557   1.672
 1898SOL    HW2 6594   3.746   6.399   1.698
 1899SOL     OW 6595   1.151   3.100   2.605
 1899SOL    HW1 6596   1.052   3.088   2.597
 1899SOL    HW2 6597   1.177   3.100   2.702
 1900SOL     OW 6598   1.304   0.319   5.831
 1900SOL    HW1 6599   1.363   0.268   5.769
 1900SOL    HW2 6600   1.235   0.257   5.869
 1901SOL     OW 6601   2.497   1.518   1.116
 1901SOL    HW1 6602   2.458   1.460   1.045
 1901SOL    HW2 6603   2.496   1.613   1.086
 1902SOL     OW 6604   1.632   2.425   5.184
 1902SOL    HW1 6605   1.700   2.465   5.123
 1902SOL    HW2 6606   1.599   2.338   5.146
 1903SOL     OW 6607   6.793   3.541   3.898
 1903SOL    HW1 6608   6.812   3.456   3.948
 1903SOL    HW2 6609   6.695   3.550   3.885
 1904SOL     OW 6610   6.931   0.289   3.910
 1904SOL    HW1 6611   7.000   0.320   3.844
 1904SOL    HW2 6612   6.971   0.284   4.001
 1905SOL     OW 6613   0.355   2.449   4.058
 1905SOL    HW1 6614   0.264   2.408   4.055
 1905SOL    HW2 6615   0.419   2.385   4.101
 1906SOL     OW 6616   2.660   0.043   5.389
 1906SOL    HW1 6617   2.603   6.987   5.429
 1906SOL    HW2 6618   2.754   0.009   5.381
 1907SOL     OW 6619   3.260   6.951   3.560
 1907SOL    HW1 6620   3.216   6.870   3.599
 1907SOL    HW2 6621   3.224   0.017   3.605
 1908SOL     OW 6622   4.731   1.068   4.919
 1908SOL    HW1 6623   4.808   1.132   4.918
 1908SOL    HW2 6624   4.728   1.018   4.833
 1909SOL     OW 6625   1.923   4.300   3.432
 1909SOL    HW1 6626   1.958   4.388   3.462
 1909SOL    HW2 6627   1.829   4.310   3.401
 1910SOL     OW 6628   5.787   2.233   6.221
 1910SOL    HW1 6629   5.863   2.207   6.281
 1910SOL    HW2 6630   5.711   2.169   6.233
 1911SOL     OW 6631   5.755   1.715   5.804
 1911SOL    HW1 6632   5.752   1.808   5.840
 1911SOL    HW2 6633   5.846   1.694   5.770
 1912SOL     OW 6634   3.897   6.593   2.380
 1912SOL    HW1 6635   3.911   6.660   2.308
 1912SOL    HW2 6636   3.887   6.502   2.340
 1913SOL     OW 6637   1.873   6.260   5.311
 1913SOL    HW1 6638   1.926   6.246   5.228
 1913SOL    HW2 6639   1.781   6.222   5.299
 1914SOL     OW 6640   2.683   2.356   6.971
 1914SOL    HW1 6641   2.684   2.337   0.054
 1914SOL    HW2 6642   2.701   2.453   6.956
 1915SOL     OW 6643   3.369   1.243   5.196
 1915SOL    HW1 6644   3.459   1.249   5.152
 1915SOL    HW2 6645   3.379   1.266   5.293
 1916SOL     OW 6646   3.824   5.586   0.542
 1916SOL    HW1 6647   3.872   5.522   0.601
 1916SOL    HW2 6648   3.727   5.563   0.539
 1917SOL     OW 6649   4.097   3.355   4.573
 1917SOL    HW1 6650   4.076   3.280   4.511
 1917SOL    HW2 6651   4.181   3.400   4.544
 1918SOL     OW 6652   6.545   6.266   6.506
 1918SOL    HW1 6653   6.606   6.275   6.585
 1918SOL    HW2 6654   6.521   6.170   6.494
 1919SOL     OW 6655   1.382   6.531   2.429
 1919SOL    HW1 6656   1.347   6.437   2.437
 1919SOL    HW2 6657   1.462   6.532   2.370
 1920SOL     OW 6658   0.513   4.850   3.443
 1920SOL    HW1 6659   0.563   4.806   3.368
 1920SOL    HW2 6660   0.447   4.915   3.406
 1921SOL     OW 6661   0.540   4.576   0.320
 1921SOL    HW1 6662   0.624   4.568   0.373
 1921SOL    HW2 6663   0.546   4.517   0.239
 1922SOL     OW 6664   3.567   3.902   1.235
 1922SOL    HW1 6665   3.540   3.928   1.328
 1922SOL    HW2 6666   3.605   3.982   1.188
 1923SOL     OW 6667   2.690   0.863   6.963
 1923SOL    HW1 6668   2.763   0.818   6.912
 1923SOL    HW2 6669   2.685   0.825   0.039
 1924SOL     OW 6670   5.248   5.524   2.615
 1924SOL    HW1 6671   5.305   5.473   2.680
 1924SOL    HW2 6672   5.297   5.532   2.528
 1925SOL     OW 6673   2.859   3.536   1.927
 1925SOL    HW1 6674   2.925   3.461   1.916
 1925SOL    HW2 6675   2.820   3.532   2.019
 1926SOL     OW 6676   0.930   0.050   4.038
 1926SOL    HW1 6677   0.969   0.116   4.103
 1926SOL    HW2 6678   0.946   0.081   3.945
 1927SOL     OW 6679   3.114   5.296   6.489
 1927SOL    HW1 6680   3.187   5.357   6.457
 1927SOL    HW2 6681   3.091   5.230   6.418
 1928SOL     OW 6682   6.733   3.715   6.200
 1928SOL    HW1 6683   6.689   3.755   6.281
 1928SOL    HW2 6684   6.663   3.692   6.132
 1929SOL     OW 6685   0.705   5.578   1.170
 1929SOL    HW1 6686   0.683   5.620   1.258
 1929SOL    HW2 6687   0.677   5.640   1.096
 1930SOL     OW 6688   4.464   4.072   0.039
 1930SOL    HW1 6689   4.391   4.108   6.997
 1930SOL    HW2 6690   4.552   4.083   7.008
 1931SOL     OW 6691   0.060   3.287   3.538
 1931SOL    HW1 6692   7.011   3.211   3.544
 1931SOL    HW2 6693   0.104   3.299   3.627
 1932SOL     OW 6694   5.024   4.251   2.551
 1932SOL    HW1 6695   5.058   4.215   2.463
 1932SOL    HW2 6696   4.973   4.180   2.598
 1933SOL     OW 6697   3.112   4.465   0.553
 1933SOL    HW1 6698   3.036   4.435   0.611
 1933SOL    HW2 6699   3.198   4.441   0.597
 1934SOL     OW 6700   0.381   0.569   5.564
 1934SOL    HW1 6701   0.299   0.616   5.596
 1934SOL    HW2 6702   0.367   0.470   5.569
 1935SOL     OW 6703   3.389   0.380   5.043
 1935SOL    HW1 6704   3.299   0.350   5.011
 1935SOL    HW2 6705   3.405   0.474   5.014
 1936SOL     OW 6706   6.059   3.920   3.855
 1936SOL    HW1 6707   5.983   3.877   3.904
 1936SOL    HW2 6708   6.022   3.983   3.786
 1937SOL     OW 6709   4.546   6.338   1.273
 1937SOL    HW1 6710   4.506   6.424   1.303
 1937SOL    HW2 6711   4.474   6.269   1.265
 1938SOL     OW 6712   4.033   1.253   2.949
 1938SOL    HW1 6713   4.103   1.199   2.903
 1938SOL    HW2 6714   4.007   1.330   2.891
 1939SOL     OW 6715   0.429   6.418   4.451
 1939SOL    HW1 6716   0.412   6.332   4.497
 1939SOL    HW2 6717   0.481   6.479   4.512
 1940SOL     OW 6718   4.946   5.213   5.818
 1940SOL    HW1 6719   4.950   5.313   5.821
 1940SOL    HW2 6720   5.037   5.176   5.832
 1941SOL     OW 6721   6.877   3.761   3.340
 1941SOL    HW1 6722   6.881   3.748   3.241
 1941SOL    HW2 6723   6.961   3.726   3.382
 1942SOL     OW 6724   6.467   0.607   3.025
 1942SOL    HW1 6725   6.501   0.589   3.117
 1942SOL    HW2 6726   6.398   0.680   3.028
 1943SOL     OW 6727   3.165   6.520   2.437
 1943SOL    HW1 6728   3.074   6.482   2.419
 1943SOL    HW2 6729   3.221   6.512   2.355
 1944SOL     OW 6730   5.288   2.284   6.540
 1944SOL    HW1 6731   5.287   2.218   6.616
 1944SOL    HW2 6732   5.324   2.239   6.458
 1945SOL     OW 6733   3.737   6.015   2.161
 1945SOL    HW1 6734   3.676   6.026   2.240
 1945SOL    HW2 6735   3.782   5.926   2.167
 1946SOL     OW 6736   6.381   0.676   0.661
 1946SOL    HW1 6737   6.419   0.584   0.655
 1946SOL    HW2 6738   6.455   0.742   0.675
 1947SOL     OW 6739   4.991   6.543   3.788
 1947SOL    HW1 6740   5.047   6.626   3.797
 1947SOL    HW2 6741   4.998   6.508   3.694
 1948SOL     OW 6742   6.254   6.016   4.054
 1948SOL    HW1 6743   6.158   5.994   4.074
 1948SOL    HW2 6744   6.281   5.970   3.969
 1949SOL     OW 6745   4.596   4.565   5.768
 1949SOL    HW1 6746   4.649   4.650   5.768
 1949SOL    HW2 6747   4.559   4.548   5.676
 1950SOL     OW 6748   3.684   3.943   0.934
 1950SOL    HW1 6749   3.599   3.893   0.915
 1950SOL    HW2 6750   3.662   4.033   0.971
 1951SOL     OW 6751   6.038   3.939   0.505
 1951SOL    HW1 6752   6.034   4.014   0.439
 1951SOL    HW2 6753   5.972   3.956   0.578
 1952SOL     OW 6754   3.499   2.552   6.986
 1952SOL    HW1 6755   3.421   2.571   0.030
 1952SOL    HW2 6756   3.584   2.566   0.020
 1953SOL     OW 6757   6.351   2.940   7.003
 1953SOL    HW1 6758   6.444   2.907   6.985
 1953SOL    HW2 6759   6.323   2.909   0.078
 1954SOL     OW 6760   5.691   1.010   4.420
 1954SOL    HW1 6761   5.705   1.089   4.360
 1954SOL    HW2 6762   5.758   0.939   4.397
 1955SOL     OW 6763   1.550   0.943   2.693
 1955SOL    HW1 6764   1.645   0.956   2.721
 1955SOL    HW2 6765   1.548   0.898   2.603
 1956SOL     OW 6766   5.891   0.335   2.488
 1956SOL    HW1 6767   5.850   0.322   2.579
 1956SOL    HW2 6768   5.954   0.260   2.470
 1957SOL     OW 6769   6.335   5.255   4.882
 1957SOL    HW1 6770   6.349   5.166   4.926
 1957SOL    HW2 6771   6.331   5.244   4.783
 1958SOL     OW 6772   6.018   2.663   3.544
 1958SOL    HW1 6773   6.054   2.711   3.624
 1958SOL    HW2 6774   5.919   2.655   3.551
 1959SOL     OW 6775   0.149   1.678   6.290
 1959SOL    HW1 6776   0.248   1.687   6.299
 1959SOL    HW2 6777   0.104   1.718   6.369
 1960SOL     OW 6778   6.758   4.141   0.707
 1960SOL    HW1 6779   6.740   4.126   0.609
 1960SOL    HW2 6780   6.684   4.101   0.761
 1961SOL     OW 6781   5.934   4.568   4.525
 1961SOL    HW1 6782   5.906   4.557   4.620
 1961SOL    HW2 6783   5.876   4.636   4.480
 1962SOL     OW 6784   2.725   6.543   3.183
 1962SOL    HW1 6785   2.695   6.599   3.260
 1962SOL    HW2 6786   2.811   6.498   3.206
 1963SOL     OW 6787   0.821   0.557   1.117
 1963SOL    HW1 6788   0.795   0.530   1.210
 1963SOL    HW2 6789   0.867   0.646   1.120
 1964SOL     OW 6790   4.495   3.112   1.596
 1964SOL    HW1 6791   4.543   3.082   1.679
 1964SOL    HW2 6792   4.454   3.201   1.612
 1965SOL     OW 6793   1.171   3.546   3.404
 1965SOL    HW1 6794   1.242   3.573   3.469
 1965SOL    HW2 6795   1.081   3.560   3.444
 1966SOL     OW 6796   0.027   5.380   5.496
 1966SOL    HW1 6797   0.035   5.438   5.577
 1966SOL    HW2 6798   7.005   5.291   5.522
 1967SOL     OW 6799   4.778   2.302   4.900
 1967SOL    HW1 6800   4.775   2.219   4.844
 1967SOL    HW2 6801   4.684   2.330   4.922
 1968SOL     OW 6802   3.524   5.864   0.636
 1968SOL    HW1 6803   3.443   5.919   0.613
 1968SOL    HW2 6804   3.522   5.841   0.733
 1969SOL     OW 6805   0.631   1.589   1.708
 1969SOL    HW1 6806   0.546   1.561   1.664
 1969SOL    HW2 6807   0.650   1.528   1.785
 1970SOL     OW 6808   2.317   0.237   5.681
 1970SOL    HW1 6809   2.388   0.167   5.684
 1970SOL    HW2 6810   2.249   0.213   5.611
 1971SOL     OW 6811   6.652   0.054   6.406
 1971SOL    HW1 6812   6.592   0.134   6.402
 1971SOL    HW2 6813   6.727   0.066   6.340
 1972SOL     OW 6814   5.715   2.558   2.815
 1972SOL    HW1 6815   5.810   2.545   2.786
 1972SOL    HW2 6816   5.714   2.599   2.906
 1973SOL     OW 6817   2.164   3.481   0.593
 1973SOL    HW1 6818   2.262   3.499   0.590
 1973SOL    HW2 6819   2.147   3.385   0.567
 1974SOL     OW 6820   6.219   6.521   4.197
 1974SOL    HW1 6821   6.213   6.429   4.157
 1974SOL    HW2 6822   6.216   6.514   4.296
 1975SOL     OW 6823   2.414   1.504   2.800
 1975SOL    HW1 6824   2.460   1.526   2.713
 1975SOL    HW2 6825   2.396   1.589   2.850
 1976SOL     OW 6826   0.259   5.416   0.016
 1976SOL    HW1 6827   0.232   5.434   6.937
 1976SOL    HW2 6828   0.303   5.326   0.022
 1977SOL     OW 6829   1.123   3.302   3.298
 1977SOL    HW1 6830   1.033   3.279   3.261
 1977SOL    HW2 6831   1.117   3.386   3.353
 1978SOL     OW 6832   1.095   1.082   3.746
 1978SOL    HW1 6833   1.094   1.182   3.758
 1978SOL    HW2 6834   1.032   1.056   3.674
 1979SOL     OW 6835   6.506   4.289   5.267
 1979SOL    HW1 6836   6.598   4.306   5.232
 1979SOL    HW2 6837   6.456   4.230   5.203
 1980SOL     OW 6838   2.919   0.951   6.371
 1980SOL    HW1 6839   2.969   0.980   6.290
 1980SOL    HW2 6840   2.821   0.963   6.357
 1981SOL     OW 6841   6.309   2.259   2.638
 1981SOL    HW1 6842   6.368   2.339   2.649
 1981SOL    HW2 6843   6.214   2.288   2.634
 1982SOL     OW 6844   0.448   3.970   5.062
 1982SOL    HW1 6845   0.395   4.049   5.094
 1982SOL    HW2 6846   0.535   4.003   5.024
 1983SOL     OW 6847   0.477   1.637   3.301
 1983SOL    HW1 6848   0.463   1.544   3.335
 1983SOL    HW2 6849   0.558   1.677   3.344
 1984SOL     OW 6850   5.626   1.335   4.734
 1984SOL    HW1 6851   5.641   1.413   4.674
 1984SOL    HW2 6852   5.582   1.261   4.683
 1985SOL     OW 6853   1.148   0.325   2.556
 1985SOL    HW1 6854   1.171   0.229   2.539
 1985SOL    HW2 6855   1.060   0.347   2.513
 1986SOL     OW 6856   1.502   0.005   6.904
 1986SOL    HW1 6857   1.457   6.946   6.954
 1986SOL    HW2 6858   1.576   0.042   6.961
 1987SOL     OW 6859   0.909   3.042   0.813
 1987SOL    HW1 6860   1.001   3.024   0.781
 1987SOL    HW2 6861   0.911   3.066   0.910
 1988SOL     OW 6862   4.895   4.746   1.083
 1988SOL    HW1 6863   4.952   4.664   1.088
 1988SOL    HW2 6864   4.950   4.827   1.103
 1989SOL     OW 6865   2.221   6.796   4.904
 1989SOL    HW1 6866   2.227   6.890   4.939
 1989SOL    HW2 6867   2.279   6.737   4.959
 1990SOL     OW 6868   2.966   6.372   0.672
 1990SOL    HW1 6869   2.874   6.333   0.663
 1990SOL    HW2 6870   3.033   6.307   0.638
 1991SOL     OW 6871   4.202   4.912   6.467
 1991SOL    HW1 6872   4.221   4.879   6.560
 1991SOL    HW2 6873   4.278   4.887   6.407
 1992SOL     OW 6874   0.620   7.008   6.821
 1992SOL    HW1 6875   0.652   0.085   6.840
 1992SOL    HW2 6876   0.699   6.950   6.798
 1993SOL     OW 6877   3.830   3.640   4.284
 1993SOL    HW1 6878   3.911   3.581   4.283
 1993SOL    HW2 6879   3.854   3.730   4.320
 1994SOL     OW 6880   1.218   1.754   0.644
 1994SOL    HW1 6881   1.299   1.802   0.678
 1994SOL    HW2 6882   1.227   1.739   0.546
 1995SOL     OW 6883   6.384   2.043   1.941
 1995SOL    HW1 6884   6.288   2.037   1.914
 1995SOL    HW2 6885   6.435   2.092   1.870
 1996SOL     OW 6886   2.705   3.680   0.835
 1996SOL    HW1 6887   2.793   3.634   0.825
 1996SOL    HW2 6888   2.696   3.750   0.764
 1997SOL     OW 6889   4.695   0.347   5.145
 1997SOL    HW1 6890   4.730   0.325   5.236
 1997SOL    HW2 6891   4.595   0.352   5.148
 1998SOL     OW 6892   3.070   3.772   6.382
 1998SOL    HW1 6893   3.060   3.749   6.479
 1998SOL    HW2 6894   3.016   3.709   6.327
 1999SOL     OW 6895   3.245   6.432   1.473
 1999SOL    HW1 6896   3.205   6.404   1.560
 1999SOL    HW2 6897   3.333   6.477   1.490
 2000SOL     OW 6898   4.013   1.745   5.148
 2000SOL    HW1 6899   4.026   1.669   5.212
 2000SOL    HW2 6900   4.098   1.795   5.137
 2001SOL     OW 6901   3.179   1.858   1.701
 2001SOL    HW1 6902   3.177   1.869   1.800
 2001SOL    HW2 6903   3.219   1.769   1.678
 2002SOL     OW 6904   1.164   5.496   6.110
 2002SOL    HW1 6905   1.240   5.560   6.104
 2002SOL    HW2 6906   1.148   5.454   6.021
 2003SOL     OW 6907   6.255   6.669   3.414
 2003SOL    HW1 6908   6.327   6.735   3.434
 2003SOL    HW2 6909   6.210   6.694   3.328
 2004SOL     OW 6910   4.613   1.658   5.287
 2004SOL    HW1 6911   4.712   1.657   5.284
 2004SOL    HW2 6912   4.581   1.604   5.366
 2005SOL     OW 6913   0.771   4.567   6.645
 2005SOL    HW1 6914   0.785   4.515   6.730
 2005SOL    HW2 6915   0.780   4.506   6.567
 2006SOL     OW 6916   5.511   4.797   4.123
 2006SOL    HW1 6917   5.458   4.882   4.118
 2006SOL    HW2 6918   5.519   4.769   4.219
 2007SOL     OW 6919   3.968   4.966   1.131
 2007SOL    HW1 6920   3.917   5.047   1.160
 2007SOL    HW2 6921   4.037   4.993   1.063
 2008SOL     OW 6922   1.518   5.614   3.068
 2008SOL    HW1 6923   1.551   5.707   3.049
 2008SOL    HW2 6924   1.435   5.597   3.014
 2009SOL     OW 6925   6.249   6.872   1.813
 2009SOL    HW1 6926   6.212   6.782   1.790
 2009SOL    HW2 6927   6.273   6.921   1.729
 2010SOL     OW 6928   1.632   1.561   1.587
 2010SOL    HW1 6929   1.606   1.487   1.649
 2010SOL    HW2 6930   1.632   1.648   1.637
 2011SOL     OW 6931   6.409   1.204   5.140
 2011SOL    HW1 6932   6.386   1.255   5.057
 2011SOL    HW2 6933   6.358   1.240   5.218
 2012SOL     OW 6934   1.071   3.219   1.478
 2012SOL    HW1 6935   1.132   3.236   1.401
 2012SOL    HW2 6936   1.116   3.159   1.544
 2013SOL     OW 6937   6.225   0.903   3.384
 2013SOL    HW1 6938   6.151   0.900   3.451
 2013SOL    HW2 6939   6.207   0.976   3.318
 2014SOL     OW 6940   2.258   5.157   3.050
 2014SOL    HW1 6941   2.221   5.186   3.138
 2014SOL    HW2 6942   2.187   5.166   2.979
 2015SOL     OW 6943   2.193   2.365   0.425
 2015SOL    HW1 6944   2.110   2.405   0.465
 2015SOL    HW2 6945   2.233   2.430   0.360
 2016SOL     OW 6946   1.359   5.331   5.019
 2016SOL    HW1 6947   1.343   5.409   4.958
 2016SOL    HW2 6948   1.457   5.322   5.037
 2017SOL     OW 6949   2.416   6.923   4.237
 2017SOL    HW1 6950   2.504   6.969   4.247
 2017SOL    HW2 6951   2.428   6.841   4.179
 2018SOL     OW 6952   6.071   6.955   6.215
 2018SOL    HW1 6953   6.026   6.866   6.209
 2018SOL    HW2 6954   6.026   0.004   6.154
 2019SOL     OW 6955   4.784   2.377   2.461
 2019SOL    HW1 6956   4.722   2.453   2.440
 2019SOL    HW2 6957   4.744   2.291   2.430
 2020SOL     OW 6958   0.852   5.589   5.419
 2020SOL    HW1 6959   0.952   5.582   5.421
 2020SOL    HW2 6960   0.826   5.672   5.370
 2021SOL     OW 6961   2.383   5.411   3.180
 2021SOL    HW1 6962   2.451   5.343   3.153
 2021SOL    HW2 6963   2.302   5.402   3.122
 2022SOL     OW 6964   1.805   3.135   2.883
 2022SOL    HW1 6965   1.902   3.115   2.890
 2022SOL    HW2 6966   1.752   3.057   2.916
 2023SOL     OW 6967   5.965   1.299   6.590
 2023SOL    HW1 6968   5.871   1.292   6.557
 2023SOL    HW2 6969   6.017   1.359   6.529
 2024SOL     OW 6970   6.927   6.909   3.005
 2024SOL    HW1 6971   7.009   6.953   3.042
 2024SOL    HW2 6972   6.918   6.932   2.908
 2025SOL     OW 6973   2.204   2.903   2.257
 2025SOL    HW1 6974   2.268   2.935   2.187
 2025SOL    HW2 6975   2.206   2.803   2.260
 2026SOL     OW 6976   1.137   2.517   6.199
 2026SOL    HW1 6977   1.136   2.538   6.101
 2026SOL    HW2 6978   1.227   2.482   6.225
 2027SOL     OW 6979   0.896   1.387   0.900
 2027SOL    HW1 6980   0.803   1.420   0.913
 2027SOL    HW2 6981   0.947   1.452   0.843
 2028SOL     OW 6982   2.953   1.235   6.197
 2028SOL    HW1 6983   2.932   1.158   6.136
 2028SOL    HW2 6984   2.890   1.310   6.179
 2029SOL     OW 6985   6.811   0.458   0.749
 2029SOL    HW1 6986   6.777   0.450   0.843
 2029SOL    HW2 6987   6.869   0.379   0.729
 2030SOL     OW 6988   2.481   1.013   3.202
 2030SOL    HW1 6989   2.568   0.975   3.170
 2030SOL    HW2 6990   2.472   0.998   3.300
 2031SOL     OW 6991   5.746   6.100   2.136
 2031SOL    HW1 6992   5.661   6.056   2.109
 2031SOL    HW2 6993   5.793   6.136   2.055
 2032SOL     OW 6994   3.935   6.757   2.037
 2032SOL    HW1 6995   3.999   6.807   2.095
 2032SOL    HW2 6996   3.881   6.822   1.983
 2033SOL     OW 6997   3.831   3.990   6.662
 2033SOL    HW1 6998   3.842   3.916   6.729
 2033SOL    HW2 6999   3.745   3.976   6.612
 2034SOL     OW 7000   3.197   6.753   4.438
 2034SOL    HW1 7001   3.146   6.695   4.374
 2034SOL    HW2 7002   3.292   6.722   4.442
 2035SOL     OW 7003   0.137   0.658   1.904
 2035SOL    HW1 7004   0.059   0.652   1.841
 2035SOL    HW2 7005   0.163   0.566   1.933
 2036SOL     OW 7006   1.306   5.538   2.886
 2036SOL    HW1 7007   1.264   5.449   2.905
 2036SOL    HW2 7008   1.386   5.527   2.827
 2037SOL     OW 7009   0.831   2.969   5.834
 2037SOL    HW1 7010   0.815   2.980   5.932
 2037SOL    HW2 7011   0.909   2.907   5.821
 2038SOL     OW 7012   1.780   2.044   6.863
 2038SOL    HW1 7013   1.724   2.105   6.919
 2038SOL    HW2 7014   1.825   2.097   6.790
 2039SOL     OW 7015   0.175   5.168   2.836
 2039SOL    HW1 7016   0.176   5.072   2.810
 2039SOL    HW2 7017   0.248   5.216   2.786
 2040SOL     OW 7018   3.875   3.178   5.244
 2040SOL    HW1 7019   3.865   3.114   5.168
 2040SOL    HW2 7020   3.798   3.241   5.245
 2041SOL     OW 7021   6.535   5.927   5.629
 2041SOL    HW1 7022   6.446   5.926   5.676
 2041SOL    HW2 7023   6.589   5.848   5.657
 2042SOL     OW 7024   5.640   4.783   7.006
 2042SOL    HW1 7025   5.577   4.792   0.068
 2042SOL    HW2 7026   5.625   4.858   6.942
 2043SOL     OW 7027   6.498   4.215   2.786
 2043SOL    HW1 7028   6.581   4.267   2.764
 2043SOL    HW2 7029   6.456   4.253   2.868
 2044SOL     OW 7030   4.908   0.082   1.671
 2044SOL    HW1 7031   4.999   0.041   1.664
 2044SOL    HW2 7032   4.916   0.180   1.687
 2045SOL     OW 7033   2.765   4.722   4.069
 2045SOL    HW1 7034   2.685   4.684   4.115
 2045SOL    HW2 7035   2.753   4.714   3.970
 2046SOL     OW 7036   0.252   1.318   4.166
 2046SOL    HW1 7037   0.338   1.364   4.187
 2046SOL    HW2 7038   0.198   1.308   4.250
 2047SOL     OW 7039   4.697   2.228   0.405
 2047SOL    HW1 7040   4.640   2.245   0.485
 2047SOL    HW2 7041   4.766   2.299   0.396
 2048SOL     OW 7042   1.964   5.826   0.754
 2048SOL    HW1 7043   2.010   5.739   0.737
 2048SOL    HW2 7044   2.013   5.899   0.707
 2049SOL     OW 7045   4.968   1.716   6.624
 2049SOL    HW1 7046   4.887   1.691   6.570
 2049SOL    HW2 7047   4.990   1.812   6.607
 2050SOL     OW 7048   0.489   3.309   2.992
 2050SOL    HW1 7049   0.485   3.209   2.996
 2050SOL    HW2 7050   0.400   3.347   3.017
 2051SOL     OW 7051   1.098   5.777   1.129
 2051SOL    HW1 7052   1.038   5.753   1.205
 2051SOL    HW2 7053   1.182   5.722   1.133
 2052SOL     OW 7054   0.338   4.344   0.773
 2052SOL    HW1 7055   0.352   4.429   0.824
 2052SOL    HW2 7056   0.376   4.267   0.824
 2053SOL     OW 7057   5.477   0.107   5.385
 2053SOL    HW1 7058   5.489   0.173   5.310
 2053SOL    HW2 7059   5.521   0.021   5.360
 2054SOL     OW 7060   4.046   3.131   1.958
 2054SOL    HW1 7061   3.993   3.048   1.969
 2054SOL    HW2 7062   4.087   3.157   2.046
 2055SOL     OW 7063   6.328   3.428   3.286
 2055SOL    HW1 7064   6.277   3.405   3.203
 2055SOL    HW2 7065   6.315   3.355   3.354
 2056SOL     OW 7066   2.353   0.404   3.072
 2056SOL    HW1 7067   2.420   0.374   3.141
 2056SOL    HW2 7068   2.399   0.455   3.000
 2057SOL     OW 7069   5.419   3.094   3.898
 2057SOL    HW1 7070   5.421   3.058   3.991
 2057SOL    HW2 7071   5.327   3.127   3.877
 2058SOL     OW 7072   0.780   1.944   3.043
 2058SOL    HW1 7073   0.834   1.910   3.121
 2058SOL    HW2 7074   0.763   1.869   2.979
 2059SOL     OW 7075   2.655   6.337   5.964
 2059SOL    HW1 7076   2.626   6.252   6.008
 2059SOL    HW2 7077   2.646   6.327   5.864
 2060SOL     OW 7078   5.335   4.602   0.794
 2060SOL    HW1 7079   5.313   4.664   0.870
 2060SOL    HW2 7080   5.431   4.574   0.801
 2061SOL     OW 7081   0.454   2.316   2.931
 2061SOL    HW1 7082   0.403   2.323   2.846
 2061SOL    HW2 7083   0.512   2.234   2.928
 2062SOL     OW 7084   6.071   6.896   3.614
 2062SOL    HW1 7085   6.047   6.900   3.711
 2062SOL    HW2 7086   6.107   6.805   3.592
 2063SOL     OW 7087   1.724   0.356   6.120
 2063SOL    HW1 7088   1.654   0.410   6.073
 2063SOL    HW2 7089   1.758   0.408   6.198
 2064SOL     OW 7090   1.051   2.633   5.957
 2064SOL    HW1 7091   1.012   2.565   5.894
 2064SOL    HW2 7092   1.048   2.723   5.914
 2065SOL     OW 7093   6.763   2.917   4.509
 2065SOL    HW1 7094   6.778   3.016   4.504
 2065SOL    HW2 7095   6.793   2.883   4.597
 2066SOL     OW 7096   0.658   5.390   3.338
 2066SOL    HW1 7097   0.569   5.348   3.321
 2066SOL    HW2 7098   0.730   5.332   3.301
 2067SOL     OW 7099   0.110   5.542   0.944
 2067SOL    HW1 7100   0.021   5.521   0.984
 2067SOL    HW2 7101   0.098   5.573   0.850
 2068SOL     OW 7102   1.591   1.518   5.236
 2068SOL    HW1 7103   1.662   1.454   5.208
 2068SOL    HW2 7104   1.529   1.474   5.301
 2069SOL     OW 7105   0.859   3.295   3.230
 2069SOL    HW1 7106   0.817   3.235   3.298
 2069SOL    HW2 7107   0.858   3.251   3.141
 2070SOL     OW 7108   1.384   0.574   2.048
 2070SOL    HW1 7109   1.436   0.642   2.100
 2070SOL    HW2 7110   1.289   0.603   2.041
 2071SOL     OW 7111   5.614   6.038   5.301
 2071SOL    HW1 7112   5.675   5.966   5.268
 2071SOL    HW2 7113   5.597   6.026   5.398
 2072SOL     OW 7114   4.338   7.001   2.528
 2072SOL    HW1 7115   4.334   0.074   2.574
 2072SOL    HW2 7116   4.370   7.013   2.434
 2073SOL     OW 7117   4.056   6.808   4.392
 2073SOL    HW1 7118   4.153   6.787   4.381
 2073SOL    HW2 7119   4.017   6.751   4.464
 2074SOL     OW 7120   1.565   2.803   0.352
 2074SOL    HW1 7121   1.538   2.727   0.293
 2074SOL    HW2 7122   1.486   2.860   0.372
 2075SOL     OW 7123   5.313   3.179   1.133
 2075SOL    HW1 7124   5.216   3.203   1.136
 2075SOL    HW2 7125   5.365   3.243   1.190
 2076SOL     OW 7126   5.414   0.110   6.462
 2076SOL    HW1 7127   5.359   0.062   6.530
 2076SOL    HW2 7128   5.494   0.055   6.437
 2077SOL     OW 7129   5.627   2.801   2.058
 2077SOL    HW1 7130   5.588   2.754   1.979
 2077SOL    HW2 7131   5.593   2.759   2.142
 2078SOL     OW 7132   1.200   5.707   6.425
 2078SOL    HW1 7133   1.159   5.621   6.396
 2078SOL    HW2 7134   1.273   5.689   6.490
 2079SOL     OW 7135   5.257   1.747   3.520
 2079SOL    HW1 7136   5.345   1.709   3.545
 2079SOL    HW2 7137   5.269   1.818   3.450
 2080SOL     OW 7138   1.714   1.097   4.646
 2080SOL    HW1 7139   1.632   1.117   4.699
 2080SOL    HW2 7140   1.770   1.030   4.694
 2081SOL     OW 7141   1.452   5.404   4.244
 2081SOL    HW1 7142   1.471   5.345   4.165
 2081SOL    HW2 7143   1.448   5.499   4.215
 2082SOL     OW 7144   0.165   6.734   3.272
 2082SOL    HW1 7145   0.110   6.651   3.264
 2082SOL    HW2 7146   0.105   6.813   3.285
 2083SOL     OW 7147   5.933   4.875   6.708
 2083SOL    HW1 7148   5.880   4.791   6.718
 2083SOL    HW2 7149   5.899   4.927   6.629
 2084SOL     OW 7150   1.357   3.872   3.875
 2084SOL    HW1 7151   1.375   3.825   3.789
 2084SOL    HW2 7152   1.266   3.849   3.907
 2085SOL     OW 7153   4.154   0.598   6.673
 2085SOL    HW1 7154   4.059   0.600   6.644
 2085SOL    HW2 7155   4.166   0.655   6.754
 2086SOL     OW 7156   4.288   6.739   5.784
 2086SOL    HW1 7157   4.331   6.816   5.832
 2086SOL    HW2 7158   4.334   6.654   5.809
 2087SOL     OW 7159   5.050   0.328   1.457
 2087SOL    HW1 7160   4.993   0.404   1.488
 2087SOL    HW2 7161   5.027   0.306   1.362
 2088SOL     OW 7162   2.746   6.144   0.275
 2088SOL    HW1 7163   2.702   6.069   0.324
 2088SOL    HW2 7164   2.766   6.115   0.182
 2089SOL     OW 7165   5.615   2.004   6.260
 2089SOL    HW1 7166   5.571   2.016   6.349
 2089SOL    HW2 7167   5.596   1.913   6.225
 2090SOL     OW 7168   3.523   3.353   5.712
 2090SOL    HW1 7169   3.557   3.316   5.626
 2090SOL    HW2 7170   3.595   3.350   5.781
 2091SOL     OW 7171   6.991   5.928   0.636
 2091SOL    HW1 7172   0.069   5.910   0.666
 2091SOL    HW2 7173   6.984   5.914   0.538
 2092SOL     OW 7174   5.596   4.351   6.995
 2092SOL    HW1 7175   5.544   4.276   6.956
 2092SOL    HW2 7176   5.542   4.436   6.988
 2093SOL     OW 7177   2.348   2.188   1.170
 2093SOL    HW1 7178   2.262   2.210   1.217
 2093SOL    HW2 7179   2.424   2.236   1.213
 2094SOL     OW 7180   5.658   1.700   1.175
 2094SOL    HW1 7181   5.732   1.738   1.119
 2094SOL    HW2 7182   5.594   1.772   1.199
 2095SOL     OW 7183   5.631   0.105   4.551
 2095SOL    HW1 7184   5.701   0.173   4.526
 2095SOL    HW2 7185   5.544   0.152   4.567
 2096SOL     OW 7186   4.815   4.067   2.994
 2096SOL    HW1 7187   4.781   4.018   3.074
 2096SOL    HW2 7188   4.833   4.162   3.019
 2097SOL     OW 7189   2.711   2.762   6.704
 2097SOL    HW1 7190   2.756   2.816   6.633
 2097SOL    HW2 7191   2.628   2.720   6.666
 2098SOL     OW 7192   4.067   5.982   2.800
 2098SOL    HW1 7193   4.120   5.949   2.721
 2098SOL    HW2 7194   4.012   5.908   2.837
 2099SOL     OW 7195   2.249   3.039   5.946
 2099SOL    HW1 7196   2.165   3.092   5.955
 2099SOL    HW2 7197   2.227   2.942   5.937
 2100SOL     OW 7198   4.680   2.824   6.173
 2100SOL    HW1 7199   4.583   2.849   6.179
 2100SOL    HW2 7200   4.691   2.729   6.202
 2101SOL     OW 7201   1.359   6.270   2.413
 2101SOL    HW1 7202   1.411   6.187   2.434
 2101SOL    HW2 7203   1.314   6.259   2.325
 2102SOL     OW 7204   6.595   4.607   2.097
 2102SOL    HW1 7205   6.555   4.696   2.117
 2102SOL    HW2 7206   6.529   4.552   2.045
 2103SOL     OW 7207   3.942   4.478   5.673
 2103SOL    HW1 7208   4.018   4.426   5.712
 2103SOL    HW2 7209   3.862   4.418   5.664
 2104SOL     OW 7210   2.079   3.916   1.139
 2104SOL    HW1 7211   2.132   3.897   1.222
 2104SOL    HW2 7212   2.012   3.988   1.158
 2105SOL     OW 7213   5.261   6.095   5.327
 2105SOL    HW1 7214   5.175   6.083   5.377
 2105SOL    HW2 7215   5.242   6.136   5.237
 2106SOL     OW 7216   4.689   4.105   1.090
 2106SOL    HW1 7217   4.760   4.046   1.129
 2106SOL    HW2 7218   4.601   4.084   1.132
 2107SOL     OW 7219   4.899   2.378   5.127
 2107SOL    HW1 7220   4.988   2.333   5.123
 2107SOL    HW2 7221   4.844   2.352   5.047
 2108SOL     OW 7222   6.611   6.130   5.176
 2108SOL    HW1 7223   6.623   6.158   5.271
 2108SOL    HW2 7224   6.537   6.064   5.170
 2109SOL     OW 7225   4.161   6.339   2.471
 2109SOL    HW1 7226   4.236   6.316   2.409
 2109SOL    HW2 7227   4.074   6.324   2.425
 2110SOL     OW 7228   2.605   1.797   0.182
 2110SOL    HW1 7229   2.510   1.777   0.158
 2110SOL    HW2 7230   2.615   1.796   0.281
 2111SOL     OW 7231   1.179   2.678   0.078
 2111SOL    HW1 7232   1.246   2.745   0.047
 2111SOL    HW2 7233   1.119   2.653   0.002
 2112SOL     OW 7234   5.284   3.567   0.276
 2112SOL    HW1 7235   5.306   3.497   0.344
 2112SOL    HW2 7236   5.308   3.533   0.185
 2113SOL     OW 7237   1.730   1.973   5.062
 2113SOL    HW1 7238   1.824   1.994   5.034
 2113SOL    HW2 7239   1.697   1.895   5.010
 2114SOL     OW 7240   1.434   2.206   0.196
 2114SOL    HW1 7241   1.400   2.165   0.280
 2114SOL    HW2 7242   1.445   2.136   0.126
 2115SOL     OW 7243   2.118   3.387   2.897
 2115SOL    HW1 7244   2.107   3.314   2.829
 2115SOL    HW2 7245   2.110   3.476   2.852
 2116SOL     OW 7246   6.977   4.969   3.010
 2116SOL    HW1 7247   0.038   4.915   3.045
 2116SOL    HW2 7248   6.965   4.950   2.912
 2117SOL     OW 7249   6.980   5.457   1.812
 2117SOL    HW1 7250   0.007   5.532   1.862
 2117SOL    HW2 7251   6.915   5.494   1.746
 2118SOL     OW 7252   5.935   3.608   1.661
 2118SOL    HW1 7253   5.967   3.541   1.595
 2118SOL    HW2 7254   6.014   3.658   1.698
 2119SOL     OW 7255   1.739   6.159   1.173
 2119SOL    HW1 7256   1.737   6.125   1.267
 2119SOL    HW2 7257   1.689   6.095   1.115
 2120SOL     OW 7258   6.780   5.179   4.306
 2120SOL    HW1 7259   6.708   5.186   4.236
 2120SOL    HW2 7260   6.829   5.265   4.312
 2121SOL     OW 7261   1.347   4.077   5.759
 2121SOL    HW1 7262   1.389   4.060   5.848
 2121SOL    HW2 7263   1.411   4.052   5.687
 2122SOL     OW 7264   5.566   4.118   6.196
 2122SOL    HW1 7265   5.565   4.053   6.272
 2122SOL    HW2 7266   5.660   4.150   6.181
 2123SOL     OW 7267   6.588   5.786   2.069
 2123SOL    HW1 7268   6.547   5.704   2.030
 2123SOL    HW2 7269   6.613   5.849   1.996
 2124SOL     OW 7270   2.689   1.908   1.760
 2124SOL    HW1 7271   2.708   2.005   1.771
 2124SOL    HW2 7272   2.716   1.859   1.843
 2125SOL     OW 7273   1.892   0.513   2.114
 2125SOL    HW1 7274   1.875   0.440   2.180
 2125SOL    HW2 7275   1.819   0.513   2.045
 2126SOL     OW 7276   3.525   1.557   6.431
 2126SOL    HW1 7277   3.536   1.481   6.367
 2126SOL    HW2 7278   3.612   1.576   6.476
 2127SOL     OW 7279   0.491   3.205   4.567
 2127SOL    HW1 7280   0.413   3.217   4.629
 2127SOL    HW2 7281   0.479   3.263   4.487
 2128SOL     OW 7282   6.716   3.313   3.622
 2128SOL    HW1 7283   6.783   3.239   3.615
 2128SOL    HW2 7284   6.752   3.394   3.577
 2129SOL     OW 7285   4.170   3.563   5.241
 2129SOL    HW1 7286   4.184   3.468   5.212
 2129SOL    HW2 7287   4.118   3.564   5.326
 2130SOL     OW 7288   3.384   0.605   1.990
 2130SOL    HW1 7289   3.415   0.536   2.056
 2130SOL    HW2 7290   3.464   0.652   1.952
 2131SOL     OW 7291   5.900   0.322   1.245
 2131SOL    HW1 7292   5.871   0.367   1.161
 2131SOL    HW2 7293   5.983   0.268   1.228
 2132SOL     OW 7294   3.233   0.689   1.517
 2132SOL    HW1 7295   3.248   0.604   1.567
 2132SOL    HW2 7296   3.262   0.766   1.574
 2133SOL     OW 7297   3.063   3.090   0.860
 2133SOL    HW1 7298   3.137   3.148   0.895
 2133SOL    HW2 7299   3.033   3.124   0.771
 2134SOL     OW 7300   6.738   1.932   6.893
 2134SOL    HW1 7301   6.792   1.887   6.822
 2134SOL    HW2 7302   6.683   2.005   6.852
 2135SOL     OW 7303   1.411   3.369   4.444
 2135SOL    HW1 7304   1.379   3.277   4.467
 2135SOL    HW2 7305   1.334   3.433   4.446
 2136SOL     OW 7306   1.570   3.342   3.316
 2136SOL    HW1 7307   1.630   3.262   3.307
 2136SOL    HW2 7308   1.486   3.328   3.265
 2137SOL     OW 7309   2.418   5.321   4.909
 2137SOL    HW1 7310   2.376   5.259   4.975
 2137SOL    HW2 7311   2.481   5.383   4.957
 2138SOL     OW 7312   6.675   0.143   2.908
 2138SOL    HW1 7313   6.741   0.134   2.834
 2138SOL    HW2 7314   6.614   0.220   2.888
 2139SOL     OW 7315   4.215   0.917   3.496
 2139SOL    HW1 7316   4.131   0.902   3.547
 2139SOL    HW2 7317   4.270   0.833   3.496
 2140SOL     OW 7318   3.582   6.656   3.644
 2140SOL    HW1 7319   3.665   6.637   3.591
 2140SOL    HW2 7320   3.560   6.576   3.700
 2141SOL     OW 7321   6.544   3.599   2.370
 2141SOL    HW1 7322   6.565   3.681   2.424
 2141SOL    HW2 7323   6.455   3.563   2.398
 2142SOL     OW 7324   1.676   1.259   2.859
 2142SOL    HW1 7325   1.703   1.338   2.804
 2142SOL    HW2 7326   1.622   1.290   2.938
 2143SOL     OW 7327   3.366   4.451   1.464
 2143SOL    HW1 7328   3.271   4.439   1.434
 2143SOL    HW2 7329   3.368   4.482   1.559
 2144SOL     OW 7330   1.096   5.644   3.648
 2144SOL    HW1 7331   1.001   5.637   3.619
 2144SOL    HW2 7332   1.101   5.704   3.728
 2145SOL     OW 7333   4.508   5.916   4.000
 2145SOL    HW1 7334   4.532   5.964   4.084
 2145SOL    HW2 7335   4.411   5.890   4.003
 2146SOL     OW 7336   2.375   3.881   1.741
 2146SOL    HW1 7337   2.284   3.860   1.776
 2146SOL    HW2 7338   2.379   3.978   1.716
 2147SOL     OW 7339   6.652   1.352   5.881
 2147SOL    HW1 7340   6.726   1.411   5.849
 2147SOL    HW2 7341   6.590   1.334   5.805
 2148SOL     OW 7342   6.230   3.118   5.575
 2148SOL    HW1 7343   6.180   3.085   5.495
 2148SOL    HW2 7344   6.327   3.096   5.565
 2149SOL     OW 7345   3.199   1.709   1.008
 2149SOL    HW1 7346   3.181   1.705   0.910
 2149SOL    HW2 7347   3.115   1.731   1.057
 2150SOL     OW 7348   2.403   2.467   1.925
 2150SOL    HW1 7349   2.432   2.376   1.896
 2150SOL    HW2 7350   2.464   2.535   1.885
 2151SOL     OW 7351   1.229   0.112   5.334
 2151SOL    HW1 7352   1.192   0.020   5.319
 2151SOL    HW2 7353   1.200   0.171   5.259
 2152SOL     OW 7354   2.799   5.809   2.303
 2152SOL    HW1 7355   2.731   5.868   2.259
 2152SOL    HW2 7356   2.827   5.849   2.390
 2153SOL     OW 7357   4.411   1.426   2.969
 2153SOL    HW1 7358   4.488   1.478   3.006
 2153SOL    HW2 7359   4.446   1.355   2.908
 2154SOL     OW 7360   5.307   1.156   4.779
 2154SOL    HW1 7361   5.297   1.207   4.864
 2154SOL    HW2 7362   5.404   1.137   4.763
 2155SOL     OW 7363   2.842   5.741   0.663
 2155SOL    HW1 7364   2.897   5.819   0.635
 2155SOL    HW2 7365   2.765   5.772   0.719
 2156SOL     OW 7366   1.344   2.094   4.902
 2156SOL    HW1 7367   1.385   2.008   4.873
 2156SOL    HW2 7368   1.265   2.075   4.960
 2157SOL     OW 7369   6.267   0.293   2.973
 2157SOL    HW1 7370   6.364   0.269   2.977
 2157SOL    HW2 7371   6.222   0.265   3.057
 2158SOL     OW 7372   3.526   6.033   1.001
 2158SOL    HW1 7373   3.468   6.094   1.055
 2158SOL    HW2 7374   3.618   6.072   0.994
 2159SOL     OW 7375   1.140   6.484   5.214
 2159SOL    HW1 7376   1.082   6.565   5.220
 2159SOL    HW2 7377   1.200   6.481   5.294
 2160SOL     OW 7378   4.319   3.905   0.157
 2160SOL    HW1 7379   4.237   3.869   0.112
 2160SOL    HW2 7380   4.360   3.976   0.100
 2161SOL     OW 7381   5.291   4.993   2.473
 2161SOL    HW1 7382   5.299   5.019   2.377
 2161SOL    HW2 7383   5.327   5.066   2.531
 2162SOL     OW 7384   2.424   0.483   2.001
 2162SOL    HW1 7385   2.328   0.508   1.988
 2162SOL    HW2 7386   2.478   0.566   2.015
 2163SOL     OW 7387   1.566   4.996   6.188
 2163SOL    HW1 7388   1.533   4.902   6.178
 2163SOL    HW2 7389   1.490   5.059   6.172
 2164SOL     OW 7390   1.725   2.351   6.421
 2164SOL    HW1 7391   1.706   2.448   6.408
 2164SOL    HW2 7392   1.670   2.297   6.357
 2165SOL     OW 7393   0.116   2.150   2.760
 2165SOL    HW1 7394   0.164   2.077   2.711
 2165SOL    HW2 7395   0.042   2.111   2.815
 2166SOL     OW 7396   1.195   2.316   5.229
 2166SOL    HW1 7397   1.244   2.253   5.169
 2166SOL    HW2 7398   1.228   2.410   5.213
 2167SOL     OW 7399   1.297   2.337   3.230
 2167SOL    HW1 7400   1.240   2.299   3.157
 2167SOL    HW2 7401   1.385   2.289   3.233
 2168SOL     OW 7402   0.517   2.478   3.673
 2168SOL    HW1 7403   0.567   2.533   3.740
 2168SOL    HW2 7404   0.549   2.383   3.677
 2169SOL     OW 7405   5.485   1.589   0.112
 2169SOL    HW1 7406   5.578   1.553   0.111
 2169SOL    HW2 7407   5.425   1.528   0.060
 2170SOL     OW 7408   0.114   4.154   5.692
 2170SOL    HW1 7409   0.169   4.190   5.768
 2170SOL    HW2 7410   0.036   4.103   5.729
 2171SOL     OW 7411   0.049   5.613   1.348
 2171SOL    HW1 7412   0.046   5.538   1.282
 2171SOL    HW2 7413   0.009   5.583   1.435
 2172SOL     OW 7414   1.937   2.241   6.723
 2172SOL    HW1 7415   1.937   2.188   6.638
 2172SOL    HW2 7416   1.913   2.336   6.703
 2173SOL     OW 7417   3.933   0.890   5.455
 2173SOL    HW1 7418   3.904   0.956   5.524
 2173SOL    HW2 7419   4.012   0.927   5.406
 2174SOL     OW 7420   5.489   6.072   5.049
 2174SOL    HW1 7421   5.573   6.024   5.023
 2174SOL    HW2 7422   5.469   6.055   5.145
 2175SOL     OW 7423   2.332   2.655   4.558
 2175SOL    HW1 7424   2.327   2.733   4.496
 2175SOL    HW2 7425   2.272   2.582   4.525
 2176SOL     OW 7426   6.352   2.149   0.657
 2176SOL    HW1 7427   6.297   2.066   0.661
 2176SOL    HW2 7428   6.293   2.229   0.662
 2177SOL     OW 7429   6.933   2.050   4.231
 2177SOL    HW1 7430   6.911   1.997   4.149
 2177SOL    HW2 7431   6.977   1.990   4.298
 2178SOL     OW 7432   2.175   2.065   1.464
 2178SOL    HW1 7433   2.194   1.971   1.438
 2178SOL    HW2 7434   2.257   2.107   1.502
 2179SOL     OW 7435   2.060   5.202   5.072
 2179SOL    HW1 7436   2.009   5.288   5.070
 2179SOL    HW2 7437   1.997   5.126   5.082
 2180SOL     OW 7438   1.566   2.128   1.673
 2180SOL    HW1 7439   1.496   2.168   1.734
 2180SOL    HW2 7440   1.608   2.200   1.619
 2181SOL     OW 7441   5.120   4.807   4.623
 2181SOL    HW1 7442   5.026   4.788   4.594
 2181SOL    HW2 7443   5.140   4.903   4.605
 2182SOL     OW 7444   1.630   3.922   4.346
 2182SOL    HW1 7445   1.587   3.931   4.256
 2182SOL    HW2 7446   1.690   3.842   4.346
 2183SOL     OW 7447   2.657   4.427   5.729
 2183SOL    HW1 7448   2.731   4.463   5.672
 2183SOL    HW2 7449   2.573   4.479   5.711
 2184SOL     OW 7450   3.768   1.243   6.192
 2184SOL    HW1 7451   3.758   1.147   6.166
 2184SOL    HW2 7452   3.678   1.285   6.202
 2185SOL     OW 7453   0.260   1.005   1.187
 2185SOL    HW1 7454   0.322   1.050   1.123
 2185SOL    HW2 7455   0.220   1.073   1.248
 2186SOL     OW 7456   0.458   6.078   1.699
 2186SOL    HW1 7457   0.429   6.111   1.789
 2186SOL    HW2 7458   0.485   6.156   1.642
 2187SOL     OW 7459   6.377   6.245   3.090
 2187SOL    HW1 7460   6.409   6.263   2.997
 2187SOL    HW2 7461   6.343   6.151   3.096
 2188SOL     OW 7462   0.055   6.041   4.422
 2188SOL    HW1 7463   0.001   5.979   4.366
 2188SOL    HW2 7464   0.005   6.065   4.505
 2189SOL     OW 7465   1.798   6.383   0.629
 2189SOL    HW1 7466   1.875   6.349   0.574
 2189SOL    HW2 7467   1.832   6.446   0.698
 2190SOL     OW 7468   0.271   3.564   1.982
 2190SOL    HW1 7469   0.190   3.554   1.924
 2190SOL    HW2 7470   0.329   3.484   1.974
 2191SOL     OW 7471   2.920   2.085   6.812
 2191SOL    HW1 7472   2.872   2.026   6.876
 2191SOL    HW2 7473   2.955   2.031   6.736
 2192SOL     OW 7474   4.808   1.101   2.237
 2192SOL    HW1 7475   4.756   1.082   2.320
 2192SOL    HW2 7476   4.873   1.027   2.221
 2193SOL     OW 7477   5.481   5.843   0.168
 2193SOL    HW1 7478   5.388   5.864   0.136
 2193SOL    HW2 7479   5.534   5.802   0.094
 2194SOL     OW 7480   2.486   4.575   5.513
 2194SOL    HW1 7481   2.483   4.511   5.436
 2194SOL    HW2 7482   2.453   4.664   5.483
 2195SOL     OW 7483   0.329   0.301   4.404
 2195SOL    HW1 7484   0.304   0.398   4.404
 2195SOL    HW2 7485   0.252   0.247   4.437
 2196SOL     OW 7486   3.235   0.041   5.113
 2196SOL    HW1 7487   3.156   0.089   5.073
 2196SOL    HW2 7488   3.273   0.096   5.187
 2197SOL     OW 7489   3.022   3.579   0.177
 2197SOL    HW1 7490   3.103   3.555   0.123
 2197SOL    HW2 7491   2.981   3.496   0.214
 2198SOL     OW 7492   5.472   0.295   0.512
 2198SOL    HW1 7493   5.547   0.361   0.500
 2198SOL    HW2 7494   5.490   0.214   0.457
 2199SOL     OW 7495   4.716   0.716   3.114
 2199SOL    HW1 7496   4.654   0.758   3.180
 2199SOL    HW2 7497   4.726   0.777   3.035
 2200SOL     OW 7498   2.905   1.974   4.867
 2200SOL    HW1 7499   2.820   1.932   4.834
 2200SOL    HW2 7500   2.973   1.903   4.883
 2201SOL     OW 7501   6.880   2.872   2.765
 2201SOL    HW1 7502   6.971   2.831   2.766
 2201SOL    HW2 7503   6.814   2.806   2.730
 2202SOL     OW 7504   2.872   5.563   2.535
 2202SOL    HW1 7505   2.860   5.661   2.553
 2202SOL    HW2 7506   2.898   5.550   2.439
 2203SOL     OW 7507   1.567   2.727   0.868
 2203SOL    HW1 7508   1.611   2.728   0.778
 2203SOL    HW2 7509   1.637   2.728   0.940
 2204SOL     OW 7510   4.183   1.447   1.647
 2204SOL    HW1 7511   4.110   1.502   1.608
 2204SOL    HW2 7512   4.266   1.502   1.656
 2205SOL     OW 7513   0.867   0.112   6.164
 2205SOL    HW1 7514   0.903   0.055   6.090
 2205SOL    HW2 7515   0.772   0.136   6.144
 2206SOL     OW 7516   3.070   5.144   6.272
 2206SOL    HW1 7517   3.153   5.144   6.217
 2206SOL    HW2 7518   3.047   5.051   6.298
 2207SOL     OW 7519   3.021   4.918   6.415
 2207SOL    HW1 7520   3.092   4.850   6.397
 2207SOL    HW2 7521   2.942   4.873   6.458
 2208SOL     OW 7522   1.892   6.119   3.054
 2208SOL    HW1 7523   1.916   6.078   3.142
 2208SOL    HW2 7524   1.948   6.201   3.039
 2209SOL     OW 7525   1.471   6.505   5.275
 2209SOL    HW1 7526   1.403   6.473   5.341
 2209SOL    HW2 7527   1.561   6.509   5.318
 2210SOL     OW 7528   0.047   4.732   4.687
 2210SOL    HW1 7529   0.048   4.828   4.714
 2210SOL    HW2 7530   0.044   4.725   4.588
 2211SOL     OW 7531   6.236   0.335   1.094
 2211SOL    HW1 7532   6.309   0.335   1.162
 2211SOL    HW2 7533   6.202   0.242   1.082
 2212SOL     OW 7534   2.208   5.872   6.856
 2212SOL    HW1 7535   2.127   5.916   6.895
 2212SOL    HW2 7536   2.217   5.897   6.760
 2213SOL     OW 7537   3.374   1.931   5.438
 2213SOL    HW1 7538   3.322   1.964   5.517
 2213SOL    HW2 7539   3.370   1.831   5.435
 2214SOL     OW 7540   3.675   3.366   5.205
 2214SOL    HW1 7541   3.714   3.427   5.137
 2214SOL    HW2 7542   3.581   3.344   5.179
 2215SOL     OW 7543   5.935   0.714   0.413
 2215SOL    HW1 7544   5.879   0.788   0.451
 2215SOL    HW2 7545   5.994   0.750   0.341
 2216SOL     OW 7546   1.544   1.012   6.270
 2216SOL    HW1 7547   1.449   1.035   6.294
 2216SOL    HW2 7548   1.606   1.067   6.327
 2217SOL     OW 7549   4.252   6.892   1.856
 2217SOL    HW1 7550   4.242   6.794   1.876
 2217SOL    HW2 7551   4.278   6.904   1.761
 2218SOL     OW 7552   6.495   5.728   0.180
 2218SOL    HW1 7553   6.503   5.793   0.256
 2218SOL    HW2 7554   6.503   5.778   0.093
 2219SOL     OW 7555   5.352   1.839   1.424
 2219SOL    HW1 7556   5.350   1.854   1.523
 2219SOL    HW2 7557   5.258   1.828   1.391
 2220SOL     OW 7558   1.805   0.103   5.086
 2220SOL    HW1 7559   1.785   0.040   5.010
 2220SOL    HW2 7560   1.780   0.060   5.172
 2221SOL     OW 7561   6.199   1.174   5.720
 2221SOL    HW1 7562   6.140   1.225   5.657
 2221SOL    HW2 7563   6.187   1.076   5.704
 2222SOL     OW 7564   4.837   0.882   0.096
 2222SOL    HW1 7565   4.909   0.886   0.166
 2222SOL    HW2 7566   4.763   0.824   0.129
 2223SOL     OW 7567   5.944   0.910   4.965
 2223SOL    HW1 7568   5.862   0.930   5.018
 2223SOL    HW2 7569   6.024   0.946   5.013
 2224SOL     OW 7570   0.111   3.573   0.889
 2224SOL    HW1 7571   0.167   3.616   0.960
 2224SOL    HW2 7572   0.129   3.475   0.887
 2225SOL     OW 7573   6.804   6.329   3.553
 2225SOL    HW1 7574   6.714   6.352   3.517
 2225SOL    HW2 7575   6.848   6.262   3.493
 2226SOL     OW 7576   3.678   5.124   1.111
 2226SOL    HW1 7577   3.717   5.115   1.202
 2226SOL    HW2 7578   3.585   5.088   1.110
 2227SOL     OW 7579   5.005   3.748   6.724
 2227SOL    HW1 7580   4.998   3.653   6.752
 2227SOL    HW2 7581   4.981   3.758   6.628
 2228SOL     OW 7582   3.574   4.728   1.370
 2228SOL    HW1 7583   3.552   4.749   1.465
 2228SOL    HW2 7584   3.495   4.685   1.327
 2229SOL     OW 7585   4.621   2.808   5.072
 2229SOL    HW1 7586   4.675   2.826   5.154
 2229SOL    HW2 7587   4.656   2.863   4.996
 2230SOL     OW 7588   5.458   6.605   6.905
 2230SOL    HW1 7589   5.415   6.523   6.944
 2230SOL    HW2 7590   5.553   6.585   6.881
 2231SOL     OW 7591   0.663   0.912   1.668
 2231SOL    HW1 7592   0.679   1.005   1.699
 2231SOL    HW2 7593   0.613   0.913   1.582
 2232SOL     OW 7594   0.892   2.640   5.373
 2232SOL    HW1 7595   0.935   2.673   5.289
 2232SOL    HW2 7596   0.865   2.545   5.362
 2233SOL     OW 7597   2.341   3.864   0.257
 2233SOL    HW1 7598   2.301   3.800   0.193
 2233SOL    HW2 7599   2.304   3.956   0.240
 2234SOL     OW 7600   4.167   1.811   1.644
 2234SOL    HW1 7601   4.097   1.831   1.713
 2234SOL    HW2 7602   4.138   1.732   1.590
 2235SOL     OW 7603   2.847   6.945   1.379
 2235SOL    HW1 7604   2.858   6.874   1.449
 2235SOL    HW2 7605   2.861   0.019   1.420
 2236SOL     OW 7606   1.690   4.246   6.397
 2236SOL    HW1 7607   1.748   4.327   6.385
 2236SOL    HW2 7608   1.635   4.256   6.480
 2237SOL     OW 7609   5.914   4.550   3.950
 2237SOL    HW1 7610   5.869   4.640   3.958
 2237SOL    HW2 7611   5.981   4.540   4.023
 2238SOL     OW 7612   4.668   4.758   1.620
 2238SOL    HW1 7613   4.653   4.663   1.648
 2238SOL    HW2 7614   4.712   4.758   1.530
 2239SOL     OW 7615   3.955   5.135   4.213
 2239SOL    HW1 7616   3.872   5.110   4.263
 2239SOL    HW2 7617   3.990   5.056   4.164
 2240SOL     OW 7618   4.506   5.643   3.887
 2240SOL    HW1 7619   4.466   5.720   3.937
 2240SOL    HW2 7620   4.440   5.569   3.881
 2241SOL     OW 7621   0.201   5.428   3.302
 2241SOL    HW1 7622   0.159   5.338   3.284
 2241SOL    HW2 7623   0.176   5.459   3.393
 2242SOL     OW 7624   5.424   2.731   2.927
 2242SOL    HW1 7625   5.351   2.794   2.902
 2242SOL    HW2 7626   5.506   2.752   2.873
 2243SOL     OW 7627   1.893   6.789   6.345
 2243SOL    HW1 7628   1.847   6.798   6.257
 2243SOL    HW2 7629   1.836   6.830   6.417
 2244SOL     OW 7630   1.706   6.512   1.894
 2244SOL    HW1 7631   1.764   6.433   1.912
 2244SOL    HW2 7632   1.704   6.530   1.796
 2245SOL     OW 7633   0.280   2.566   1.034
 2245SOL    HW1 7634   0.253   2.656   1.066
 2245SOL    HW2 7635   0.358   2.533   1.087
 2246SOL     OW 7636   1.056   1.855   4.783
 2246SOL    HW1 7637   1.155   1.845   4.772
 2246SOL    HW2 7638   1.017   1.768   4.812
 2247SOL     OW 7639   3.458   3.140   3.882
 2247SOL    HW1 7640   3.413   3.098   3.960
 2247SOL    HW2 7641   3.498   3.068   3.824
 2248SOL     OW 7642   5.685   3.914   5.603
 2248SOL    HW1 7643   5.594   3.872   5.604
 2248SOL    HW2 7644   5.750   3.850   5.562
 2249SOL     OW 7645   5.961   6.414   2.881
 2249SOL    HW1 7646   5.983   6.509   2.905
 2249SOL    HW2 7647   6.034   6.377   2.824
 2250SOL     OW 7648   4.328   3.758   6.194
 2250SOL    HW1 7649   4.275   3.772   6.277
 2250SOL    HW2 7650   4.268   3.729   6.120
 2251SOL     OW 7651   5.290   0.315   6.747
 2251SOL    HW1 7652   5.218   0.246   6.741
 2251SOL    HW2 7653   5.279   0.366   6.833
 2252SOL     OW 7654   4.809   2.830   2.197
 2252SOL    HW1 7655   4.847   2.804   2.286
 2252SOL    HW2 7656   4.847   2.919   2.170
 2253SOL     OW 7657   0.952   3.668   6.562
 2253SOL    HW1 7658   0.926   3.640   6.654
 2253SOL    HW2 7659   0.907   3.754   6.539
 2254SOL     OW 7660   3.669   2.670   5.726
 2254SOL    HW1 7661   3.581   2.671   5.773
 2254SOL    HW2 7662   3.659   2.629   5.635
 2255SOL     OW 7663   4.896   2.968   6.298
 2255SOL    HW1 7664   4.814   2.918   6.268
 2255SOL    HW2 7665   4.978   2.922   6.263
 2256SOL     OW 7666   5.330   6.157   1.708
 2256SOL    HW1 7667   5.419   6.123   1.679
 2256SOL    HW2 7668   5.269   6.080   1.725
 2257SOL     OW 7669   0.193   1.966   4.648
 2257SOL    HW1 7670   0.126   1.951   4.721
 2257SOL    HW2 7671   0.152   1.944   4.560
 2258SOL     OW 7672   1.101   5.432   5.440
 2258SOL    HW1 7673   1.199   5.448   5.425
 2258SOL    HW2 7674   1.086   5.334   5.458
 2259SOL     OW 7675   5.378   3.960   6.420
 2259SOL    HW1 7676   5.290   3.935   6.461
 2259SOL    HW2 7677   5.392   3.906   6.337
 2260SOL     OW 7678   6.146   4.249   1.882
 2260SOL    HW1 7679   6.091   4.285   1.805
 2260SOL    HW2 7680   6.238   4.229   1.850
 2261SOL     OW 7681   6.500   5.881   0.417
 2261SOL    HW1 7682   6.484   5.979   0.403
 2261SOL    HW2 7683   6.554   5.867   0.499
 2262SOL     OW 7684   5.965   1.275   3.237
 2262SOL    HW1 7685   6.045   1.220   3.215
 2262SOL    HW2 7686   5.953   1.278   3.337
 2263SOL     OW 7687   3.081   5.516   0.151
 2263SOL    HW1 7688   3.038   5.495   0.239
 2263SOL    HW2 7689   3.118   5.432   0.111
 2264SOL     OW 7690   2.529   4.315   0.265
 2264SOL    HW1 7691   2.620   4.328   0.224
 2264SOL    HW2 7692   2.529   4.229   0.316
 2265SOL     OW 7693   0.396   0.859   4.479
 2265SOL    HW1 7694   0.313   0.907   4.451
 2265SOL    HW2 7695   0.476   0.914   4.457
 2266SOL     OW 7696   5.165   1.877   0.088
 2266SOL    HW1 7697   5.229   1.901   0.014
 2266SOL    HW2 7698   5.090   1.822   0.051
 2267SOL     OW 7699   5.056   2.298   4.857
 2267SOL    HW1 7700   5.109   2.270   4.938
 2267SOL    HW2 7701   4.959   2.284   4.874
 2268SOL     OW 7702   6.534   3.645   6.856
 2268SOL    HW1 7703   6.514   3.691   6.769
 2268SOL    HW2 7704   6.495   3.553   6.855
 2269SOL     OW 7705   5.891   5.408   5.181
 2269SOL    HW1 7706   5.860   5.371   5.269
 2269SOL    HW2 7707   5.947   5.489   5.197
 2270SOL     OW 7708   3.203   2.850   6.197
 2270SOL    HW1 7709   3.272   2.890   6.137
 2270SOL    HW2 7710   3.196   2.904   6.281
 2271SOL     OW 7711   5.582   3.657   0.738
 2271SOL    HW1 7712   5.492   3.662   0.695
 2271SOL    HW2 7713   5.624   3.569   0.716
 2272SOL     OW 7714   6.024   2.942   6.278
 2272SOL    HW1 7715   6.104   2.964   6.222
 2272SOL    HW2 7716   6.014   2.843   6.285
 2273SOL     OW 7717   1.698   0.616   1.875
 2273SOL    HW1 7718   1.663   0.689   1.933
 2273SOL    HW2 7719   1.768   0.653   1.813
 2274SOL     OW 7720   6.998   2.427   6.527
 2274SOL    HW1 7721   0.058   2.492   6.523
 2274SOL    HW2 7722   6.935   2.454   6.601
 2275SOL     OW 7723   6.359   0.470   4.042
 2275SOL    HW1 7724   6.435   0.439   4.099
 2275SOL    HW2 7725   6.306   0.538   4.091
 2276SOL     OW 7726   2.478   4.748   0.777
 2276SOL    HW1 7727   2.481   4.847   0.761
 2276SOL    HW2 7728   2.434   4.703   0.699
 2277SOL     OW 7729   3.898   3.959   4.793
 2277SOL    HW1 7730   3.803   3.941   4.816
 2277SOL    HW2 7731   3.905   3.991   4.698
 2278SOL     OW 7732   6.373   5.124   4.349
 2278SOL    HW1 7733   6.281   5.091   4.370
 2278SOL    HW2 7734   6.425   5.135   4.434
 2279SOL     OW 7735   5.147   6.588   4.711
 2279SOL    HW1 7736   5.122   6.587   4.809
 2279SOL    HW2 7737   5.186   6.500   4.686
 2280SOL     OW 7738   6.656   6.848   4.874
 2280SOL    HW1 7739   6.645   6.834   4.776
 2280SOL    HW2 7740   6.731   6.792   4.908
 2281SOL     OW 7741   3.387   1.177   2.349
 2281SOL    HW1 7742   3.456   1.250   2.344
 2281SOL    HW2 7743   3.307   1.204   2.296
 2282SOL     OW 7744   5.083   0.170   4.479
 2282SOL    HW1 7745   5.048   0.127   4.562
 2282SOL    HW2 7746   5.042   0.126   4.399
 2283SOL     OW 7747   0.466   4.657   1.667
 2283SOL    HW1 7748   0.387   4.718   1.656
 2283SOL    HW2 7749   0.461   4.613   1.757
 2284SOL     OW 7750   1.090   2.516   6.663
 2284SOL    HW1 7751   1.154   2.454   6.707
 2284SOL    HW2 7752   1.020   2.544   6.729
 2285SOL     OW 7753   2.482   2.051   0.634
 2285SOL    HW1 7754   2.451   1.967   0.590
 2285SOL    HW2 7755   2.448   2.053   0.729
 2286SOL     OW 7756   7.006   0.246   4.165
 2286SOL    HW1 7757   6.964   0.311   4.228
 2286SOL    HW2 7758   0.087   0.268   4.155
 2287SOL     OW 7759   1.305   1.007   3.115
 2287SOL    HW1 7760   1.322   0.954   3.032
 2287SOL    HW2 7761   1.300   0.945   3.193
 2288SOL     OW 7762   6.002   5.328   4.700
 2288SOL    HW1 7763   5.957   5.404   4.652
 2288SOL    HW2 7764   6.100   5.344   4.702
 2289SOL     OW 7765   0.829   4.893   1.795
 2289SOL    HW1 7766   0.785   4.930   1.877
 2289SOL    HW2 7767   0.782   4.927   1.714
 2290SOL     OW 7768   1.279   4.541   1.014
 2290SOL    HW1 7769   1.327   4.514   0.930
 2290SOL    HW2 7770   1.344   4.542   1.090
 2291SOL     OW 7771   2.758   2.552   6.238
 2291SOL    HW1 7772   2.755   2.544   6.337
 2291SOL    HW2 7773   2.833   2.495   6.202
 2292SOL     OW 7774   6.125   1.871   5.153
 2292SOL    HW1 7775   6.096   1.786   5.197
 2292SOL    HW2 7776   6.148   1.853   5.057
 2293SOL     OW 7777   5.284   6.737   1.356
 2293SOL    HW1 7778   5.338   6.748   1.440
 2293SOL    HW2 7779   5.341   6.755   1.277
 2294SOL     OW 7780   2.987   1.193   6.517
 2294SOL    HW1 7781   3.038   1.223   6.436
 2294SOL    HW2 7782   2.947   1.103   6.500
 2295SOL     OW 7783   0.548   2.538   2.747
 2295SOL    HW1 7784   0.526   2.537   2.845
 2295SOL    HW2 7785   0.464   2.524   2.695
 2296SOL     OW 7786   3.835   5.446   1.410
 2296SOL    HW1 7787   3.739   5.442   1.440
 2296SOL    HW2 7788   3.888   5.499   1.476
 2297SOL     OW 7789   4.738   4.781   5.746
 2297SOL    HW1 7790   4.670   4.854   5.758
 2297SOL    HW2 7791   4.823   4.807   5.791
 2298SOL     OW 7792   4.045   3.159   1.651
 2298SOL    HW1 7793   4.033   3.156   1.750
 2298SOL    HW2 7794   4.059   3.254   1.622
 2299SOL     OW 7795   4.269   5.466   5.379
 2299SOL    HW1 7796   4.225   5.411   5.450
 2299SOL    HW2 7797   4.346   5.416   5.341
 2300SOL     OW 7798   2.426   6.091   1.720
 2300SOL    HW1 7799   2.406   5.993   1.725
 2300SOL    HW2 7800   2.353   6.142   1.765
 2301SOL     OW 7801   3.312   2.979   2.633
 2301SOL    HW1 7802   3.217   2.994   2.661
 2301SOL    HW2 7803   3.369   2.964   2.713
 2302SOL     OW 7804   3.828   0.262   0.692
 2302SOL    HW1 7805   3.882   0.276   0.609
 2302SOL    HW2 7806   3.772   0.180   0.682
 2303SOL     OW 7807   2.721   3.299   6.242
 2303SOL    HW1 7808   2.785   3.255   6.305
 2303SOL    HW2 7809   2.640   3.329   6.292
 2304SOL     OW 7810   4.477   6.630   3.396
 2304SOL    HW1 7811   4.513   6.623   3.489
 2304SOL    HW2 7812   4.547   6.667   3.336
 2305SOL     OW 7813   2.462   6.704   2.497
 2305SOL    HW1 7814   2.370   6.717   2.532
 2305SOL    HW2 7815   2.477   6.763   2.418
 2306SOL     OW 7816   2.724   5.207   2.045
 2306SOL    HW1 7817   2.647   5.150   2.072
 2306SOL    HW2 7818   2.809   5.160   2.065
 2307SOL     OW 7819   6.752   3.959   2.891
 2307SOL    HW1 7820   6.769   4.053   2.862
 2307SOL    HW2 7821   6.700   3.959   2.976
 2308SOL     OW 7822   1.054   5.405   1.324
 2308SOL    HW1 7823   0.980   5.353   1.366
 2308SOL    HW2 7824   1.080   5.362   1.238
 2309SOL     OW 7825   1.786   0.770   6.825
 2309SOL    HW1 7826   1.723   0.765   6.748
 2309SOL    HW2 7827   1.835   0.683   6.834
 2310SOL     OW 7828   5.221   6.415   0.400
 2310SOL    HW1 7829   5.127   6.428   0.432
 2310SOL    HW2 7830   5.249   6.321   0.416
 2311SOL     OW 7831   2.023   6.788   1.387
 2311SOL    HW1 7832   2.000   6.883   1.404
 2311SOL    HW2 7833   1.990   6.731   1.462
 2312SOL     OW 7834   4.174   6.374   3.164
 2312SOL    HW1 7835   4.197   6.395   3.069
 2312SOL    HW2 7836   4.125   6.287   3.168
 2313SOL     OW 7837   5.990   6.056   1.306
 2313SOL    HW1 7838   6.022   6.113   1.231
 2313SOL    HW2 7839   6.042   5.971   1.308
 2314SOL     OW 7840   6.097   6.751   4.096
 2314SOL    HW1 7841   6.001   6.743   4.068
 2314SOL    HW2 7842   6.130   6.661   4.124
 2315SOL     OW 7843   5.145   3.673   6.162
 2315SOL    HW1 7844   5.170   3.576   6.159
 2315SOL    HW2 7845   5.100   3.699   6.076
 2316SOL     OW 7846   3.813   0.825   4.110
 2316SOL    HW1 7847   3.834   0.872   4.196
 2316SOL    HW2 7848   3.874   0.747   4.099
 2317SOL     OW 7849   0.382   5.667   3.446
 2317SOL    HW1 7850   0.460   5.730   3.445
 2317SOL    HW2 7851   0.330   5.680   3.531
 2318SOL     OW 7852   2.005   2.886   4.435
 2318SOL    HW1 7853   1.957   2.859   4.519
 2318SOL    HW2 7854   2.092   2.929   4.459
 2319SOL     OW 7855   1.825   4.767   4.146
 2319SOL    HW1 7856   1.740   4.744   4.192
 2319SOL    HW2 7857   1.838   4.867   4.147
 2320SOL     OW 7858   0.848   2.430   4.894
 2320SOL    HW1 7859   0.809   2.475   4.814
 2320SOL    HW2 7860   0.947   2.442   4.894
 2321SOL     OW 7861   2.327   0.385   0.148
 2321SOL    HW1 7862   2.339   0.480   0.121
 2321SOL    HW2 7863   2.229   0.365   0.159
 2322SOL     OW 7864   2.469   1.722   3.665
 2322SOL    HW1 7865   2.369   1.717   3.668
 2322SOL    HW2 7866   2.506   1.685   3.751
 2323SOL     OW 7867   2.482   5.039   2.064
 2323SOL    HW1 7868   2.510   4.995   2.149
 2323SOL    HW2 7869   2.450   4.968   2.000
 2324SOL     OW 7870   6.552   6.635   1.334
 2324SOL    HW1 7871   6.463   6.634   1.289
 2324SOL    HW2 7872   6.584   6.541   1.348
 2325SOL     OW 7873   1.359   5.113   1.315
 2325SOL    HW1 7874   1.420   5.035   1.308
 2325SOL    HW2 7875   1.367   5.170   1.233
 2326SOL     OW 7876   3.420   5.373   6.063
 2326SOL    HW1 7877   3.436   5.459   6.015
 2326SOL    HW2 7878   3.491   5.307   6.037
 2327SOL     OW 7879   6.778   2.230   3.865
 2327SOL    HW1 7880   6.755   2.146   3.816
 2327SOL    HW2 7881   6.876   2.235   3.879
 2328SOL     OW 7882   3.090   2.177   2.516
 2328SOL    HW1 7883   3.070   2.149   2.422
 2328SOL    HW2 7884   3.026   2.248   2.543
 2329SOL     OW 7885   1.478   3.895   5.242
 2329SOL    HW1 7886   1.550   3.883   5.311
 2329SOL    HW2 7887   1.431   3.981   5.258
 2330SOL     OW 7888   0.596   4.261   1.388
 2330SOL    HW1 7889   0.656   4.215   1.453
 2330SOL    HW2 7890   0.541   4.329   1.435
 2331SOL     OW 7891   5.109   5.091   0.812
 2331SOL    HW1 7892   5.019   5.086   0.769
 2331SOL    HW2 7893   5.098   5.097   0.912
 2332SOL     OW 7894   4.681   1.981   5.017
 2332SOL    HW1 7895   4.671   2.032   5.102
 2332SOL    HW2 7896   4.592   1.973   4.972
 2333SOL     OW 7897   0.844   5.186   2.886
 2333SOL    HW1 7898   0.784   5.201   2.808
 2333SOL    HW2 7899   0.795   5.209   2.970
 2334SOL     OW 7900   2.540   0.255   7.009
 2334SOL    HW1 7901   2.591   0.178   0.030
 2334SOL    HW2 7902   2.476   0.289   0.063
 2335SOL     OW 7903   5.756   0.924   2.864
 2335SOL    HW1 7904   5.785   1.007   2.913
 2335SOL    HW2 7905   5.798   0.923   2.774
 2336SOL     OW 7906   4.538   2.402   4.933
 2336SOL    HW1 7907   4.496   2.317   4.966
 2336SOL    HW2 7908   4.525   2.475   5.000
 2337SOL     OW 7909   4.609   1.099   2.929
 2337SOL    HW1 7910   4.577   1.109   3.024
 2337SOL    HW2 7911   4.556   1.161   2.870
 2338SOL     OW 7912   1.248   2.158   5.994
 2338SOL    HW1 7913   1.325   2.096   5.980
 2338SOL    HW2 7914   1.175   2.136   5.928
 2339SOL     OW 7915   3.945   4.024   5.084
 2339SOL    HW1 7916   3.896   4.023   4.997
 2339SOL    HW2 7917   4.005   3.943   5.090
 2340SOL     OW 7918   5.629   4.434   0.383
 2340SOL    HW1 7919   5.575   4.360   0.343
 2340SOL    HW2 7920   5.708   4.453   0.325
 2341SOL     OW 7921   4.840   4.397   1.254
 2341SOL    HW1 7922   4.809   4.322   1.194
 2341SOL    HW2 7923   4.902   4.456   1.202
 2342SOL     OW 7924   0.534   0.008   5.092
 2342SOL    HW1 7925   0.551   6.976   5.005
 2342SOL    HW2 7926   0.615   0.001   5.150
 2343SOL     OW 7927   2.542   5.994   2.567
 2343SOL    HW1 7928   2.452   5.988   2.524
 2343SOL    HW2 7929   2.535   6.051   2.650
 2344SOL     OW 7930   1.704   0.613   0.994
 2344SOL    HW1 7931   1.688   0.712   0.989
 2344SOL    HW2 7932   1.655   0.576   1.073
 2345SOL     OW 7933   3.463   5.504   5.444
 2345SOL    HW1 7934   3.393   5.432   5.438
 2345SOL    HW2 7935   3.550   5.468   5.410
 2346SOL     OW 7936   5.142   2.523   4.714
 2346SOL    HW1 7937   5.224   2.555   4.762
 2346SOL    HW2 7938   5.104   2.444   4.762
 2347SOL     OW 7939   2.424   3.245   1.678
 2347SOL    HW1 7940   2.441   3.264   1.581
 2347SOL    HW2 7941   2.404   3.330   1.726
 2348SOL     OW 7942   3.632   6.373   3.491
 2348SOL    HW1 7943   3.708   6.332   3.440
 2348SOL    HW2 7944   3.546   6.344   3.451
 2349SOL     OW 7945   0.894   4.892   6.231
 2349SOL    HW1 7946   0.973   4.841   6.265
 2349SOL    HW2 7947   0.829   4.828   6.189
 2350SOL     OW 7948   4.832   6.967   6.380
 2350SOL    HW1 7949   4.817   6.950   6.478
 2350SOL    HW2 7950   4.762   6.920   6.327
 2351SOL     OW 7951   3.668   5.311   2.622
 2351SOL    HW1 7952   3.687   5.331   2.718
 2351SOL    HW2 7953   3.570   5.292   2.611
 2352SOL     OW 7954   1.234   4.176   2.080
 2352SOL    HW1 7955   1.152   4.177   2.136
 2352SOL    HW2 7956   1.286   4.092   2.098
 2353SOL     OW 7957   3.015   4.648   5.370
 2353SOL    HW1 7958   2.942   4.710   5.398
 2353SOL    HW2 7959   2.979   4.580   5.307
 2354SOL     OW 7960   2.543   1.683   6.118
 2354SOL    HW1 7961   2.448   1.693   6.147
 2354SOL    HW2 7962   2.585   1.774   6.110
 2355SOL     OW 7963   1.272   5.593   6.845
 2355SOL    HW1 7964   1.200   5.657   6.820
 2355SOL    HW2 7965   1.357   5.643   6.862
 2356SOL     OW 7966   2.129   4.011   0.713
 2356SOL    HW1 7967   2.123   3.919   0.752
 2356SOL    HW2 7968   2.094   4.009   0.619
 2357SOL     OW 7969   4.777   5.206   4.100
 2357SOL    HW1 7970   4.757   5.123   4.152
 2357SOL    HW2 7971   4.743   5.197   4.007
 2358SOL     OW 7972   2.693   5.165   5.499
 2358SOL    HW1 7973   2.753   5.092   5.465
 2358SOL    HW2 7974   2.645   5.134   5.581
 2359SOL     OW 7975   0.190   1.028   5.953
 2359SOL    HW1 7976   0.238   0.954   6.001
 2359SOL    HW2 7977   0.137   1.081   6.019
 2360SOL     OW 7978   5.185   5.878   6.212
 2360SOL    HW1 7979   5.097   5.905   6.175
 2360SOL    HW2 7980   5.178   5.785   6.249
 2361SOL     OW 7981   2.571   1.214   5.334
 2361SOL    HW1 7982   2.544   1.119   5.350
 2361SOL    HW2 7983   2.494   1.275   5.355
 2362SOL     OW 7984   2.919   0.864   4.760
 2362SOL    HW1 7985   2.847   0.922   4.721
 2362SOL    HW2 7986   2.996   0.922   4.788
 2363SOL     OW 7987   4.398   2.657   5.649
 2363SOL    HW1 7988   4.355   2.648   5.559
 2363SOL    HW2 7989   4.332   2.696   5.713
 2364SOL     OW 7990   0.815   2.220   2.958
 2364SOL    HW1 7991   0.789   2.124   2.954
 2364SOL    HW2 7992   0.783   2.267   2.876
 2365SOL     OW 7993   6.187   2.347   6.630
 2365SOL    HW1 7994   6.175   2.359   6.532
 2365SOL    HW2 7995   6.283   2.359   6.654
 2366SOL     OW 7996   1.443   4.465   5.970
 2366SOL    HW1 7997   1.473   4.400   5.900
 2366SOL    HW2 7998   1.517   4.529   5.989
 2367SOL     OW 7999   3.805   3.790   6.861
 2367SOL    HW1 8000   3.883   3.728   6.855
 2367SOL    HW2 8001   3.730   3.756   6.804
 2368SOL     OW 8002   5.064   6.828   3.074
 2368SOL    HW1 8003   5.040   6.778   2.991
 2368SOL    HW2 8004   5.156   6.801   3.104
 2369SOL     OW 8005   1.995   2.873   5.288
 2369SOL    HW1 8006   1.937   2.909   5.216
 2369SOL    HW2 8007   1.949   2.796   5.333
 2370SOL     OW 8008   4.821   4.332   6.635
 2370SOL    HW1 8009   4.847   4.272   6.560
 2370SOL    HW2 8010   4.900   4.351   6.692
 2371SOL     OW 8011   0.762   6.012   1.281
 2371SOL    HW1 8012   0.808   6.099   1.295
 2371SOL    HW2 8013   0.824   5.937   1.307
 2372SOL     OW 8014   0.302   2.252   1.197
 2372SOL    HW1 8015   0.255   2.232   1.283
 2372SOL    HW2 8016   0.344   2.343   1.202
 2373SOL     OW 8017   0.173   0.075   6.904
 2373SOL    HW1 8018   0.199   0.039   6.815
 2373SOL    HW2 8019   0.073   0.072   6.913
 2374SOL     OW 8020   6.430   0.406   3.755
 2374SOL    HW1 8021   6.439   0.365   3.846
 2374SOL    HW2 8022   6.347   0.372   3.711
 2375SOL     OW 8023   1.848   6.516   4.463
 2375SOL    HW1 8024   1.895   6.499   4.376
 2375SOL    HW2 8025   1.883   6.600   4.504
 2376SOL     OW 8026   5.692   2.239   4.211
 2376SOL    HW1 8027   5.665   2.302   4.285
 2376SOL    HW2 8028   5.661   2.277   4.124
 2377SOL     OW 8029   3.374   4.152   2.888
 2377SOL    HW1 8030   3.338   4.062   2.912
 2377SOL    HW2 8031   3.418   4.193   2.968
 2378SOL     OW 8032   4.636   2.341   0.004
 2378SOL    HW1 8033   4.704   2.363   6.950
 2378SOL    HW2 8034   4.612   2.424   0.054
 2379SOL     OW 8035   6.547   1.759   0.002
 2379SOL    HW1 8036   6.623   1.820   6.993
 2379SOL    HW2 8037   6.511   1.715   6.935
 2380SOL     OW 8038   0.132   6.751   5.628
 2380SOL    HW1 8039   0.069   6.712   5.560
 2380SOL    HW2 8040   0.207   6.687   5.643
 2381SOL     OW 8041   2.242   4.142   4.171
 2381SOL    HW1 8042   2.150   4.177   4.151
 2381SOL    HW2 8043   2.306   4.218   4.178
 2382SOL     OW 8044   2.314   5.222   3.599
 2382SOL    HW1 8045   2.259   5.306   3.600
 2382SOL    HW2 8046   2.398   5.239   3.548
 2383SOL     OW 8047   6.070   6.555   6.983
 2383SOL    HW1 8048   6.155   6.525   0.010
 2383SOL    HW2 8049   6.007   6.590   0.036
 2384SOL     OW 8050   6.679   6.262   2.266
 2384SOL    HW1 8051   6.619   6.254   2.345
 2384SOL    HW2 8052   6.624   6.258   2.182
 2385SOL     OW 8053   6.320   6.525   1.262
 2385SOL    HW1 8054   6.305   6.452   1.195
 2385SOL    HW2 8055   6.232   6.562   1.292
 2386SOL     OW 8056   5.286   4.780   4.393
 2386SOL    HW1 8057   5.348   4.705   4.372
 2386SOL    HW2 8058   5.224   4.753   4.466
 2387SOL     OW 8059   0.274   2.018   3.736
 2387SOL    HW1 8060   0.244   2.063   3.821
 2387SOL    HW2 8061   0.366   1.981   3.748
 2388SOL     OW 8062   1.091   2.105   3.602
 2388SOL    HW1 8063   1.189   2.109   3.621
 2388SOL    HW2 8064   1.048   2.038   3.664
 2389SOL     OW 8065   5.522   3.259   3.410
 2389SOL    HW1 8066   5.575   3.312   3.477
 2389SOL    HW2 8067   5.450   3.208   3.457
 2390SOL     OW 8068   3.240   3.841   4.119
 2390SOL    HW1 8069   3.228   3.813   4.214
 2390SOL    HW2 8070   3.316   3.790   4.079
 2391SOL     OW 8071   4.569   4.228   5.710
 2391SOL    HW1 8072   4.529   4.177   5.634
 2391SOL    HW2 8073   4.612   4.312   5.676
 2392SOL     OW 8074   3.795   6.978   5.224
 2392SOL    HW1 8075   3.805   0.036   5.291
 2392SOL    HW2 8076   3.788   0.001   5.132
 2393SOL     OW 8077   4.205   4.866   0.229
 2393SOL    HW1 8078   4.118   4.817   0.234
 2393SOL    HW2 8079   4.198   4.942   0.164
 2394SOL     OW 8080   1.825   3.281   4.397
 2394SOL    HW1 8081   1.837   3.223   4.316
 2394SOL    HW2 8082   1.760   3.354   4.376
 2395SOL     OW 8083   6.181   2.739   0.595
 2395SOL    HW1 8084   6.199   2.666   0.530
 2395SOL    HW2 8085   6.233   2.722   0.679
 2396SOL     OW 8086   4.298   5.315   0.977
 2396SOL    HW1 8087   4.223   5.381   0.984
 2396SOL    HW2 8088   4.361   5.328   1.054
 2397SOL     OW 8089   0.219   3.673   0.183
 2397SOL    HW1 8090   0.151   3.653   0.253
 2397SOL    HW2 8091   0.222   3.771   0.166
 2398SOL     OW 8092   3.137   4.055   6.365
 2398SOL    HW1 8093   3.069   4.126   6.382
 2398SOL    HW2 8094   3.092   3.966   6.355
 2399SOL     OW 8095   5.042   1.346   2.525
 2399SOL    HW1 8096   5.040   1.345   2.625
 2399SOL    HW2 8097   5.126   1.302   2.493
 2400SOL     OW 8098   3.577   5.249   0.146
 2400SOL    HW1 8099   3.559   5.173   0.084
 2400SOL    HW2 8100   3.611   5.214   0.234
 2401SOL     OW 8101   4.447   0.279   6.403
 2401SOL    HW1 8102   4.509   0.353   6.379
 2401SOL    HW2 8103   4.354   0.315   6.411
 2402SOL     OW 8104   0.867   1.920   4.171
 2402SOL    HW1 8105   0.919   1.869   4.240
 2402SOL    HW2 8106   0.930   1.977   4.118
 2403SOL     OW 8107   2.730   2.376   0.420
 2403SOL    HW1 8108   2.786   2.346   0.342
 2403SOL    HW2 8109   2.771   2.459   0.460
 2404SOL     OW 8110   5.785   1.246   1.723
 2404SOL    HW1 8111   5.826   1.301   1.796
 2404SOL    HW2 8112   5.764   1.155   1.758
 2405SOL     OW 8113   3.236   3.495   3.475
 2405SOL    HW1 8114   3.310   3.447   3.521
 2405SOL    HW2 8115   3.149   3.450   3.496
 2406SOL     OW 8116   1.908   6.964   3.582
 2406SOL    HW1 8117   1.837   6.899   3.610
 2406SOL    HW2 8118   1.865   0.027   3.538
 2407SOL     OW 8119   5.429   2.521   2.485
 2407SOL    HW1 8120   5.409   2.619   2.494
 2407SOL    HW2 8121   5.390   2.487   2.399
 2408SOL     OW 8122   3.983   4.799   3.263
 2408SOL    HW1 8123   3.894   4.789   3.217
 2408SOL    HW2 8124   4.053   4.821   3.195
 2409SOL     OW 8125   1.546   2.762   1.374
 2409SOL    HW1 8126   1.590   2.722   1.455
 2409SOL    HW2 8127   1.616   2.796   1.312
 2410SOL     OW 8128   5.014   2.236   6.459
 2410SOL    HW1 8129   4.972   2.324   6.439
 2410SOL    HW2 8130   5.087   2.218   6.394
 2411SOL     OW 8131   4.645   5.461   5.912
 2411SOL    HW1 8132   4.558   5.432   5.873
 2411SOL    HW2 8133   4.630   5.535   5.978
 2412SOL     OW 8134   3.692   4.666   0.388
 2412SOL    HW1 8135   3.699   4.597   0.460
 2412SOL    HW2 8136   3.597   4.695   0.378
 2413SOL     OW 8137   6.615   2.287   0.058
 2413SOL    HW1 8138   6.562   2.203   0.064
 2413SOL    HW2 8139   6.603   2.340   0.143
 2414SOL     OW 8140   5.187   3.979   2.056
 2414SOL    HW1 8141   5.211   3.884   2.076
 2414SOL    HW2 8142   5.161   3.987   1.959
 2415SOL     OW 8143   1.009   6.628   1.294
 2415SOL    HW1 8144   1.048   6.660   1.380
 2415SOL    HW2 8145   0.920   6.671   1.280
 2416SOL     OW 8146   3.631   2.161   5.186
 2416SOL    HW1 8147   3.535   2.186   5.172
 2416SOL    HW2 8148   3.659   2.094   5.117
 2417SOL     OW 8149   4.380   3.386   5.963
 2417SOL    HW1 8150   4.328   3.307   5.995
 2417SOL    HW2 8151   4.376   3.391   5.863
 2418SOL     OW 8152   3.181   3.733   3.837
 2418SOL    HW1 8153   3.249   3.661   3.826
 2418SOL    HW2 8154   3.224   3.822   3.821
 2419SOL     OW 8155   0.676   6.315   3.726
 2419SOL    HW1 8156   0.703   6.238   3.667
 2419SOL    HW2 8157   0.579   6.309   3.746
 2420SOL     OW 8158   3.679   1.552   1.877
 2420SOL    HW1 8159   3.758   1.545   1.816
 2420SOL    HW2 8160   3.617   1.475   1.860
 2421SOL     OW 8161   2.970   1.240   4.925
 2421SOL    HW1 8162   3.033   1.310   4.959
 2421SOL    HW2 8163   2.952   1.255   4.828
 2422SOL     OW 8164   6.381   0.411   2.180
 2422SOL    HW1 8165   6.428   0.475   2.241
 2422SOL    HW2 8166   6.368   0.453   2.090
 2423SOL     OW 8167   1.728   6.363   3.712
 2423SOL    HW1 8168   1.706   6.429   3.784
 2423SOL    HW2 8169   1.661   6.370   3.639
 2424SOL     OW 8170   5.734   6.342   6.173
 2424SOL    HW1 8171   5.687   6.357   6.086
 2424SOL    HW2 8172   5.832   6.333   6.157
 2425SOL     OW 8173   6.277   0.091   4.361
 2425SOL    HW1 8174   6.217   0.028   4.410
 2425SOL    HW2 8175   6.368   0.051   4.353
 2426SOL     OW 8176   0.502   4.595   3.910
 2426SOL    HW1 8177   0.472   4.682   3.872
 2426SOL    HW2 8178   0.426   4.530   3.910
 2427SOL     OW 8179   5.786   5.463   6.804
 2427SOL    HW1 8180   5.807   5.517   6.885
 2427SOL    HW2 8181   5.716   5.509   6.751
 2428SOL     OW 8182   0.154   0.318   3.274
 2428SOL    HW1 8183   0.214   0.243   3.303
 2428SOL    HW2 8184   0.059   0.295   3.294
 2429SOL     OW 8185   6.526   5.816   4.815
 2429SOL    HW1 8186   6.625   5.809   4.798
 2429SOL    HW2 8187   6.491   5.727   4.844
 2430SOL     OW 8188   6.123   1.765   1.047
 2430SOL    HW1 8189   6.023   1.770   1.039
 2430SOL    HW2 8190   6.152   1.669   1.041
 2431SOL     OW 8191   3.633   0.178   1.952
 2431SOL    HW1 8192   3.701   0.216   2.014
 2431SOL    HW2 8193   3.544   0.173   1.998
 2432SOL     OW 8194   3.396   6.654   3.285
 2432SOL    HW1 8195   3.473   6.716   3.302
 2432SOL    HW2 8196   3.354   6.629   3.372
 2433SOL     OW 8197   3.239   6.162   0.831
 2433SOL    HW1 8198   3.168   6.205   0.887
 2433SOL    HW2 8199   3.329   6.195   0.860
 2434SOL     OW 8200   4.904   1.223   3.828
 2434SOL    HW1 8201   4.927   1.169   3.748
 2434SOL    HW2 8202   4.964   1.303   3.833
 2435SOL     OW 8203   4.584   5.693   6.116
 2435SOL    HW1 8204   4.526   5.774   6.105
 2435SOL    HW2 8205   4.680   5.719   6.109
 2436SOL     OW 8206   2.008   6.338   1.353
 2436SOL    HW1 8207   1.999   6.370   1.259
 2436SOL    HW2 8208   2.105   6.329   1.376
 2437SOL     OW 8209   4.089   6.189   1.054
 2437SOL    HW1 8210   4.166   6.252   1.065
 2437SOL    HW2 8211   4.112   6.118   0.987
 2438SOL     OW 8212   3.812   1.654   5.543
 2438SOL    HW1 8213   3.729   1.656   5.599
 2438SOL    HW2 8214   3.848   1.747   5.534
 2439SOL     OW 8215   1.276   4.227   6.995
 2439SOL    HW1 8216   1.332   4.304   6.962
 2439SOL    HW2 8217   1.335   4.149   7.015
 2440SOL     OW 8218   4.335   6.573   5.032
 2440SOL    HW1 8219   4.317   6.513   4.954
 2440SOL    HW2 8220   4.373   6.519   5.107
 2441SOL     OW 8221   6.872   0.624   6.978
 2441SOL    HW1 8222   6.959   0.575   6.977
 2441SOL    HW2 8223   6.798   0.560   6.999
 2442SOL     OW 8224   6.698   5.781   4.315
 2442SOL    HW1 8225   6.605   5.792   4.280
 2442SOL    HW2 8226   6.714   5.685   4.336
 2443SOL     OW 8227   3.309   6.695   6.109
 2443SOL    HW1 8228   3.211   6.709   6.101
 2443SOL    HW2 8229   3.328   6.640   6.190
 2444SOL     OW 8230   3.740   4.545   6.239
 2444SOL    HW1 8231   3.762   4.581   6.329
 2444SOL    HW2 8232   3.823   4.513   6.194
 2445SOL     OW 8233   0.145   0.927   1.784
 2445SOL    HW1 8234   0.181   0.836   1.802
 2445SOL    HW2 8235   0.063   0.943   1.840
 2446SOL     OW 8236   0.075   3.386   4.152
 2446SOL    HW1 8237   7.014   3.362   4.093
 2446SOL    HW2 8238   0.158   3.395   4.097
 2447SOL     OW 8239   2.518   1.260   0.708
 2447SOL    HW1 8240   2.507   1.221   0.617
 2447SOL    HW2 8241   2.615   1.278   0.726
 2448SOL     OW 8242   1.022   0.491   5.246
 2448SOL    HW1 8243   1.040   0.573   5.299
 2448SOL    HW2 8244   0.941   0.505   5.189
 2449SOL     OW 8245   0.375   4.564   2.266
 2449SOL    HW1 8246   0.348   4.659   2.248
 2449SOL    HW2 8247   0.312   4.524   2.332
 2450SOL     OW 8248   2.976   4.818   4.224
 2450SOL    HW1 8249   3.067   4.814   4.183
 2450SOL    HW2 8250   2.910   4.777   4.161
 2451SOL     OW 8251   0.613   0.422   3.866
 2451SOL    HW1 8252   0.557   0.340   3.856
 2451SOL    HW2 8253   0.687   0.404   3.932
 2452SOL     OW 8254   2.266   2.316   3.269
 2452SOL    HW1 8255   2.179   2.320   3.219
 2452SOL    HW2 8256   2.340   2.348   3.211
 2453SOL     OW 8257   6.618   3.777   1.060
 2453SOL    HW1 8258   6.700   3.827   1.035
 2453SOL    HW2 8259   6.643   3.693   1.108
 2454SOL     OW 8260   3.786   1.489   0.628
 2454SOL    HW1 8261   3.772   1.443   0.540
 2454SOL    HW2 8262   3.725   1.568   0.633
 2455SOL     OW 8263   5.523   6.662   0.671
 2455SOL    HW1 8264   5.504   6.644   0.574
 2455SOL    HW2 8265   5.457   6.727   0.707
 2456SOL     OW 8266   6.043   0.476   0.443
 2456SOL    HW1 8267   5.996   0.563   0.454
 2456SOL    HW2 8268   6.062   0.460   0.346
 2457SOL     OW 8269   6.156   6.179   0.047
 2457SOL    HW1 8270   6.223   6.223   0.106
 2457SOL    HW2 8271   6.112   6.104   0.096
 2458SOL     OW 8272   2.671   5.513   3.924
 2458SOL    HW1 8273   2.633   5.470   3.842
 2458SOL    HW2 8274   2.692   5.609   3.904
 2459SOL     OW 8275   2.661   6.434   0.282
 2459SOL    HW1 8276   2.572   6.416   0.241
 2459SOL    HW2 8277   2.713   6.349   0.289
 2460SOL     OW 8278   2.355   0.610   1.414
 2460SOL    HW1 8279   2.451   0.585   1.397
 2460SOL    HW2 8280   2.318   0.654   1.332
 2461SOL     OW 8281   4.141   0.130   2.870
 2461SOL    HW1 8282   4.204   0.097   2.940
 2461SOL    HW2 8283   4.060   0.170   2.913
 2462SOL     OW 8284   2.576   5.105   0.147
 2462SOL    HW1 8285   2.632   5.188   0.145
 2462SOL    HW2 8286   2.616   5.037   0.085
 2463SOL     OW 8287   6.221   2.281   3.725
 2463SOL    HW1 8288   6.168   2.272   3.809
 2463SOL    HW2 8289   6.230   2.192   3.681
 2464SOL     OW 8290   1.731   4.588   1.803
 2464SOL    HW1 8291   1.768   4.567   1.894
 2464SOL    HW2 8292   1.805   4.583   1.736
 2465SOL     OW 8293   0.510   6.307   1.561
 2465SOL    HW1 8294   0.607   6.329   1.550
 2465SOL    HW2 8295   0.466   6.378   1.616
 2466SOL     OW 8296   3.607   1.312   2.068
 2466SOL    HW1 8297   3.595   1.214   2.088
 2466SOL    HW2 8298   3.698   1.327   2.030
 2467SOL     OW 8299   5.331   1.517   5.423
 2467SOL    HW1 8300   5.294   1.429   5.453
 2467SOL    HW2 8301   5.408   1.541   5.482
 2468SOL     OW 8302   5.420   6.259   2.235
 2468SOL    HW1 8303   5.442   6.271   2.138
 2468SOL    HW2 8304   5.504   6.255   2.288
 2469SOL     OW 8305   3.634   4.476   5.375
 2469SOL    HW1 8306   3.649   4.441   5.468
 2469SOL    HW2 8307   3.597   4.569   5.380
 2470SOL     OW 8308   3.441   4.387   5.684
 2470SOL    HW1 8309   3.411   4.428   5.771
 2470SOL    HW2 8310   3.376   4.317   5.656
 2471SOL     OW 8311   2.315   6.543   1.064
 2471SOL    HW1 8312   2.281   6.581   1.150
 2471SOL    HW2 8313   2.415   6.539   1.067
 2472SOL     OW 8314   4.766   1.493   3.997
 2472SOL    HW1 8315   4.833   1.550   3.951
 2472SOL    HW2 8316   4.732   1.423   3.934
 2473SOL     OW 8317   1.652   4.181   5.283
 2473SOL    HW1 8318   1.729   4.232   5.324
 2473SOL    HW2 8319   1.670   4.167   5.186
 2474SOL     OW 8320   0.195   5.549   0.262
 2474SOL    HW1 8321   0.258   5.543   0.185
 2474SOL    HW2 8322   0.163   5.643   0.272
 2475SOL     OW 8323   4.411   1.252   0.670
 2475SOL    HW1 8324   4.314   1.276   0.673
 2475SOL    HW2 8325   4.466   1.332   0.691
 2476SOL     OW 8326   1.064   2.764   3.806
 2476SOL    HW1 8327   1.047   2.739   3.711
 2476SOL    HW2 8328   1.158   2.799   3.815
 2477SOL     OW 8329   6.395   0.627   2.397
 2477SOL    HW1 8330   6.433   0.720   2.397
 2477SOL    HW2 8331   6.464   0.562   2.430
 2478SOL     OW 8332   5.981   0.062   2.443
 2478SOL    HW1 8333   6.073   0.066   2.483
 2478SOL    HW2 8334   5.921   0.009   2.504
 2479SOL     OW 8335   1.421   3.534   1.322
 2479SOL    HW1 8336   1.484   3.611   1.310
 2479SOL    HW2 8337   1.327   3.568   1.324
 2480SOL     OW 8338   5.664   4.158   0.832
 2480SOL    HW1 8339   5.721   4.230   0.792
 2480SOL    HW2 8340   5.626   4.189   0.919
 2481SOL     OW 8341   2.667   6.697   0.210
 2481SOL    HW1 8342   2.657   6.601   0.237
 2481SOL    HW2 8343   2.684   6.703   0.112
 2482SOL     OW 8344   5.601   2.883   5.525
 2482SOL    HW1 8345   5.661   2.864   5.603
 2482SOL    HW2 8346   5.506   2.870   5.552
 2483SOL     OW 8347   2.287   1.160   6.630
 2483SOL    HW1 8348   2.235   1.226   6.683
 2483SOL    HW2 8349   2.384   1.184   6.633
 2484SOL     OW 8350   2.242   0.569   0.374
 2484SOL    HW1 8351   2.239   0.636   0.300
 2484SOL    HW2 8352   2.330   0.574   0.421
 2485SOL     OW 8353   4.651   4.555   2.061
 2485SOL    HW1 8354   4.618   4.630   2.002
 2485SOL    HW2 8355   4.627   4.467   2.020
 2486SOL     OW 8356   3.356   5.265   2.732
 2486SOL    HW1 8357   3.341   5.362   2.713
 2486SOL    HW2 8358   3.386   5.219   2.648
 2487SOL     OW 8359   3.857   5.273   6.116
 2487SOL    HW1 8360   3.770   5.276   6.067
 2487SOL    HW2 8361   3.869   5.182   6.156
 2488SOL     OW 8362   2.104   3.856   2.264
 2488SOL    HW1 8363   2.178   3.790   2.250
 2488SOL    HW2 8364   2.029   3.837   2.201
 2489SOL     OW 8365   2.403   5.185   3.867
 2489SOL    HW1 8366   2.480   5.228   3.913
 2489SOL    HW2 8367   2.403   5.209   3.770
 2490SOL     OW 8368   6.726   5.458   0.886
 2490SOL    HW1 8369   6.627   5.460   0.904
 2490SOL    HW2 8370   6.748   5.378   0.831
 2491SOL     OW 8371   2.296   5.999   2.450
 2491SOL    HW1 8372   2.273   5.908   2.415
 2491SOL    HW2 8373   2.226   6.028   2.516
 2492SOL     OW 8374   3.863   2.706   6.875
 2492SOL    HW1 8375   3.803   2.727   6.798
 2492SOL    HW2 8376   3.881   2.790   6.927
 2493SOL     OW 8377   5.811   0.509   3.013
 2493SOL    HW1 8378   5.801   0.416   3.048
 2493SOL    HW2 8379   5.902   0.520   2.972
 2494SOL     OW 8380   5.966   3.430   2.549
 2494SOL    HW1 8381   5.888   3.455   2.491
 2494SOL    HW2 8382   6.046   3.415   2.491
 2495SOL     OW 8383   5.193   0.058   4.921
 2495SOL    HW1 8384   5.131   0.136   4.935
 2495SOL    HW2 8385   5.271   0.065   4.983
 2496SOL     OW 8386   1.120   4.899   6.608
 2496SOL    HW1 8387   1.169   4.969   6.555
 2496SOL    HW2 8388   1.054   4.853   6.549
 2497SOL     OW 8389   6.714   1.290   0.600
 2497SOL    HW1 8390   6.754   1.312   0.511
 2497SOL    HW2 8391   6.616   1.274   0.589
 2498SOL     OW 8392   2.954   2.073   3.564
 2498SOL    HW1 8393   2.878   2.137   3.555
 2498SOL    HW2 8394   2.963   2.021   3.479
 2499SOL     OW 8395   5.450   1.556   4.913
 2499SOL    HW1 8396   5.473   1.650   4.891
 2499SOL    HW2 8397   5.530   1.498   4.898
 2500SOL     OW 8398   4.550   3.246   6.208
 2500SOL    HW1 8399   4.481   3.177   6.187
 2500SOL    HW2 8400   4.527   3.332   6.162
 2501SOL     OW 8401   6.908   5.569   6.959
 2501SOL    HW1 8402   6.918   5.490   0.004
 2501SOL    HW2 8403   6.903   5.537   6.864
 2502SOL     OW 8404   2.590   6.081   3.508
 2502SOL    HW1 8405   2.554   6.029   3.432
 2502SOL    HW2 8406   2.666   6.031   3.550
 2503SOL     OW 8407   3.445   6.045   5.508
 2503SOL    HW1 8408   3.485   6.109   5.443
 2503SOL    HW2 8409   3.487   5.955   5.498
 2504SOL     OW 8410   2.899   6.135   5.006
 2504SOL    HW1 8411   2.930   6.151   4.913
 2504SOL    HW2 8412   2.937   6.049   5.040
 2505SOL     OW 8413   1.478   6.633   4.540
 2505SOL    HW1 8414   1.426   6.552   4.569
 2505SOL    HW2 8415   1.414   6.706   4.515
 2506SOL     OW 8416   6.720   2.922   6.191
 2506SOL    HW1 8417   6.764   2.913   6.280
 2506SOL    HW2 8418   6.629   2.962   6.202
 2507SOL     OW 8419   6.560   4.244   0.414
 2507SOL    HW1 8420   6.588   4.205   0.326
 2507SOL    HW2 8421   6.552   4.171   0.482
 2508SOL     OW 8422   2.548   1.771   2.350
 2508SOL    HW1 8423   2.456   1.757   2.313
 2508SOL    HW2 8424   2.592   1.847   2.302
 2509SOL     OW 8425   5.586   2.969   2.763
 2509SOL    HW1 8426   5.580   2.988   2.861
 2509SOL    HW2 8427   5.558   3.050   2.712
 2510SOL     OW 8428   3.516   4.285   0.846
 2510SOL    HW1 8429   3.431   4.265   0.797
 2510SOL    HW2 8430   3.586   4.314   0.781
 2511SOL     OW 8431   2.017   1.961   5.003
 2511SOL    HW1 8432   1.987   2.047   5.043
 2511SOL    HW2 8433   2.088   1.920   5.061
 2512SOL     OW 8434   5.590   5.008   5.358
 2512SOL    HW1 8435   5.623   5.080   5.298
 2512SOL    HW2 8436   5.664   4.977   5.418
 2513SOL     OW 8437   1.589   2.655   6.014
 2513SOL    HW1 8438   1.520   2.687   6.080
 2513SOL    HW2 8439   1.547   2.647   5.924
 2514SOL     OW 8440   0.315   3.306   4.013
 2514SOL    HW1 8441   0.388   3.372   4.031
 2514SOL    HW2 8442   0.355   3.215   4.001
 2515SOL     OW 8443   1.226   6.548   0.532
 2515SOL    HW1 8444   1.241   6.453   0.563
 2515SOL    HW2 8445   1.297   6.607   0.572
 2516SOL     OW 8446   6.399   6.068   2.641
 2516SOL    HW1 8447   6.353   5.986   2.608
 2516SOL    HW2 8448   6.336   6.121   2.697
 2517SOL     OW 8449   1.852   5.754   5.416
 2517SOL    HW1 8450   1.858   5.839   5.363
 2517SOL    HW2 8451   1.812   5.683   5.359
 2518SOL     OW 8452   1.757   3.191   0.457
 2518SOL    HW1 8453   1.785   3.229   0.369
 2518SOL    HW2 8454   1.797   3.247   0.531
 2519SOL     OW 8455   5.313   5.063   4.418
 2519SOL    HW1 8456   5.324   5.062   4.517
 2519SOL    HW2 8457   5.316   4.969   4.384
 2520SOL     OW 8458   0.658   3.241   1.137
 2520SOL    HW1 8459   0.749   3.208   1.112
 2520SOL    HW2 8460   0.651   3.339   1.116
 2521SOL     OW 8461   1.287   6.459   5.453
 2521SOL    HW1 8462   1.195   6.446   5.491
 2521SOL    HW2 8463   1.346   6.500   5.522
 2522SOL     OW 8464   1.089   2.996   5.431
 2522SOL    HW1 8465   1.101   2.904   5.469
 2522SOL    HW2 8466   1.012   3.041   5.478
 2523SOL     OW 8467   0.492   3.186   1.355
 2523SOL    HW1 8468   0.409   3.139   1.325
 2523SOL    HW2 8469   0.550   3.204   1.275
 2524SOL     OW 8470   0.839   6.040   4.104
 2524SOL    HW1 8471   0.918   6.014   4.158
 2524SOL    HW2 8472   0.796   6.121   4.144
 2525SOL     OW 8473   1.446   2.456   4.309
 2525SOL    HW1 8474   1.363   2.510   4.295
 2525SOL    HW2 8475   1.513   2.510   4.360
 2526SOL     OW 8476   0.957   3.799   5.744
 2526SOL    HW1 8477   1.011   3.715   5.752
 2526SOL    HW2 8478   1.004   3.864   5.684
 2527SOL     OW 8479   5.011   6.963   5.179
 2527SOL    HW1 8480   4.939   0.000   5.133
 2527SOL    HW2 8481   4.969   6.886   5.228
 2528SOL     OW 8482   6.063   4.574   1.192
 2528SOL    HW1 8483   5.976   4.601   1.150
 2528SOL    HW2 8484   6.060   4.595   1.290
 2529SOL     OW 8485   5.752   5.162   6.470
 2529SOL    HW1 8486   5.798   5.085   6.426
 2529SOL    HW2 8487   5.654   5.158   6.452
 2530SOL     OW 8488   1.259   6.204   5.091
 2530SOL    HW1 8489   1.258   6.133   5.161
 2530SOL    HW2 8490   1.172   6.253   5.092
 2531SOL     OW 8491   5.429   5.584   4.535
 2531SOL    HW1 8492   5.502   5.524   4.567
 2531SOL    HW2 8493   5.386   5.628   4.614
 2532SOL     OW 8494   0.376   6.100   0.612
 2532SOL    HW1 8495   0.445   6.169   0.591
 2532SOL    HW2 8496   0.285   6.142   0.609
 2533SOL     OW 8497   5.243   6.399   4.310
 2533SOL    HW1 8498   5.271   6.425   4.217
 2533SOL    HW2 8499   5.299   6.323   4.342
 2534SOL     OW 8500   2.410   0.771   3.131
 2534SOL    HW1 8501   2.474   0.761   3.055
 2534SOL    HW2 8502   2.411   0.866   3.163
 2535SOL     OW 8503   2.142   2.212   6.892
 2535SOL    HW1 8504   2.219   2.241   6.835
 2535SOL    HW2 8505   2.057   2.221   6.841
 2536SOL     OW 8506   0.764   1.992   3.814
 2536SOL    HW1 8507   0.846   1.965   3.864
 2536SOL    HW2 8508   0.770   1.959   3.720
 2537SOL     OW 8509   4.959   6.074   0.335
 2537SOL    HW1 8510   4.924   6.154   0.288
 2537SOL    HW2 8511   5.008   6.102   0.417
 2538SOL     OW 8512   1.985   4.105   5.319
 2538SOL    HW1 8513   2.014   4.009   5.324
 2538SOL    HW2 8514   2.035   4.150   5.245
 2539SOL     OW 8515   3.799   0.213   5.977
 2539SOL    HW1 8516   3.702   0.186   5.975
 2539SOL    HW2 8517   3.832   0.222   5.883
 2540SOL     OW 8518   5.190   0.670   1.209
 2540SOL    HW1 8519   5.286   0.659   1.180
 2540SOL    HW2 8520   5.135   0.596   1.170
 2541SOL     OW 8521   1.442   0.719   5.944
 2541SOL    HW1 8522   1.399   0.802   5.910
 2541SOL    HW2 8523   1.541   0.734   5.953
 2542SOL     OW 8524   3.862   2.140   4.721
 2542SOL    HW1 8525   3.844   2.147   4.623
 2542SOL    HW2 8526   3.949   2.184   4.742
 2543SOL     OW 8527   2.268   0.715   2.662
 2543SOL    HW1 8528   2.173   0.742   2.645
 2543SOL    HW2 8529   2.321   0.727   2.578
 2544SOL     OW 8530   0.220   5.029   2.198
 2544SOL    HW1 8531   0.150   5.037   2.127
 2544SOL    HW2 8532   0.299   5.085   2.174
 2545SOL     OW 8533   1.469   0.626   1.517
 2545SOL    HW1 8534   1.502   0.531   1.523
 2545SOL    HW2 8535   1.467   0.666   1.608
 2546SOL     OW 8536   5.901   3.319   1.227
 2546SOL    HW1 8537   5.873   3.240   1.281
 2546SOL    HW2 8538   6.001   3.326   1.227
 2547SOL     OW 8539   5.182   5.641   6.932
 2547SOL    HW1 8540   5.091   5.600   6.942
 2547SOL    HW2 8541   5.213   5.632   6.838
 2548SOL     OW 8542   2.590   0.798   5.110
 2548SOL    HW1 8543   2.515   0.862   5.126
 2548SOL    HW2 8544   2.677   0.846   5.117
 2549SOL     OW 8545   1.889   2.186   1.828
 2549SOL    HW1 8546   1.976   2.177   1.876
 2549SOL    HW2 8547   1.814   2.159   1.888
 2550SOL     OW 8548   5.636   1.123   6.743
 2550SOL    HW1 8549   5.722   1.074   6.734
 2550SOL    HW2 8550   5.559   1.061   6.724
 2551SOL     OW 8551   2.953   5.743   0.376
 2551SOL    HW1 8552   2.912   5.720   0.288
 2551SOL    HW2 8553   2.921   5.678   0.445
 2552SOL     OW 8554   1.725   5.193   6.539
 2552SOL    HW1 8555   1.675   5.205   6.453
 2552SOL    HW2 8556   1.712   5.273   6.597
 2553SOL     OW 8557   3.074   3.141   6.196
 2553SOL    HW1 8558   3.028   3.077   6.134
 2553SOL    HW2 8559   3.061   3.234   6.162
 2554SOL     OW 8560   1.823   5.818   6.748
 2554SOL    HW1 8561   1.873   5.847   6.829
 2554SOL    HW2 8562   1.838   5.721   6.732
 2555SOL     OW 8563   6.098   6.408   6.444
 2555SOL    HW1 8564   6.095   6.464   6.527
 2555SOL    HW2 8565   6.040   6.327   6.456
 2556SOL     OW 8566   4.367   6.204   0.967
 2556SOL    HW1 8567   4.418   6.246   0.893
 2556SOL    HW2 8568   4.304   6.135   0.930
 2557SOL     OW 8569   2.564   1.187   6.656
 2557SOL    HW1 8570   2.599   1.132   6.581
 2557SOL    HW2 8571   2.640   1.235   6.700
 2558SOL     OW 8572   4.065   3.782   5.108
 2558SOL    HW1 8573   4.124   3.711   5.145
 2558SOL    HW2 8574   4.046   3.764   5.012
 2559SOL     OW 8575   6.051   2.802   3.795
 2559SOL    HW1 8576   5.955   2.823   3.807
 2559SOL    HW2 8577   6.107   2.879   3.827
 2560SOL     OW 8578   4.890   3.399   3.515
 2560SOL    HW1 8579   4.942   3.407   3.430
 2560SOL    HW2 8580   4.852   3.307   3.523
 2561SOL     OW 8581   3.435   0.974   3.936
 2561SOL    HW1 8582   3.482   0.998   3.851
 2561SOL    HW2 8583   3.479   1.021   4.013
 2562SOL     OW 8584   2.532   5.436   3.428
 2562SOL    HW1 8585   2.621   5.438   3.382
 2562SOL    HW2 8586   2.462   5.405   3.363
 2563SOL     OW 8587   3.682   1.331   5.802
 2563SOL    HW1 8588   3.667   1.423   5.838
 2563SOL    HW2 8589   3.767   1.294   5.840
 2564SOL     OW 8590   1.763   6.312   0.080
 2564SOL    HW1 8591   1.843   6.322   0.021
 2564SOL    HW2 8592   1.704   6.393   0.070
 2565SOL     OW 8593   0.629   0.595   0.625
 2565SOL    HW1 8594   0.679   0.514   0.597
 2565SOL    HW2 8595   0.548   0.568   0.678
 2566SOL     OW 8596   1.123   6.664   0.813
 2566SOL    HW1 8597   1.193   6.734   0.816
 2566SOL    HW2 8598   1.104   6.639   0.718
 2567SOL     OW 8599   1.348   1.491   1.864
 2567SOL    HW1 8600   1.343   1.564   1.796
 2567SOL    HW2 8601   1.324   1.527   1.954
 2568SOL     OW 8602   3.442   0.015   0.486
 2568SOL    HW1 8603   3.525   0.070   0.477
 2568SOL    HW2 8604   3.466   6.934   0.479
 2569SOL     OW 8605   2.180   1.602   2.421
 2569SOL    HW1 8606   2.260   1.613   2.480
 2569SOL    HW2 8607   2.189   1.660   2.341
 2570SOL     OW 8608   4.498   6.437   6.183
 2570SOL    HW1 8609   4.429   6.365   6.184
 2570SOL    HW2 8610   4.500   6.484   6.271
 2571SOL     OW 8611   3.115   3.036   4.246
 2571SOL    HW1 8612   3.128   3.004   4.340
 2571SOL    HW2 8613   3.054   2.973   4.198
 2572SOL     OW 8614   1.508   6.454   0.907
 2572SOL    HW1 8615   1.453   6.372   0.889
 2572SOL    HW2 8616   1.588   6.430   0.961
 2573SOL     OW 8617   6.489   1.223   1.935
 2573SOL    HW1 8618   6.481   1.232   1.836
 2573SOL    HW2 8619   6.552   1.292   1.970
 2574SOL     OW 8620   6.059   3.261   0.101
 2574SOL    HW1 8621   6.013   3.187   0.052
 2574SOL    HW2 8622   6.020   3.269   0.193
 2575SOL     OW 8623   5.170   3.655   1.703
 2575SOL    HW1 8624   5.250   3.607   1.738
 2575SOL    HW2 8625   5.148   3.622   1.611
 2576SOL     OW 8626   3.973   6.729   3.779
 2576SOL    HW1 8627   3.960   6.652   3.841
 2576SOL    HW2 8628   4.069   6.756   3.780
 2577SOL     OW 8629   5.199   0.470   3.251
 2577SOL    HW1 8630   5.214   0.507   3.342
 2577SOL    HW2 8631   5.212   0.542   3.183
 2578SOL     OW 8632   4.408   3.042   5.843
 2578SOL    HW1 8633   4.342   2.976   5.808
 2578SOL    HW2 8634   4.501   3.004   5.834
 2579SOL     OW 8635   1.126   1.403   4.765
 2579SOL    HW1 8636   1.174   1.424   4.680
 2579SOL    HW2 8637   1.178   1.335   4.816
 2580SOL     OW 8638   1.766   2.949   6.408
 2580SOL    HW1 8639   1.814   2.887   6.470
 2580SOL    HW2 8640   1.799   2.936   6.315
 2581SOL     OW 8641   5.869   4.554   1.752
 2581SOL    HW1 8642   5.969   4.558   1.749
 2581SOL    HW2 8643   5.840   4.475   1.805
 2582SOL     OW 8644   1.899   4.718   2.823
 2582SOL    HW1 8645   1.888   4.810   2.859
 2582SOL    HW2 8646   1.993   4.687   2.838
 2583SOL     OW 8647   1.780   1.152   1.177
 2583SOL    HW1 8648   1.866   1.203   1.180
 2583SOL    HW2 8649   1.759   1.118   1.269
 2584SOL     OW 8650   3.695   5.700   0.145
 2584SOL    HW1 8651   3.613   5.668   0.192
 2584SOL    HW2 8652   3.715   5.638   0.069
 2585SOL     OW 8653   3.547   0.733   0.287
 2585SOL    HW1 8654   3.524   0.705   0.194
 2585SOL    HW2 8655   3.495   0.678   0.352
 2586SOL     OW 8656   5.008   1.630   4.340
 2586SOL    HW1 8657   4.970   1.722   4.346
 2586SOL    HW2 8658   5.101   1.629   4.376
 2587SOL     OW 8659   6.997   1.200   4.628
 2587SOL    HW1 8660   0.036   1.197   4.712
 2587SOL    HW2 8661   6.939   1.119   4.623
 2588SOL     OW 8662   4.639   0.311   0.013
 2588SOL    HW1 8663   4.563   0.248   0.027
 2588SOL    HW2 8664   4.701   0.306   0.091
 2589SOL     OW 8665   0.722   6.643   5.802
 2589SOL    HW1 8666   0.724   6.564   5.740
 2589SOL    HW2 8667   0.628   6.658   5.833
 2590SOL     OW 8668   3.495   6.455   2.516
 2590SOL    HW1 8669   3.442   6.403   2.583
 2590SOL    HW2 8670   3.434   6.516   2.465
 2591SOL     OW 8671   5.928   5.991   2.332
 2591SOL    HW1 8672   5.899   5.906   2.375
 2591SOL    HW2 8673   5.849   6.038   2.294
 2592SOL     OW 8674   2.635   0.062   1.232
 2592SOL    HW1 8675   2.703   0.002   1.277
 2592SOL    HW2 8676   2.543   0.031   1.256
 2593SOL     OW 8677   3.247   6.539   2.157
 2593SOL    HW1 8678   3.198   6.626   2.146
 2593SOL    HW2 8679   3.344   6.558   2.175
 2594SOL     OW 8680   6.894   6.080   5.865
 2594SOL    HW1 8681   6.980   6.121   5.896
 2594SOL    HW2 8682   6.834   6.068   5.944
 2595SOL     OW 8683   6.005   1.731   5.682
 2595SOL    HW1 8684   6.036   1.794   5.752
 2595SOL    HW2 8685   6.056   1.645   5.689
 2596SOL     OW 8686   3.946   2.199   1.916
 2596SOL    HW1 8687   3.961   2.247   2.002
 2596SOL    HW2 8688   3.852   2.212   1.885
 2597SOL     OW 8689   1.864   4.293   0.515
 2597SOL    HW1 8690   1.802   4.362   0.478
 2597SOL    HW2 8691   1.813   4.226   0.569
 2598SOL     OW 8692   6.126   1.251   4.510
 2598SOL    HW1 8693   6.088   1.181   4.570
 2598SOL    HW2 8694   6.141   1.212   4.419
 2599SOL     OW 8695   3.324   6.054   0.576
 2599SOL    HW1 8696   3.281   6.083   0.662
 2599SOL    HW2 8697   3.256   6.054   0.504
 2600SOL     OW 8698   4.878   3.729   4.824
 2600SOL    HW1 8699   4.856   3.671   4.745
 2600SOL    HW2 8700   4.838   3.689   4.906
 2601SOL     OW 8701   3.060   1.798   6.983
 2601SOL    HW1 8702   2.980   1.800   0.027
 2601SOL    HW2 8703   3.125   1.730   0.001
 2602SOL     OW 8704   6.770   4.884   4.125
 2602SOL    HW1 8705   6.714   4.817   4.174
 2602SOL    HW2 8706   6.750   4.976   4.159
 2603SOL     OW 8707   2.352   2.482   1.566
 2603SOL    HW1 8708   2.320   2.576   1.580
 2603SOL    HW2 8709   2.305   2.442   1.488
 2604SOL     OW 8710   5.242   1.146   2.742
 2604SOL    HW1 8711   5.253   1.196   2.656
 2604SOL    HW2 8712   5.320   1.166   2.802
 2605SOL     OW 8713   3.556   5.134   3.609
 2605SOL    HW1 8714   3.617   5.099   3.538
 2605SOL    HW2 8715   3.502   5.210   3.573
 2606SOL     OW 8716   6.522   4.546   0.647
 2606SOL    HW1 8717   6.491   4.532   0.553
 2606SOL    HW2 8718   6.503   4.641   0.675
 2607SOL     OW 8719   0.420   1.737   6.337
 2607SOL    HW1 8720   0.510   1.750   6.296
 2607SOL    HW2 8721   0.393   1.821   6.385
 2608SOL     OW 8722   3.831   5.868   2.618
 2608SOL    HW1 8723   3.812   5.773   2.597
 2608SOL    HW2 8724   3.897   5.905   2.551
 2609SOL     OW 8725   0.218   2.705   1.440
 2609SOL    HW1 8726   0.252   2.782   1.495
 2609SOL    HW2 8727   0.193   2.738   1.349
 2610SOL     OW 8728   6.793   4.978   4.488
 2610SOL    HW1 8729   6.716   4.915   4.475
 2610SOL    HW2 8730   6.777   5.061   4.436
 2611SOL     OW 8731   5.741   6.891   1.256
 2611SOL    HW1 8732   5.712   6.980   1.290
 2611SOL    HW2 8733   5.713   6.882   1.160
 2612SOL     OW 8734   0.123   6.291   6.174
 2612SOL    HW1 8735   0.144   6.230   6.098
 2612SOL    HW2 8736   0.046   6.255   6.226
 2613SOL     OW 8737   3.066   6.309   1.052
 2613SOL    HW1 8738   3.114   6.280   1.135
 2613SOL    HW2 8739   3.100   6.398   1.023
 2614SOL     OW 8740   6.355   6.888   6.169
 2614SOL    HW1 8741   6.276   6.925   6.218
 2614SOL    HW2 8742   6.370   6.941   6.086
 2615SOL     OW 8743   5.731   4.635   2.739
 2615SOL    HW1 8744   5.735   4.693   2.658
 2615SOL    HW2 8745   5.709   4.541   2.713
 2616SOL     OW 8746   3.830   3.392   3.789
 2616SOL    HW1 8747   3.767   3.350   3.854
 2616SOL    HW2 8748   3.779   3.424   3.709
 2617SOL     OW 8749   3.822   6.388   1.351
 2617SOL    HW1 8750   3.739   6.408   1.300
 2617SOL    HW2 8751   3.809   6.305   1.405
 2618SOL     OW 8752   0.403   6.338   3.736
 2618SOL    HW1 8753   0.391   6.318   3.639
 2618SOL    HW2 8754   0.313   6.346   3.780
 2619SOL     OW 8755   2.865   1.462   3.866
 2619SOL    HW1 8756   2.832   1.389   3.806
 2619SOL    HW2 8757   2.958   1.488   3.840
 2620SOL     OW 8758   0.720   5.592   3.145
 2620SOL    HW1 8759   0.633   5.608   3.098
 2620SOL    HW2 8760   0.702   5.544   3.231
 2621SOL     OW 8761   2.240   6.155   2.855
 2621SOL    HW1 8762   2.151   6.201   2.850
 2621SOL    HW2 8763   2.230   6.068   2.905
 2622SOL     OW 8764   2.709   2.039   0.047
 2622SOL    HW1 8765   2.638   2.109   0.060
 2622SOL    HW2 8766   2.673   1.950   0.075
 2623SOL     OW 8767   3.283   1.717   4.713
 2623SOL    HW1 8768   3.369   1.757   4.684
 2623SOL    HW2 8769   3.222   1.708   4.634
 2624SOL     OW 8770   6.526   3.393   4.793
 2624SOL    HW1 8771   6.606   3.333   4.794
 2624SOL    HW2 8772   6.502   3.414   4.698
 2625SOL     OW 8773   2.459   2.666   5.977
 2625SOL    HW1 8774   2.468   2.698   6.072
 2625SOL    HW2 8775   2.481   2.740   5.914
 2626SOL     OW 8776   0.894   0.537   4.660
 2626SOL    HW1 8777   0.963   0.482   4.613
 2626SOL    HW2 8778   0.848   0.596   4.593
 2627SOL     OW 8779   0.259   0.476   4.678
 2627SOL    HW1 8780   0.295   0.515   4.593
 2627SOL    HW2 8781   0.283   0.379   4.682
 2628SOL     OW 8782   2.858   5.521   6.789
 2628SOL    HW1 8783   2.923   5.589   6.823
 2628SOL    HW2 8784   2.768   5.565   6.778
 2629SOL     OW 8785   3.007   3.990   1.997
 2629SOL    HW1 8786   3.069   3.937   2.055
 2629SOL    HW2 8787   2.931   4.024   2.052
 2630SOL     OW 8788   3.152   1.739   3.586
 2630SOL    HW1 8789   3.100   1.754   3.670
 2630SOL    HW2 8790   3.107   1.671   3.529
 2631SOL     OW 8791   4.893   0.741   4.349
 2631SOL    HW1 8792   4.816   0.802   4.369
 2631SOL    HW2 8793   4.958   0.788   4.289
 2632SOL     OW 8794   2.786   1.952   6.216
 2632SOL    HW1 8795   2.848   1.947   6.137
 2632SOL    HW2 8796   2.809   1.880   6.281
 2633SOL     OW 8797   5.998   2.125   5.953
 2633SOL    HW1 8798   5.990   2.173   6.041
 2633SOL    HW2 8799   5.935   2.165   5.887
 2634SOL     OW 8800   1.883   4.344   2.645
 2634SOL    HW1 8801   1.885   4.244   2.653
 2634SOL    HW2 8802   1.837   4.369   2.560
 2635SOL     OW 8803   5.663   6.303   4.604
 2635SOL    HW1 8804   5.649   6.370   4.677
 2635SOL    HW2 8805   5.759   6.302   4.578
 2636SOL     OW 8806   4.722   0.707   5.358
 2636SOL    HW1 8807   4.775   0.622   5.360
 2636SOL    HW2 8808   4.645   0.700   5.422
 2637SOL     OW 8809   6.413   1.282   3.956
 2637SOL    HW1 8810   6.360   1.201   3.981
 2637SOL    HW2 8811   6.405   1.297   3.857
 2638SOL     OW 8812   0.156   7.010   3.124
 2638SOL    HW1 8813   0.110   7.006   3.212
 2638SOL    HW2 8814   0.245   6.965   3.130
 2639SOL     OW 8815   1.011   6.998   2.005
 2639SOL    HW1 8816   0.937   6.945   2.046
 2639SOL    HW2 8817   1.034   0.059   2.065
 2640SOL     OW 8818   6.910   6.120   5.196
 2640SOL    HW1 8819   6.929   6.028   5.231
 2640SOL    HW2 8820   6.816   6.124   5.163
 2641SOL     OW 8821   5.133   2.867   2.033
 2641SOL    HW1 8822   5.067   2.927   2.078
 2641SOL    HW2 8823   5.084   2.792   1.988
 2642SOL     OW 8824   5.010   6.859   4.249
 2642SOL    HW1 8825   5.097   6.903   4.225
 2642SOL    HW2 8826   5.013   6.828   4.344
 2643SOL     OW 8827   1.672   4.701   3.100
 2643SOL    HW1 8828   1.640   4.753   3.021
 2643SOL    HW2 8829   1.599   4.693   3.167
 2644SOL     OW 8830   6.565   5.005   6.082
 2644SOL    HW1 8831   6.525   4.914   6.067
 2644SOL    HW2 8832   6.494   5.067   6.115
 2645SOL     OW 8833   4.269   5.723   4.255
 2645SOL    HW1 8834   4.327   5.742   4.334
 2645SOL    HW2 8835   4.250   5.625   4.250
 2646SOL     OW 8836   5.643   0.077   6.787
 2646SOL    HW1 8837   5.546   0.098   6.803
 2646SOL    HW2 8838   5.671   0.002   6.846
 2647SOL     OW 8839   5.999   0.291   1.569
 2647SOL    HW1 8840   5.974   0.246   1.655
 2647SOL    HW2 8841   5.951   0.378   1.562
 2648SOL     OW 8842   0.230   0.598   3.243
 2648SOL    HW1 8843   0.329   0.598   3.227
 2648SOL    HW2 8844   0.200   0.506   3.269
 2649SOL     OW 8845   5.323   3.294   5.746
 2649SOL    HW1 8846   5.281   3.384   5.735
 2649SOL    HW2 8847   5.327   3.271   5.843
 2650SOL     OW 8848   1.104   3.807   4.214
 2650SOL    HW1 8849   1.009   3.781   4.227
 2650SOL    HW2 8850   1.116   3.852   4.126
 2651SOL     OW 8851   0.210   2.074   0.066
 2651SOL    HW1 8852   0.262   2.033   0.140
 2651SOL    HW2 8853   0.273   2.106   7.011
 2652SOL     OW 8854   2.945   3.671   3.750
 2652SOL    HW1 8855   2.899   3.730   3.816
 2652SOL    HW2 8856   3.044   3.688   3.754
 2653SOL     OW 8857   4.891   6.785   5.339
 2653SOL    HW1 8858   4.979   6.754   5.375
 2653SOL    HW2 8859   4.843   6.708   5.297
 2654SOL     OW 8860   4.450   4.293   1.312
 2654SOL    HW1 8861   4.355   4.322   1.326
 2654SOL    HW2 8862   4.462   4.199   1.346
 2655SOL     OW 8863   5.405   4.787   4.725
 2655SOL    HW1 8864   5.321   4.741   4.695
 2655SOL    HW2 8865   5.397   4.810   4.822
 2656SOL     OW 8866   4.052   4.912   4.455
 2656SOL    HW1 8867   3.952   4.922   4.462
 2656SOL    HW2 8868   4.087   4.979   4.389
 2657SOL     OW 8869   2.721   4.418   6.506
 2657SOL    HW1 8870   2.714   4.318   6.495
 2657SOL    HW2 8871   2.678   4.463   6.428
 2658SOL     OW 8872   5.093   3.924   0.528
 2658SOL    HW1 8873   5.078   3.883   0.439
 2658SOL    HW2 8874   5.045   4.012   0.533
 2659SOL     OW 8875   6.055   2.581   4.655
 2659SOL    HW1 8876   6.106   2.603   4.572
 2659SOL    HW2 8877   6.021   2.487   4.650
 2660SOL     OW 8878   0.634   1.440   0.991
 2660SOL    HW1 8879   0.565   1.500   0.949
 2660SOL    HW2 8880   0.591   1.355   1.020
 2661SOL     OW 8881   2.257   6.653   1.305
 2661SOL    HW1 8882   2.297   6.588   1.370
 2661SOL    HW2 8883   2.169   6.685   1.341
 2662SOL     OW 8884   4.344   0.441   5.501
 2662SOL    HW1 8885   4.263   0.384   5.488
 2662SOL    HW2 8886   4.407   0.396   5.564
 2663SOL     OW 8887   2.859   3.835   1.441
 2663SOL    HW1 8888   2.909   3.786   1.512
 2663SOL    HW2 8889   2.768   3.795   1.430
 2664SOL     OW 8890   3.624   3.905   4.750
 2664SOL    HW1 8891   3.625   3.848   4.668
 2664SOL    HW2 8892   3.550   3.972   4.744
 2665SOL     OW 8893   2.763   2.453   5.341
 2665SOL    HW1 8894   2.676   2.407   5.359
 2665SOL    HW2 8895   2.839   2.396   5.374
 2666SOL     OW 8896   4.973   3.692   1.908
 2666SOL    HW1 8897   4.966   3.610   1.965
 2666SOL    HW2 8898   5.029   3.672   1.828
 2667SOL     OW 8899   1.497   6.089   4.176
 2667SOL    HW1 8900   1.472   6.057   4.084
 2667SOL    HW2 8901   1.435   6.049   4.243
 2668SOL     OW 8902   6.108   3.059   3.515
 2668SOL    HW1 8903   6.043   3.076   3.441
 2668SOL    HW2 8904   6.074   3.098   3.600
 2669SOL     OW 8905   3.273   4.783   5.328
 2669SOL    HW1 8906   3.239   4.866   5.372
 2669SOL    HW2 8907   3.211   4.707   5.345
 2670SOL     OW 8908   5.708   1.709   6.464
 2670SOL    HW1 8909   5.674   1.801   6.485
 2670SOL    HW2 8910   5.806   1.704   6.487
 2671SOL     OW 8911   3.351   5.244   6.900
 2671SOL    HW1 8912   3.416   5.316   6.925
 2671SOL    HW2 8913   3.378   5.158   6.943
 2672SOL     OW 8914   6.667   5.400   0.050
 2672SOL    HW1 8915   6.754   5.377   0.093
 2672SOL    HW2 8916   6.667   5.497   0.025
 2673SOL     OW 8917   6.346   1.874   3.449
 2673SOL    HW1 8918   6.278   1.941   3.478
 2673SOL    HW2 8919   6.331   1.851   3.353
 2674SOL     OW 8920   1.670   4.121   3.943
 2674SOL    HW1 8921   1.685   4.070   3.859
 2674SOL    HW2 8922   1.704   4.215   3.931
 2675SOL     OW 8923   6.481   4.949   4.876
 2675SOL    HW1 8924   6.437   4.895   4.948
 2675SOL    HW2 8925   6.576   4.966   4.900
 2676SOL     OW 8926   4.651   1.212   1.842
 2676SOL    HW1 8927   4.732   1.213   1.900
 2676SOL    HW2 8928   4.587   1.143   1.876
 2677SOL     OW 8929   3.174   4.455   0.002
 2677SOL    HW1 8930   3.131   4.475   0.090
 2677SOL    HW2 8931   3.104   4.428   6.952
 2678SOL     OW 8932   6.943   4.816   1.508
 2678SOL    HW1 8933   0.006   4.787   1.453
 2678SOL    HW2 8934   6.962   4.799   1.605
 2679SOL     OW 8935   3.681   5.240   0.703
 2679SOL    HW1 8936   3.714   5.157   0.750
 2679SOL    HW2 8937   3.635   5.214   0.618
 2680SOL     OW 8938   0.891   1.877   1.166
 2680SOL    HW1 8939   0.912   1.836   1.077
 2680SOL    HW2 8940   0.800   1.847   1.196
 2681SOL     OW 8941   1.494   2.257   4.138
 2681SOL    HW1 8942   1.556   2.198   4.190
 2681SOL    HW2 8943   1.493   2.349   4.178
 2682SOL     OW 8944   5.282   3.685   2.893
 2682SOL    HW1 8945   5.264   3.743   2.813
 2682SOL    HW2 8946   5.220   3.608   2.893
 2683SOL     OW 8947   1.702   4.045   0.003
 2683SOL    HW1 8948   1.739   4.020   6.930
 2683SOL    HW2 8949   1.603   4.059   7.011
 2684SOL     OW 8950   4.651   5.408   1.885
 2684SOL    HW1 8951   4.713   5.329   1.882
 2684SOL    HW2 8952   4.586   5.395   1.960
 2685SOL     OW 8953   6.070   6.023   6.252
 2685SOL    HW1 8954   6.097   6.035   6.157
 2685SOL    HW2 8955   6.120   5.946   6.291
 2686SOL     OW 8956   1.613   1.469   5.667
 2686SOL    HW1 8957   1.582   1.422   5.584
 2686SOL    HW2 8958   1.534   1.489   5.725
 2687SOL     OW 8959   4.651   4.398   2.836
 2687SOL    HW1 8960   4.557   4.370   2.856
 2687SOL    HW2 8961   4.662   4.408   2.737
 2688SOL     OW 8962   4.590   5.897   0.066
 2688SOL    HW1 8963   4.531   5.874   7.005
 2688SOL    HW2 8964   4.676   5.846   0.059
 2689SOL     OW 8965   2.227   2.288   3.690
 2689SOL    HW1 8966   2.195   2.206   3.737
 2689SOL    HW2 8967   2.316   2.314   3.726
 2690SOL     OW 8968   3.228   3.742   4.364
 2690SOL    HW1 8969   3.258   3.776   4.454
 2690SOL    HW2 8970   3.138   3.700   4.372
 2691SOL     OW 8971   1.116   5.756   2.231
 2691SOL    HW1 8972   1.073   5.668   2.250
 2691SOL    HW2 8973   1.055   5.811   2.175
 2692SOL     OW 8974   4.264   4.684   3.629
 2692SOL    HW1 8975   4.263   4.584   3.627
 2692SOL    HW2 8976   4.358   4.716   3.640
 2693SOL     OW 8977   1.954   4.063   3.108
 2693SOL    HW1 8978   1.904   4.037   3.025
 2693SOL    HW2 8979   1.897   4.045   3.188
 2694SOL     OW 8980   4.257   6.749   2.747
 2694SOL    HW1 8981   4.276   6.673   2.685
 2694SOL    HW2 8982   4.325   6.822   2.733
 2695SOL     OW 8983   5.596   0.716   2.689
 2695SOL    HW1 8984   5.673   0.664   2.724
 2695SOL    HW2 8985   5.511   0.670   2.712
 2696SOL     OW 8986   3.767   3.746   5.111
 2696SOL    HW1 8987   3.775   3.655   5.070
 2696SOL    HW2 8988   3.857   3.790   5.114
 2697SOL     OW 8989   4.070   1.477   3.406
 2697SOL    HW1 8990   4.000   1.549   3.403
 2697SOL    HW2 8991   4.033   1.397   3.452
 2698SOL     OW 8992   2.062   5.598   0.387
 2698SOL    HW1 8993   2.136   5.538   0.357
 2698SOL    HW2 8994   1.976   5.567   0.348
 2699SOL     OW 8995   3.609   6.171   0.459
 2699SOL    HW1 8996   3.534   6.132   0.513
 2699SOL    HW2 8997   3.677   6.100   0.441
 2700SOL     OW 8998   2.082   4.128   1.410
 2700SOL    HW1 8999   2.040   4.163   1.327
 2700SOL    HW2 9000   2.034   4.166   1.490
 2701SOL     OW 9001   3.097   0.470   6.722
 2701SOL    HW1 9002   3.148   0.397   6.767
 2701SOL    HW2 9003   3.050   0.433   6.642
 2702SOL     OW 9004   0.649   2.769   2.649
 2702SOL    HW1 9005   0.626   2.707   2.724
 2702SOL    HW2 9006   0.711   2.724   2.586
 2703SOL     OW 9007   2.131   0.322   2.514
 2703SOL    HW1 9008   2.091   0.395   2.459
 2703SOL    HW2 9009   2.212   0.356   2.561
 2704SOL     OW 9010   0.383   6.034   0.888
 2704SOL    HW1 9011   0.334   6.055   0.803
 2704SOL    HW2 9012   0.342   5.954   0.931
 2705SOL     OW 9013   1.563   5.697   4.663
 2705SOL    HW1 9014   1.634   5.694   4.734
 2705SOL    HW2 9015   1.558   5.789   4.625
 2706SOL     OW 9016   0.308   0.575   0.990
 2706SOL    HW1 9017   0.403   0.607   0.988
 2706SOL    HW2 9018   0.256   0.630   1.056
 2707SOL     OW 9019   2.360   0.954   5.131
 2707SOL    HW1 9020   2.392   1.017   5.202
 2707SOL    HW2 9021   2.265   0.930   5.147
 2708SOL     OW 9022   1.250   1.889   1.033
 2708SOL    HW1 9023   1.175   1.885   0.967
 2708SOL    HW2 9024   1.272   1.985   1.053
 2709SOL     OW 9025   5.589   6.454   0.120
 2709SOL    HW1 9026   5.593   6.414   0.212
 2709SOL    HW2 9027   5.540   6.392   0.059
 2710SOL     OW 9028   0.741   3.486   2.497
 2710SOL    HW1 9029   0.693   3.406   2.536
 2710SOL    HW2 9030   0.740   3.560   2.565
 2711SOL     OW 9031   2.515   1.301   3.306
 2711SOL    HW1 9032   2.548   1.208   3.289
 2711SOL    HW2 9033   2.500   1.347   3.219
 2712SOL     OW 9034   3.105   4.826   1.021
 2712SOL    HW1 9035   3.169   4.835   0.945
 2712SOL    HW2 9036   3.151   4.844   1.107
 2713SOL     OW 9037   2.011   2.307   5.075
 2713SOL    HW1 9038   1.983   2.335   4.983
 2713SOL    HW2 9039   2.049   2.386   5.124
 2714SOL     OW 9040   4.701   1.834   0.101
 2714SOL    HW1 9041   4.771   1.854   0.032
 2714SOL    HW2 9042   4.676   1.918   0.149
 2715SOL     OW 9043   5.458   0.546   0.177
 2715SOL    HW1 9044   5.521   0.473   0.152
 2715SOL    HW2 9045   5.476   0.574   0.272
 2716SOL     OW 9046   5.201   5.031   2.891
 2716SOL    HW1 9047   5.258   5.061   2.815
 2716SOL    HW2 9048   5.246   4.957   2.940
 2717SOL     OW 9049   1.940   5.062   2.189
 2717SOL    HW1 9050   2.014   5.117   2.149
 2717SOL    HW2 9051   1.853   5.108   2.175
 2718SOL     OW 9052   1.678   3.605   5.194
 2718SOL    HW1 9053   1.595   3.623   5.248
 2718SOL    HW2 9054   1.703   3.687   5.143
 2719SOL     OW 9055   5.969   5.681   1.329
 2719SOL    HW1 9056   5.932   5.715   1.416
 2719SOL    HW2 9057   5.902   5.621   1.286
 2720SOL     OW 9058   1.987   6.281   2.698
 2720SOL    HW1 9059   1.910   6.278   2.634
 2720SOL    HW2 9060   1.961   6.332   2.779
 2721SOL     OW 9061   3.287   0.580   3.919
 2721SOL    HW1 9062   3.342   0.530   3.986
 2721SOL    HW2 9063   3.270   0.673   3.952
 2722SOL     OW 9064   6.644   5.512   1.976
 2722SOL    HW1 9065   6.709   5.586   1.961
 2722SOL    HW2 9066   6.622   5.506   2.074
 2723SOL     OW 9067   1.289   6.528   5.968
 2723SOL    HW1 9068   1.254   6.448   5.918
 2723SOL    HW2 9069   1.318   6.500   6.059
 2724SOL     OW 9070   2.384   0.162   6.224
 2724SOL    HW1 9071   2.450   0.230   6.254
 2724SOL    HW2 9072   2.425   0.104   6.154
 2725SOL     OW 9073   6.179   4.785   4.019
 2725SOL    HW1 9074   6.141   4.703   4.061
 2725SOL    HW2 9075   6.161   4.783   3.920
 2726SOL     OW 9076   6.798   4.218   1.111
 2726SOL    HW1 9077   6.836   4.180   1.027
 2726SOL    HW2 9078   6.840   4.172   1.190
 2727SOL     OW 9079   0.655   4.742   3.239
 2727SOL    HW1 9080   0.681   4.774   3.147
 2727SOL    HW2 9081   0.592   4.665   3.231
 2728SOL     OW 9082   3.561   0.095   5.986
 2728SOL    HW1 9083   3.580   0.054   5.896
 2728SOL    HW2 9084   3.489   0.043   6.032
 2729SOL     OW 9085   6.076   5.792   1.075
 2729SOL    HW1 9086   6.017   5.788   1.156
 2729SOL    HW2 9087   6.170   5.811   1.103
 2730SOL     OW 9088   1.600   5.429   1.734
 2730SOL    HW1 9089   1.642   5.363   1.671
 2730SOL    HW2 9090   1.506   5.400   1.754
 2731SOL     OW 9091   3.821   3.301   1.909
 2731SOL    HW1 9092   3.878   3.381   1.925
 2731SOL    HW2 9093   3.874   3.218   1.920
 2732SOL     OW 9094   5.480   3.150   2.215
 2732SOL    HW1 9095   5.432   3.178   2.298
 2732SOL    HW2 9096   5.499   3.230   2.158
 2733SOL     OW 9097   0.495   0.165   4.737
 2733SOL    HW1 9098   0.537   0.076   4.721
 2733SOL    HW2 9099   0.541   0.235   4.683
 2734SOL     OW 9100   2.189   5.842   2.040
 2734SOL    HW1 9101   2.114   5.876   1.983
 2734SOL    HW2 9102   2.226   5.916   2.095
 2735SOL     OW 9103   0.815   3.676   2.727
 2735SOL    HW1 9104   0.790   3.613   2.801
 2735SOL    HW2 9105   0.914   3.686   2.724
 2736SOL     OW 9106   4.406   0.103   4.426
 2736SOL    HW1 9107   4.393   0.158   4.343
 2736SOL    HW2 9108   4.459   0.154   4.493
 2737SOL     OW 9109   3.804   3.712   5.428
 2737SOL    HW1 9110   3.787   3.750   5.337
 2737SOL    HW2 9111   3.717   3.686   5.470
 2738SOL     OW 9112   5.751   4.770   3.983
 2738SOL    HW1 9113   5.796   4.859   3.984
 2738SOL    HW2 9114   5.662   4.777   4.028
 2739SOL     OW 9115   6.555   5.203   0.291
 2739SOL    HW1 9116   6.520   5.196   0.198
 2739SOL    HW2 9117   6.555   5.298   0.320
 2740SOL     OW 9118   6.164   3.699   2.121
 2740SOL    HW1 9119   6.133   3.787   2.087
 2740SOL    HW2 9120   6.212   3.650   2.048
 2741SOL     OW 9121   0.025   1.138   5.267
 2741SOL    HW1 9122   6.954   1.122   5.220
 2741SOL    HW2 9123   0.074   1.051   5.276
 2742SOL     OW 9124   1.669   4.585   6.746
 2742SOL    HW1 9125   1.640   4.490   6.754
 2742SOL    HW2 9126   1.694   4.604   6.651
 2743SOL     OW 9127   6.336   5.221   2.143
 2743SOL    HW1 9128   6.318   5.144   2.082
 2743SOL    HW2 9129   6.424   5.207   2.188
 2744SOL     OW 9130   4.650   1.712   0.348
 2744SOL    HW1 9131   4.619   1.617   0.340
 2744SOL    HW2 9132   4.677   1.745   0.258
 2745SOL     OW 9133   0.768   6.397   6.726
 2745SOL    HW1 9134   0.772   6.366   6.631
 2745SOL    HW2 9135   0.772   6.319   6.787
 2746SOL     OW 9136   2.649   1.998   3.711
 2746SOL    HW1 9137   2.698   2.083   3.694
 2746SOL    HW2 9138   2.698   1.921   3.671
 2747SOL     OW 9139   5.216   3.556   5.704
 2747SOL    HW1 9140   5.292   3.612   5.737
 2747SOL    HW2 9141   5.189   3.588   5.613
 2748SOL     OW 9142   3.860   1.750   0.845
 2748SOL    HW1 9143   3.823   1.661   0.872
 2748SOL    HW2 9144   3.870   1.807   0.927
 2749SOL     OW 9145   5.955   4.356   3.741
 2749SOL    HW1 9146   5.958   4.406   3.828
 2749SOL    HW2 9147   5.905   4.410   3.674
 2750SOL     OW 9148   0.551   5.045   1.283
 2750SOL    HW1 9149   0.520   4.950   1.284
 2750SOL    HW2 9150   0.612   5.060   1.206
 2751SOL     OW 9151   0.783   5.995   0.575
 2751SOL    HW1 9152   0.736   6.048   0.646
 2751SOL    HW2 9153   0.726   5.993   0.493
 2752SOL     OW 9154   4.933   4.561   5.029
 2752SOL    HW1 9155   4.874   4.541   5.107
 2752SOL    HW2 9156   4.879   4.600   4.955
 2753SOL     OW 9157   1.414   0.106   6.414
 2753SOL    HW1 9158   1.376   0.101   6.507
 2753SOL    HW2 9159   1.435   0.014   6.382
 2754SOL     OW 9160   6.692   0.878   4.076
 2754SOL    HW1 9161   6.649   0.968   4.079
 2754SOL    HW2 9162   6.700   0.848   3.981
 2755SOL     OW 9163   2.936   6.711   3.336
 2755SOL    HW1 9164   2.986   6.712   3.423
 2755SOL    HW2 9165   2.838   6.717   3.354
 2756SOL     OW 9166   6.190   3.946   5.259
 2756SOL    HW1 9167   6.104   3.984   5.292
 2756SOL    HW2 9168   6.180   3.917   5.164
 2757SOL     OW 9169   2.053   1.296   6.206
 2757SOL    HW1 9170   2.061   1.350   6.290
 2757SOL    HW2 9171   2.144   1.283   6.166
 2758SOL     OW 9172   5.060   6.104   3.678
 2758SOL    HW1 9173   5.116   6.098   3.760
 2758SOL    HW2 9174   4.997   6.027   3.675
 2759SOL     OW 9175   4.413   5.616   5.566
 2759SOL    HW1 9176   4.382   5.629   5.660
 2759SOL    HW2 9177   4.342   5.570   5.513
 2760SOL     OW 9178   6.653   5.120   2.914
 2760SOL    HW1 9179   6.628   5.031   2.952
 2760SOL    HW2 9180   6.680   5.181   2.989
 2761SOL     OW 9181   1.999   4.229   4.591
 2761SOL    HW1 9182   2.046   4.179   4.664
 2761SOL    HW2 9183   2.005   4.178   4.506
 2762SOL     OW 9184   1.785   1.809   0.009
 2762SOL    HW1 9185   1.789   1.857   0.096
 2762SOL    HW2 9186   1.780   1.876   6.950
 2763SOL     OW 9187   4.715   2.332   5.329
 2763SOL    HW1 9188   4.781   2.353   5.256
 2763SOL    HW2 9189   4.705   2.411   5.388
 2764SOL     OW 9190   0.052   6.045   2.154
 2764SOL    HW1 9191   7.008   5.968   2.176
 2764SOL    HW2 9192   0.144   6.026   2.188
 2765SOL     OW 9193   6.752   0.191   0.871
 2765SOL    HW1 9194   6.668   0.231   0.834
 2765SOL    HW2 9195   6.819   0.180   0.798
 2766SOL     OW 9196   3.775   2.189   6.340
 2766SOL    HW1 9197   3.769   2.098   6.380
 2766SOL    HW2 9198   3.799   2.255   6.411
 2767SOL     OW 9199   6.485   5.293   6.576
 2767SOL    HW1 9200   6.479   5.202   6.617
 2767SOL    HW2 9201   6.479   5.286   6.477
 2768SOL     OW 9202   4.530   0.871   0.510
 2768SOL    HW1 9203   4.475   0.906   0.435
 2768SOL    HW2 9204   4.503   0.917   0.595
 2769SOL     OW 9205   2.573   4.573   6.322
 2769SOL    HW1 9206   2.667   4.598   6.297
 2769SOL    HW2 9207   2.515   4.654   6.321
 2770SOL     OW 9208   4.215   5.317   5.614
 2770SOL    HW1 9209   4.248   5.224   5.601
 2770SOL    HW2 9210   4.232   5.346   5.708
 2771SOL     OW 9211   5.937   0.692   4.779
 2771SOL    HW1 9212   5.960   0.755   4.853
 2771SOL    HW2 9213   6.001   0.615   4.779
 2772SOL     OW 9214   3.373   1.235   1.276
 2772SOL    HW1 9215   3.289   1.194   1.314
 2772SOL    HW2 9216   3.348   1.301   1.205
 2773SOL     OW 9217   6.761   2.748   4.288
 2773SOL    HW1 9218   6.745   2.816   4.360
 2773SOL    HW2 9219   6.819   2.675   4.324
 2774SOL     OW 9220   4.892   3.121   2.979
 2774SOL    HW1 9221   4.821   3.063   2.939
 2774SOL    HW2 9222   4.922   3.188   2.911
 2775SOL     OW 9223   6.330   3.167   4.305
 2775SOL    HW1 9224   6.237   3.148   4.273
 2775SOL    HW2 9225   6.329   3.179   4.405
 2776SOL     OW 9226   5.292   4.223   5.702
 2776SOL    HW1 9227   5.195   4.244   5.705
 2776SOL    HW2 9228   5.305   4.125   5.690
 2777SOL     OW 9229   2.511   1.753   1.000
 2777SOL    HW1 9230   2.609   1.775   0.997
 2777SOL    HW2 9231   2.458   1.837   0.999
 2778SOL     OW 9232   1.517   6.176   6.788
 2778SOL    HW1 9233   1.581   6.233   6.736
 2778SOL    HW2 9234   1.496   6.094   6.735
 2779SOL     OW 9235   5.383   6.671   1.799
 2779SOL    HW1 9236   5.454   6.604   1.821
 2779SOL    HW2 9237   5.362   6.725   1.881
 2780SOL     OW 9238   6.952   0.357   5.835
 2780SOL    HW1 9239   6.935   0.455   5.849
 2780SOL    HW2 9240   6.879   0.304   5.878
 2781SOL     OW 9241   6.345   0.660   3.311
 2781SOL    HW1 9242   6.287   0.582   3.288
 2781SOL    HW2 9243   6.288   0.742   3.322
 2782SOL     OW 9244   4.684   1.272   4.553
 2782SOL    HW1 9245   4.588   1.293   4.535
 2782SOL    HW2 9246   4.690   1.216   4.636
 2783SOL     OW 9247   6.670   3.778   1.412
 2783SOL    HW1 9248   6.656   3.870   1.450
 2783SOL    HW2 9249   6.753   3.778   1.357
 2784SOL     OW 9250   3.419   0.910   2.268
 2784SOL    HW1 9251   3.401   0.995   2.317
 2784SOL    HW2 9252   3.488   0.926   2.197
 2785SOL     OW 9253   5.235   2.336   0.447
 2785SOL    HW1 9254   5.308   2.338   0.379
 2785SOL    HW2 9255   5.258   2.394   0.524
 2786SOL     OW 9256   6.502   6.760   1.624
 2786SOL    HW1 9257   6.524   6.739   1.529
 2786SOL    HW2 9258   6.571   6.821   1.663
 2787SOL     OW 9259   6.167   6.316   5.520
 2787SOL    HW1 9260   6.125   6.281   5.436
 2787SOL    HW2 9261   6.151   6.414   5.527
 2788SOL     OW 9262   2.513   6.746   5.728
 2788SOL    HW1 9263   2.488   6.774   5.821
 2788SOL    HW2 9264   2.612   6.742   5.721
 2789SOL     OW 9265   1.988   1.661   3.510
 2789SOL    HW1 9266   2.031   1.591   3.453
 2789SOL    HW2 9267   1.952   1.734   3.452
 2790SOL     OW 9268   3.362   5.407   1.007
 2790SOL    HW1 9269   3.312   5.494   1.007
 2790SOL    HW2 9270   3.360   5.368   1.099
 2791SOL     OW 9271   1.022   4.225   2.230
 2791SOL    HW1 9272   1.026   4.160   2.305
 2791SOL    HW2 9273   1.036   4.317   2.265
 2792SOL     OW 9274   3.272   0.809   4.432
 2792SOL    HW1 9275   3.187   0.792   4.383
 2792SOL    HW2 9276   3.333   0.731   4.422
 2793SOL     OW 9277   5.132   3.639   2.217
 2793SOL    HW1 9278   5.232   3.642   2.215
 2793SOL    HW2 9279   5.102   3.544   2.207
 2794SOL     OW 9280   6.552   2.390   6.085
 2794SOL    HW1 9281   6.519   2.302   6.049
 2794SOL    HW2 9282   6.524   2.464   6.024
 2795SOL     OW 9283   0.720   4.215   1.102
 2795SOL    HW1 9284   0.670   4.201   1.187
 2795SOL    HW2 9285   0.750   4.310   1.097
 2796SOL     OW 9286   0.216   5.762   3.674
 2796SOL    HW1 9287   0.284   5.807   3.733
 2796SOL    HW2 9288   0.132   5.817   3.673
 2797SOL     OW 9289   5.435   5.172   5.528
 2797SOL    HW1 9290   5.385   5.222   5.458
 2797SOL    HW2 9291   5.497   5.106   5.485
 2798SOL     OW 9292   5.827   5.613   2.730
 2798SOL    HW1 9293   5.855   5.637   2.823
 2798SOL    HW2 9294   5.862   5.521   2.708
 2799SOL     OW 9295   5.402   6.141   6.152
 2799SOL    HW1 9296   5.358   6.108   6.235
 2799SOL    HW2 9297   5.375   6.083   6.075
 2800SOL     OW 9298   5.649   0.102   5.932
 2800SOL    HW1 9299   5.667   0.057   5.845
 2800SOL    HW2 9300   5.553   0.088   5.958
 2801SOL     OW 9301   0.554   5.539   6.068
 2801SOL    HW1 9302   0.650   5.512   6.063
 2801SOL    HW2 9303   0.497   5.463   6.037
 2802SOL     OW 9304   6.566   6.138   5.460
 2802SOL    HW1 9305   6.643   6.176   5.513
 2802SOL    HW2 9306   6.538   6.050   5.500
 2803SOL     OW 9307   3.336   4.994   5.904
 2803SOL    HW1 9308   3.254   5.034   5.945
 2803SOL    HW2 9309   3.332   4.895   5.911
 2804SOL     OW 9310   0.272   3.795   4.501
 2804SOL    HW1 9311   0.254   3.855   4.423
 2804SOL    HW2 9312   0.186   3.769   4.544
 2805SOL     OW 9313   6.001   3.593   2.763
 2805SOL    HW1 9314   5.912   3.604   2.808
 2805SOL    HW2 9315   5.994   3.523   2.692
 2806SOL     OW 9316   1.897   4.206   6.007
 2806SOL    HW1 9317   1.890   4.257   5.922
 2806SOL    HW2 9318   1.985   4.224   6.050
 2807SOL     OW 9319   4.274   0.291   3.145
 2807SOL    HW1 9320   4.362   0.308   3.189
 2807SOL    HW2 9321   4.210   0.254   3.211
 2808SOL     OW 9322   6.241   5.669   0.679
 2808SOL    HW1 9323   6.294   5.606   0.622
 2808SOL    HW2 9324   6.155   5.690   0.633
 2809SOL     OW 9325   5.382   2.153   1.534
 2809SOL    HW1 9326   5.394   2.225   1.602
 2809SOL    HW2 9327   5.341   2.191   1.451
 2810SOL     OW 9328   2.242   5.462   2.928
 2810SOL    HW1 9329   2.206   5.539   2.980
 2810SOL    HW2 9330   2.341   5.474   2.916
 2811SOL     OW 9331   0.702   1.733   2.865
 2811SOL    HW1 9332   0.618   1.719   2.915
 2811SOL    HW2 9333   0.756   1.649   2.865
 2812SOL     OW 9334   5.959   3.508   0.824
 2812SOL    HW1 9335   6.016   3.459   0.758
 2812SOL    HW2 9336   6.017   3.566   0.882
 2813SOL     OW 9337   0.876   2.027   0.409
 2813SOL    HW1 9338   0.839   1.982   0.490
 2813SOL    HW2 9339   0.897   2.123   0.430
 2814SOL     OW 9340   3.397   4.147   5.455
 2814SOL    HW1 9341   3.369   4.124   5.362
 2814SOL    HW2 9342   3.322   4.130   5.518
 2815SOL     OW 9343   6.336   5.145   6.138
 2815SOL    HW1 9344   6.242   5.164   6.168
 2815SOL    HW2 9345   6.333   5.101   6.048
 2816SOL     OW 9346   6.579   6.118   4.674
 2816SOL    HW1 9347   6.595   6.214   4.697
 2816SOL    HW2 9348   6.511   6.080   4.737
 2817SOL     OW 9349   3.270   1.282   2.832
 2817SOL    HW1 9350   3.297   1.215   2.763
 2817SOL    HW2 9351   3.351   1.314   2.881
 2818SOL     OW 9352   6.772   1.369   2.280
 2818SOL    HW1 9353   6.860   1.325   2.292
 2818SOL    HW2 9354   6.699   1.311   2.316
 2819SOL     OW 9355   1.444   0.399   1.866
 2819SOL    HW1 9356   1.524   0.447   1.831
 2819SOL    HW2 9357   1.411   0.445   1.949
 2820SOL     OW 9358   1.009   2.151   2.305
 2820SOL    HW1 9359   1.091   2.095   2.292
 2820SOL    HW2 9360   0.994   2.206   2.223
 2821SOL     OW 9361   2.704   4.912   5.941
 2821SOL    HW1 9362   2.657   4.828   5.966
 2821SOL    HW2 9363   2.693   4.980   6.014
 2822SOL     OW 9364   4.156   2.276   6.926
 2822SOL    HW1 9365   4.248   2.246   6.949
 2822SOL    HW2 9366   4.121   2.335   6.999
 2823SOL     OW 9367   6.204   0.742   6.984
 2823SOL    HW1 9368   6.132   0.732   6.916
 2823SOL    HW2 9369   6.281   0.792   6.943
 2824SOL     OW 9370   1.903   2.280   5.595
 2824SOL    HW1 9371   1.857   2.303   5.509
 2824SOL    HW2 9372   1.985   2.225   5.576
 2825SOL     OW 9373   5.356   0.369   5.831
 2825SOL    HW1 9374   5.358   0.282   5.880
 2825SOL    HW2 9375   5.262   0.392   5.807
 2826SOL     OW 9376   2.865   3.448   6.484
 2826SOL    HW1 9377   2.897   3.515   6.417
 2826SOL    HW2 9378   2.798   3.491   6.544
 2827SOL     OW 9379   0.111   0.896   6.522
 2827SOL    HW1 9380   0.172   0.817   6.535
 2827SOL    HW2 9381   0.067   0.889   6.433
 2828SOL     OW 9382   2.174   3.532   0.904
 2828SOL    HW1 9383   2.268   3.559   0.922
 2828SOL    HW2 9384   2.161   3.516   0.807
 2829SOL     OW 9385   3.276   3.175   3.450
 2829SOL    HW1 9386   3.206   3.201   3.384
 2829SOL    HW2 9387   3.232   3.147   3.536
 2830SOL     OW 9388   3.308   4.070   5.201
 2830SOL    HW1 9389   3.219   4.115   5.197
 2830SOL    HW2 9390   3.344   4.057   5.109
 2831SOL     OW 9391   0.762   2.893   2.982
 2831SOL    HW1 9392   0.749   2.878   3.080
 2831SOL    HW2 9393   0.692   2.956   2.948
 2832SOL     OW 9394   1.145   2.886   1.823
 2832SOL    HW1 9395   1.233   2.901   1.867
 2832SOL    HW2 9396   1.089   2.826   1.881
 2833SOL     OW 9397   2.438   1.819   2.046
 2833SOL    HW1 9398   2.532   1.843   2.024
 2833SOL    HW2 9399   2.409   1.740   1.992
 2834SOL     OW 9400   4.234   6.174   4.390
 2834SOL    HW1 9401   4.304   6.194   4.459
 2834SOL    HW2 9402   4.180   6.095   4.418
 2835SOL     OW 9403   0.894   6.715   0.513
 2835SOL    HW1 9404   0.924   6.629   0.471
 2835SOL    HW2 9405   0.910   6.790   0.449
 2836SOL     OW 9406   1.678   6.306   1.610
 2836SOL    HW1 9407   1.751   6.242   1.583
 2836SOL    HW2 9408   1.719   6.391   1.644
 2837SOL     OW 9409   5.433   4.614   2.717
 2837SOL    HW1 9410   5.523   4.608   2.761
 2837SOL    HW2 9411   5.440   4.668   2.633
 2838SOL     OW 9412   5.038   3.640   0.621
 2838SOL    HW1 9413   4.992   3.617   0.535
 2838SOL    HW2 9414   5.103   3.714   0.606
 2839SOL     OW 9415   0.314   3.139   2.532
 2839SOL    HW1 9416   0.344   3.213   2.472
 2839SOL    HW2 9417   0.389   3.113   2.593
 2840SOL     OW 9418   1.659   5.815   2.700
 2840SOL    HW1 9419   1.738   5.772   2.744
 2840SOL    HW2 9420   1.587   5.831   2.768
 2841SOL     OW 9421   6.264   2.172   6.928
 2841SOL    HW1 9422   6.208   2.215   6.858
 2841SOL    HW2 9423   6.233   2.200   0.003
 2842SOL     OW 9424   0.695   5.908   4.788
 2842SOL    HW1 9425   0.702   5.879   4.692
 2842SOL    HW2 9426   0.695   5.827   4.847
 2843SOL     OW 9427   2.523   1.514   2.165
 2843SOL    HW1 9428   2.599   1.483   2.109
 2843SOL    HW2 9429   2.554   1.585   2.229
 2844SOL     OW 9430   5.788   5.316   1.104
 2844SOL    HW1 9431   5.723   5.241   1.093
 2844SOL    HW2 9432   5.866   5.301   1.043
 2845SOL     OW 9433   5.244   3.013   2.611
 2845SOL    HW1 9434   5.176   2.996   2.539
 2845SOL    HW2 9435   5.299   2.930   2.624
 2846SOL     OW 9436   3.251   0.533   0.657
 2846SOL    HW1 9437   3.186   0.484   0.598
 2846SOL    HW2 9438   3.233   0.510   0.752
 2847SOL     OW 9439   4.951   3.959   2.559
 2847SOL    HW1 9440   4.885   3.962   2.484
 2847SOL    HW2 9441   4.905   3.925   2.641
 2848SOL     OW 9442   2.660   2.576   5.747
 2848SOL    HW1 9443   2.663   2.631   5.663
 2848SOL    HW2 9444   2.607   2.625   5.816
 2849SOL     OW 9445   3.679   1.132   1.548
 2849SOL    HW1 9446   3.651   1.091   1.462
 2849SOL    HW2 9447   3.678   1.232   1.540
 2850SOL     OW 9448   2.311   6.977   3.289
 2850SOL    HW1 9449   2.302   6.916   3.367
 2850SOL    HW2 9450   2.372   6.936   3.221
 2851SOL     OW 9451   4.484   3.200   6.697
 2851SOL    HW1 9452   4.424   3.265   6.743
 2851SOL    HW2 9453   4.451   3.107   6.713
 2852SOL     OW 9454   6.260   4.164   0.399
 2852SOL    HW1 9455   6.248   4.263   0.396
 2852SOL    HW2 9456   6.290   4.137   0.491
 2853SOL     OW 9457   0.943   3.450   0.118
 2853SOL    HW1 9458   0.893   3.535   0.106
 2853SOL    HW2 9459   0.909   3.381   0.054
 2854SOL     OW 9460   3.538   0.774   6.193
 2854SOL    HW1 9461   3.453   0.737   6.156
 2854SOL    HW2 9462   3.607   0.701   6.196
 2855SOL     OW 9463   1.166   2.609   4.968
 2855SOL    HW1 9464   1.222   2.687   4.939
 2855SOL    HW2 9465   1.159   2.543   4.894
 2856SOL     OW 9466   1.491   3.074   4.197
 2856SOL    HW1 9467   1.536   3.004   4.141
 2856SOL    HW2 9468   1.492   3.046   4.293
 2857SOL     OW 9469   0.285   2.973   0.759
 2857SOL    HW1 9470   0.216   2.901   0.745
 2857SOL    HW2 9471   0.356   2.939   0.821
 2858SOL     OW 9472   5.157   6.307   2.124
 2858SOL    HW1 9473   5.256   6.318   2.132
 2858SOL    HW2 9474   5.111   6.366   2.190
 2859SOL     OW 9475   5.812   6.571   0.355
 2859SOL    HW1 9476   5.855   6.644   0.302
 2859SOL    HW2 9477   5.747   6.522   0.296
 2860SOL     OW 9478   2.006   6.800   2.320
 2860SOL    HW1 9479   1.966   6.891   2.328
 2860SOL    HW2 9480   2.098   6.807   2.281
 2861SOL     OW 9481   3.257   5.994   5.184
 2861SOL    HW1 9482   3.268   6.022   5.279
 2861SOL    HW2 9483   3.160   5.981   5.164
 2862SOL     OW 9484   4.298   2.453   1.886
 2862SOL    HW1 9485   4.383   2.417   1.924
 2862SOL    HW2 9486   4.310   2.549   1.861
 2863SOL     OW 9487   5.013   1.676   6.971
 2863SOL    HW1 9488   5.062   1.655   6.887
 2863SOL    HW2 9489   5.039   1.610   0.027
 2864SOL     OW 9490   4.722   2.796   0.854
 2864SOL    HW1 9491   4.746   2.826   0.947
 2864SOL    HW2 9492   4.650   2.726   0.860
 2865SOL     OW 9493   4.412   6.563   3.901
 2865SOL    HW1 9494   4.379   6.513   3.981
 2865SOL    HW2 9495   4.369   6.653   3.898
 2866SOL     OW 9496   5.793   3.740   0.232
 2866SOL    HW1 9497   5.847   3.689   0.300
 2866SOL    HW2 9498   5.759   3.676   0.163
 2867SOL     OW 9499   6.084   6.220   2.350
 2867SOL    HW1 9500   6.177   6.183   2.344
 2867SOL    HW2 9501   6.019   6.145   2.364
 2868SOL     OW 9502   1.451   1.401   5.432
 2868SOL    HW1 9503   1.423   1.306   5.426
 2868SOL    HW2 9504   1.378   1.456   5.473
 2869SOL     OW 9505   6.622   0.526   3.550
 2869SOL    HW1 9506   6.563   0.474   3.611
 2869SOL    HW2 9507   6.606   0.624   3.564
 2870SOL     OW 9508   0.366   1.981   6.476
 2870SOL    HW1 9509   0.295   2.051   6.462
 2870SOL    HW2 9510   0.363   1.948   6.570
 2871SOL     OW 9511   6.325   0.443   0.249
 2871SOL    HW1 9512   6.373   0.383   0.185
 2871SOL    HW2 9513   6.236   0.469   0.211
 2872SOL     OW 9514   2.782   1.749   0.946
 2872SOL    HW1 9515   2.774   1.848   0.960
 2872SOL    HW2 9516   2.820   1.732   0.855
 2873SOL     OW 9517   6.831   6.435   2.435
 2873SOL    HW1 9518   6.810   6.374   2.359
 2873SOL    HW2 9519   6.927   6.423   2.462
 2874SOL     OW 9520   3.955   6.541   3.324
 2874SOL    HW1 9521   4.049   6.507   3.327
 2874SOL    HW2 9522   3.896   6.474   3.278
 2875SOL     OW 9523   4.237   6.567   2.968
 2875SOL    HW1 9524   4.201   6.613   3.050
 2875SOL    HW2 9525   4.251   6.634   2.895
 2876SOL     OW 9526   1.263   6.774   2.591
 2876SOL    HW1 9527   1.308   6.697   2.547
 2876SOL    HW2 9528   1.256   6.850   2.527
 2877SOL     OW 9529   1.974   0.830   6.165
 2877SOL    HW1 9530   1.881   0.806   6.195
 2877SOL    HW2 9531   2.005   0.764   6.097
 2878SOL     OW 9532   3.221   3.671   5.091
 2878SOL    HW1 9533   3.208   3.578   5.058
 2878SOL    HW2 9534   3.242   3.670   5.188
 2879SOL     OW 9535   4.921   5.250   5.479
 2879SOL    HW1 9536   4.832   5.278   5.516
 2879SOL    HW2 9537   4.948   5.162   5.519
 2880SOL     OW 9538   6.945   1.843   3.774
 2880SOL    HW1 9539   6.997   1.883   3.699
 2880SOL    HW2 9540   6.886   1.771   3.738
 2881SOL     OW 9541   3.301   5.948   6.863
 2881SOL    HW1 9542   3.244   6.003   6.802
 2881SOL    HW2 9543   3.370   6.006   6.906
 2882SOL     OW 9544   6.643   6.034   1.184
 2882SOL    HW1 9545   6.648   6.078   1.095
 2882SOL    HW2 9546   6.550   6.039   1.220
 2883SOL     OW 9547   5.674   6.713   3.330
 2883SOL    HW1 9548   5.618   6.660   3.393
 2883SOL    HW2 9549   5.713   6.652   3.261
 2884SOL     OW 9550   6.819   5.818   2.479
 2884SOL    HW1 9551   6.914   5.847   2.469
 2884SOL    HW2 9552   6.759   5.884   2.434
 2885SOL     OW 9553   1.340   2.243   4.435
 2885SOL    HW1 9554   1.384   2.316   4.382
 2885SOL    HW2 9555   1.241   2.257   4.435
 2886SOL     OW 9556   2.101   4.198   6.206
 2886SOL    HW1 9557   2.158   4.273   6.240
 2886SOL    HW2 9558   2.057   4.152   6.283
 2887SOL     OW 9559   0.198   6.109   4.746
 2887SOL    HW1 9560   0.165   6.133   4.838
 2887SOL    HW2 9561   0.120   6.085   4.688
 2888SOL     OW 9562   0.407   4.925   6.922
 2888SOL    HW1 9563   0.438   4.857   6.988
 2888SOL    HW2 9564   0.443   4.903   6.831
 2889SOL     OW 9565   3.195   6.826   2.715
 2889SOL    HW1 9566   3.214   6.918   2.749
 2889SOL    HW2 9567   3.143   6.775   2.784
 2890SOL     OW 9568   1.852   5.923   0.997
 2890SOL    HW1 9569   1.869   5.888   0.905
 2890SOL    HW2 9570   1.927   5.983   1.025
 2891SOL     OW 9571   1.300   3.223   3.540
 2891SOL    HW1 9572   1.255   3.203   3.452
 2891SOL    HW2 9573   1.242   3.191   3.615
 2892SOL     OW 9574   5.640   2.982   1.593
 2892SOL    HW1 9575   5.624   3.027   1.681
 2892SOL    HW2 9576   5.596   3.033   1.520
 2893SOL     OW 9577   1.466   5.200   4.697
 2893SOL    HW1 9578   1.486   5.200   4.599
 2893SOL    HW2 9579   1.437   5.292   4.725
 2894SOL     OW 9580   1.556   3.806   1.527
 2894SOL    HW1 9581   1.491   3.866   1.573
 2894SOL    HW2 9582   1.648   3.823   1.561
 2895SOL     OW 9583   4.359   0.854   6.203
 2895SOL    HW1 9584   4.325   0.821   6.290
 2895SOL    HW2 9585   4.458   0.841   6.199
 2896SOL     OW 9586   4.148   0.310   5.368
 2896SOL    HW1 9587   4.225   0.258   5.331
 2896SOL    HW2 9588   4.066   0.253   5.367
 2897SOL     OW 9589   3.776   4.992   2.586
 2897SOL    HW1 9590   3.722   4.928   2.640
 2897SOL    HW2 9591   3.777   5.081   2.632
 2898SOL     OW 9592   5.094   4.123   3.871
 2898SOL    HW1 9593   5.117   4.037   3.916
 2898SOL    HW2 9594   4.995   4.129   3.859
 2899SOL     OW 9595   6.594   2.235   0.516
 2899SOL    HW1 9596   6.615   2.138   0.507
 2899SOL    HW2 9597   6.516   2.247   0.577
 2900SOL     OW 9598   3.834   4.586   6.483
 2900SOL    HW1 9599   3.913   4.536   6.519
 2900SOL    HW2 9600   3.754   4.568   6.539
 2901SOL     OW 9601   1.870   4.924   3.495
 2901SOL    HW1 9602   1.789   4.944   3.440
 2901SOL    HW2 9603   1.872   4.826   3.517
 2902SOL     OW 9604   6.557   5.005   3.696
 2902SOL    HW1 9605   6.496   5.002   3.617
 2902SOL    HW2 9606   6.609   5.091   3.695
 2903SOL     OW 9607   4.242   6.379   0.749
 2903SOL    HW1 9608   4.153   6.336   0.765
 2903SOL    HW2 9609   4.235   6.477   0.769
 2904SOL     OW 9610   3.257   5.221   5.199
 2904SOL    HW1 9611   3.175   5.165   5.211
 2904SOL    HW2 9612   3.291   5.249   5.289
 2905SOL     OW 9613   1.287   3.963   4.362
 2905SOL    HW1 9614   1.322   3.909   4.439
 2905SOL    HW2 9615   1.227   3.906   4.306
 2906SOL     OW 9616   5.352   6.082   2.490
 2906SOL    HW1 9617   5.436   6.075   2.545
 2906SOL    HW2 9618   5.360   6.159   2.428
 2907SOL     OW 9619   0.450   1.830   4.185
 2907SOL    HW1 9620   0.517   1.816   4.112
 2907SOL    HW2 9621   0.478   1.907   4.242
 2908SOL     OW 9622   5.454   6.515   3.168
 2908SOL    HW1 9623   5.535   6.473   3.209
 2908SOL    HW2 9624   5.427   6.595   3.221
 2909SOL     OW 9625   1.881   6.153   3.796
 2909SOL    HW1 9626   1.810   6.219   3.768
 2909SOL    HW2 9627   1.895   6.160   3.895
 2910SOL     OW 9628   6.977   0.749   3.492
 2910SOL    HW1 9629   6.880   0.773   3.487
 2910SOL    HW2 9630   7.001   0.729   3.587
 2911SOL     OW 9631   1.669   5.169   3.934
 2911SOL    HW1 9632   1.582   5.125   3.914
 2911SOL    HW2 9633   1.674   5.256   3.885
 2912SOL     OW 9634   6.101   6.531   6.694
 2912SOL    HW1 9635   6.069   6.543   6.788
 2912SOL    HW2 9636   6.149   6.613   6.664
 2913SOL     OW 9637   3.454   5.251   2.113
 2913SOL    HW1 9638   3.501   5.317   2.056
 2913SOL    HW2 9639   3.455   5.161   2.068
 2914SOL     OW 9640   6.023   6.184   0.891
 2914SOL    HW1 9641   6.066   6.185   0.801
 2914SOL    HW2 9642   5.965   6.102   0.899
 2915SOL     OW 9643   2.845   1.718   3.625
 2915SOL    HW1 9644   2.831   1.627   3.665
 2915SOL    HW2 9645   2.896   1.775   3.690
 2916SOL     OW 9646   1.638   5.305   0.153
 2916SOL    HW1 9647   1.727   5.260   0.152
 2916SOL    HW2 9648   1.642   5.390   0.101
 2917SOL     OW 9649   3.332   0.385   4.475
 2917SOL    HW1 9650   3.307   0.390   4.378
 2917SOL    HW2 9651   3.396   0.459   4.497
 2918SOL     OW 9652   5.836   3.878   6.096
 2918SOL    HW1 9653   5.912   3.848   6.038
 2918SOL    HW2 9654   5.749   3.854   6.052
 2919SOL     OW 9655   6.565   0.306   3.365
 2919SOL    HW1 9656   6.588   0.369   3.440
 2919SOL    HW2 9657   6.643   0.296   3.304
 2920SOL     OW 9658   3.662   0.040   1.380
 2920SOL    HW1 9659   3.595   0.092   1.326
 2920SOL    HW2 9660   3.754   0.068   1.356
 2921SOL     OW 9661   0.730   6.832   5.581
 2921SOL    HW1 9662   0.706   6.754   5.639
 2921SOL    HW2 9663   0.655   6.898   5.581
 2922SOL     OW 9664   4.209   5.871   1.428
 2922SOL    HW1 9665   4.184   5.962   1.460
 2922SOL    HW2 9666   4.174   5.858   1.335
 2923SOL     OW 9667   6.921   5.424   4.289
 2923SOL    HW1 9668   0.001   5.438   4.315
 2923SOL    HW2 9669   6.863   5.482   4.347
 2924SOL     OW 9670   0.232   2.444   4.447
 2924SOL    HW1 9671   0.277   2.363   4.484
 2924SOL    HW2 9672   0.254   2.523   4.504
 2925SOL     OW 9673   6.037   2.123   0.446
 2925SOL    HW1 9674   6.065   2.031   0.417
 2925SOL    HW2 9675   5.950   2.146   0.405
 2926SOL     OW 9676   6.011   2.171   6.391
 2926SOL    HW1 9677   6.081   2.240   6.373
 2926SOL    HW2 9678   6.048   2.102   6.453
 2927SOL     OW 9679   1.525   3.561   0.794
 2927SOL    HW1 9680   1.467   3.616   0.855
 2927SOL    HW2 9681   1.528   3.467   0.827
 2928SOL     OW 9682   6.514   1.160   0.036
 2928SOL    HW1 9683   6.573   1.148   6.972
 2928SOL    HW2 9684   6.418   1.152   0.009
 2929SOL     OW 9685   2.377   2.703   5.697
 2929SOL    HW1 9686   2.313   2.692   5.773
 2929SOL    HW2 9687   2.354   2.787   5.647
 2930SOL     OW 9688   5.248   6.426   4.944
 2930SOL    HW1 9689   5.344   6.454   4.951
 2930SOL    HW2 9690   5.191   6.486   5.001
 2931SOL     OW 9691   4.703   4.963   7.003
 2931SOL    HW1 9692   4.703   4.941   6.905
 2931SOL    HW2 9693   4.613   4.997   0.014
 2932SOL     OW 9694   0.674   5.899   1.739
 2932SOL    HW1 9695   0.677   5.870   1.835
 2932SOL    HW2 9696   0.589   5.950   1.723
 2933SOL     OW 9697   1.057   6.202   2.298
 2933SOL    HW1 9698   0.977   6.218   2.240
 2933SOL    HW2 9699   1.137   6.189   2.240
 2934SOL     OW 9700   5.219   2.803   0.722
 2934SOL    HW1 9701   5.134   2.765   0.758
 2934SOL    HW2 9702   5.208   2.901   0.706
 2935SOL     OW 9703   6.867   2.601   6.210
 2935SOL    HW1 9704   6.924   2.521   6.192
 2935SOL    HW2 9705   6.841   2.643   6.123
 2936SOL     OW 9706   3.935   6.233   0.745
 2936SOL    HW1 9707   3.971   6.145   0.715
 2936SOL    HW2 9708   3.837   6.224   0.767
 2937SOL     OW 9709   4.841   5.499   1.189
 2937SOL    HW1 9710   4.847   5.567   1.261
 2937SOL    HW2 9711   4.756   5.511   1.138
 2938SOL     OW 9712   6.446   5.082   0.501
 2938SOL    HW1 9713   6.475   5.085   0.406
 2938SOL    HW2 9714   6.487   5.159   0.551
 2939SOL     OW 9715   2.259   0.715   1.141
 2939SOL    HW1 9716   2.289   0.775   1.067
 2939SOL    HW2 9717   2.175   0.752   1.182
 2940SOL     OW 9718   5.809   5.334   5.438
 2940SOL    HW1 9719   5.862   5.387   5.504
 2940SOL    HW2 9720   5.712   5.341   5.459
 2941SOL     OW 9721   2.107   1.918   3.304
 2941SOL    HW1 9722   2.012   1.893   3.290
 2941SOL    HW2 9723   2.116   1.970   3.389
 2942SOL     OW 9724   3.908   2.234   0.880
 2942SOL    HW1 9725   3.984   2.297   0.896
 2942SOL    HW2 9726   3.940   2.158   0.823
 2943SOL     OW 9727   5.598   4.336   3.689
 2943SOL    HW1 9728   5.595   4.238   3.666
 2943SOL    HW2 9729   5.505   4.370   3.701
 2944SOL     OW 9730   2.465   6.270   3.901
 2944SOL    HW1 9731   2.491   6.185   3.854
 2944SOL    HW2 9732   2.394   6.249   3.969
 2945SOL     OW 9733   4.651   2.703   2.025
 2945SOL    HW1 9734   4.657   2.735   1.930
 2945SOL    HW2 9735   4.702   2.766   2.084
 2946SOL     OW 9736   2.176   4.297   5.865
 2946SOL    HW1 9737   2.190   4.322   5.769
 2946SOL    HW2 9738   2.163   4.198   5.871
 2947SOL     OW 9739   0.598   5.313   0.916
 2947SOL    HW1 9740   0.606   5.393   0.857
 2947SOL    HW2 9741   0.588   5.343   1.011
 2948SOL     OW 9742   6.667   4.484   4.480
 2948SOL    HW1 9743   6.766   4.487   4.495
 2948SOL    HW2 9744   6.644   4.404   4.424
 2949SOL     OW 9745   0.115   5.175   0.072
 2949SOL    HW1 9746   0.207   5.141   0.093
 2949SOL    HW2 9747   0.122   5.267   0.035
 2950SOL     OW 9748   5.910   6.372   4.005
 2950SOL    HW1 9749   5.904   6.428   3.922
 2950SOL    HW2 9750   6.006   6.352   4.025
 2951SOL     OW 9751   5.281   2.001   2.264
 2951SOL    HW1 9752   5.185   2.031   2.268
 2951SOL    HW2 9753   5.291   1.935   2.189
 2952SOL     OW 9754   0.347   6.587   5.656
 2952SOL    HW1 9755   0.379   6.607   5.564
 2952SOL    HW2 9756   0.409   6.629   5.722
 2953SOL     OW 9757   6.561   4.239   3.180
 2953SOL    HW1 9758   6.483   4.255   3.120
 2953SOL    HW2 9759   6.570   4.141   3.197
 2954SOL     OW 9760   6.950   4.464   0.519
 2954SOL    HW1 9761   7.002   4.537   0.474
 2954SOL    HW2 9762   6.995   4.439   0.605
 2955SOL     OW 9763   0.423   4.796   1.090
 2955SOL    HW1 9764   0.483   4.811   1.011
 2955SOL    HW2 9765   0.477   4.765   1.167
 2956SOL     OW 9766   6.167   5.544   3.494
 2956SOL    HW1 9767   6.144   5.451   3.464
 2956SOL    HW2 9768   6.181   5.602   3.414
 2957SOL     OW 9769   4.807   4.701   1.374
 2957SOL    HW1 9770   4.823   4.724   1.278
 2957SOL    HW2 9771   4.804   4.601   1.384
 2958SOL     OW 9772   2.129   4.475   3.248
 2958SOL    HW1 9773   2.103   4.473   3.345
 2958SOL    HW2 9774   2.066   4.420   3.195
 2959SOL     OW 9775   5.407   2.792   2.502
 2959SOL    HW1 9776   5.360   2.795   2.414
 2959SOL    HW2 9777   5.481   2.859   2.502
 2960SOL     OW 9778   3.412   6.852   6.420
 2960SOL    HW1 9779   3.491   6.901   6.384
 2960SOL    HW2 9780   3.411   6.759   6.383
 2961SOL     OW 9781   6.169   4.869   3.125
 2961SOL    HW1 9782   6.205   4.960   3.142
 2961SOL    HW2 9783   6.196   4.838   3.034
 2962SOL     OW 9784   4.980   6.347   3.577
 2962SOL    HW1 9785   4.882   6.359   3.568
 2962SOL    HW2 9786   4.999   6.258   3.621
 2963SOL     OW 9787   0.619   1.187   0.066
 2963SOL    HW1 9788   0.665   1.184   6.993
 2963SOL    HW2 9789   0.526   1.153   0.056
 2964SOL     OW 9790   0.849   1.797   6.007
 2964SOL    HW1 9791   0.817   1.863   5.939
 2964SOL    HW2 9792   0.810   1.707   5.988
 2965SOL     OW 9793   0.600   1.050   4.459
 2965SOL    HW1 9794   0.557   1.087   4.542
 2965SOL    HW2 9795   0.590   1.116   4.384
 2966SOL     OW 9796   4.867   5.881   3.630
 2966SOL    HW1 9797   4.787   5.936   3.654
 2966SOL    HW2 9798   4.847   5.828   3.547
 2967SOL     OW 9799   6.345   0.626   5.530
 2967SOL    HW1 9800   6.259   0.576   5.522
 2967SOL    HW2 9801   6.420   0.568   5.498
 2968SOL     OW 9802   0.643   2.470   0.650
 2968SOL    HW1 9803   0.720   2.494   0.709
 2968SOL    HW2 9804   0.614   2.376   0.669
 2969SOL     OW 9805   4.763   2.600   3.987
 2969SOL    HW1 9806   4.783   2.506   4.017
 2969SOL    HW2 9807   4.754   2.602   3.888
 2970SOL     OW 9808   2.527   3.269   5.336
 2970SOL    HW1 9809   2.514   3.181   5.290
 2970SOL    HW2 9810   2.442   3.321   5.335
 2971SOL     OW 9811   5.355   3.863   0.649
 2971SOL    HW1 9812   5.265   3.901   0.626
 2971SOL    HW2 9813   5.376   3.787   0.587
 2972SOL     OW 9814   5.940   5.390   6.469
 2972SOL    HW1 9815   5.890   5.303   6.464
 2972SOL    HW2 9816   5.992   5.394   6.554
 2973SOL     OW 9817   4.962   6.722   1.839
 2973SOL    HW1 9818   4.912   6.641   1.872
 2973SOL    HW2 9819   4.942   6.736   1.743
 2974SOL     OW 9820   6.767   4.456   3.888
 2974SOL    HW1 9821   6.816   4.376   3.923
 2974SOL    HW2 9822   6.798   4.538   3.935
 2975SOL     OW 9823   5.503   4.386   4.171
 2975SOL    HW1 9824   5.424   4.332   4.140
 2975SOL    HW2 9825   5.551   4.422   4.092
 2976SOL     OW 9826   5.344   1.817   2.635
 2976SOL    HW1 9827   5.309   1.821   2.729
 2976SOL    HW2 9828   5.267   1.818   2.571
 2977SOL     OW 9829   0.602   0.920   2.601
 2977SOL    HW1 9830   0.583   0.992   2.534
 2977SOL    HW2 9831   0.638   0.839   2.555
 2978SOL     OW 9832   3.956   4.666   0.311
 2978SOL    HW1 9833   3.857   4.677   0.324
 2978SOL    HW2 9834   3.973   4.584   0.255
 2979SOL     OW 9835   3.389   1.828   4.143
 2979SOL    HW1 9836   3.481   1.820   4.183
 2979SOL    HW2 9837   3.340   1.902   4.190
 2980SOL     OW 9838   2.016   5.594   6.007
 2980SOL    HW1 9839   2.052   5.502   5.989
 2980SOL    HW2 9840   1.929   5.587   6.056
 2981SOL     OW 9841   1.976   1.167   0.446
 2981SOL    HW1 9842   2.056   1.173   0.506
 2981SOL    HW2 9843   1.915   1.096   0.479
 2982SOL     OW 9844   2.307   6.283   1.318
 2982SOL    HW1 9845   2.367   6.290   1.238
 2982SOL    HW2 9846   2.333   6.351   1.385
 2983SOL     OW 9847   6.539   2.185   1.571
 2983SOL    HW1 9848   6.504   2.223   1.657
 2983SOL    HW2 9849   6.622   2.133   1.590
 2984SOL     OW 9850   5.396   5.392   6.646
 2984SOL    HW1 9851   5.381   5.487   6.671
 2984SOL    HW2 9852   5.421   5.339   6.727
 2985SOL     OW 9853   1.761   1.743   4.443
 2985SOL    HW1 9854   1.839   1.805   4.451
 2985SOL    HW2 9855   1.766   1.695   4.355
 2986SOL     OW 9856   3.500   3.906   2.504
 2986SOL    HW1 9857   3.404   3.878   2.508
 2986SOL    HW2 9858   3.558   3.832   2.538
 2987SOL     OW 9859   1.565   1.343   4.552
 2987SOL    HW1 9860   1.474   1.300   4.547
 2987SOL    HW2 9861   1.599   1.337   4.646
 2988SOL     OW 9862   1.542   6.777   2.313
 2988SOL    HW1 9863   1.586   6.834   2.383
 2988SOL    HW2 9864   1.452   6.814   2.292
 2989SOL     OW 9865   5.275   4.445   5.350
 2989SOL    HW1 9866   5.177   4.424   5.357
 2989SOL    HW2 9867   5.326   4.361   5.333
 2990SOL     OW 9868   4.580   2.125   4.254
 2990SOL    HW1 9869   4.528   2.127   4.339
 2990SOL    HW2 9870   4.538   2.060   4.191
 2991SOL     OW 9871   6.299   2.938   6.189
 2991SOL    HW1 9872   6.343   2.851   6.167
 2991SOL    HW2 9873   6.368   3.007   6.210
 2992SOL     OW 9874   1.855   5.001   4.695
 2992SOL    HW1 9875   1.768   5.047   4.714
 2992SOL    HW2 9876   1.912   5.061   4.639
 2993SOL     OW 9877   0.535   4.869   0.852
 2993SOL    HW1 9878   0.446   4.892   0.814
 2993SOL    HW2 9879   0.600   4.942   0.830
 2994SOL     OW 9880   4.015   6.012   0.626
 2994SOL    HW1 9881   3.927   5.966   0.618
 2994SOL    HW2 9882   4.060   6.013   0.536
 2995SOL     OW 9883   4.000   0.719   6.897
 2995SOL    HW1 9884   3.903   0.708   6.878
 2995SOL    HW2 9885   4.032   0.640   6.951
 2996SOL     OW 9886   0.642   2.158   5.226
 2996SOL    HW1 9887   0.646   2.154   5.126
 2996SOL    HW2 9888   0.627   2.252   5.256
 2997SOL     OW 9889   5.302   0.197   3.224
 2997SOL    HW1 9890   5.365   0.165   3.154
 2997SOL    HW2 9891   5.310   0.297   3.233
 2998SOL     OW 9892   4.854   6.506   3.306
 2998SOL    HW1 9893   4.799   6.484   3.387
 2998SOL    HW2 9894   4.874   6.604   3.305
 2999SOL     OW 9895   2.415   5.405   5.752
 2999SOL    HW1 9896   2.362   5.322   5.735
 2999SOL    HW2 9897   2.471   5.426   5.672
 3000SOL     OW 9898   2.826   3.921   6.527
 3000SOL    HW1 9899   2.908   3.865   6.531
 3000SOL    HW2 9900   2.799   3.933   6.431
 3001SOL     OW 9901   6.247   1.470   6.957
 3001SOL    HW1 9902   6.323   1.533   6.945
 3001SOL    HW2 9903   6.170   1.499   6.900
 3002SOL     OW 9904   3.175   2.412   0.442
 3002SOL    HW1 9905   3.147   2.366   0.526
 3002SOL    HW2 9906   3.274   2.428   0.443
 3003SOL     OW 9907   0.932   6.687   1.029
 3003SOL    HW1 9908   0.975   6.673   1.118
 3003SOL    HW2 9909   0.995   6.659   0.956
 3004SOL     OW 9910   1.319   4.551   2.701
 3004SOL    HW1 9911   1.391   4.485   2.722
 3004SOL    HW2 9912   1.288   4.538   2.607
 3005SOL     OW 9913   1.447   3.028   6.655
 3005SOL    HW1 9914   1.492   3.078   6.581
 3005SOL    HW2 9915   1.350   3.018   6.634
 3006SOL     OW 9916   5.483   1.833   4.943
 3006SOL    HW1 9917   5.583   1.831   4.946
 3006SOL    HW2 9918   5.447   1.839   5.036
 3007SOL     OW 9919   4.739   4.660   0.867
 3007SOL    HW1 9920   4.777   4.701   0.950
 3007SOL    HW2 9921   4.682   4.728   0.820
 3008SOL     OW 9922   2.947   2.398   6.110
 3008SOL    HW1 9923   3.044   2.403   6.132
 3008SOL    HW2 9924   2.934   2.414   6.012
 3009SOL     OW 9925   6.907   3.310   2.465
 3009SOL    HW1 9926   6.869   3.271   2.549
 3009SOL    HW2 9927   6.889   3.248   2.388
 3010SOL     OW 9928   2.969   5.694   3.779
 3010SOL    HW1 9929   2.894   5.717   3.841
 3010SOL    HW2 9930   2.972   5.594   3.767
 3011SOL     OW 9931   6.254   1.174   2.062
 3011SOL    HW1 9932   6.351   1.175   2.036
 3011SOL    HW2 9933   6.199   1.154   1.981
 3012SOL     OW 9934   2.682   2.922   0.106
 3012SOL    HW1 9935   2.760   2.981   0.082
 3012SOL    HW2 9936   2.607   2.940   0.043
 3013SOL     OW 9937   5.830   4.972   3.613
 3013SOL    HW1 9938   5.887   4.904   3.660
 3013SOL    HW2 9939   5.759   4.925   3.560
 3014SOL     OW 9940   5.194   2.214   5.988
 3014SOL    HW1 9941   5.160   2.304   5.961
 3014SOL    HW2 9942   5.123   2.166   6.040
 3015SOL     OW 9943   1.558   2.007   0.406
 3015SOL    HW1 9944   1.625   1.953   0.354
 3015SOL    HW2 9945   1.606   2.064   0.473
 3016SOL     OW 9946   3.242   6.977   4.274
 3016SOL    HW1 9947   3.231   6.913   4.350
 3016SOL    HW2 9948   3.331   6.963   4.231
 3017SOL     OW 9949   5.422   5.811   2.506
 3017SOL    HW1 9950   5.450   5.827   2.601
 3017SOL    HW2 9951   5.383   5.894   2.468
 3018SOL     OW 9952   3.355   0.276   6.458
 3018SOL    HW1 9953   3.342   0.248   6.553
 3018SOL    HW2 9954   3.315   0.367   6.445
 3019SOL     OW 9955   0.761   0.245   6.583
 3019SOL    HW1 9956   0.690   0.293   6.633
 3019SOL    HW2 9957   0.834   0.218   6.646
 3020SOL     OW 9958   3.720   2.890   0.815
 3020SOL    HW1 9959   3.751   2.983   0.835
 3020SOL    HW2 9960   3.729   2.872   0.717
 3021SOL     OW 9961   2.493   0.311   4.361
 3021SOL    HW1 9962   2.486   0.368   4.280
 3021SOL    HW2 9963   2.497   0.370   4.442
 3022SOL     OW 9964   4.281   5.135   5.074
 3022SOL    HW1 9965   4.317   5.203   5.139
 3022SOL    HW2 9966   4.201   5.090   5.114
 3023SOL     OW 9967   4.243   6.778   3.421
 3023SOL    HW1 9968   4.184   6.768   3.341
 3023SOL    HW2 9969   4.323   6.719   3.411
 3024SOL     OW 9970   5.982   6.245   4.884
 3024SOL    HW1 9971   6.046   6.319   4.904
 3024SOL    HW2 9972   5.890   6.271   4.916
 3025SOL     OW 9973   3.858   5.855   1.563
 3025SOL    HW1 9974   3.831   5.911   1.484
 3025SOL    HW2 9975   3.781   5.850   1.627
 3026SOL     OW 9976   0.333   1.262   6.169
 3026SOL    HW1 9977   0.367   1.197   6.101
 3026SOL    HW2 9978   0.236   1.243   6.187
 3027SOL     OW 9979   3.700   1.684   2.302
 3027SOL    HW1 9980   3.788   1.661   2.344
 3027SOL    HW2 9981   3.715   1.715   2.208
 3028SOL     OW 9982   1.287   4.198   6.077
 3028SOL    HW1 9983   1.316   4.245   6.160
 3028SOL    HW2 9984   1.361   4.138   6.045
 3029SOL     OW 9985   1.270   3.100   4.048
 3029SOL    HW1 9986   1.206   3.083   4.123
 3029SOL    HW2 9987   1.360   3.122   4.085
 3030SOL     OW 9988   1.651   4.013   0.933
 3030SOL    HW1 9989   1.700   3.999   0.847
 3030SOL    HW2 9990   1.615   4.106   0.936
 3031SOL     OW 9991   0.129   4.912   1.138
 3031SOL    HW1 9992   0.195   4.926   1.064
 3031SOL    HW2 9993   0.053   4.856   1.105
 3032SOL     OW 9994   2.364   0.022   1.270
 3032SOL    HW1 9995   2.324   6.957   1.228
 3032SOL    HW2 9996   2.308   0.102   1.249
 3033SOL     OW 9997   6.252   1.056   2.340
 3033SOL    HW1 9998   6.224   0.964   2.313
 3033SOL    HW2 9999   6.238   1.119   2.264
 3034SOL     OW10000   0.795   6.346   3.341
 3034SOL    HW110001   0.755   6.426   3.385
 3034SOL    HW210002   0.760   6.338   3.248
 3035SOL     OW10003   0.994   3.448   6.016
 3035SOL    HW110004   0.910   3.489   5.981
 3035SOL    HW210005   1.070   3.511   6.000
 3036SOL     OW10006   1.527   1.831   5.687
 3036SOL    HW110007   1.528   1.758   5.755
 3036SOL    HW210008   1.576   1.801   5.605
 3037SOL     OW10009   6.327   5.028   5.888
 3037SOL    HW110010   6.362   5.081   5.811
 3037SOL    HW210011   6.395   4.959   5.915
 3038SOL     OW10012   4.818   4.336   5.595
 3038SOL    HW110013   4.780   4.253   5.553
 3038SOL    HW210014   4.883   4.378   5.532
 3039SOL     OW10015   0.453   3.066   0.357
 3039SOL    HW110016   0.446   3.145   0.297
 3039SOL    HW210017   0.546   3.059   0.393
 3040SOL     OW10018   3.278   4.954   5.600
 3040SOL    HW110019   3.353   5.011   5.635
 3040SOL    HW210020   3.194   4.974   5.650
 3041SOL     OW10021   1.194   4.621   5.971
 3041SOL    HW110022   1.198   4.721   5.968
 3041SOL    HW210023   1.284   4.585   5.997
 3042SOL     OW10024   5.996   6.205   3.071
 3042SOL    HW110025   5.906   6.162   3.075
 3042SOL    HW210026   5.987   6.299   3.039
 3043SOL     OW10027   2.789   3.957   1.682
 3043SOL    HW110028   2.770   3.871   1.728
 3043SOL    HW210029   2.802   3.940   1.584
 3044SOL     OW10030   3.184   5.666   5.626
 3044SOL    HW110031   3.266   5.696   5.577
 3044SOL    HW210032   3.116   5.739   5.624
 3045SOL     OW10033   5.278   6.547   2.932
 3045SOL    HW110034   5.296   6.549   3.030
 3045SOL    HW210035   5.203   6.484   2.913
 3046SOL     OW10036   3.350   0.252   6.728
 3046SOL    HW110037   3.278   0.249   6.797
 3046SOL    HW210038   3.434   0.212   6.766
 3047SOL     OW10039   6.016   6.927   1.249
 3047SOL    HW110040   5.918   6.909   1.239
 3047SOL    HW210041   6.044   6.996   1.182
 3048SOL     OW10042   4.779   2.447   0.687
 3048SOL    HW110043   4.775   2.482   0.780
 3048SOL    HW210044   4.858   2.387   0.677
 3049SOL     OW10045   1.879   0.228   3.477
 3049SOL    HW110046   1.966   0.264   3.510
 3049SOL    HW210047   1.848   0.283   3.398
 3050SOL     OW10048   3.047   1.925   1.482
 3050SOL    HW110049   2.988   2.005   1.499
 3050SOL    HW210050   3.096   1.902   1.566
 3051SOL     OW10051   1.995   6.438   6.508
 3051SOL    HW110052   1.992   6.537   6.525
 3051SOL    HW210053   2.079   6.400   6.547
 3052SOL     OW10054   4.801   5.843   1.944
 3052SOL    HW110055   4.877   5.902   1.973
 3052SOL    HW210056   4.793   5.767   2.008
 3053SOL     OW10057   6.997   3.581   1.421
 3053SOL    HW110058   0.072   3.539   1.412
 3053SOL    HW210059   6.987   3.618   1.513
 3054SOL     OW10060   5.739   1.664   1.902
 3054SOL    HW110061   5.736   1.755   1.944
 3054SOL    HW210062   5.689   1.665   1.816
 3055SOL     OW10063   5.184   0.336   5.113
 3055SOL    HW110064   5.165   0.256   5.171
 3055SOL    HW210065   5.123   0.336   5.035
 3056SOL     OW10066   6.952   0.936   5.491
 3056SOL    HW110067   6.982   0.919   5.397
 3056SOL    HW210068   0.010   0.913   5.554
 3057SOL     OW10069   4.906   5.466   4.498
 3057SOL    HW110070   4.950   5.554   4.513
 3057SOL    HW210071   4.976   5.395   4.484
 3058SOL     OW10072   6.204   4.613   0.761
 3058SOL    HW110073   6.133   4.673   0.798
 3058SOL    HW210074   6.243   4.655   0.679
 3059SOL     OW10075   2.572   1.452   3.541
 3059SOL    HW110076   2.584   1.551   3.547
 3059SOL    HW210077   2.535   1.429   3.451
 3060SOL     OW10078   2.141   5.112   0.211
 3060SOL    HW110079   2.170   5.123   0.307
 3060SOL    HW210080   2.215   5.140   0.151
 3061SOL     OW10081   5.849   5.982   5.525
 3061SOL    HW110082   5.754   5.960   5.547
 3061SOL    HW210083   5.905   5.977   5.608
 3062SOL     OW10084   1.903   6.453   0.877
 3062SOL    HW110085   1.947   6.543   0.876
 3062SOL    HW210086   1.829   6.453   0.945
 3063SOL     OW10087   1.732   4.608   1.471
 3063SOL    HW110088   1.669   4.663   1.526
 3063SOL    HW210089   1.692   4.518   1.455
 3064SOL     OW10090   4.702   3.628   0.406
 3064SOL    HW110091   4.794   3.605   0.375
 3064SOL    HW210092   4.707   3.667   0.498
 3065SOL     OW10093   0.926   2.019   6.665
 3065SOL    HW110094   0.878   2.013   6.577
 3065SOL    HW210095   0.931   2.115   6.693
 3066SOL     OW10096   5.332   5.199   0.448
 3066SOL    HW110097   5.275   5.168   0.371
 3066SOL    HW210098   5.374   5.120   0.492
 3067SOL     OW10099   3.023   0.891   0.175
 3067SOL    HW110100   2.982   0.904   0.265
 3067SOL    HW210101   2.965   0.830   0.121
 3068SOL     OW10102   0.127   6.619   1.732
 3068SOL    HW110103   0.083   6.661   1.811
 3068SOL    HW210104   0.134   6.686   1.658
 3069SOL     OW10105   6.411   6.416   2.886
 3069SOL    HW110106   6.503   6.454   2.876
 3069SOL    HW210107   6.348   6.465   2.826
 3070SOL     OW10108   2.510   0.886   6.776
 3070SOL    HW110109   2.428   0.839   6.809
 3070SOL    HW210110   2.575   0.895   6.851
 3071SOL     OW10111   6.387   6.136   3.654
 3071SOL    HW110112   6.355   6.230   3.665
 3071SOL    HW210113   6.476   6.126   3.698
 3072SOL     OW10114   2.336   5.601   6.270
 3072SOL    HW110115   2.355   5.676   6.207
 3072SOL    HW210116   2.240   5.604   6.297
 3073SOL     OW10117   6.986   4.285   2.589
 3073SOL    HW110118   6.899   4.242   2.563
 3073SOL    HW210119   6.968   4.377   2.625
 3074SOL     OW10120   0.347   4.581   0.915
 3074SOL    HW110121   0.301   4.519   0.978
 3074SOL    HW210122   0.332   4.676   0.944
 3075SOL     OW10123   2.840   5.394   3.442
 3075SOL    HW110124   2.928   5.369   3.401
 3075SOL    HW210125   2.845   5.487   3.478
 3076SOL     OW10126   6.595   1.909   4.154
 3076SOL    HW110127   6.688   1.881   4.129
 3076SOL    HW210128   6.571   1.992   4.104
 3077SOL     OW10129   5.774   4.307   1.882
 3077SOL    HW110130   5.811   4.230   1.830
 3077SOL    HW210131   5.714   4.273   1.955
 3078SOL     OW10132   6.745   3.260   2.701
 3078SOL    HW110133   6.672   3.316   2.741
 3078SOL    HW210134   6.834   3.293   2.733
 3079SOL     OW10135   2.815   2.154   3.167
 3079SOL    HW110136   2.845   2.069   3.209
 3079SOL    HW210137   2.856   2.163   3.077
 3080SOL     OW10138   5.901   4.537   2.106
 3080SOL    HW110139   5.828   4.532   2.174
 3080SOL    HW210140   5.890   4.620   2.051
 3081SOL     OW10141   0.352   4.575   5.762
 3081SOL    HW110142   0.390   4.486   5.738
 3081SOL    HW210143   0.320   4.621   5.679
 3082SOL     OW10144   1.546   5.704   4.079
 3082SOL    HW110145   1.629   5.742   4.119
 3082SOL    HW210146   1.476   5.694   4.150
 3083SOL     OW10147   3.178   6.435   3.225
 3083SOL    HW110148   3.146   6.347   3.190
 3083SOL    HW210149   3.127   6.458   3.308
 3084SOL     OW10150   6.602   4.712   3.410
 3084SOL    HW110151   6.674   4.743   3.348
 3084SOL    HW210152   6.613   4.756   3.499
 3085SOL     OW10153   5.848   4.653   0.547
 3085SOL    HW110154   5.942   4.621   0.535
 3085SOL    HW210155   5.785   4.577   0.536
 3086SOL     OW10156   5.024   1.307   6.835
 3086SOL    HW110157   4.967   1.225   6.837
 3086SOL    HW210158   5.086   1.308   6.914
 3087SOL     OW10159   2.659   6.710   3.381
 3087SOL    HW110160   2.559   6.707   3.385
 3087SOL    HW210161   2.693   6.784   3.439
 3088SOL     OW10162   1.918   3.377   5.129
 3088SOL    HW110163   1.876   3.365   5.039
 3088SOL    HW210164   2.003   3.324   5.133
 3089SOL     OW10165   4.273   2.326   4.617
 3089SOL    HW110166   4.327   2.276   4.550
 3089SOL    HW210167   4.324   2.407   4.647
 3090SOL     OW10168   2.311   0.925   2.011
 3090SOL    HW110169   2.256   0.867   1.951
 3090SOL    HW210170   2.408   0.909   1.992
 3091SOL     OW10171   1.306   1.099   0.732
 3091SOL    HW110172   1.314   1.198   0.744
 3091SOL    HW210173   1.209   1.074   0.728
 3092SOL     OW10174   5.490   0.048   0.859
 3092SOL    HW110175   5.526   0.089   0.776
 3092SOL    HW210176   5.435   6.983   0.836
 3093SOL     OW10177   5.451   5.881   6.321
 3093SOL    HW110178   5.462   5.911   6.416
 3093SOL    HW210179   5.356   5.894   6.293
 3094SOL     OW10180   2.747   0.084   3.998
 3094SOL    HW110181   2.697   7.015   3.981
 3094SOL    HW210182   2.766   0.129   3.911
 3095SOL     OW10183   2.396   3.583   5.544
 3095SOL    HW110184   2.453   3.585   5.626
 3095SOL    HW210185   2.425   3.656   5.482
 3096SOL     OW10186   1.100   5.069   5.480
 3096SOL    HW110187   1.090   4.971   5.495
 3096SOL    HW210188   1.014   5.115   5.503
 3097SOL     OW10189   5.428   3.207   6.918
 3097SOL    HW110190   5.392   3.211   6.825
 3097SOL    HW210191   5.456   3.299   6.947
 3098SOL     OW10192   1.618   3.502   1.549
 3098SOL    HW110193   1.578   3.592   1.532
 3098SOL    HW210194   1.546   3.436   1.566
 3099SOL     OW10195   0.998   6.065   3.864
 3099SOL    HW110196   0.952   6.058   3.953
 3099SOL    HW210197   0.979   6.154   3.823
 3100SOL     OW10198   6.180   6.363   3.770
 3100SOL    HW110199   6.190   6.389   3.674
 3100SOL    HW210200   6.100   6.304   3.780
 3101SOL     OW10201   4.868   5.737   6.146
 3101SOL    HW110202   4.898   5.653   6.191
 3101SOL    HW210203   4.844   5.805   6.215
 3102SOL     OW10204   6.665   6.848   1.435
 3102SOL    HW110205   6.640   6.780   1.365
 3102SOL    HW210206   6.759   6.831   1.465
 3103SOL     OW10207   4.272   1.205   0.928
 3103SOL    HW110208   4.330   1.215   0.847
 3103SOL    HW210209   4.200   1.138   0.910
 3104SOL     OW10210   3.812   0.641   5.738
 3104SOL    HW110211   3.777   0.733   5.753
 3104SOL    HW210212   3.873   0.616   5.814
 3105SOL     OW10213   4.816   3.485   1.444
 3105SOL    HW110214   4.735   3.535   1.414
 3105SOL    HW210215   4.898   3.531   1.412
 3106SOL     OW10216   5.039   6.539   5.071
 3106SOL    HW110217   5.062   6.634   5.050
 3106SOL    HW210218   4.968   6.507   5.008
 3107SOL     OW10219   3.995   1.099   5.126
 3107SOL    HW110220   3.976   1.025   5.062
 3107SOL    HW210221   4.024   1.061   5.214
 3108SOL     OW10222   2.147   5.149   4.790
 3108SOL    HW110223   2.121   5.155   4.886
 3108SOL    HW210224   2.109   5.228   4.741
 3109SOL     OW10225   6.075   0.008   4.127
 3109SOL    HW110226   6.096   6.934   4.090
 3109SOL    HW210227   6.093   0.078   4.057
 3110SOL     OW10228   1.599   4.242   3.351
 3110SOL    HW110229   1.635   4.330   3.319
 3110SOL    HW210230   1.656   4.168   3.315
 3111SOL     OW10231   0.035   4.828   3.371
 3111SOL    HW110232   7.010   4.904   3.421
 3111SOL    HW210233   0.109   4.862   3.313
 3112SOL     OW10234   2.857   3.198   1.045
 3112SOL    HW110235   2.897   3.128   0.986
 3112SOL    HW210236   2.778   3.160   1.093
 3113SOL     OW10237   3.339   6.106   2.712
 3113SOL    HW110238   3.424   6.054   2.708
 3113SOL    HW210239   3.360   6.203   2.720
 3114SOL     OW10240   3.529   2.059   0.334
 3114SOL    HW110241   3.533   1.967   0.295
 3114SOL    HW210242   3.474   2.118   0.274
 3115SOL     OW10243   4.041   4.734   5.834
 3115SOL    HW110244   4.008   4.641   5.821
 3115SOL    HW210245   4.117   4.734   5.899
 3116SOL     OW10246   6.812   2.088   0.252
 3116SOL    HW110247   6.775   2.082   0.345
 3116SOL    HW210248   6.738   2.080   0.186
 3117SOL     OW10249   4.312   3.569   5.598
 3117SOL    HW110250   4.306   3.469   5.604
 3117SOL    HW210251   4.315   3.596   5.502
 3118SOL     OW10252   0.650   5.442   2.661
 3118SOL    HW110253   0.671   5.538   2.642
 3118SOL    HW210254   0.554   5.424   2.641
 3119SOL     OW10255   2.339   2.350   6.764
 3119SOL    HW110256   2.413   2.283   6.757
 3119SOL    HW210257   2.362   2.431   6.710
 3120SOL     OW10258   2.470   0.452   5.621
 3120SOL    HW110259   2.409   0.379   5.651
 3120SOL    HW210260   2.471   0.525   5.689
 3121SOL     OW10261   5.749   1.553   4.580
 3121SOL    HW110262   5.703   1.569   4.493
 3121SOL    HW210263   5.848   1.550   4.567
 3122SOL     OW10264   4.873   5.021   4.942
 3122SOL    HW110265   4.836   4.999   5.032
 3122SOL    HW210266   4.944   5.091   4.951
 3123SOL     OW10267   2.004   1.449   2.811
 3123SOL    HW110268   2.012   1.518   2.883
 3123SOL    HW210269   1.914   1.455   2.769
 3124SOL     OW10270   4.424   0.317   4.272
 3124SOL    HW110271   4.377   0.405   4.272
 3124SOL    HW210272   4.448   0.292   4.178
 3125SOL     OW10273   1.565   3.055   5.009
 3125SOL    HW110274   1.592   3.140   5.053
 3125SOL    HW210275   1.477   3.067   4.962
 3126SOL     OW10276   5.389   4.584   5.137
 3126SOL    HW110277   5.476   4.615   5.175
 3126SOL    HW210278   5.335   4.539   5.209
 3127SOL     OW10279   2.241   1.999   6.409
 3127SOL    HW110280   2.209   2.091   6.386
 3127SOL    HW210281   2.268   1.952   6.325
 3128SOL     OW10282   3.574   1.178   0.458
 3128SOL    HW110283   3.576   1.108   0.530
 3128SOL    HW210284   3.527   1.142   0.377
 3129SOL     OW10285   5.687   3.427   0.665
 3129SOL    HW110286   5.786   3.435   0.681
 3129SOL    HW210287   5.665   3.332   0.642
 3130SOL     OW10288   2.289   4.246   1.986
 3130SOL    HW110289   2.378   4.289   1.972
 3130SOL    HW210290   2.242   4.236   1.899
 3131SOL     OW10291   0.907   3.857   2.128
 3131SOL    HW110292   0.837   3.891   2.066
 3131SOL    HW210293   0.866   3.799   2.198
 3132SOL     OW10294   4.904   5.247   6.898
 3132SOL    HW110295   4.845   5.264   6.976
 3132SOL    HW210296   4.990   5.296   6.909
 3133SOL     OW10297   3.762   0.876   3.259
 3133SOL    HW110298   3.704   0.932   3.318
 3133SOL    HW210299   3.708   0.837   3.185
 3134SOL     OW10300   4.347   4.861   0.635
 3134SOL    HW110301   4.380   4.887   0.544
 3134SOL    HW210302   4.334   4.762   0.640
 3135SOL     OW10303   5.105   0.380   5.711
 3135SOL    HW110304   5.017   0.427   5.709
 3135SOL    HW210305   5.134   0.360   5.618
 3136SOL     OW10306   5.735   6.894   2.484
 3136SOL    HW110307   5.756   6.811   2.433
 3136SOL    HW210308   5.639   6.919   2.469
 3137SOL     OW10309   6.920   6.402   3.792
 3137SOL    HW110310   6.897   6.358   3.705
 3137SOL    HW210311   6.940   6.499   3.775
 3138SOL     OW10312   5.657   5.562   3.412
 3138SOL    HW110313   5.620   5.480   3.454
 3138SOL    HW210314   5.642   5.559   3.313
 3139SOL     OW10315   3.439   5.054   1.253
 3139SOL    HW110316   3.357   4.997   1.262
 3139SOL    HW210317   3.505   5.028   1.323
 3140SOL     OW10318   6.280   6.177   5.732
 3140SOL    HW110319   6.244   6.083   5.729
 3140SOL    HW210320   6.244   6.228   5.654
 3141SOL     OW10321   0.413   6.927   6.442
 3141SOL    HW110322   0.440   6.857   6.508
 3141SOL    HW210323   0.486   6.996   6.436
 3142SOL     OW10324   2.776   0.205   2.706
 3142SOL    HW110325   2.715   0.257   2.647
 3142SOL    HW210326   2.785   0.251   2.794
 3143SOL     OW10327   6.080   1.300   0.298
 3143SOL    HW110328   6.165   1.246   0.298
 3143SOL    HW210329   6.053   1.319   0.204
 3144SOL     OW10330   4.412   3.676   1.022
 3144SOL    HW110331   4.389   3.669   0.925
 3144SOL    HW210332   4.452   3.766   1.040
 3145SOL     OW10333   1.598   6.525   2.253
 3145SOL    HW110334   1.576   6.622   2.267
 3145SOL    HW210335   1.692   6.509   2.284
 3146SOL     OW10336   1.082   1.259   4.414
 3146SOL    HW110337   1.015   1.193   4.447
 3146SOL    HW210338   1.053   1.292   4.324
 3147SOL     OW10339   2.935   4.997   0.112
 3147SOL    HW110340   2.888   5.000   0.024
 3147SOL    HW210341   2.890   4.931   0.172
 3148SOL     OW10342   6.882   6.811   3.949
 3148SOL    HW110343   6.979   6.795   3.966
 3148SOL    HW210344   6.851   6.752   3.875
 3149SOL     OW10345   2.967   1.309   6.757
 3149SOL    HW110346   2.986   1.251   6.678
 3149SOL    HW210347   2.926   1.253   6.830
 3150SOL     OW10348   7.010   5.816   5.029
 3150SOL    HW110349   0.073   5.842   5.085
 3150SOL    HW210350   6.940   5.774   5.087
 3151SOL     OW10351   0.674   1.459   5.212
 3151SOL    HW110352   0.605   1.483   5.280
 3151SOL    HW210353   0.748   1.526   5.214
 3152SOL     OW10354   0.813   4.516   0.508
 3152SOL    HW110355   0.888   4.511   0.574
 3152SOL    HW210356   0.745   4.582   0.540
 3153SOL     OW10357   6.403   5.855   0.798
 3153SOL    HW110358   6.333   5.790   0.770
 3153SOL    HW210359   6.476   5.859   0.730
 3154SOL     OW10360   6.805   1.708   0.233
 3154SOL    HW110361   6.735   1.773   0.263
 3154SOL    HW210362   6.863   1.750   0.164
 3155SOL     OW10363   6.452   4.799   0.344
 3155SOL    HW110364   6.522   4.740   0.306
 3155SOL    HW210365   6.487   4.846   0.425
 3156SOL     OW10366   2.843   3.467   2.198
 3156SOL    HW110367   2.822   3.370   2.184
 3156SOL    HW210368   2.916   3.475   2.266
 3157SOL     OW10369   1.604   1.744   5.422
 3157SOL    HW110370   1.664   1.668   5.396
 3157SOL    HW210371   1.657   1.829   5.424
 3158SOL     OW10372   2.908   1.528   4.170
 3158SOL    HW110373   2.836   1.486   4.225
 3158SOL    HW210374   2.879   1.532   4.075
 3159SOL     OW10375   5.723   6.992   6.499
 3159SOL    HW110376   5.680   0.024   6.576
 3159SOL    HW210377   5.810   6.953   6.529
 3160SOL     OW10378   1.775   6.016   6.196
 3160SOL    HW110379   1.859   6.040   6.147
 3160SOL    HW210380   1.786   5.925   6.237
 3161SOL     OW10381   2.556   2.480   2.657
 3161SOL    HW110382   2.626   2.467   2.727
 3161SOL    HW210383   2.593   2.455   2.567
 3162SOL     OW10384   1.086   5.731   1.817
 3162SOL    HW110385   1.176   5.764   1.846
 3162SOL    HW210386   1.063   5.770   1.728
 3163SOL     OW10387   4.263   3.581   6.637
 3163SOL    HW110388   4.188   3.530   6.593
 3163SOL    HW210389   4.304   3.524   6.708
 3164SOL     OW10390   3.494   5.518   1.274
 3164SOL    HW110391   3.401   5.483   1.279
 3164SOL    HW210392   3.552   5.468   1.338
 3165SOL     OW10393   2.240   6.040   1.279
 3165SOL    HW110394   2.290   6.126   1.271
 3165SOL    HW210395   2.149   6.051   1.241
 3166SOL     OW10396   4.033   1.895   3.377
 3166SOL    HW110397   4.073   1.924   3.290
 3166SOL    HW210398   4.105   1.889   3.446
 3167SOL     OW10399   5.289   4.145   1.071
 3167SOL    HW110400   5.314   4.233   1.111
 3167SOL    HW210401   5.356   4.075   1.099
 3168SOL     OW10402   5.136   3.222   6.819
 3168SOL    HW110403   5.184   3.209   6.732
 3168SOL    HW210404   5.050   3.270   6.803
 3169SOL     OW10405   2.276   4.228   3.870
 3169SOL    HW110406   2.255   4.231   3.772
 3169SOL    HW210407   2.251   4.138   3.906
 3170SOL     OW10408   4.002   6.084   2.118
 3170SOL    HW110409   4.064   6.005   2.118
 3170SOL    HW210410   3.908   6.053   2.106
 3171SOL     OW10411   6.894   1.964   2.438
 3171SOL    HW110412   6.835   1.919   2.372
 3171SOL    HW210413   6.841   2.031   2.490
 3172SOL     OW10414   6.339   5.377   6.827
 3172SOL    HW110415   6.324   5.345   6.733
 3172SOL    HW210416   6.413   5.324   6.868
 3173SOL     OW10417   3.278   2.356   6.929
 3173SOL    HW110418   3.377   2.348   6.932
 3173SOL    HW210419   3.251   2.410   6.849
 3174SOL     OW10420   2.993   2.722   0.076
 3174SOL    HW110421   2.902   2.698   0.044
 3174SOL    HW210422   2.987   2.801   0.138
 3175SOL     OW10423   5.322   1.332   1.525
 3175SOL    HW110424   5.290   1.401   1.460
 3175SOL    HW210425   5.421   1.341   1.537
 3176SOL     OW10426   0.936   3.995   5.066
 3176SOL    HW110427   1.000   3.949   5.127
 3176SOL    HW210428   0.964   4.090   5.054
 3177SOL     OW10429   5.267   4.292   4.069
 3177SOL    HW110430   5.196   4.358   4.091
 3177SOL    HW210431   5.239   4.238   3.989
 3178SOL     OW10432   6.433   2.841   0.271
 3178SOL    HW110433   6.450   2.862   0.367
 3178SOL    HW210434   6.501   2.776   0.238
 3179SOL     OW10435   1.033   2.370   2.104
 3179SOL    HW110436   0.942   2.411   2.110
 3179SOL    HW210437   1.047   2.335   2.011
 3180SOL     OW10438   5.483   6.968   0.526
 3180SOL    HW110439   5.576   6.991   0.557
 3180SOL    HW210440   5.438   6.912   0.595
 3181SOL     OW10441   6.585   1.996   3.507
 3181SOL    HW110442   6.601   2.074   3.447
 3181SOL    HW210443   6.520   1.933   3.463
 3182SOL     OW10444   2.461   0.189   6.738
 3182SOL    HW110445   2.505   0.218   6.823
 3182SOL    HW210446   2.511   0.227   6.660
 3183SOL     OW10447   4.703   4.304   2.244
 3183SOL    HW110448   4.647   4.278   2.165
 3183SOL    HW210449   4.677   4.396   2.274
 3184SOL     OW10450   0.541   3.036   2.676
 3184SOL    HW110451   0.570   2.946   2.643
 3184SOL    HW210452   0.583   3.054   2.765
 3185SOL     OW10453   4.235   5.807   6.576
 3185SOL    HW110454   4.185   5.828   6.659
 3185SOL    HW210455   4.192   5.854   6.498
 3186SOL     OW10456   3.267   2.111   0.885
 3186SOL    HW110457   3.254   2.183   0.816
 3186SOL    HW210458   3.182   2.058   0.895
 3187SOL     OW10459   4.669   5.531   0.867
 3187SOL    HW110460   4.603   5.471   0.823
 3187SOL    HW210461   4.751   5.480   0.891
 3188SOL     OW10462   1.357   6.652   4.171
 3188SOL    HW110463   1.433   6.587   4.163
 3188SOL    HW210464   1.286   6.614   4.231
 3189SOL     OW10465   1.369   2.335   1.279
 3189SOL    HW110466   1.466   2.322   1.254
 3189SOL    HW210467   1.357   2.426   1.318
 3190SOL     OW10468   6.918   5.155   0.667
 3190SOL    HW110469   6.999   5.207   0.693
 3190SOL    HW210470   6.861   5.140   0.748
 3191SOL     OW10471   4.733   5.455   1.624
 3191SOL    HW110472   4.772   5.544   1.647
 3191SOL    HW210473   4.707   5.407   1.708
 3192SOL     OW10474   0.360   3.762   1.631
 3192SOL    HW110475   0.385   3.676   1.677
 3192SOL    HW210476   0.380   3.754   1.533
 3193SOL     OW10477   3.899   1.344   5.961
 3193SOL    HW110478   3.866   1.306   6.048
 3193SOL    HW210479   3.989   1.306   5.940
 3194SOL     OW10480   1.856   2.194   6.149
 3194SOL    HW110481   1.901   2.141   6.076
 3194SOL    HW210482   1.809   2.272   6.108
 3195SOL     OW10483   1.566   0.717   2.987
 3195SOL    HW110484   1.578   0.777   2.909
 3195SOL    HW210485   1.649   0.661   2.999
 3196SOL     OW10486   0.354   1.113   6.992
 3196SOL    HW110487   0.379   1.146   6.900
 3196SOL    HW210488   0.361   1.013   6.994
 3197SOL     OW10489   2.904   6.570   4.765
 3197SOL    HW110490   2.929   6.663   4.738
 3197SOL    HW210491   2.971   6.505   4.729
 3198SOL     OW10492   6.529   3.040   3.264
 3198SOL    HW110493   6.537   3.015   3.360
 3198SOL    HW210494   6.503   2.960   3.210
 3199SOL     OW10495   5.200   3.783   2.650
 3199SOL    HW110496   5.141   3.864   2.657
 3199SOL    HW210497   5.161   3.720   2.583
 3200SOL     OW10498   5.717   3.209   2.573
 3200SOL    HW110499   5.793   3.215   2.637
 3200SOL    HW210500   5.675   3.299   2.562
 3201SOL     OW10501   6.847   4.582   3.618
 3201SOL    HW110502   6.826   4.516   3.545
 3201SOL    HW210503   6.816   4.545   3.706
 3202SOL     OW10504   1.205   5.060   1.033
 3202SOL    HW110505   1.195   5.064   0.933
 3202SOL    HW210506   1.250   4.974   1.058
 3203SOL     OW10507   5.539   2.027   0.454
 3203SOL    HW110508   5.454   2.041   0.405
 3203SOL    HW210509   5.585   1.945   0.418
 3204SOL     OW10510   4.128   6.692   3.174
 3204SOL    HW110511   4.068   6.659   3.247
 3204SOL    HW210512   4.079   6.758   3.118
 3205SOL     OW10513   5.434   2.794   5.783
 3205SOL    HW110514   5.423   2.869   5.848
 3205SOL    HW210515   5.526   2.755   5.792
 3206SOL     OW10516   1.904   4.781   0.599
 3206SOL    HW110517   1.904   4.720   0.678
 3206SOL    HW210518   1.816   4.773   0.551
 3207SOL     OW10519   1.103   0.689   6.642
 3207SOL    HW110520   1.076   0.774   6.596
 3207SOL    HW210521   1.161   0.635   6.580
 3208SOL     OW10522   4.821   6.345   6.171
 3208SOL    HW110523   4.767   6.297   6.101
 3208SOL    HW210524   4.918   6.328   6.156
 3209SOL     OW10525   3.725   4.975   3.971
 3209SOL    HW110526   3.737   5.074   3.963
 3209SOL    HW210527   3.744   4.933   3.882
 3210SOL     OW10528   1.401   4.543   0.763
 3210SOL    HW110529   1.369   4.626   0.717
 3210SOL    HW210530   1.501   4.539   0.758
 3211SOL     OW10531   1.680   4.128   0.609
 3211SOL    HW110532   1.592   4.093   0.577
 3211SOL    HW210533   1.733   4.052   0.648
 3212SOL     OW10534   3.028   6.578   1.384
 3212SOL    HW110535   3.107   6.524   1.411
 3212SOL    HW210536   2.946   6.542   1.429
 3213SOL     OW10537   1.704   0.093   0.548
 3213SOL    HW110538   1.725   0.079   0.451
 3213SOL    HW210539   1.650   0.016   0.582
 3214SOL     OW10540   4.586   5.927   0.891
 3214SOL    HW110541   4.611   6.023   0.895
 3214SOL    HW210542   4.620   5.887   0.806
 3215SOL     OW10543   0.213   4.406   1.080
 3215SOL    HW110544   0.271   4.346   1.135
 3215SOL    HW210545   0.147   4.451   1.139
 3216SOL     OW10546   5.962   5.548   0.633
 3216SOL    HW110547   5.877   5.544   0.581
 3216SOL    HW210548   6.015   5.465   0.617
 3217SOL     OW10549   0.049   5.465   2.432
 3217SOL    HW110550   0.139   5.464   2.477
 3217SOL    HW210551   0.003   5.551   2.452
 3218SOL     OW10552   5.068   2.529   3.240
 3218SOL    HW110553   5.142   2.463   3.236
 3218SOL    HW210554   4.989   2.489   3.287
 3219SOL     OW10555   0.685   1.650   3.604
 3219SOL    HW110556   0.691   1.565   3.656
 3219SOL    HW210557   0.777   1.682   3.583
 3220SOL     OW10558   0.284   5.026   5.933
 3220SOL    HW110559   0.223   5.032   5.854
 3220SOL    HW210560   0.325   4.935   5.936
 3221SOL     OW10561   3.753   0.153   1.673
 3221SOL    HW110562   3.835   0.100   1.694
 3221SOL    HW210563   3.672   0.104   1.704
 3222SOL     OW10564   2.761   1.526   2.538
 3222SOL    HW110565   2.807   1.477   2.613
 3222SOL    HW210566   2.670   1.555   2.568
 3223SOL     OW10567   2.477   6.898   5.961
 3223SOL    HW110568   2.484   6.878   6.059
 3223SOL    HW210569   2.381   6.913   5.937
 3224SOL     OW10570   4.830   2.913   5.298
 3224SOL    HW110571   4.875   2.891   5.385
 3224SOL    HW210572   4.900   2.937   5.230
 3225SOL     OW10573   5.261   2.883   5.553
 3225SOL    HW110574   5.241   2.981   5.560
 3225SOL    HW210575   5.295   2.850   5.641
 3226SOL     OW10576   2.132   0.832   2.276
 3226SOL    HW110577   2.211   0.862   2.222
 3226SOL    HW210578   2.099   0.908   2.332
 3227SOL     OW10579   2.954   3.327   6.901
 3227SOL    HW110580   2.941   3.232   6.872
 3227SOL    HW210581   2.878   3.354   6.960
 3228SOL     OW10582   6.913   3.897   1.001
 3228SOL    HW110583   6.952   3.823   0.945
 3228SOL    HW210584   6.926   3.875   1.097
 3229SOL     OW10585   3.655   0.268   5.475
 3229SOL    HW110586   3.588   0.268   5.549
 3229SOL    HW210587   3.612   0.306   5.393
 3230SOL     OW10588   2.298   4.386   5.615
 3230SOL    HW110589   2.383   4.438   5.618
 3230SOL    HW210590   2.301   4.321   5.539
 3231SOL     OW10591   2.949   0.270   1.936
 3231SOL    HW110592   2.861   0.287   1.978
 3231SOL    HW210593   3.022   0.287   2.002
 3232SOL     OW10594   4.662   6.604   4.742
 3232SOL    HW110595   4.565   6.622   4.727
 3232SOL    HW210596   4.674   6.560   4.831
 3233SOL     OW10597   6.530   2.729   0.759
 3233SOL    HW110598   6.520   2.754   0.855
 3233SOL    HW210599   6.539   2.629   0.752
 3234SOL     OW10600   0.948   2.619   6.874
 3234SOL    HW110601   0.948   2.694   6.807
 3234SOL    HW210602   0.915   2.654   6.962
 3235SOL     OW10603   7.006   0.353   1.495
 3235SOL    HW110604   0.083   0.372   1.525
 3235SOL    HW210605   6.949   0.434   1.507
 3236SOL     OW10606   1.436   4.025   0.036
 3236SOL    HW110607   1.393   3.940   0.007
 3236SOL    HW210608   1.444   4.026   0.136
 3237SOL     OW10609   6.072   1.627   3.315
 3237SOL    HW110610   6.036   1.570   3.242
 3237SOL    HW210611   6.131   1.698   3.277
 3238SOL     OW10612   6.988   5.533   0.430
 3238SOL    HW110613   6.983   5.632   0.420
 3238SOL    HW210614   0.057   5.499   0.390
 3239SOL     OW10615   6.623   1.203   2.498
 3239SOL    HW110616   6.657   1.220   2.591
 3239SOL    HW210617   6.523   1.204   2.499
 3240SOL     OW10618   6.588   6.278   6.240
 3240SOL    HW110619   6.521   6.344   6.208
 3240SOL    HW210620   6.588   6.276   6.340
 3241SOL     OW10621   4.840   0.627   5.048
 3241SOL    HW110622   4.764   0.637   5.114
 3241SOL    HW210623   4.828   0.542   4.997
 3242SOL     OW10624   4.714   4.581   6.728
 3242SOL    HW110625   4.747   4.500   6.681
 3242SOL    HW210626   4.664   4.639   6.664
 3243SOL     OW10627   4.177   5.045   0.021
 3243SOL    HW110628   4.140   5.078   6.950
 3243SOL    HW210629   4.161   5.114   0.092
 3244SOL     OW10630   4.841   5.859   0.445
 3244SOL    HW110631   4.928   5.812   0.459
 3244SOL    HW210632   4.856   5.940   0.388
 3245SOL     OW10633   5.296   3.436   4.525
 3245SOL    HW110634   5.374   3.403   4.472
 3245SOL    HW210635   5.211   3.401   4.485
 3246SOL     OW10636   6.535   0.374   2.858
 3246SOL    HW110637   6.508   0.459   2.903
 3246SOL    HW210638   6.612   0.391   2.798
 3247SOL     OW10639   6.096   4.341   2.773
 3247SOL    HW110640   6.104   4.415   2.841
 3247SOL    HW210641   6.170   4.350   2.706
 3248SOL     OW10642   5.646   3.139   1.847
 3248SOL    HW110643   5.566   3.184   1.886
 3248SOL    HW210644   5.698   3.095   1.920
 3249SOL     OW10645   3.766   4.115   3.961
 3249SOL    HW110646   3.782   4.072   4.050
 3249SOL    HW210647   3.773   4.046   3.889
 3250SOL     OW10648   5.955   0.620   2.567
 3250SOL    HW110649   6.043   0.583   2.599
 3250SOL    HW210650   5.915   0.558   2.500
 3251SOL     OW10651   3.573   0.908   3.475
 3251SOL    HW110652   3.613   0.864   3.555
 3251SOL    HW210653   3.500   0.970   3.504
 3252SOL     OW10654   2.669   1.024   2.630
 3252SOL    HW110655   2.700   0.940   2.674
 3252SOL    HW210656   2.611   1.001   2.552
 3253SOL     OW10657   4.603   3.855   1.568
 3253SOL    HW110658   4.628   3.918   1.641
 3253SOL    HW210659   4.643   3.886   1.482
 3254SOL     OW10660   4.729   5.850   6.347
 3254SOL    HW110661   4.787   5.871   6.426
 3254SOL    HW210662   4.633   5.848   6.376
 3255SOL     OW10663   4.316   6.887   0.577
 3255SOL    HW110664   4.321   6.954   0.503
 3255SOL    HW210665   4.408   6.855   0.600
 3256SOL     OW10666   3.659   1.252   0.999
 3256SOL    HW110667   3.566   1.287   0.984
 3256SOL    HW210668   3.717   1.278   0.922
 3257SOL     OW10669   1.229   1.983   2.173
 3257SOL    HW110670   1.184   1.953   2.089
 3257SOL    HW210671   1.246   1.903   2.231
 3258SOL     OW10672   4.618   5.940   2.489
 3258SOL    HW110673   4.591   5.915   2.582
 3258SOL    HW210674   4.537   5.943   2.431
 3259SOL     OW10675   5.102   4.740   5.166
 3259SOL    HW110676   5.202   4.730   5.169
 3259SOL    HW210677   5.064   4.671   5.105
 3260SOL     OW10678   1.359   2.586   0.996
 3260SOL    HW110679   1.437   2.643   0.971
 3260SOL    HW210680   1.362   2.569   1.095
 3261SOL     OW10681   5.478   0.567   1.405
 3261SOL    HW110682   5.577   0.563   1.395
 3261SOL    HW210683   5.437   0.601   1.320
 3262SOL     OW10684   3.192   1.724   2.144
 3262SOL    HW110685   3.115   1.666   2.117
 3262SOL    HW210686   3.234   1.686   2.227
 3263SOL     OW10687   2.532   1.338   3.033
 3263SOL    HW110688   2.478   1.381   2.960
 3263SOL    HW210689   2.556   1.244   3.006
 3264SOL     OW10690   1.303   5.592   0.483
 3264SOL    HW110691   1.238   5.529   0.439
 3264SOL    HW210692   1.379   5.541   0.521
 3265SOL     OW10693   4.562   0.616   6.297
 3265SOL    HW110694   4.647   0.663   6.317
 3265SOL    HW210695   4.499   0.625   6.374
 3266SOL     OW10696   2.002   4.331   0.047
 3266SOL    HW110697   2.056   4.265   7.010
 3266SOL    HW210698   2.060   4.372   0.117
 3267SOL     OW10699   3.114   6.255   1.341
 3267SOL    HW110700   3.174   6.332   1.363
 3267SOL    HW210701   3.087   6.208   1.425
 3268SOL     OW10702   2.026   3.843   1.744
 3268SOL    HW110703   2.054   3.747   1.742
 3268SOL    HW210704   2.070   3.888   1.822
 3269SOL     OW10705   4.764   5.883   2.242
 3269SOL    HW110706   4.732   5.828   2.319
 3269SOL    HW210707   4.855   5.851   2.214
 3270SOL     OW10708   1.436   4.349   6.251
 3270SOL    HW110709   1.513   4.291   6.277
 3270SOL    HW210710   1.458   4.399   6.167
 3271SOL     OW10711   5.680   3.629   1.752
 3271SOL    HW110712   5.664   3.596   1.845
 3271SOL    HW210713   5.776   3.620   1.729
 3272SOL     OW10714   2.911   4.237   6.078
 3272SOL    HW110715   2.974   4.214   6.004
 3272SOL    HW210716   2.839   4.297   6.044
 3273SOL     OW10717   6.143   5.782   0.404
 3273SOL    HW110718   6.155   5.860   0.344
 3273SOL    HW210719   6.073   5.803   0.473
 3274SOL     OW10720   5.553   1.283   1.246
 3274SOL    HW110721   5.456   1.304   1.235
 3274SOL    HW210722   5.574   1.279   1.344
 3275SOL     OW10723   5.761   0.880   0.210
 3275SOL    HW110724   5.773   0.922   0.300
 3275SOL    HW210725   5.836   0.909   0.149
 3276SOL     OW10726   3.358   5.839   6.606
 3276SOL    HW110727   3.325   5.843   6.700
 3276SOL    HW210728   3.321   5.917   6.554
 3277SOL     OW10729   3.644   0.172   0.443
 3277SOL    HW110730   3.703   0.094   0.460
 3277SOL    HW210731   3.698   0.256   0.442
 3278SOL     OW10732   0.843   0.812   5.806
 3278SOL    HW110733   0.847   0.902   5.849
 3278SOL    HW210734   0.748   0.781   5.801
 3279SOL     OW10735   4.847   0.230   0.393
 3279SOL    HW110736   4.845   0.326   0.420
 3279SOL    HW210737   4.930   0.186   0.430
 3280SOL     OW10738   5.005   4.407   4.366
 3280SOL    HW110739   5.082   4.443   4.314
 3280SOL    HW210740   4.945   4.355   4.306
 3281SOL     OW10741   1.359   4.891   1.754
 3281SOL    HW110742   1.359   4.982   1.714
 3281SOL    HW210743   1.270   4.874   1.798
 3282SOL     OW10744   0.205   5.172   4.991
 3282SOL    HW110745   0.281   5.192   5.052
 3282SOL    HW210746   0.129   5.233   5.011
 3283SOL     OW10747   3.539   0.689   1.088
 3283SOL    HW110748   3.605   0.614   1.079
 3283SOL    HW210749   3.575   0.771   1.044
 3284SOL     OW10750   0.430   5.440   6.530
 3284SOL    HW110751   0.520   5.481   6.512
 3284SOL    HW210752   0.379   5.432   6.444
 3285SOL     OW10753   4.238   2.365   3.683
 3285SOL    HW110754   4.192   2.403   3.764
 3285SOL    HW210755   4.335   2.387   3.687
 3286SOL     OW10756   3.392   3.209   2.539
 3286SOL    HW110757   3.478   3.216   2.490
 3286SOL    HW210758   3.376   3.113   2.566
 3287SOL     OW10759   0.839   0.353   0.034
 3287SOL    HW110760   0.925   0.302   0.036
 3287SOL    HW210761   0.770   0.304   0.087
 3288SOL     OW10762   1.669   6.055   7.015
 3288SOL    HW110763   1.607   6.053   6.936
 3288SOL    HW210764   1.700   6.148   0.016
 3289SOL     OW10765   2.871   0.913   5.154
 3289SOL    HW110766   2.829   0.990   5.106
 3289SOL    HW210767   2.929   0.861   5.090
 3290SOL     OW10768   0.357   5.655   1.401
 3290SOL    HW110769   0.314   5.648   1.311
 3290SOL    HW210770   0.318   5.733   1.450
 3291SOL     OW10771   1.878   0.111   6.732
 3291SOL    HW110772   1.957   0.092   6.675
 3291SOL    HW210773   1.805   0.149   6.675
 3292SOL     OW10774   0.160   0.774   0.767
 3292SOL    HW110775   0.134   0.686   0.806
 3292SOL    HW210776   0.146   0.773   0.668
 3293SOL     OW10777   6.907   4.387   1.846
 3293SOL    HW110778   6.837   4.433   1.791
 3293SOL    HW210779   6.894   4.288   1.840
 3294SOL     OW10780   6.011   2.663   6.279
 3294SOL    HW110781   6.020   2.617   6.367
 3294SOL    HW210782   6.082   2.631   6.216
 3295SOL     OW10783   1.432   2.578   2.187
 3295SOL    HW110784   1.522   2.564   2.228
 3295SOL    HW210785   1.428   2.534   2.098
 3296SOL     OW10786   1.405   6.838   2.833
 3296SOL    HW110787   1.396   6.778   2.753
 3296SOL    HW210788   1.391   6.933   2.804
 3297SOL     OW10789   2.974   1.388   5.524
 3297SOL    HW110790   2.912   1.354   5.453
 3297SOL    HW210791   3.052   1.434   5.482
 3298SOL     OW10792   6.088   2.235   5.678
 3298SOL    HW110793   5.988   2.230   5.671
 3298SOL    HW210794   6.127   2.147   5.650
 3299SOL     OW10795   3.657   5.714   2.951
 3299SOL    HW110796   3.658   5.666   3.039
 3299SOL    HW210797   3.665   5.813   2.968
 3300SOL     OW10798   0.391   1.031   5.368
 3300SOL    HW110799   0.441   1.016   5.283
 3300SOL    HW210800   0.423   0.967   5.438
 3301SOL     OW10801   2.191   3.057   3.373
 3301SOL    HW110802   2.243   3.131   3.417
 3301SOL    HW210803   2.104   3.045   3.421
 3302SOL     OW10804   0.625   4.974   5.438
 3302SOL    HW110805   0.578   4.927   5.513
 3302SOL    HW210806   0.559   5.025   5.384
 3303SOL     OW10807   3.447   3.499   0.966
 3303SOL    HW110808   3.502   3.497   0.883
 3303SOL    HW210809   3.421   3.593   0.986
 3304SOL     OW10810   1.723   5.379   4.576
 3304SOL    HW110811   1.636   5.333   4.555
 3304SOL    HW210812   1.739   5.452   4.509
 3305SOL     OW10813   1.999   1.149   2.116
 3305SOL    HW110814   1.997   1.112   2.209
 3305SOL    HW210815   2.032   1.243   2.118
 3306SOL     OW10816   2.246   5.491   4.735
 3306SOL    HW110817   2.151   5.462   4.724
 3306SOL    HW210818   2.290   5.435   4.805
 3307SOL     OW10819   6.998   5.986   6.622
 3307SOL    HW110820   6.904   5.985   6.657
 3307SOL    HW210821   6.997   6.013   6.526
 3308SOL     OW10822   2.799   6.015   1.398
 3308SOL    HW110823   2.816   6.061   1.311
 3308SOL    HW210824   2.705   6.034   1.428
 3309SOL     OW10825   6.469   5.588   3.857
 3309SOL    HW110826   6.432   5.608   3.766
 3309SOL    HW210827   6.526   5.664   3.886
 3310SOL     OW10828   0.324   4.170   5.190
 3310SOL    HW110829   0.300   4.149   5.285
 3310SOL    HW210830   0.358   4.264   5.185
 3311SOL     OW10831   4.027   3.844   0.639
 3311SOL    HW110832   3.997   3.929   0.682
 3311SOL    HW210833   4.096   3.863   0.570
 3312SOL     OW10834   4.345   4.693   5.908
 3312SOL    HW110835   4.422   4.631   5.889
 3312SOL    HW210836   4.380   4.784   5.931
 3313SOL     OW10837   1.092   6.218   3.614
 3313SOL    HW110838   1.073   6.266   3.529
 3313SOL    HW210839   1.168   6.264   3.661
 3314SOL     OW10840   2.230   1.276   2.458
 3314SOL    HW110841   2.161   1.210   2.429
 3314SOL    HW210842   2.225   1.287   2.558
 3315SOL     OW10843   6.412   4.679   4.755
 3315SOL    HW110844   6.382   4.743   4.826
 3315SOL    HW210845   6.510   4.660   4.767
 3316SOL     OW10846   5.201   0.854   5.796
 3316SOL    HW110847   5.115   0.864   5.748
 3316SOL    HW210848   5.265   0.925   5.765
 3317SOL     OW10849   4.872   2.867   1.831
 3317SOL    HW110850   4.796   2.806   1.810
 3317SOL    HW210851   4.842   2.937   1.895
 3318SOL     OW10852   1.887   1.892   1.348
 3318SOL    HW110853   1.901   1.798   1.379
 3318SOL    HW210854   1.927   1.956   1.415
 3319SOL     OW10855   6.272   1.994   3.705
 3319SOL    HW110856   6.248   1.957   3.794
 3319SOL    HW210857   6.368   1.974   3.684
 3320SOL     OW10858   6.716   0.542   5.249
 3320SOL    HW110859   6.774   0.525   5.169
 3320SOL    HW210860   6.774   0.549   5.330
 3321SOL     OW10861   4.621   1.341   0.471
 3321SOL    HW110862   4.591   1.395   0.392
 3321SOL    HW210863   4.554   1.270   0.490
 3322SOL     OW10864   6.719   2.855   1.265
 3322SOL    HW110865   6.783   2.780   1.248
 3322SOL    HW210866   6.764   2.942   1.244
 3323SOL     OW10867   3.095   2.835   0.516
 3323SOL    HW110868   3.170   2.798   0.571
 3323SOL    HW210869   3.102   2.800   0.422
 3324SOL     OW10870   4.202   5.170   6.393
 3324SOL    HW110871   4.200   5.076   6.427
 3324SOL    HW210872   4.124   5.221   6.430
 3325SOL     OW10873   0.111   3.563   6.264
 3325SOL    HW110874   0.176   3.628   6.303
 3325SOL    HW210875   0.156   3.475   6.250
 3326SOL     OW10876   5.113   1.769   2.489
 3326SOL    HW110877   5.059   1.820   2.421
 3326SOL    HW210878   5.159   1.692   2.444
 3327SOL     OW10879   3.031   5.238   1.909
 3327SOL    HW110880   3.046   5.334   1.932
 3327SOL    HW210881   3.119   5.194   1.891
 3328SOL     OW10882   4.363   2.054   0.234
 3328SOL    HW110883   4.458   2.038   0.208
 3328SOL    HW210884   4.354   2.046   0.333
 3329SOL     OW10885   5.804   0.291   4.730
 3329SOL    HW110886   5.722   0.336   4.767
 3329SOL    HW210887   5.841   0.346   4.656
 3330SOL     OW10888   6.587   4.588   1.473
 3330SOL    HW110889   6.487   4.593   1.474
 3330SOL    HW210890   6.623   4.658   1.411
 3331SOL     OW10891   2.267   2.750   1.593
 3331SOL    HW110892   2.344   2.794   1.639
 3331SOL    HW210893   2.196   2.817   1.575
 3332SOL     OW10894   5.506   5.686   6.956
 3332SOL    HW110895   5.477   5.609   7.012
 3332SOL    HW210896   5.455   5.686   6.870
 3333SOL     OW10897   4.567   4.760   6.545
 3333SOL    HW110898   4.537   4.709   6.465
 3333SOL    HW210899   4.498   4.754   6.616
 3334SOL     OW10900   2.686   4.206   1.698
 3334SOL    HW110901   2.727   4.115   1.706
 3334SOL    HW210902   2.750   4.267   1.651
 3335SOL     OW10903   4.561   6.199   5.674
 3335SOL    HW110904   4.599   6.242   5.592
 3335SOL    HW210905   4.542   6.103   5.655
 3336SOL     OW10906   2.754   5.940   4.776
 3336SOL    HW110907   2.831   5.882   4.750
 3336SOL    HW210908   2.753   6.022   4.719
 3337SOL     OW10909   2.919   3.769   2.765
 3337SOL    HW110910   2.948   3.862   2.785
 3337SOL    HW210911   2.996   3.717   2.727
 3338SOL     OW10912   5.868   2.561   1.554
 3338SOL    HW110913   5.822   2.577   1.467
 3338SOL    HW210914   5.884   2.463   1.566
 3339SOL     OW10915   6.703   0.268   6.864
 3339SOL    HW110916   6.674   0.179   6.830
 3339SOL    HW210917   6.737   0.323   6.787
 3340SOL     OW10918   3.615   0.568   2.323
 3340SOL    HW110919   3.566   0.624   2.390
 3340SOL    HW210920   3.712   0.592   2.326
 3341SOL     OW10921   0.979   5.612   3.195
 3341SOL    HW110922   0.881   5.600   3.176
 3341SOL    HW210923   1.011   5.696   3.151
 3342SOL     OW10924   2.646   0.080   4.341
 3342SOL    HW110925   2.624   0.177   4.349
 3342SOL    HW210926   2.737   0.069   4.300
 3343SOL     OW10927   5.029   2.908   1.015
 3343SOL    HW110928   4.931   2.913   1.035
 3343SOL    HW210929   5.073   2.850   1.083
 3344SOL     OW10930   5.703   3.669   3.875
 3344SOL    HW110931   5.677   3.679   3.779
 3344SOL    HW210932   5.628   3.627   3.925
 3345SOL     OW10933   1.370   3.500   6.188
 3345SOL    HW110934   1.440   3.436   6.219
 3345SOL    HW210935   1.388   3.590   6.227
 3346SOL     OW10936   1.561   0.375   0.196
 3346SOL    HW110937   1.597   0.458   0.153
 3346SOL    HW210938   1.575   0.380   0.295
 3347SOL     OW10939   0.817   3.762   4.243
 3347SOL    HW110940   0.827   3.696   4.319
 3347SOL    HW210941   0.722   3.793   4.239
 3348SOL     OW10942   2.991   3.382   3.776
 3348SOL    HW110943   2.968   3.479   3.767
 3348SOL    HW210944   2.963   3.349   3.866
 3349SOL     OW10945   1.175   5.793   2.988
 3349SOL    HW110946   1.235   5.718   2.958
 3349SOL    HW210947   1.080   5.772   2.963
 3350SOL     OW10948   1.359   2.331   5.684
 3350SOL    HW110949   1.369   2.379   5.597
 3350SOL    HW210950   1.404   2.241   5.678
 3351SOL     OW10951   5.196   0.454   2.419
 3351SOL    HW110952   5.163   0.536   2.465
 3351SOL    HW210953   5.192   0.377   2.482
 3352SOL     OW10954   0.156   2.726   0.708
 3352SOL    HW110955   0.135   2.719   0.611
 3352SOL    HW210956   0.227   2.659   0.732
 3353SOL     OW10957   1.403   5.641   2.110
 3353SOL    HW110958   1.404   5.548   2.147
 3353SOL    HW210959   1.394   5.706   2.185
 3354SOL     OW10960   4.882   2.573   5.332
 3354SOL    HW110961   4.894   2.518   5.250
 3354SOL    HW210962   4.785   2.579   5.354
 3355SOL     OW10963   2.111   1.519   0.611
 3355SOL    HW110964   2.028   1.474   0.644
 3355SOL    HW210965   2.175   1.531   0.686
 3356SOL     OW10966   1.962   4.565   6.123
 3356SOL    HW110967   1.985   4.661   6.103
 3356SOL    HW210968   2.045   4.510   6.125
 3357SOL     OW10969   2.657   4.822   1.892
 3357SOL    HW110970   2.718   4.746   1.919
 3357SOL    HW210971   2.706   4.908   1.901
 3358SOL     OW10972   5.066   0.593   0.836
 3358SOL    HW110973   5.031   0.623   0.748
 3358SOL    HW210974   5.157   0.633   0.851
 3359SOL     OW10975   0.070   0.463   3.668
 3359SOL    HW110976   0.029   0.516   3.742
 3359SOL    HW210977   0.001   0.447   3.597
 3360SOL     OW10978   0.428   1.217   6.768
 3360SOL    HW110979   0.517   1.260   6.748
 3360SOL    HW210980   0.402   1.157   6.692
 3361SOL     OW10981   0.626   4.382   3.109
 3361SOL    HW110982   0.680   4.319   3.165
 3361SOL    HW210983   0.683   4.460   3.083
 3362SOL     OW10984   3.698   1.787   3.779
 3362SOL    HW110985   3.629   1.763   3.710
 3362SOL    HW210986   3.729   1.881   3.764
 3363SOL     OW10987   6.881   6.809   0.767
 3363SOL    HW110988   6.882   6.836   0.671
 3363SOL    HW210989   6.935   6.875   0.820
 3364SOL     OW10990   1.264   4.575   3.699
 3364SOL    HW110991   1.360   4.598   3.719
 3364SOL    HW210992   1.222   4.651   3.650
 3365SOL     OW10993   0.615   2.455   5.214
 3365SOL    HW110994   0.690   2.462   5.148
 3365SOL    HW210995   0.545   2.524   5.193
 3366SOL     OW10996   6.083   0.417   6.187
 3366SOL    HW110997   6.045   0.326   6.171
 3366SOL    HW210998   6.037   0.483   6.128
 3367SOL     OW10999   3.695   2.676   1.475
 3367SOL    HW111000   3.748   2.708   1.554
 3367SOL    HW211001   3.674   2.579   1.487
 3368SOL     OW11002   0.564   5.067   5.915
 3368SOL    HW111003   0.602   4.975   5.928
 3368SOL    HW211004   0.526   5.074   5.823
 3369SOL     OW11005   3.868   2.526   5.855
 3369SOL    HW111006   3.810   2.598   5.817
 3369SOL    HW211007   3.816   2.474   5.922
 3370SOL     OW11008   6.663   5.838   6.143
 3370SOL    HW111009   6.711   5.772   6.085
 3370SOL    HW211010   6.678   5.931   6.107
 3371SOL     OW11011   1.880   3.413   2.238
 3371SOL    HW111012   1.926   3.325   2.251
 3371SOL    HW211013   1.795   3.399   2.188
 3372SOL     OW11014   0.895   1.290   1.162
 3372SOL    HW111015   0.941   1.363   1.213
 3372SOL    HW211016   0.913   1.302   1.064
 3373SOL     OW11017   0.062   1.985   2.984
 3373SOL    HW111018   0.026   2.064   3.034
 3373SOL    HW211019   0.158   1.969   3.011
 3374SOL     OW11020   1.609   6.380   4.534
 3374SOL    HW111021   1.560   6.456   4.490
 3374SOL    HW211022   1.707   6.396   4.528
 3375SOL     OW11023   6.214   5.825   6.362
 3375SOL    HW111024   6.269   5.816   6.445
 3375SOL    HW211025   6.154   5.745   6.353
 3376SOL     OW11026   4.084   3.164   3.470
 3376SOL    HW111027   4.096   3.067   3.447
 3376SOL    HW211028   4.105   3.178   3.567
 3377SOL     OW11029   0.498   6.582   4.671
 3377SOL    HW111030   0.477   6.581   4.769
 3377SOL    HW211031   0.445   6.655   4.627
 3378SOL     OW11032   6.890   0.991   0.481
 3378SOL    HW111033   6.949   0.916   0.511
 3378SOL    HW211034   6.849   0.968   0.393
 3379SOL     OW11035   6.670   6.245   6.759
 3379SOL    HW111036   6.616   6.313   6.808
 3379SOL    HW211037   6.702   6.175   6.823
 3380SOL     OW11038   5.897   6.712   6.131
 3380SOL    HW111039   5.911   6.633   6.071
 3380SOL    HW211040   5.848   6.783   6.080
 3381SOL     OW11041   1.069   2.792   1.273
 3381SOL    HW111042   0.978   2.756   1.251
 3381SOL    HW211043   1.083   2.789   1.372
 3382SOL     OW11044   0.484   1.508   0.757
 3382SOL    HW111045   0.471   1.425   0.703
 3382SOL    HW211046   0.417   1.576   0.730
 3383SOL     OW11047   4.469   5.960   2.037
 3383SOL    HW111048   4.493   5.873   1.995
 3383SOL    HW211049   4.404   6.009   1.979
 3384SOL     OW11050   2.169   3.398   5.843
 3384SOL    HW111051   2.170   3.477   5.781
 3384SOL    HW211052   2.254   3.397   5.896
 3385SOL     OW11053   6.951   2.992   4.029
 3385SOL    HW111054   6.984   2.986   4.123
 3385SOL    HW211055   6.887   2.917   4.012
 3386SOL     OW11056   6.426   3.707   6.608
 3386SOL    HW111057   6.416   3.652   6.525
 3386SOL    HW211058   6.506   3.766   6.599
 3387SOL     OW11059   3.190   1.189   3.746
 3387SOL    HW111060   3.150   1.130   3.816
 3387SOL    HW211061   3.118   1.218   3.682
 3388SOL     OW11062   5.169   3.268   2.108
 3388SOL    HW111063   5.116   3.342   2.064
 3388SOL    HW211064   5.234   3.230   2.042
 3389SOL     OW11065   5.337   4.676   5.472
 3389SOL    HW111066   5.291   4.593   5.439
 3389SOL    HW211067   5.335   4.746   5.401
 3390SOL     OW11068   5.193   4.791   5.676
 3390SOL    HW111069   5.217   4.731   5.601
 3390SOL    HW211070   5.257   4.777   5.752
 3391SOL     OW11071   4.929   3.176   4.951
 3391SOL    HW111072   4.930   3.240   4.874
 3391SOL    HW211073   4.982   3.214   5.027
 3392SOL     OW11074   2.839   6.752   3.944
 3392SOL    HW111075   2.825   6.776   4.040
 3392SOL    HW211076   2.894   6.822   3.900
 3393SOL     OW11077   0.120   6.350   7.002
 3393SOL    HW111078   0.200   6.338   0.044
 3393SOL    HW211079   0.091   6.446   7.003
 3394SOL     OW11080   6.215   3.259   1.556
 3394SOL    HW111081   6.148   3.224   1.621
 3394SOL    HW211082   6.306   3.225   1.580
 3395SOL     OW11083   5.472   3.014   3.277
 3395SOL    HW111084   5.542   3.062   3.330
 3395SOL    HW211085   5.398   3.077   3.255
 3396SOL     OW11086   5.041   1.748   3.268
 3396SOL    HW111087   4.965   1.788   3.320
 3396SOL    HW211088   5.081   1.672   3.321
 3397SOL     OW11089   2.140   0.727   5.030
 3397SOL    HW111090   2.172   0.769   4.946
 3397SOL    HW211091   2.213   0.668   5.067
 3398SOL     OW11092   1.100   0.124   4.813
 3398SOL    HW111093   1.121   0.114   4.715
 3398SOL    HW211094   1.160   0.065   4.866
 3399SOL     OW11095   5.697   4.248   4.326
 3399SOL    HW111096   5.759   4.222   4.252
 3399SOL    HW211097   5.627   4.311   4.291
 3400SOL     OW11098   5.068   2.436   5.931
 3400SOL    HW111099   5.116   2.507   5.879
 3400SOL    HW211100   5.004   2.480   5.995
 3401SOL     OW11101   6.737   3.548   1.162
 3401SOL    HW111102   6.649   3.529   1.205
 3401SOL    HW211103   6.757   3.476   1.095
 3402SOL     OW11104   3.709   6.138   6.696
 3402SOL    HW111105   3.689   6.045   6.665
 3402SOL    HW211106   3.643   6.163   6.768
 3403SOL     OW11107   3.966   6.530   4.861
 3403SOL    HW111108   3.884   6.566   4.906
 3403SOL    HW211109   4.040   6.597   4.870
 3404SOL     OW11110   5.090   1.507   0.162
 3404SOL    HW111111   5.155   1.557   0.220
 3404SOL    HW211112   5.119   1.412   0.154
 3405SOL     OW11113   6.923   3.569   4.313
 3405SOL    HW111114   6.956   3.561   4.219
 3405SOL    HW211115   6.853   3.640   4.318
 3406SOL     OW11116   0.630   4.130   2.001
 3406SOL    HW111117   0.615   4.035   1.975
 3406SOL    HW211118   0.611   4.190   1.923
 3407SOL     OW11119   1.417   5.285   6.901
 3407SOL    HW111120   1.428   5.215   6.971
 3407SOL    HW211121   1.324   5.280   6.863
 3408SOL     OW11122   4.747   3.819   5.593
 3408SOL    HW111123   4.778   3.729   5.625
 3408SOL    HW211124   4.692   3.808   5.511
 3409SOL     OW11125   3.188   6.189   6.683
 3409SOL    HW111126   3.171   6.272   6.630
 3409SOL    HW211127   3.251   6.210   6.758
 3410SOL     OW11128   0.029   6.096   6.913
 3410SOL    HW111129   0.065   6.187   6.934
 3410SOL    HW211130   0.088   6.052   6.846
 3411SOL     OW11131   0.448   3.016   1.658
 3411SOL    HW111132   0.456   3.114   1.643
 3411SOL    HW211133   0.368   2.997   1.714
 3412SOL     OW11134   4.081   2.665   6.704
 3412SOL    HW111135   4.134   2.581   6.705
 3412SOL    HW211136   4.007   2.659   6.771
 3413SOL     OW11137   5.598   1.475   1.029
 3413SOL    HW111138   5.630   1.549   1.087
 3413SOL    HW211139   5.590   1.391   1.082
 3414SOL     OW11140   1.933   0.595   6.002
 3414SOL    HW111141   1.917   0.526   5.932
 3414SOL    HW211142   1.845   0.630   6.034
 3415SOL     OW11143   1.678   3.894   4.754
 3415SOL    HW111144   1.707   3.866   4.845
 3415SOL    HW211145   1.666   3.813   4.696
 3416SOL     OW11146   0.213   5.813   0.726
 3416SOL    HW111147   0.309   5.823   0.698
 3416SOL    HW211148   0.205   5.829   0.824
 3417SOL     OW11149   0.339   5.637   3.144
 3417SOL    HW111150   0.410   5.704   3.163
 3417SOL    HW211151   0.327   5.578   3.223
 3418SOL     OW11152   3.837   0.773   4.545
 3418SOL    HW111153   3.872   0.680   4.559
 3418SOL    HW211154   3.897   0.822   4.482
 3419SOL     OW11155   3.950   5.836   4.957
 3419SOL    HW111156   3.883   5.892   5.006
 3419SOL    HW211157   3.943   5.854   4.859
 3420SOL     OW11158   5.176   3.071   4.180
 3420SOL    HW111159   5.141   3.048   4.270
 3420SOL    HW211160   5.262   3.022   4.164
 3421SOL     OW11161   5.555   0.781   5.923
 3421SOL    HW111162   5.471   0.836   5.925
 3421SOL    HW211163   5.604   0.798   5.837
 3422SOL     OW11164   2.031   0.492   1.105
 3422SOL    HW111165   2.045   0.587   1.076
 3422SOL    HW211166   2.115   0.440   1.091
 3423SOL     OW11167   1.608   4.982   0.096
 3423SOL    HW111168   1.662   5.017   0.173
 3423SOL    HW211169   1.511   5.001   0.112
 3424SOL     OW11170   2.820   6.589   1.797
 3424SOL    HW111171   2.885   6.588   1.874
 3424SOL    HW211172   2.731   6.622   1.828
 3425SOL     OW11173   5.065   4.874   2.579
 3425SOL    HW111174   5.153   4.916   2.556
 3425SOL    HW211175   5.081   4.789   2.629
 3426SOL     OW11176   3.668   2.426   0.882
 3426SOL    HW111177   3.727   2.353   0.845
 3426SOL    HW211178   3.688   2.511   0.834
 3427SOL     OW11179   6.098   0.100   0.221
 3427SOL    HW111180   6.176   0.162   0.231
 3427SOL    HW211181   6.125   0.021   0.166
 3428SOL     OW11182   3.058   4.720   0.632
 3428SOL    HW111183   3.103   4.803   0.599
 3428SOL    HW211184   3.102   4.640   0.592
 3429SOL     OW11185   0.390   2.362   0.317
 3429SOL    HW111186   0.488   2.369   0.332
 3429SOL    HW211187   0.364   2.418   0.238
 3430SOL     OW11188   0.442   6.580   4.944
 3430SOL    HW111189   0.501   6.554   5.020
 3430SOL    HW211190   0.353   6.610   4.979
 3431SOL     OW11191   0.844   6.872   1.258
 3431SOL    HW111192   0.804   6.898   1.170
 3431SOL    HW211193   0.772   6.869   1.327
 3432SOL     OW11194   1.949   2.398   0.075
 3432SOL    HW111195   1.973   2.301   0.088
 3432SOL    HW211196   1.932   2.441   0.164
 3433SOL     OW11197   0.889   0.301   6.343
 3433SOL    HW111198   0.879   0.206   6.313
 3433SOL    HW211199   0.846   0.312   6.432
 3434SOL     OW11200   4.724   1.986   0.693
 3434SOL    HW111201   4.669   1.919   0.743
 3434SOL    HW211202   4.666   2.038   0.630
 3435SOL     OW11203   0.874   1.772   0.925
 3435SOL    HW111204   0.789   1.770   0.873
 3435SOL    HW211205   0.932   1.695   0.898
 3436SOL     OW11206   3.645   5.859   6.636
 3436SOL    HW111207   3.552   5.844   6.602
 3436SOL    HW211208   3.655   5.814   6.725
 3437SOL     OW11209   1.949   1.214   5.850
 3437SOL    HW111210   1.927   1.148   5.922
 3437SOL    HW211211   1.931   1.307   5.883
 3438SOL     OW11212   1.084   2.869   0.253
 3438SOL    HW111213   1.126   2.787   0.214
 3438SOL    HW211214   1.089   2.943   0.187
 3439SOL     OW11215   1.887   6.460   4.937
 3439SOL    HW111216   1.972   6.449   4.989
 3439SOL    HW211217   1.900   6.424   4.844
 3440SOL     OW11218   3.706   3.379   1.611
 3440SOL    HW111219   3.707   3.384   1.711
 3440SOL    HW211220   3.741   3.465   1.573
 3441SOL     OW11221   5.260   6.937   4.141
 3441SOL    HW111222   5.349   6.957   4.183
 3441SOL    HW211223   5.265   6.955   4.043
 3442SOL     OW11224   3.325   5.633   2.068
 3442SOL    HW111225   3.340   5.583   2.153
 3442SOL    HW211226   3.338   5.731   2.083
 3443SOL     OW11227   5.188   6.383   1.829
 3443SOL    HW111228   5.160   6.342   1.915
 3443SOL    HW211229   5.259   6.327   1.786
 3444SOL     OW11230   5.210   5.435   0.194
 3444SOL    HW111231   5.250   5.378   0.266
 3444SOL    HW211232   5.112   5.416   0.187
 3445SOL     OW11233   6.161   5.937   4.642
 3445SOL    HW111234   6.146   6.004   4.569
 3445SOL    HW211235   6.241   5.964   4.696
 3446SOL     OW11236   6.288   0.315   2.451
 3446SOL    HW111237   6.289   0.392   2.516
 3446SOL    HW211238   6.303   0.350   2.358
 3447SOL     OW11239   5.456   5.857   1.054
 3447SOL    HW111240   5.444   5.771   1.105
 3447SOL    HW211241   5.398   5.928   1.095
 3448SOL     OW11242   3.224   0.061   0.865
 3448SOL    HW111243   3.234   0.159   0.885
 3448SOL    HW211244   3.315   0.018   0.867
 3449SOL     OW11245   6.630   6.905   4.058
 3449SOL    HW111246   6.602   6.995   4.026
 3449SOL    HW211247   6.712   6.875   4.009
 3450SOL     OW11248   6.747   2.016   6.525
 3450SOL    HW111249   6.809   2.084   6.486
 3450SOL    HW211250   6.652   2.042   6.505
 3451SOL     OW11251   2.248   6.493   1.799
 3451SOL    HW111252   2.347   6.500   1.787
 3451SOL    HW211253   2.222   6.397   1.811
 3452SOL     OW11254   5.962   0.649   6.086
 3452SOL    HW111255   5.988   0.638   6.182
 3452SOL    HW211256   5.862   0.653   6.079
 3453SOL     OW11257   6.935   5.822   5.770
 3453SOL    HW111258   6.880   5.842   5.689
 3453SOL    HW211259   6.979   5.906   5.802
 3454SOL     OW11260   1.047   1.977   6.328
 3454SOL    HW111261   1.066   2.074   6.313
 3454SOL    HW211262   1.105   1.942   6.401
 3455SOL     OW11263   2.498   2.046   4.224
 3455SOL    HW111264   2.561   2.010   4.293
 3455SOL    HW211265   2.547   2.061   4.139
 3456SOL     OW11266   6.028   5.384   2.665
 3456SOL    HW111267   6.043   5.307   2.727
 3456SOL    HW211268   6.112   5.403   2.614
 3457SOL     OW11269   3.291   5.786   3.573
 3457SOL    HW111270   3.298   5.877   3.614
 3457SOL    HW211271   3.297   5.794   3.474
 3458SOL     OW11272   4.712   0.529   1.242
 3458SOL    HW111273   4.729   0.546   1.145
 3458SOL    HW211274   4.645   0.456   1.251
 3459SOL     OW11275   5.864   4.002   2.805
 3459SOL    HW111276   5.961   3.986   2.788
 3459SOL    HW211277   5.809   3.947   2.742
 3460SOL     OW11278   2.486   3.236   6.849
 3460SOL    HW111279   2.423   3.310   6.875
 3460SOL    HW211280   2.499   3.175   6.927
 3461SOL     OW11281   4.472   6.808   5.084
 3461SOL    HW111282   4.534   6.822   5.161
 3461SOL    HW211283   4.420   6.724   5.099
 3462SOL     OW11284   0.496   3.705   2.121
 3462SOL    HW111285   0.397   3.720   2.119
 3462SOL    HW211286   0.527   3.677   2.031
 3463SOL     OW11287   0.868   4.002   2.929
 3463SOL    HW111288   0.871   3.965   2.837
 3463SOL    HW211289   0.866   3.927   2.995
 3464SOL     OW11290   6.713   3.215   6.547
 3464SOL    HW111291   6.729   3.275   6.626
 3464SOL    HW211292   6.732   3.265   6.463
 3465SOL     OW11293   1.679   2.594   2.260
 3465SOL    HW111294   1.707   2.637   2.345
 3465SOL    HW211295   1.760   2.574   2.204
 3466SOL     OW11296   6.927   4.677   0.153
 3466SOL    HW111297   6.983   4.705   0.231
 3466SOL    HW211298   6.919   4.753   0.089
 3467SOL     OW11299   2.226   2.574   0.854
 3467SOL    HW111300   2.299   2.518   0.893
 3467SOL    HW211301   2.162   2.599   0.926
 3468SOL     OW11302   5.789   6.986   2.904
 3468SOL    HW111303   5.854   6.944   2.840
 3468SOL    HW211304   5.699   6.947   2.890
 3469SOL     OW11305   4.751   0.212   3.658
 3469SOL    HW111306   4.687   0.258   3.720
 3469SOL    HW211307   4.839   0.200   3.703
 3470SOL     OW11308   6.498   2.708   1.988
 3470SOL    HW111309   6.557   2.773   1.941
 3470SOL    HW211310   6.532   2.615   1.974
 3471SOL     OW11311   4.622   4.965   4.544
 3471SOL    HW111312   4.556   5.039   4.528
 3471SOL    HW211313   4.585   4.879   4.510
 3472SOL     OW11314   2.933   1.115   3.341
 3472SOL    HW111315   2.929   1.015   3.337
 3472SOL    HW211316   2.884   1.153   3.262
 3473SOL     OW11317   6.993   2.732   1.594
 3473SOL    HW111318   0.019   2.685   1.517
 3473SOL    HW211319   0.033   2.718   1.676
 3474SOL     OW11320   1.240   4.477   2.451
 3474SOL    HW111321   1.307   4.425   2.397
 3474SOL    HW211322   1.164   4.503   2.391
 3475SOL     OW11323   1.100   4.432   4.584
 3475SOL    HW111324   1.144   4.372   4.517
 3475SOL    HW211325   1.144   4.521   4.584
 3476SOL     OW11326   2.035   1.710   2.945
 3476SOL    HW111327   1.984   1.740   2.865
 3476SOL    HW211328   2.130   1.740   2.938
 3477SOL     OW11329   1.727   5.447   0.866
 3477SOL    HW111330   1.692   5.525   0.814
 3477SOL    HW211331   1.693   5.362   0.825
 3478SOL     OW11332   2.511   5.436   5.158
 3478SOL    HW111333   2.552   5.346   5.174
 3478SOL    HW211334   2.432   5.448   5.218
 3479SOL     OW11335   0.625   0.428   2.969
 3479SOL    HW111336   0.583   0.497   2.910
 3479SOL    HW211337   0.614   0.338   2.927
 3480SOL     OW11338   0.655   6.360   4.725
 3480SOL    HW111339   0.744   6.355   4.679
 3480SOL    HW211340   0.607   6.442   4.694
 3481SOL     OW11341   4.601   0.737   0.119
 3481SOL    HW111342   4.553   0.739   0.031
 3481SOL    HW211343   4.621   0.642   0.143
 3482SOL     OW11344   6.363   1.611   1.931
 3482SOL    HW111345   6.357   1.696   1.983
 3482SOL    HW211346   6.351   1.534   1.992
 3483SOL     OW11347   4.933   2.079   2.000
 3483SOL    HW111348   4.927   1.979   1.996
 3483SOL    HW211349   4.842   2.119   1.991
 3484SOL     OW11350   1.120   3.067   0.077
 3484SOL    HW111351   1.134   3.023   7.004
 3484SOL    HW211352   1.155   3.160   0.075
 3485SOL     OW11353   2.157   1.395   4.130
 3485SOL    HW111354   2.097   1.472   4.152
 3485SOL    HW211355   2.112   1.309   4.156
 3486SOL     OW11356   2.814   0.179   3.755
 3486SOL    HW111357   2.746   0.246   3.785
 3486SOL    HW211358   2.903   0.224   3.746
 3487SOL     OW11359   5.990   2.682   5.667
 3487SOL    HW111360   6.069   2.657   5.612
 3487SOL    HW211361   6.021   2.728   5.751
 3488SOL     OW11362   6.512   0.467   4.546
 3488SOL    HW111363   6.540   0.543   4.604
 3488SOL    HW211364   6.532   0.380   4.592
 3489SOL     OW11365   4.468   6.861   1.377
 3489SOL    HW111366   4.497   6.891   1.286
 3489SOL    HW211367   4.546   6.864   1.440
 3490SOL     OW11368   4.399   4.590   0.525
 3490SOL    HW111369   4.489   4.630   0.506
 3490SOL    HW211370   4.379   4.520   0.458
 3491SOL     OW11371   4.455   2.399   5.760
 3491SOL    HW111372   4.517   2.341   5.707
 3491SOL    HW211373   4.451   2.490   5.720
 3492SOL     OW11374   6.737   4.769   1.337
 3492SOL    HW111375   6.688   4.846   1.296
 3492SOL    HW211376   6.809   4.803   1.397
 3493SOL     OW11377   5.272   3.924   5.030
 3493SOL    HW111378   5.195   3.877   5.074
 3493SOL    HW211379   5.242   4.014   4.998
 3494SOL     OW11380   3.500   0.366   1.746
 3494SOL    HW111381   3.539   0.288   1.795
 3494SOL    HW211382   3.569   0.439   1.739
 3495SOL     OW11383   5.540   4.983   1.514
 3495SOL    HW111384   5.507   4.888   1.516
 3495SOL    HW211385   5.621   4.992   1.572
 3496SOL     OW11386   6.105   4.441   0.930
 3496SOL    HW111387   6.093   4.494   1.014
 3496SOL    HW211388   6.142   4.500   0.859
 3497SOL     OW11389   2.881   1.252   4.020
 3497SOL    HW111390   2.888   1.332   3.959
 3497SOL    HW211391   2.788   1.248   4.058
 3498SOL     OW11392   2.823   2.159   1.213
 3498SOL    HW111393   2.814   2.217   1.294
 3498SOL    HW211394   2.888   2.086   1.231
 3499SOL     OW11395   4.857   3.736   3.923
 3499SOL    HW111396   4.848   3.643   3.957
 3499SOL    HW211397   4.942   3.745   3.871
 3500SOL     OW11398   1.749   3.824   5.082
 3500SOL    HW111399   1.731   3.897   5.147
 3500SOL    HW211400   1.842   3.834   5.045
 3501SOL     OW11401   1.654   5.649   4.934
 3501SOL    HW111402   1.590   5.722   4.955
 3501SOL    HW211403   1.748   5.681   4.947
 3502SOL     OW11404   6.504   2.468   2.552
 3502SOL    HW111405   6.512   2.529   2.631
 3502SOL    HW211406   6.457   2.516   2.478
 3503SOL     OW11407   6.300   6.705   5.009
 3503SOL    HW111408   6.307   6.616   5.054
 3503SOL    HW211409   6.212   6.747   5.031
 3504SOL     OW11410   2.335   1.606   1.697
 3504SOL    HW111411   2.323   1.590   1.795
 3504SOL    HW211412   2.379   1.527   1.655
 3505SOL     OW11413   5.910   4.341   5.236
 3505SOL    HW111414   5.834   4.373   5.179
 3505SOL    HW211415   5.900   4.378   5.328
 3506SOL     OW11416   5.024   5.559   5.560
 3506SOL    HW111417   4.944   5.566   5.620
 3506SOL    HW211418   5.035   5.646   5.510
 3507SOL     OW11419   1.491   0.571   0.777
 3507SOL    HW111420   1.433   0.652   0.775
 3507SOL    HW211421   1.519   0.552   0.871
 3508SOL     OW11422   2.794   2.059   5.555
 3508SOL    HW111423   2.752   2.122   5.620
 3508SOL    HW211424   2.746   2.064   5.467
 3509SOL     OW11425   5.365   0.107   6.037
 3509SOL    HW111426   5.358   0.015   6.075
 3509SOL    HW211427   5.342   0.174   6.108
 3510SOL     OW11428   1.447   2.155   2.127
 3510SOL    HW111429   1.386   2.218   2.174
 3510SOL    HW211430   1.467   2.077   2.186
 3511SOL     OW11431   2.842   4.965   0.712
 3511SOL    HW111432   2.757   4.952   0.660
 3511SOL    HW211433   2.908   5.015   0.656
 3512SOL     OW11434   0.134   4.752   1.369
 3512SOL    HW111435   0.180   4.802   1.443
 3512SOL    HW211436   0.162   4.789   1.281
 3513SOL     OW11437   5.481   2.761   0.472
 3513SOL    HW111438   5.453   2.853   0.499
 3513SOL    HW211439   5.451   2.742   0.379
 3514SOL     OW11440   0.326   1.535   1.741
 3514SOL    HW111441   0.273   1.600   1.686
 3514SOL    HW211442   0.280   1.446   1.740
 3515SOL     OW11443   5.300   6.160   3.037
 3515SOL    HW111444   5.213   6.205   3.015
 3515SOL    HW211445   5.329   6.186   3.129
 3516SOL     OW11446   4.957   0.044   0.763
 3516SOL    HW111447   4.912   0.129   0.737
 3516SOL    HW211448   5.023   0.062   0.836
 3517SOL     OW11449   1.213   2.415   0.654
 3517SOL    HW111450   1.228   2.359   0.573
 3517SOL    HW211451   1.157   2.495   0.630
 3518SOL     OW11452   6.096   2.444   4.143
 3518SOL    HW111453   6.195   2.450   4.155
 3518SOL    HW211454   6.056   2.391   4.218
 3519SOL     OW11455   1.569   0.550   6.760
 3519SOL    HW111456   1.555   0.639   6.804
 3519SOL    HW211457   1.642   0.501   6.806
 3520SOL     OW11458   3.234   4.484   6.380
 3520SOL    HW111459   3.290   4.562   6.351
 3520SOL    HW211460   3.252   4.406   6.319
 3521SOL     OW11461   5.092   2.055   6.819
 3521SOL    HW111462   5.168   1.991   6.828
 3521SOL    HW211463   5.113   2.140   6.868
 3522SOL     OW11464   0.347   4.772   1.974
 3522SOL    HW111465   0.428   4.714   1.986
 3522SOL    HW211466   0.376   4.862   1.942
 3523SOL     OW11467   1.957   5.364   6.202
 3523SOL    HW111468   1.893   5.442   6.208
 3523SOL    HW211469   1.926   5.302   6.130
 3524SOL     OW11470   4.530   1.476   1.787
 3524SOL    HW111471   4.505   1.491   1.691
 3524SOL    HW211472   4.573   1.386   1.796
 3525SOL     OW11473   1.335   4.259   3.385
 3525SOL    HW111474   1.429   4.269   3.353
 3525SOL    HW211475   1.334   4.203   3.468
 3526SOL     OW11476   1.964   6.516   4.219
 3526SOL    HW111477   2.043   6.551   4.169
 3526SOL    HW211478   1.881   6.563   4.186
 3527SOL     OW11479   5.913   3.291   6.579
 3527SOL    HW111480   5.975   3.370   6.580
 3527SOL    HW211481   5.821   3.322   6.553
 3528SOL     OW11482   0.694   5.647   4.922
 3528SOL    HW111483   0.614   5.692   4.961
 3528SOL    HW211484   0.766   5.642   4.990
 3529SOL     OW11485   4.059   0.497   0.038
 3529SOL    HW111486   3.984   0.446   0.079
 3529SOL    HW211487   4.146   0.464   0.075
 3530SOL     OW11488   0.349   5.301   2.629
 3530SOL    HW111489   0.332   5.400   2.628
 3530SOL    HW211490   0.383   5.272   2.540
 3531SOL     OW11491   5.140   3.029   0.538
 3531SOL    HW111492   5.089   3.055   0.620
 3531SOL    HW211493   5.076   3.003   0.466
 3532SOL     OW11494   2.695   0.706   1.709
 3532SOL    HW111495   2.645   0.778   1.660
 3532SOL    HW211496   2.793   0.728   1.708
 3533SOL     OW11497   1.803   1.993   2.439
 3533SOL    HW111498   1.780   2.082   2.479
 3533SOL    HW211499   1.839   1.933   2.511
 3534SOL     OW11500   6.031   0.685   6.356
 3534SOL    HW111501   6.085   0.653   6.434
 3534SOL    HW211502   5.934   0.669   6.374
 3535SOL     OW11503   1.597   6.004   0.974
 3535SOL    HW111504   1.684   5.955   0.978
 3535SOL    HW211505   1.601   6.072   0.900
 3536SOL     OW11506   2.711   2.389   3.295
 3536SOL    HW111507   2.800   2.407   3.336
 3536SOL    HW211508   2.711   2.297   3.254
 3537SOL     OW11509   3.221   5.448   1.527
 3537SOL    HW111510   3.248   5.375   1.465
 3537SOL    HW211511   3.265   5.435   1.615
 3538SOL     OW11512   1.350   0.371   6.285
 3538SOL    HW111513   1.395   0.303   6.342
 3538SOL    HW211514   1.412   0.398   6.211
 3539SOL     OW11515   5.608   3.258   5.719
 3539SOL    HW111516   5.510   3.252   5.737
 3539SOL    HW211517   5.635   3.354   5.708
 3540SOL     OW11518   2.749   2.285   5.728
 3540SOL    HW111519   2.670   2.226   5.743
 3540SOL    HW211520   2.718   2.380   5.722
 3541SOL     OW11521   1.481   2.110   6.535
 3541SOL    HW111522   1.561   2.064   6.575
 3541SOL    HW211523   1.500   2.134   6.440
 3542SOL     OW11524   1.481   5.019   2.401
 3542SOL    HW111525   1.488   4.924   2.369
 3542SOL    HW211526   1.419   5.069   2.341
 3543SOL     OW11527   0.688   2.197   4.941
 3543SOL    HW111528   0.742   2.276   4.912
 3543SOL    HW211529   0.600   2.197   4.892
 3544SOL     OW11530   2.784   3.985   6.197
 3544SOL    HW111531   2.810   3.894   6.164
 3544SOL    HW211532   2.829   4.055   6.141
 3545SOL     OW11533   4.136   5.273   0.558
 3545SOL    HW111534   4.055   5.316   0.598
 3545SOL    HW211535   4.138   5.177   0.584
 3546SOL     OW11536   0.692   3.785   3.875
 3546SOL    HW111537   0.655   3.746   3.959
 3546SOL    HW211538   0.790   3.767   3.870
 3547SOL     OW11539   6.735   4.836   5.109
 3547SOL    HW111540   6.790   4.801   5.034
 3547SOL    HW211541   6.730   4.767   5.182
 3548SOL     OW11542   5.799   0.572   5.773
 3548SOL    HW111543   5.745   0.651   5.743
 3548SOL    HW211544   5.896   0.591   5.759
 3549SOL     OW11545   6.779   4.558   5.873
 3549SOL    HW111546   6.877   4.551   5.892
 3549SOL    HW211547   6.765   4.602   5.784
 3550SOL     OW11548   5.901   3.529   3.563
 3550SOL    HW111549   5.858   3.576   3.485
 3550SOL    HW211550   5.990   3.494   3.535
 3551SOL     OW11551   3.472   1.779   2.407
 3551SOL    HW111552   3.555   1.749   2.360
 3551SOL    HW211553   3.444   1.869   2.372
 3552SOL     OW11554   6.385   6.286   1.791
 3552SOL    HW111555   6.310   6.261   1.729
 3552SOL    HW211556   6.348   6.325   1.875
 3553SOL     OW11557   4.544   5.562   1.115
 3553SOL    HW111558   4.580   5.562   1.022
 3553SOL    HW211559   4.478   5.637   1.125
 3554SOL     OW11560   4.436   2.099   1.327
 3554SOL    HW111561   4.367   2.029   1.347
 3554SOL    HW211562   4.432   2.170   1.397
 3555SOL     OW11563   0.415   4.352   3.742
 3555SOL    HW111564   0.346   4.356   3.670
 3555SOL    HW211565   0.370   4.337   3.831
 3556SOL     OW11566   4.059   1.509   4.268
 3556SOL    HW111567   4.101   1.424   4.239
 3556SOL    HW211568   4.086   1.529   4.362
 3557SOL     OW11569   1.136   1.563   4.318
 3557SOL    HW111570   1.220   1.529   4.275
 3557SOL    HW211571   1.062   1.499   4.299
 3558SOL     OW11572   1.100   6.182   2.574
 3558SOL    HW111573   1.089   6.180   2.475
 3558SOL    HW211574   1.149   6.265   2.600
 3559SOL     OW11575   0.712   6.178   5.718
 3559SOL    HW111576   0.648   6.101   5.720
 3559SOL    HW211577   0.777   6.169   5.794
 3560SOL     OW11578   1.112   5.802   2.655
 3560SOL    HW111579   1.174   5.877   2.629
 3560SOL    HW211580   1.059   5.829   2.735
 3561SOL     OW11581   4.297   4.739   4.782
 3561SOL    HW111582   4.205   4.773   4.798
 3561SOL    HW211583   4.326   4.681   4.859
 3562SOL     OW11584   4.529   1.478   3.329
 3562SOL    HW111585   4.460   1.405   3.323
 3562SOL    HW211586   4.483   1.566   3.341
 3563SOL     OW11587   5.689   1.182   0.183
 3563SOL    HW111588   5.592   1.157   0.192
 3563SOL    HW211589   5.746   1.101   0.197
 3564SOL     OW11590   1.598   4.497   3.594
 3564SOL    HW111591   1.597   4.406   3.636
 3564SOL    HW211592   1.544   4.560   3.649
 3565SOL     OW11593   2.603   5.728   4.863
 3565SOL    HW111594   2.647   5.816   4.847
 3565SOL    HW211595   2.655   5.655   4.818
 3566SOL     OW11596   0.091   3.641   5.849
 3566SOL    HW111597   0.153   3.701   5.900
 3566SOL    HW211598   0.043   3.581   5.913
 3567SOL     OW11599   0.237   2.806   6.900
 3567SOL    HW111600   0.152   2.856   6.880
 3567SOL    HW211601   0.277   2.842   6.984
 3568SOL     OW11602   4.752   4.925   4.226
 3568SOL    HW111603   4.678   4.861   4.203
 3568SOL    HW211604   4.829   4.874   4.263
 3569SOL     OW11605   1.772   1.680   5.763
 3569SOL    HW111606   1.718   1.601   5.731
 3569SOL    HW211607   1.849   1.695   5.701
 3570SOL     OW11608   5.251   0.672   5.593
 3570SOL    HW111609   5.169   0.671   5.536
 3570SOL    HW211610   5.226   0.700   5.686
 3571SOL     OW11611   0.917   5.530   5.038
 3571SOL    HW111612   0.907   5.471   5.118
 3571SOL    HW211613   0.914   5.475   4.955
 3572SOL     OW11614   5.928   3.423   3.144
 3572SOL    HW111615   6.011   3.403   3.092
 3572SOL    HW211616   5.933   3.515   3.181
 3573SOL     OW11617   0.289   5.135   3.684
 3573SOL    HW111618   0.219   5.064   3.692
 3573SOL    HW211619   0.249   5.224   3.706
 3574SOL     OW11620   0.512   3.391   0.673
 3574SOL    HW111621   0.424   3.354   0.703
 3574SOL    HW211622   0.583   3.323   0.690
 3575SOL     OW11623   5.406   5.539   2.383
 3575SOL    HW111624   5.403   5.522   2.284
 3575SOL    HW211625   5.417   5.637   2.400
 3576SOL     OW11626   0.634   2.580   6.390
 3576SOL    HW111627   0.707   2.565   6.456
 3576SOL    HW211628   0.591   2.668   6.407
 3577SOL     OW11629   1.419   1.749   6.462
 3577SOL    HW111630   1.448   1.736   6.557
 3577SOL    HW211631   1.335   1.803   6.460
 3578SOL     OW11632   3.780   2.070   0.221
 3578SOL    HW111633   3.771   2.153   0.165
 3578SOL    HW211634   3.736   2.084   0.309
 3579SOL     OW11635   0.267   2.179   3.474
 3579SOL    HW111636   0.294   2.160   3.568
 3579SOL    HW211637   0.172   2.152   3.460
 3580SOL     OW11638   6.313   3.536   1.536
 3580SOL    HW111639   6.250   3.604   1.497
 3580SOL    HW211640   6.267   3.447   1.540
 3581SOL     OW11641   1.307   5.359   3.348
 3581SOL    HW111642   1.258   5.446   3.359
 3581SOL    HW211643   1.289   5.300   3.427
 3582SOL     OW11644   1.436   3.427   6.570
 3582SOL    HW111645   1.370   3.370   6.521
 3582SOL    HW211646   1.520   3.435   6.516
 3583SOL     OW11647   1.168   4.588   6.580
 3583SOL    HW111648   1.192   4.680   6.612
 3583SOL    HW211649   1.160   4.526   6.658
 3584SOL     OW11650   5.680   4.969   6.225
 3584SOL    HW111651   5.732   4.883   6.224
 3584SOL    HW211652   5.582   4.949   6.218
 3585SOL     OW11653   3.190   1.055   4.450
 3585SOL    HW111654   3.147   1.084   4.365
 3585SOL    HW211655   3.225   0.962   4.440
 3586SOL     OW11656   6.380   1.370   4.601
 3586SOL    HW111657   6.297   1.315   4.597
 3586SOL    HW211658   6.359   1.464   4.574
 3587SOL     OW11659   2.202   4.927   5.654
 3587SOL    HW111660   2.277   4.891   5.599
 3587SOL    HW211661   2.123   4.944   5.595
 3588SOL     OW11662   0.884   2.988   5.103
 3588SOL    HW111663   0.970   3.024   5.140
 3588SOL    HW211664   0.826   2.958   5.179
 3589SOL     OW11665   5.402   1.019   5.655
 3589SOL    HW111666   5.467   1.032   5.730
 3589SOL    HW211667   5.439   0.953   5.589
 3590SOL     OW11668   0.551   3.670   0.697
 3590SOL    HW111669   0.480   3.696   0.631
 3590SOL    HW211670   0.575   3.574   0.683
 3591SOL     OW11671   5.263   4.330   6.745
 3591SOL    HW111672   5.320   4.258   6.785
 3591SOL    HW211673   5.225   4.297   6.658
 3592SOL     OW11674   0.585   5.417   1.957
 3592SOL    HW111675   0.657   5.460   1.903
 3592SOL    HW211676   0.537   5.349   1.901
 3593SOL     OW11677   0.914   5.358   5.255
 3593SOL    HW111678   0.953   5.411   5.330
 3593SOL    HW211679   0.960   5.269   5.249
 3594SOL     OW11680   4.892   6.779   3.284
 3594SOL    HW111681   4.826   6.854   3.280
 3594SOL    HW211682   4.969   6.800   3.224
 3595SOL     OW11683   4.353   6.215   6.197
 3595SOL    HW111684   4.442   6.169   6.199
 3595SOL    HW211685   4.281   6.148   6.180
 3596SOL     OW11686   6.312   3.098   2.362
 3596SOL    HW111687   6.223   3.135   2.337
 3596SOL    HW211688   6.301   3.015   2.416
 3597SOL     OW11689   1.801   2.002   5.670
 3597SOL    HW111690   1.807   2.086   5.617
 3597SOL    HW211691   1.706   1.982   5.691
 3598SOL     OW11692   1.016   5.892   6.517
 3598SOL    HW111693   1.027   5.991   6.513
 3598SOL    HW211694   1.084   5.848   6.459
 3599SOL     OW11695   5.551   2.423   6.547
 3599SOL    HW111696   5.464   2.376   6.562
 3599SOL    HW211697   5.545   2.481   6.466
 3600SOL     OW11698   0.571   3.278   1.611
 3600SOL    HW111699   0.527   3.253   1.525
 3600SOL    HW211700   0.669   3.292   1.596
 3601SOL     OW11701   5.294   3.218   6.039
 3601SOL    HW111702   5.304   3.227   6.138
 3601SOL    HW211703   5.223   3.282   6.007
 3602SOL     OW11704   1.043   3.827   0.720
 3602SOL    HW111705   0.948   3.859   0.723
 3602SOL    HW211706   1.048   3.743   0.666
 3603SOL     OW11707   3.614   1.393   4.138
 3603SOL    HW111708   3.588   1.444   4.056
 3603SOL    HW211709   3.644   1.456   4.209
 3604SOL     OW11710   6.601   6.062   3.165
 3604SOL    HW111711   6.514   6.053   3.117
 3604SOL    HW211712   6.621   6.158   3.181
 3605SOL     OW11713   6.410   3.990   4.125
 3605SOL    HW111714   6.432   3.982   4.222
 3605SOL    HW211715   6.416   3.901   4.082
 3606SOL     OW11716   0.666   0.493   4.373
 3606SOL    HW111717   0.749   0.475   4.320
 3606SOL    HW211718   0.655   0.592   4.385
 3607SOL     OW11719   5.374   5.239   1.766
 3607SOL    HW111720   5.463   5.277   1.740
 3607SOL    HW211721   5.385   5.184   1.848
 3608SOL     OW11722   4.754   2.025   4.531
 3608SOL    HW111723   4.744   2.056   4.626
 3608SOL    HW211724   4.830   2.073   4.488
 3609SOL     OW11725   1.112   0.495   4.083
 3609SOL    HW111726   1.159   0.556   4.146
 3609SOL    HW211727   1.141   0.515   3.989
 3610SOL     OW11728   1.547   6.994   5.885
 3610SOL    HW111729   1.641   0.013   5.893
 3610SOL    HW211730   1.519   6.995   5.789
 3611SOL     OW11731   4.491   4.930   4.796
 3611SOL    HW111732   4.440   4.844   4.784
 3611SOL    HW211733   4.533   4.957   4.710
 3612SOL     OW11734   0.270   0.284   0.218
 3612SOL    HW111735   0.307   0.352   0.281
 3612SOL    HW211736   0.171   0.295   0.210
 3613SOL     OW11737   4.900   4.623   1.994
 3613SOL    HW111738   4.814   4.601   2.039
 3613SOL    HW211739   4.944   4.538   1.962
 3614SOL     OW11740   3.813   3.612   0.754
 3614SOL    HW111741   3.894   3.573   0.710
 3614SOL    HW211742   3.838   3.697   0.800
 3615SOL     OW11743   4.883   4.009   6.212
 3615SOL    HW111744   4.982   4.012   6.221
 3615SOL    HW211745   4.848   3.922   6.246
 3616SOL     OW11746   0.333   1.829   6.716
 3616SOL    HW111747   0.314   1.756   6.650
 3616SOL    HW211748   0.259   1.835   6.783
 3617SOL     OW11749   4.548   0.966   6.830
 3617SOL    HW111750   4.448   0.967   6.830
 3617SOL    HW211751   4.581   0.874   6.851
 3618SOL     OW11752   2.213   2.954   5.559
 3618SOL    HW111753   2.209   2.982   5.463
 3618SOL    HW211754   2.271   3.017   5.610
 3619SOL     OW11755   5.831   2.645   4.758
 3619SOL    HW111756   5.919   2.632   4.713
 3619SOL    HW211757   5.771   2.700   4.700
 3620SOL     OW11758   6.250   5.925   5.702
 3620SOL    HW111759   6.196   5.949   5.622
 3620SOL    HW211760   6.253   5.825   5.712
 3621SOL     OW11761   3.424   3.082   5.242
 3621SOL    HW111762   3.370   3.109   5.322
 3621SOL    HW211763   3.434   2.982   5.240
 3622SOL     OW11764   0.895   1.775   6.806
 3622SOL    HW111765   0.875   1.858   6.754
 3622SOL    HW211766   0.818   1.711   6.799
 3623SOL     OW11767   6.700   6.369   4.726
 3623SOL    HW111768   6.676   6.415   4.641
 3623SOL    HW211769   6.798   6.376   4.742
 3624SOL     OW11770   1.335   6.973   2.290
 3624SOL    HW111771   1.321   0.040   2.237
 3624SOL    HW211772   1.252   6.916   2.286
 3625SOL     OW11773   0.318   3.292   6.665
 3625SOL    HW111774   0.234   3.238   6.667
 3625SOL    HW211775   0.296   3.388   6.648
 3626SOL     OW11776   1.410   2.905   5.371
 3626SOL    HW111777   1.445   2.988   5.415
 3626SOL    HW211778   1.310   2.902   5.379
 3627SOL     OW11779   3.905   3.566   1.568
 3627SOL    HW111780   3.984   3.505   1.558
 3627SOL    HW211781   3.931   3.645   1.623
 3628SOL     OW11782   1.347   1.297   2.526
 3628SOL    HW111783   1.275   1.266   2.463
 3628SOL    HW211784   1.432   1.311   2.475
 3629SOL     OW11785   0.619   1.247   5.459
 3629SOL    HW111786   0.669   1.232   5.373
 3629SOL    HW211787   0.521   1.242   5.441
 3630SOL     OW11788   5.235   2.193   4.067
 3630SOL    HW111789   5.262   2.126   4.136
 3630SOL    HW211790   5.284   2.279   4.084
 3631SOL     OW11791   2.075   0.664   3.178
 3631SOL    HW111792   2.131   0.713   3.244
 3631SOL    HW211793   2.090   0.702   3.087
 3632SOL     OW11794   5.489   5.461   0.948
 3632SOL    HW111795   5.487   5.455   1.047
 3632SOL    HW211796   5.507   5.371   0.909
 3633SOL     OW11797   3.966   2.121   5.731
 3633SOL    HW111798   4.053   2.169   5.727
 3633SOL    HW211799   3.983   2.026   5.758
 3634SOL     OW11800   1.721   5.522   5.774
 3634SOL    HW111801   1.780   5.595   5.740
 3634SOL    HW211802   1.699   5.460   5.698
 3635SOL     OW11803   3.426   6.904   0.953
 3635SOL    HW111804   3.377   6.915   1.040
 3635SOL    HW211805   3.506   6.963   0.953
 3636SOL     OW11806   6.884   5.957   0.923
 3636SOL    HW111807   6.848   5.915   1.006
 3636SOL    HW211808   6.925   5.886   0.864
 3637SOL     OW11809   0.447   2.557   2.045
 3637SOL    HW111810   0.360   2.511   2.027
 3637SOL    HW211811   0.487   2.520   2.129
 3638SOL     OW11812   0.514   3.996   3.128
 3638SOL    HW111813   0.421   4.032   3.123
 3638SOL    HW211814   0.529   3.955   3.217
 3639SOL     OW11815   4.155   5.734   0.451
 3639SOL    HW111816   4.068   5.714   0.405
 3639SOL    HW211817   4.178   5.831   0.437
 3640SOL     OW11818   4.374   1.192   0.224
 3640SOL    HW111819   4.410   1.255   0.155
 3640SOL    HW211820   4.420   1.103   0.215
 3641SOL     OW11821   5.933   3.446   2.000
 3641SOL    HW111822   5.923   3.433   1.901
 3641SOL    HW211823   5.995   3.377   2.037
 3642SOL     OW11824   5.357   2.323   6.944
 3642SOL    HW111825   5.306   2.279   0.001
 3642SOL    HW211826   5.294   2.373   6.884
 3643SOL     OW11827   2.322   5.693   4.911
 3643SOL    HW111828   2.273   5.641   4.840
 3643SOL    HW211829   2.419   5.701   4.885
 3644SOL     OW11830   1.705   1.698   2.060
 3644SOL    HW111831   1.715   1.611   2.012
 3644SOL    HW211832   1.781   1.759   2.036
 3645SOL     OW11833   1.515   2.163   3.873
 3645SOL    HW111834   1.553   2.223   3.803
 3645SOL    HW211835   1.504   2.213   3.958
 3646SOL     OW11836   1.666   4.156   6.140
 3646SOL    HW111837   1.752   4.179   6.094
 3646SOL    HW211838   1.670   4.185   6.235
 3647SOL     OW11839   2.611   6.475   6.630
 3647SOL    HW111840   2.646   6.451   6.539
 3647SOL    HW211841   2.619   6.396   6.691
 3648SOL     OW11842   4.461   6.201   2.558
 3648SOL    HW111843   4.555   6.193   2.590
 3648SOL    HW211844   4.400   6.208   2.637
 3649SOL     OW11845   5.865   3.047   1.305
 3649SOL    HW111846   5.828   3.007   1.221
 3649SOL    HW211847   5.961   3.020   1.316
 3650SOL     OW11848   6.763   5.270   1.897
 3650SOL    HW111849   6.861   5.290   1.902
 3650SOL    HW211850   6.712   5.342   1.944
 3651SOL     OW11851   0.909   0.770   3.860
 3651SOL    HW111852   1.004   0.756   3.832
 3651SOL    HW211853   0.907   0.794   3.958
 3652SOL     OW11854   6.139   0.085   3.454
 3652SOL    HW111855   6.099   0.008   3.503
 3652SOL    HW211856   6.239   0.080   3.457
 3653SOL     OW11857   1.129   1.489   3.028
 3653SOL    HW111858   1.135   1.471   2.929
 3653SOL    HW211859   1.210   1.541   3.057
 3654SOL     OW11860   3.914   4.980   0.472
 3654SOL    HW111861   3.826   5.003   0.512
 3654SOL    HW211862   3.904   4.898   0.415
 3655SOL     OW11863   3.336   0.174   3.789
 3655SOL    HW111864   3.350   0.087   3.837
 3655SOL    HW211865   3.425   0.215   3.768
 3656SOL     OW11866   0.302   5.046   1.372
 3656SOL    HW111867   0.396   5.063   1.341
 3656SOL    HW211868   0.247   5.015   1.295
 3657SOL     OW11869   5.289   5.397   5.371
 3657SOL    HW111870   5.197   5.364   5.349
 3657SOL    HW211871   5.284   5.454   5.453
 3658SOL     OW11872   2.884   4.732   6.557
 3658SOL    HW111873   2.941   4.751   6.637
 3658SOL    HW211874   2.795   4.777   6.569
 3659SOL     OW11875   2.035   2.511   6.030
 3659SOL    HW111876   1.937   2.491   6.025
 3659SOL    HW211877   2.084   2.459   5.960
 3660SOL     OW11878   5.493   6.223   4.098
 3660SOL    HW111879   5.489   6.258   4.191
 3660SOL    HW211880   5.579   6.174   4.084
 3661SOL     OW11881   0.024   0.509   4.847
 3661SOL    HW111882   0.098   0.462   4.799
 3661SOL    HW211883   0.062   0.561   4.924
 3662SOL     OW11884   4.098   0.377   4.491
 3662SOL    HW111885   4.184   0.417   4.522
 3662SOL    HW211886   4.114   0.326   4.406
 3663SOL     OW11887   1.540   2.957   0.673
 3663SOL    HW111888   1.474   2.911   0.614
 3663SOL    HW211889   1.491   3.014   0.740
 3664SOL     OW11890   4.670   2.154   1.950
 3664SOL    HW111891   4.623   2.111   2.027
 3664SOL    HW211892   4.642   2.250   1.943
 3665SOL     OW11893   1.070   6.179   4.750
 3665SOL    HW111894   1.122   6.120   4.811
 3665SOL    HW211895   0.998   6.126   4.705
 3666SOL     OW11896   1.119   4.131   2.960
 3666SOL    HW111897   1.108   4.165   3.053
 3666SOL    HW211898   1.051   4.061   2.941
 3667SOL     OW11899   0.307   1.511   3.626
 3667SOL    HW111900   0.211   1.536   3.616
 3667SOL    HW211901   0.350   1.571   3.693
 3668SOL     OW11902   1.109   1.119   1.419
 3668SOL    HW111903   1.052   1.186   1.467
 3668SOL    HW211904   1.103   1.031   1.465
 3669SOL     OW11905   5.658   1.836   3.372
 3669SOL    HW111906   5.718   1.909   3.339
 3669SOL    HW211907   5.654   1.838   3.472
 3670SOL     OW11908   2.278   5.177   6.450
 3670SOL    HW111909   2.352   5.243   6.457
 3670SOL    HW211910   2.245   5.173   6.355
 3671SOL     OW11911   0.068   1.887   4.404
 3671SOL    HW111912   0.036   1.797   4.433
 3671SOL    HW211913   0.119   1.877   4.318
 3672SOL     OW11914   4.343   1.949   2.556
 3672SOL    HW111915   4.360   1.929   2.459
 3672SOL    HW211916   4.425   1.989   2.596
 3673SOL     OW11917   3.650   5.973   0.029
 3673SOL    HW111918   3.667   6.067   0.058
 3673SOL    HW211919   3.570   5.937   0.077
 3674SOL     OW11920   1.787   5.819   5.966
 3674SOL    HW111921   1.782   5.880   5.886
 3674SOL    HW211922   1.880   5.818   6.002
 3675SOL     OW11923   1.762   2.625   4.251
 3675SOL    HW111924   1.791   2.696   4.187
 3675SOL    HW211925   1.675   2.652   4.293
 3676SOL     OW11926   6.329   4.417   2.626
 3676SOL    HW111927   6.330   4.416   2.526
 3676SOL    HW211928   6.387   4.344   2.661
 3677SOL     OW11929   2.859   6.547   4.426
 3677SOL    HW111930   2.790   6.503   4.369
 3677SOL    HW211931   2.836   6.536   4.522
 3678SOL     OW11932   1.372   1.642   4.544
 3678SOL    HW111933   1.286   1.637   4.493
 3678SOL    HW211934   1.448   1.619   4.484
 3679SOL     OW11935   6.866   0.574   3.119
 3679SOL    HW111936   6.965   0.590   3.110
 3679SOL    HW211937   6.823   0.653   3.162
 3680SOL     OW11938   5.198   2.490   3.843
 3680SOL    HW111939   5.157   2.425   3.906
 3680SOL    HW211940   5.297   2.476   3.840
 3681SOL     OW11941   1.001   1.107   6.689
 3681SOL    HW111942   0.962   1.107   6.781
 3681SOL    HW211943   0.999   1.200   6.652
 3682SOL     OW11944   5.845   2.517   0.193
 3682SOL    HW111945   5.807   2.486   0.106
 3682SOL    HW211946   5.922   2.459   0.218
 3683SOL     OW11947   0.405   1.527   4.305
 3683SOL    HW111948   0.364   1.588   4.237
 3683SOL    HW211949   0.503   1.544   4.309
 3684SOL     OW11950   0.844   5.736   0.586
 3684SOL    HW111951   0.899   5.707   0.508
 3684SOL    HW211952   0.837   5.835   0.588
 3685SOL     OW11953   2.107   5.841   5.982
 3685SOL    HW111954   2.091   5.743   5.992
 3685SOL    HW211955   2.111   5.864   5.884
 3686SOL     OW11956   6.154   4.986   4.444
 3686SOL    HW111957   6.057   5.012   4.437
 3686SOL    HW211958   6.175   4.961   4.538
 3687SOL     OW11959   4.001   6.314   4.266
 3687SOL    HW111960   4.100   6.306   4.278
 3687SOL    HW211961   3.977   6.409   4.247
 3688SOL     OW11962   6.608   2.812   0.022
 3688SOL    HW111963   6.678   2.740   0.019
 3688SOL    HW211964   6.635   2.881   0.090
 3689SOL     OW11965   2.152   0.701   5.713
 3689SOL    HW111966   2.184   0.693   5.808
 3689SOL    HW211967   2.052   0.705   5.712
 3690SOL     OW11968   3.741   5.929   0.388
 3690SOL    HW111969   3.699   5.858   0.332
 3690SOL    HW211970   3.763   5.891   0.478
 3691SOL     OW11971   2.350   1.676   0.151
 3691SOL    HW111972   2.284   1.748   0.132
 3691SOL    HW211973   2.326   1.594   0.098
 3692SOL     OW11974   6.281   5.359   5.334
 3692SOL    HW111975   6.321   5.419   5.265
 3692SOL    HW211976   6.350   5.338   5.404
 3693SOL     OW11977   2.227   2.887   3.135
 3693SOL    HW111978   2.206   2.928   3.224
 3693SOL    HW211979   2.182   2.939   3.063
 3694SOL     OW11980   0.938   6.552   2.118
 3694SOL    HW111981   0.977   6.496   2.191
 3694SOL    HW211982   1.003   6.561   2.043
 3695SOL     OW11983   5.359   2.605   1.239
 3695SOL    HW111984   5.334   2.592   1.335
 3695SOL    HW211985   5.457   2.625   1.233
 3696SOL     OW11986   4.044   0.227   4.198
 3696SOL    HW111987   3.972   0.297   4.201
 3696SOL    HW211988   4.013   0.146   4.247
 3697SOL     OW11989   0.058   5.921   2.878
 3697SOL    HW111990   6.981   5.904   2.912
 3697SOL    HW211991   0.108   5.975   2.945
 3698SOL     OW11992   2.489   0.962   3.471
 3698SOL    HW111993   2.424   0.907   3.522
 3698SOL    HW211994   2.569   0.982   3.528
 3699SOL     OW11995   1.852   1.175   3.570
 3699SOL    HW111996   1.852   1.186   3.470
 3699SOL    HW211997   1.944   1.150   3.600
 3700SOL     OW11998   1.749   4.660   5.117
 3700SOL    HW111999   1.775   4.568   5.088
 3700SOL    HW212000   1.775   4.725   5.046
 3701SOL     OW12001   1.648   0.278   3.682
 3701SOL    HW112002   1.592   0.239   3.608
 3701SOL    HW212003   1.745   0.271   3.658
 3702SOL     OW12004   5.542   6.557   3.490
 3702SOL    HW112005   5.590   6.489   3.544
 3702SOL    HW212006   5.481   6.610   3.549
 3703SOL     OW12007   0.292   0.650   6.496
 3703SOL    HW112008   0.312   0.623   6.590
 3703SOL    HW212009   0.224   0.588   6.457
 3704SOL     OW12010   3.867   2.183   1.333
 3704SOL    HW112011   3.866   2.271   1.382
 3704SOL    HW212012   3.907   2.113   1.392
 3705SOL     OW12013   5.497   4.016   4.743
 3705SOL    HW112014   5.532   4.068   4.666
 3705SOL    HW212015   5.500   3.918   4.721
 3706SOL     OW12016   0.488   3.800   6.874
 3706SOL    HW112017   0.517   3.721   6.927
 3706SOL    HW212018   0.532   3.883   6.910
 3707SOL     OW12019   5.015   5.620   4.838
 3707SOL    HW112020   5.069   5.571   4.769
 3707SOL    HW212021   5.019   5.718   4.819
 3708SOL     OW12022   5.389   6.743   1.089
 3708SOL    HW112023   5.367   6.648   1.111
 3708SOL    HW212024   5.314   6.784   1.037
 3709SOL     OW12025   3.597   6.762   1.399
 3709SOL    HW112026   3.611   6.861   1.405
 3709SOL    HW212027   3.674   6.720   1.351
 3710SOL     OW12028   6.417   5.514   5.135
 3710SOL    HW112029   6.499   5.469   5.100
 3710SOL    HW212030   6.440   5.605   5.168
 3711SOL     OW12031   1.748   5.604   5.200
 3711SOL    HW112032   1.656   5.598   5.239
 3711SOL    HW212033   1.742   5.632   5.104
 3712SOL     OW12034   1.055   5.309   6.542
 3712SOL    HW112035   1.024   5.389   6.490
 3712SOL    HW212036   1.020   5.226   6.500
 3713SOL     OW12037   0.377   0.212   5.152
 3713SOL    HW112038   0.447   0.284   5.159
 3713SOL    HW212039   0.420   0.127   5.121
 3714SOL     OW12040   5.694   6.022   6.632
 3714SOL    HW112041   5.682   6.098   6.569
 3714SOL    HW212042   5.783   6.031   6.678
 3715SOL     OW12043   1.298   4.050   2.606
 3715SOL    HW112044   1.374   4.059   2.670
 3715SOL    HW212045   1.237   4.129   2.615
 3716SOL     OW12046   6.161   6.493   4.453
 3716SOL    HW112047   6.121   6.409   4.492
 3716SOL    HW212048   6.148   6.568   4.517
 3717SOL     OW12049   5.615   0.200   0.073
 3717SOL    HW112050   5.591   0.146   0.154
 3717SOL    HW212051   5.714   0.194   0.058
 3718SOL     OW12052   0.068   0.339   0.482
 3718SOL    HW112053   0.153   0.381   0.447
 3718SOL    HW212054   0.009   0.314   0.405
 3719SOL     OW12055   4.787   3.022   0.421
 3719SOL    HW112056   4.740   2.941   0.455
 3719SOL    HW212057   4.866   2.994   0.367
 3720SOL     OW12058   5.407   3.002   0.542
 3720SOL    HW112059   5.421   2.977   0.638
 3720SOL    HW212060   5.309   3.000   0.521
 3721SOL     OW12061   6.843   5.446   1.131
 3721SOL    HW112062   6.919   5.380   1.136
 3721SOL    HW212063   6.810   5.452   1.037
 3722SOL     OW12064   5.554   6.304   0.979
 3722SOL    HW112065   5.460   6.274   0.965
 3722SOL    HW212066   5.600   6.241   1.042
 3723SOL     OW12067   4.858   5.103   0.661
 3723SOL    HW112068   4.808   5.073   0.742
 3723SOL    HW212069   4.812   5.183   0.621
 3724SOL     OW12070   1.872   4.343   5.376
 3724SOL    HW112071   1.929   4.270   5.339
 3724SOL    HW212072   1.928   4.405   5.431
 3725SOL     OW12073   6.990   5.371   6.682
 3725SOL    HW112074   0.047   5.304   6.678
 3725SOL    HW212075   0.009   5.461   6.655
 3726SOL     OW12076   5.628   3.550   5.966
 3726SOL    HW112077   5.706   3.599   5.929
 3726SOL    HW212078   5.565   3.525   5.892
 3727SOL     OW12079   6.769   2.183   5.494
 3727SOL    HW112080   6.676   2.153   5.475
 3727SOL    HW212081   6.774   2.283   5.493
 3728SOL     OW12082   1.133   3.011   6.827
 3728SOL    HW112083   1.141   3.102   6.785
 3728SOL    HW212084   1.062   2.958   6.781
 3729SOL     OW12085   1.798   1.410   4.406
 3729SOL    HW112086   1.717   1.399   4.462
 3729SOL    HW212087   1.776   1.463   4.324
 3730SOL     OW12088   3.366   5.751   5.455
 3730SOL    HW112089   3.306   5.762   5.377
 3730SOL    HW212090   3.406   5.660   5.454
 3731SOL     OW12091   6.909   1.581   0.458
 3731SOL    HW112092   6.983   1.521   0.428
 3731SOL    HW212093   6.871   1.628   0.378
 3732SOL     OW12094   2.383   1.876   0.457
 3732SOL    HW112095   2.308   1.818   0.488
 3732SOL    HW212096   2.447   1.822   0.403
 3733SOL     OW12097   2.013   2.632   3.087
 3733SOL    HW112098   2.043   2.668   3.175
 3733SOL    HW212099   2.042   2.693   3.014
 3734SOL     OW12100   5.131   0.120   1.002
 3734SOL    HW112101   5.111   0.199   0.944
 3734SOL    HW212102   5.180   0.150   1.084
 3735SOL     OW12103   3.050   0.500   2.807
 3735SOL    HW112104   3.134   0.495   2.861
 3735SOL    HW212105   3.049   0.587   2.757
 3736SOL     OW12106   0.405   1.402   1.275
 3736SOL    HW112107   0.384   1.500   1.269
 3736SOL    HW212108   0.368   1.355   1.195
 3737SOL     OW12109   5.618   1.417   3.921
 3737SOL    HW112110   5.714   1.435   3.901
 3737SOL    HW212111   5.584   1.345   3.859
 3738SOL     OW12112   6.247   0.563   1.504
 3738SOL    HW112113   6.170   0.591   1.561
 3738SOL    HW212114   6.274   0.470   1.526
 3739SOL     OW12115   2.444   4.833   1.221
 3739SOL    HW112116   2.522   4.804   1.277
 3739SOL    HW212117   2.393   4.905   1.268
 3740SOL     OW12118   6.661   0.048   0.540
 3740SOL    HW112119   6.589   0.018   0.602
 3740SOL    HW212120   6.741   7.004   0.550
 3741SOL     OW12121   4.922   2.577   6.125
 3741SOL    HW112122   4.829   2.614   6.115
 3741SOL    HW212123   4.933   2.541   6.218
 3742SOL     OW12124   3.692   1.330   0.032
 3742SOL    HW112125   3.781   1.316   7.006
 3742SOL    HW212126   3.623   1.275   7.001
 3743SOL     OW12127   5.625   3.176   0.579
 3743SOL    HW112128   5.549   3.116   0.557
 3743SOL    HW212129   5.711   3.133   0.552
 3744SOL     OW12130   1.084   6.124   1.597
 3744SOL    HW112131   1.082   6.147   1.499
 3744SOL    HW212132   1.100   6.206   1.650
 3745SOL     OW12133   4.699   4.420   3.132
 3745SOL    HW112134   4.705   4.437   3.033
 3745SOL    HW212135   4.752   4.338   3.154
 3746SOL     OW12136   6.949   6.923   3.582
 3746SOL    HW112137   6.962   6.962   3.491
 3746SOL    HW212138   7.014   6.964   3.646
 3747SOL     OW12139   4.157   5.899   5.180
 3747SOL    HW112140   4.121   5.853   5.099
 3747SOL    HW212141   4.239   5.852   5.212
 3748SOL     OW12142   5.449   1.313   1.761
 3748SOL    HW112143   5.390   1.353   1.690
 3748SOL    HW212144   5.545   1.323   1.735
 3749SOL     OW12145   2.846   4.768   3.124
 3749SOL    HW112146   2.854   4.797   3.220
 3749SOL    HW212147   2.784   4.691   3.118
 3750SOL     OW12148   6.555   4.652   0.989
 3750SOL    HW112149   6.626   4.587   1.018
 3750SOL    HW212150   6.475   4.642   1.049
 3751SOL     OW12151   6.364   3.483   0.878
 3751SOL    HW112152   6.381   3.384   0.874
 3751SOL    HW212153   6.371   3.514   0.973
 3752SOL     OW12154   0.303   6.852   0.040
 3752SOL    HW112155   0.340   6.890   0.125
 3752SOL    HW212156   0.294   6.925   6.988
 3753SOL     OW12157   0.375   1.277   3.741
 3753SOL    HW112158   0.340   1.358   3.694
 3753SOL    HW212159   0.456   1.302   3.794
 3754SOL     OW12160   4.170   6.650   1.154
 3754SOL    HW112161   4.134   6.735   1.192
 3754SOL    HW212162   4.107   6.616   1.084
 3755SOL     OW12163   5.551   5.748   4.353
 3755SOL    HW112164   5.493   5.700   4.418
 3755SOL    HW212165   5.517   5.732   4.260
 3756SOL     OW12166   2.307   6.339   6.004
 3756SOL    HW112167   2.326   6.307   6.097
 3756SOL    HW212168   2.370   6.296   5.940
 3757SOL     OW12169   3.788   6.758   6.549
 3757SOL    HW112170   3.816   6.713   6.634
 3757SOL    HW212171   3.822   6.705   6.471
 3758SOL     OW12172   2.123   1.560   4.909
 3758SOL    HW112173   2.085   1.647   4.877
 3758SOL    HW212174   2.217   1.551   4.877
 3759SOL     OW12175   4.306   5.941   6.245
 3759SOL    HW112176   4.375   5.918   6.315
 3759SOL    HW212177   4.215   5.932   6.285
 3760SOL     OW12178   1.868   2.131   4.578
 3760SOL    HW112179   1.918   2.216   4.561
 3760SOL    HW212180   1.824   2.136   4.668
 3761SOL     OW12181   0.712   0.902   5.409
 3761SOL    HW112182   0.780   0.956   5.459
 3761SOL    HW212183   0.675   0.831   5.469
 3762SOL     OW12184   1.028   4.751   6.983
 3762SOL    HW112185   0.955   4.807   0.006
 3762SOL    HW212186   1.107   4.808   6.964
 3763SOL     OW12187   6.722   4.508   0.387
 3763SOL    HW112188   6.657   4.450   0.436
 3763SOL    HW212189   6.812   4.503   0.431
 3764SOL     OW12190   1.752   6.660   4.131
 3764SOL    HW112191   1.805   6.716   4.067
 3764SOL    HW212192   1.726   6.715   4.210
 3765SOL     OW12193   5.092   0.922   0.739
 3765SOL    HW112194   5.031   0.848   0.709
 3765SOL    HW212195   5.056   0.962   0.823
 3766SOL     OW12196   1.007   1.351   3.768
 3766SOL    HW112197   1.078   1.374   3.701
 3766SOL    HW212198   0.918   1.377   3.733
 3767SOL     OW12199   2.373   4.685   0.541
 3767SOL    HW112200   2.440   4.643   0.481
 3767SOL    HW212201   2.321   4.754   0.490
 3768SOL     OW12202   1.916   5.679   4.909
 3768SOL    HW112203   2.004   5.712   4.944
 3768SOL    HW212204   1.898   5.721   4.820
 3769SOL     OW12205   5.834   6.248   5.463
 3769SOL    HW112206   5.864   6.272   5.371
 3769SOL    HW212207   5.835   6.149   5.475
 3770SOL     OW12208   1.760   0.474   6.362
 3770SOL    HW112209   1.676   0.487   6.415
 3770SOL    HW212210   1.834   0.446   6.423
 3771SOL     OW12211   5.937   3.045   6.955
 3771SOL    HW112212   5.846   3.087   6.958
 3771SOL    HW212213   5.964   3.031   6.860
 3772SOL     OW12214   6.939   0.748   0.533
 3772SOL    HW112215   6.866   0.699   0.485
 3772SOL    HW212216   6.991   0.683   0.589
 3773SOL     OW12217   6.510   2.726   6.145
 3773SOL    HW112218   6.596   2.678   6.125
 3773SOL    HW212219   6.446   2.712   6.069
 3774SOL     OW12220   0.095   5.794   0.006
 3774SOL    HW112221   0.042   5.879   0.004
 3774SOL    HW212222   0.051   5.726   6.963
 3775SOL     OW12223   5.175   5.104   2.176
 3775SOL    HW112224   5.259   5.104   2.122
 3775SOL    HW212225   5.141   5.198   2.186
 3776SOL     OW12226   3.941   1.469   0.993
 3776SOL    HW112227   3.898   1.414   0.921
 3776SOL    HW212228   3.872   1.531   1.032
 3777SOL     OW12229   3.339   4.947   4.587
 3777SOL    HW112230   3.402   4.935   4.510
 3777SOL    HW212231   3.247   4.918   4.559
 3778SOL     OW12232   3.135   5.038   2.464
 3778SOL    HW112233   3.149   5.021   2.561
 3778SOL    HW212234   3.060   4.981   2.430
 3779SOL     OW12235   2.017   5.288   0.682
 3779SOL    HW112236   2.048   5.281   0.776
 3779SOL    HW212237   1.917   5.275   0.678
 3780SOL     OW12238   5.330   5.974   5.938
 3780SOL    HW112239   5.301   5.897   5.995
 3780SOL    HW212240   5.331   5.946   5.842
 3781SOL     OW12241   1.374   0.131   4.335
 3781SOL    HW112242   1.421   0.219   4.343
 3781SOL    HW212243   1.430   0.067   4.283
 3782SOL     OW12244   2.778   1.003   4.207
 3782SOL    HW112245   2.718   1.080   4.183
 3782SOL    HW212246   2.783   0.994   4.307
 3783SOL     OW12247   5.464   5.619   4.122
 3783SOL    HW112248   5.524   5.540   4.133
 3783SOL    HW212249   5.371   5.594   4.151
 3784SOL     OW12250   4.703   2.720   2.715
 3784SOL    HW112251   4.633   2.654   2.744
 3784SOL    HW212252   4.717   2.711   2.616
 3785SOL     OW12253   1.133   1.354   7.001
 3785SOL    HW112254   1.167   1.447   6.995
 3785SOL    HW212255   1.033   1.354   6.997
 3786SOL     OW12256   2.116   6.730   2.887
 3786SOL    HW112257   2.102   6.749   2.984
 3786SOL    HW212258   2.035   6.686   2.849
 3787SOL     OW12259   6.469   0.122   2.245
 3787SOL    HW112260   6.523   0.126   2.161
 3787SOL    HW212261   6.382   0.170   2.231
 3788SOL     OW12262   1.209   4.189   4.152
 3788SOL    HW112263   1.222   4.188   4.251
 3788SOL    HW212264   1.151   4.267   4.127
 3789SOL     OW12265   0.283   3.428   5.209
 3789SOL    HW112266   0.250   3.485   5.284
 3789SOL    HW212267   0.359   3.371   5.241
 3790SOL     OW12268   1.650   4.708   5.561
 3790SOL    HW112269   1.665   4.614   5.529
 3790SOL    HW212270   1.565   4.743   5.522
 3791SOL     OW12271   6.073   0.173   0.487
 3791SOL    HW112272   6.060   0.272   0.495
 3791SOL    HW212273   6.061   0.145   0.392
 3792SOL     OW12274   0.802   1.730   4.560
 3792SOL    HW112275   0.702   1.735   4.563
 3792SOL    HW212276   0.835   1.675   4.637
 3793SOL     OW12277   4.513   6.852   2.687
 3793SOL    HW112278   4.514   6.754   2.667
 3793SOL    HW212279   4.451   6.898   2.624
 3794SOL     OW12280   2.399   4.194   1.045
 3794SOL    HW112281   2.304   4.176   1.019
 3794SOL    HW212282   2.439   4.261   0.983
 3795SOL     OW12283   4.080   5.859   6.366
 3795SOL    HW112284   4.008   5.829   6.430
 3795SOL    HW212285   4.068   5.813   6.279
 3796SOL     OW12286   2.780   1.444   1.021
 3796SOL    HW112287   2.766   1.412   0.927
 3796SOL    HW212288   2.691   1.459   1.064
 3797SOL     OW12289   0.363   4.138   2.792
 3797SOL    HW112290   0.456   4.120   2.826
 3797SOL    HW212291   0.368   4.176   2.700
 3798SOL     OW12292   3.522   5.839   2.700
 3798SOL    HW112293   3.578   5.783   2.637
 3798SOL    HW212294   3.543   5.814   2.794
 3799SOL     OW12295   0.701   2.428   4.136
 3799SOL    HW112296   0.774   2.466   4.079
 3799SOL    HW212297   0.652   2.503   4.181
 3800SOL     OW12298   5.634   3.251   4.609
 3800SOL    HW112299   5.667   3.315   4.679
 3800SOL    HW212300   5.564   3.192   4.650
 3801SOL     OW12301   6.181   6.415   2.710
 3801SOL    HW112302   6.187   6.410   2.610
 3801SOL    HW212303   6.200   6.508   2.740
 3802SOL     OW12304   1.199   2.530   2.715
 3802SOL    HW112305   1.181   2.532   2.617
 3802SOL    HW212306   1.204   2.436   2.746
 3803SOL     OW12307   3.478   2.084   1.483
 3803SOL    HW112308   3.459   2.181   1.469
 3803SOL    HW212309   3.570   2.074   1.523
 3804SOL     OW12310   5.513   1.356   3.526
 3804SOL    HW112311   5.523   1.451   3.495
 3804SOL    HW212312   5.586   1.335   3.591
 3805SOL     OW12313   2.906   3.179   1.950
 3805SOL    HW112314   2.950   3.105   1.900
 3805SOL    HW212315   2.826   3.211   1.900
 3806SOL     OW12316   3.581   4.065   6.567
 3806SOL    HW112317   3.515   4.002   6.527
 3806SOL    HW212318   3.541   4.108   6.648
 3807SOL     OW12319   2.198   6.503   3.546
 3807SOL    HW112320   2.194   6.404   3.560
 3807SOL    HW212321   2.117   6.532   3.495
 3808SOL     OW12322   4.839   0.039   1.064
 3808SOL    HW112323   4.880   6.968   1.035
 3808SOL    HW212324   4.909   0.097   1.105
 3809SOL     OW12325   5.740   2.858   0.798
 3809SOL    HW112326   5.729   2.916   0.879
 3809SOL    HW212327   5.662   2.796   0.791
 3810SOL     OW12328   4.638   2.734   4.712
 3810SOL    HW112329   4.573   2.779   4.773
 3810SOL    HW212330   4.692   2.803   4.664
 3811SOL     OW12331   0.977   4.067   4.048
 3811SOL    HW112332   0.985   4.114   3.960
 3811SOL    HW212333   1.050   4.098   4.109
 3812SOL     OW12334   5.487   0.021   5.697
 3812SOL    HW112335   5.409   0.075   5.728
 3812SOL    HW212336   5.522   0.059   5.612
 3813SOL     OW12337   4.572   4.065   0.322
 3813SOL    HW112338   4.499   4.033   0.262
 3813SOL    HW212339   4.649   4.096   0.267
 3814SOL     OW12340   0.143   6.998   0.430
 3814SOL    HW112341   0.134   6.951   0.518
 3814SOL    HW212342   0.230   0.031   0.428
 3815SOL     OW12343   4.306   2.689   6.961
 3815SOL    HW112344   4.218   2.669   7.003
 3815SOL    HW212345   4.380   2.662   0.007
 3816SOL     OW12346   0.447   5.988   0.044
 3816SOL    HW112347   0.535   5.942   0.040
 3816SOL    HW212348   0.376   5.923   0.070
 3817SOL     OW12349   5.110   3.470   2.967
 3817SOL    HW112350   5.057   3.493   3.049
 3817SOL    HW212351   5.145   3.377   2.974
 3818SOL     OW12352   5.446   0.127   0.278
 3818SOL    HW112353   5.420   0.032   0.296
 3818SOL    HW212354   5.375   0.171   0.223
 3819SOL     OW12355   5.211   5.322   1.487
 3819SOL    HW112356   5.233   5.237   1.438
 3819SOL    HW212357   5.131   5.306   1.546
 3820SOL     OW12358   6.403   6.695   3.023
 3820SOL    HW112359   6.486   6.749   3.009
 3820SOL    HW212360   6.328   6.755   3.052
 3821SOL     OW12361   2.880   2.184   0.782
 3821SOL    HW112362   2.845   2.274   0.810
 3821SOL    HW212363   2.839   2.159   0.694
 3822SOL     OW12364   1.297   6.532   2.872
 3822SOL    HW112365   1.369   6.586   2.916
 3822SOL    HW212366   1.329   6.439   2.857
 3823SOL     OW12367   2.963   2.894   6.101
 3823SOL    HW112368   3.054   2.867   6.133
 3823SOL    HW212369   2.941   2.842   6.018
 3824SOL     OW12370   5.770   2.182   0.079
 3824SOL    HW112371   5.814   2.192   0.168
 3824SOL    HW212372   5.786   2.090   0.044
 3825SOL     OW12373   0.620   6.629   0.543
 3825SOL    HW112374   0.565   6.632   0.460
 3825SOL    HW212375   0.714   6.654   0.521
 3826SOL     OW12376   0.698   3.316   0.050
 3826SOL    HW112377   0.745   3.258   0.117
 3826SOL    HW212378   0.604   3.282   0.038
 3827SOL     OW12379   2.756   2.878   1.222
 3827SOL    HW112380   2.700   2.938   1.166
 3827SOL    HW212381   2.853   2.895   1.203
 3828SOL     OW12382   3.830   2.472   1.698
 3828SOL    HW112383   3.797   2.430   1.783
 3828SOL    HW212384   3.778   2.436   1.621
 3829SOL     OW12385   1.985   4.508   4.568
 3829SOL    HW112386   2.000   4.411   4.588
 3829SOL    HW212387   1.888   4.525   4.556
 3830SOL     OW12388   0.561   0.302   4.523
 3830SOL    HW112389   0.616   0.367   4.472
 3830SOL    HW212390   0.465   0.310   4.496
 3831SOL     OW12391   4.715   1.794   2.362
 3831SOL    HW112392   4.796   1.773   2.308
 3831SOL    HW212393   4.727   1.759   2.455
 3832SOL     OW12394   5.539   0.278   2.885
 3832SOL    HW112395   5.619   0.237   2.928
 3832SOL    HW212396   5.551   0.377   2.879
 3833SOL     OW12397   0.596   5.863   6.161
 3833SOL    HW112398   0.681   5.827   6.124
 3833SOL    HW212399   0.519   5.835   6.104
 3834SOL     OW12400   3.930   2.845   1.059
 3834SOL    HW112401   3.853   2.859   0.997
 3834SOL    HW212402   3.897   2.850   1.154
 3835SOL     OW12403   2.994   5.667   5.064
 3835SOL    HW112404   3.057   5.590   5.072
 3835SOL    HW212405   3.011   5.714   4.978
 3836SOL     OW12406   1.498   4.039   5.978
 3836SOL    HW112407   1.543   3.950   5.970
 3836SOL    HW212408   1.551   4.098   6.040
 3837SOL     OW12409   4.607   3.740   6.871
 3837SOL    HW112410   4.691   3.786   6.900
 3837SOL    HW212411   4.559   3.706   6.952
 3838SOL     OW12412   0.036   3.216   4.367
 3838SOL    HW112413   0.049   3.286   4.297
 3838SOL    HW212414   0.025   3.261   4.456
 3839SOL     OW12415   3.896   0.502   4.615
 3839SOL    HW112416   3.864   0.425   4.671
 3839SOL    HW212417   3.989   0.481   4.582
 3840SOL     OW12418   2.213   1.266   5.298
 3840SOL    HW112419   2.216   1.210   5.215
 3840SOL    HW212420   2.119   1.269   5.333
 3841SOL     OW12421   0.291   3.001   5.215
 3841SOL    HW112422   0.282   3.026   5.119
 3841SOL    HW212423   0.280   3.083   5.272
 3842SOL     OW12424   0.812   3.908   6.531
 3842SOL    HW112425   0.715   3.891   6.516
 3842SOL    HW212426   0.824   3.978   6.602
 3843SOL     OW12427   6.693   4.406   2.241
 3843SOL    HW112428   6.688   4.487   2.182
 3843SOL    HW212429   6.709   4.434   2.336
 3844SOL     OW12430   6.902   3.518   6.084
 3844SOL    HW112431   6.986   3.519   6.138
 3844SOL    HW212432   6.843   3.593   6.112
 3845SOL     OW12433   3.820   2.995   2.999
 3845SOL    HW112434   3.743   2.997   3.063
 3845SOL    HW212435   3.889   3.061   3.029
 3846SOL     OW12436   0.831   4.660   3.960
 3846SOL    HW112437   0.923   4.639   3.991
 3846SOL    HW212438   0.772   4.580   3.974
 3847SOL     OW12439   5.942   0.497   5.123
 3847SOL    HW112440   5.963   0.411   5.077
 3847SOL    HW212441   6.018   0.561   5.109
 3848SOL     OW12442   3.277   5.542   2.755
 3848SOL    HW112443   3.202   5.477   2.768
 3848SOL    HW212444   3.245   5.620   2.703
 3849SOL     OW12445   1.099   1.398   5.371
 3849SOL    HW112446   1.056   1.311   5.346
 3849SOL    HW212447   1.156   1.385   5.451
 3850SOL     OW12448   2.674   3.459   1.374
 3850SOL    HW112449   2.770   3.432   1.378
 3850SOL    HW212450   2.664   3.553   1.406
 3851SOL     OW12451   1.338   4.526   3.158
 3851SOL    HW112452   1.306   4.589   3.088
 3851SOL    HW212453   1.351   4.435   3.117
 3852SOL     OW12454   4.721   6.887   4.160
 3852SOL    HW112455   4.811   6.845   4.159
 3852SOL    HW212456   4.665   6.847   4.087
 3853SOL     OW12457   1.774   2.839   2.875
 3853SOL    HW112458   1.710   2.800   2.941
 3853SOL    HW212459   1.737   2.829   2.783
 3854SOL     OW12460   1.469   3.496   3.019
 3854SOL    HW112461   1.558   3.453   3.034
 3854SOL    HW212462   1.449   3.497   2.921
 3855SOL     OW12463   4.389   6.038   6.867
 3855SOL    HW112464   4.433   5.951   6.845
 3855SOL    HW212465   4.332   6.066   6.789
 3856SOL     OW12466   6.808   5.914   5.521
 3856SOL    HW112467   6.809   6.013   5.505
 3856SOL    HW212468   6.717   5.878   5.501
 3857SOL     OW12469   1.095   5.804   6.165
 3857SOL    HW112470   1.159   5.778   6.237
 3857SOL    HW212471   1.144   5.810   6.077
 3858SOL     OW12472   1.557   6.130   5.774
 3858SOL    HW112473   1.630   6.061   5.772
 3858SOL    HW212474   1.557   6.176   5.862
 3859SOL     OW12475   6.381   2.122   3.232
 3859SOL    HW112476   6.379   2.128   3.132
 3859SOL    HW212477   6.462   2.168   3.267
 3860SOL     OW12478   0.885   0.600   5.578
 3860SOL    HW112479   0.792   0.623   5.548
 3860SOL    HW212480   0.952   0.648   5.522
 3861SOL     OW12481   5.220   4.228   1.810
 3861SOL    HW112482   5.139   4.184   1.848
 3861SOL    HW212483   5.250   4.301   1.872
 3862SOL     OW12484   0.594   6.914   4.650
 3862SOL    HW112485   0.623   6.861   4.730
 3862SOL    HW212486   0.516   6.868   4.606
 3863SOL     OW12487   3.996   3.668   6.227
 3863SOL    HW112488   4.049   3.702   6.150
 3863SOL    HW212489   4.050   3.677   6.311
 3864SOL     OW12490   3.807   1.897   5.214
 3864SOL    HW112491   3.826   1.931   5.306
 3864SOL    HW212492   3.878   1.833   5.187
 3865SOL     OW12493   4.098   0.259   1.430
 3865SOL    HW112494   4.134   0.352   1.441
 3865SOL    HW212495   4.080   0.241   1.334
 3866SOL     OW12496   4.260   0.714   0.847
 3866SOL    HW112497   4.337   0.742   0.905
 3866SOL    HW212498   4.194   0.788   0.842
 3867SOL     OW12499   1.508   3.415   3.839
 3867SOL    HW112500   1.412   3.412   3.868
 3867SOL    HW212501   1.513   3.429   3.741
 3868SOL     OW12502   2.449   6.475   1.471
 3868SOL    HW112503   2.453   6.487   1.571
 3868SOL    HW212504   2.532   6.428   1.440
 3869SOL     OW12505   6.759   3.139   4.753
 3869SOL    HW112506   6.801   3.203   4.689
 3869SOL    HW212507   6.731   3.057   4.704
 3870SOL     OW12508   4.640   4.717   0.515
 3870SOL    HW112509   4.643   4.794   0.579
 3870SOL    HW212510   4.660   4.751   0.423
 3871SOL     OW12511   3.828   1.038   2.885
 3871SOL    HW112512   3.772   1.081   2.814
 3871SOL    HW212513   3.896   1.103   2.918
 3872SOL     OW12514   3.223   2.854   2.043
 3872SOL    HW112515   3.212   2.871   2.141
 3872SOL    HW212516   3.136   2.820   2.006
 3873SOL     OW12517   6.515   5.617   1.319
 3873SOL    HW112518   6.425   5.653   1.296
 3873SOL    HW212519   6.505   5.532   1.371
 3874SOL     OW12520   3.939   5.955   0.002
 3874SOL    HW112521   3.956   6.038   0.055
 3874SOL    HW212522   3.843   5.928   0.012
 3875SOL     OW12523   1.142   3.344   2.285
 3875SOL    HW112524   1.043   3.349   2.292
 3875SOL    HW212525   1.171   3.248   2.285
 3876SOL     OW12526   5.698   5.552   6.344
 3876SOL    HW112527   5.775   5.503   6.385
 3876SOL    HW212528   5.731   5.605   6.266
 3877SOL     OW12529   6.656   1.962   0.446
 3877SOL    HW112530   6.674   1.906   0.527
 3877SOL    HW212531   6.592   1.914   0.386
 3878SOL     OW12532   2.303   6.293   5.645
 3878SOL    HW112533   2.206   6.312   5.628
 3878SOL    HW212534   2.311   6.211   5.702
 3879SOL     OW12535   4.182   6.504   1.565
 3879SOL    HW112536   4.164   6.461   1.477
 3879SOL    HW212537   4.279   6.496   1.588
 3880SOL     OW12538   5.789   4.027   3.272
 3880SOL    HW112539   5.832   3.970   3.343
 3880SOL    HW212540   5.704   3.984   3.243
 3881SOL     OW12541   1.514   4.972   0.479
 3881SOL    HW112542   1.504   4.941   0.573
 3881SOL    HW212543   1.611   4.984   0.458
 3882SOL     OW12544   6.493   0.977   5.040
 3882SOL    HW112545   6.469   1.065   5.081
 3882SOL    HW212546   6.508   0.989   4.942
 3883SOL     OW12547   4.658   1.038   3.709
 3883SOL    HW112548   4.656   1.108   3.780
 3883SOL    HW212549   4.683   1.080   3.621
 3884SOL     OW12550   1.037   5.797   4.530
 3884SOL    HW112551   1.074   5.719   4.479
 3884SOL    HW212552   1.086   5.806   4.617
 3885SOL     OW12553   6.278   0.839   4.739
 3885SOL    HW112554   6.367   0.885   4.748
 3885SOL    HW212555   6.293   0.741   4.727
 3886SOL     OW12556   6.391   0.110   5.283
 3886SOL    HW112557   6.469   0.099   5.221
 3886SOL    HW212558   6.308   0.122   5.229
 3887SOL     OW12559   5.370   2.240   5.470
 3887SOL    HW112560   5.445   2.304   5.483
 3887SOL    HW212561   5.292   2.268   5.526
 3888SOL     OW12562   0.326   0.639   5.875
 3888SOL    HW112563   0.295   0.555   5.920
 3888SOL    HW212564   0.257   0.668   5.808
 3889SOL     OW12565   0.197   3.902   6.867
 3889SOL    HW112566   0.288   3.861   6.868
 3889SOL    HW212567   0.128   3.832   6.884
 3890SOL     OW12568   6.572   6.432   3.197
 3890SOL    HW112569   6.568   6.528   3.167
 3890SOL    HW212570   6.505   6.378   3.146
 3891SOL     OW12571   5.570   4.301   4.886
 3891SOL    HW112572   5.481   4.346   4.876
 3891SOL    HW212573   5.611   4.291   4.796
 3892SOL     OW12574   0.997   0.187   2.184
 3892SOL    HW112575   1.063   0.262   2.180
 3892SOL    HW212576   0.962   0.178   2.277
 3893SOL     OW12577   3.468   5.749   2.312
 3893SOL    HW112578   3.374   5.714   2.317
 3893SOL    HW212579   3.532   5.676   2.335
 3894SOL     OW12580   3.550   2.338   1.240
 3894SOL    HW112581   3.452   2.331   1.220
 3894SOL    HW212582   3.600   2.275   1.182
 3895SOL     OW12583   0.913   0.980   5.576
 3895SOL    HW112584   0.889   0.905   5.637
 3895SOL    HW212585   1.013   0.986   5.567
 3896SOL     OW12586   0.676   2.448   6.060
 3896SOL    HW112587   0.753   2.395   6.024
 3896SOL    HW212588   0.706   2.541   6.080
 3897SOL     OW12589   3.083   6.778   2.167
 3897SOL    HW112590   3.096   6.853   2.102
 3897SOL    HW212591   3.112   6.807   2.258
 3898SOL     OW12592   3.251   2.917   3.205
 3898SOL    HW112593   3.202   2.847   3.153
 3898SOL    HW212594   3.201   3.004   3.199
 3899SOL     OW12595   5.041   1.421   4.952
 3899SOL    HW112596   4.998   1.335   4.926
 3899SOL    HW212597   4.970   1.488   4.975
 3900SOL     OW12598   5.637   2.765   3.503
 3900SOL    HW112599   5.539   2.782   3.508
 3900SOL    HW212600   5.661   2.690   3.565
 3901SOL     OW12601   1.762   6.337   5.982
 3901SOL    HW112602   1.741   6.405   6.052
 3901SOL    HW212603   1.857   6.347   5.953
 3902SOL     OW12604   4.646   4.398   2.551
 3902SOL    HW112605   4.723   4.348   2.512
 3902SOL    HW212606   4.591   4.437   2.476
 3903SOL     OW12607   4.228   3.942   6.742
 3903SOL    HW112608   4.161   3.937   6.668
 3903SOL    HW212609   4.306   3.998   6.712
 3904SOL     OW12610   0.813   6.823   6.781
 3904SOL    HW112611   0.793   6.727   6.797
 3904SOL    HW212612   0.913   6.836   6.782
 3905SOL     OW12613   6.100   6.660   6.333
 3905SOL    HW112614   6.140   6.569   6.334
 3905SOL    HW212615   6.008   6.656   6.293
 3906SOL     OW12616   2.007   4.788   4.776
 3906SOL    HW112617   1.962   4.870   4.741
 3906SOL    HW212618   2.073   4.755   4.708
 3907SOL     OW12619   0.595   1.029   4.846
 3907SOL    HW112620   0.558   0.953   4.793
 3907SOL    HW212621   0.683   1.056   4.807
 3908SOL     OW12622   0.828   0.468   6.133
 3908SOL    HW112623   0.742   0.503   6.171
 3908SOL    HW212624   0.850   0.381   6.177
 3909SOL     OW12625   5.149   4.063   6.198
 3909SOL    HW112626   5.157   4.135   6.129
 3909SOL    HW212627   5.232   4.061   6.254
 3910SOL     OW12628   3.836   4.033   1.870
 3910SOL    HW112629   3.739   4.042   1.892
 3910SOL    HW212630   3.884   3.995   1.949
 3911SOL     OW12631   5.813   0.039   0.894
 3911SOL    HW112632   5.773   6.965   0.909
 3911SOL    HW212633   5.772   0.081   0.813
 3912SOL     OW12634   3.087   1.355   5.782
 3912SOL    HW112635   3.027   1.288   5.826
 3912SOL    HW212636   3.059   1.366   5.687
 3913SOL     OW12637   3.390   5.888   0.104
 3913SOL    HW112638   3.327   5.889   0.026
 3913SOL    HW212639   3.381   5.800   0.152
 3914SOL     OW12640   5.207   1.442   1.904
 3914SOL    HW112641   5.278   1.504   1.871
 3914SOL    HW212642   5.163   1.397   1.827
 3915SOL     OW12643   3.343   6.793   0.125
 3915SOL    HW112644   3.250   6.823   0.103
 3915SOL    HW212645   3.342   6.745   0.213
 3916SOL     OW12646   2.851   6.924   2.940
 3916SOL    HW112647   2.890   6.970   2.861
 3916SOL    HW212648   2.893   6.960   3.024
 3917SOL     OW12649   2.792   5.335   0.109
 3917SOL    HW112650   2.790   5.435   0.102
 3917SOL    HW212651   2.851   5.298   0.037
 3918SOL     OW12652   4.885   1.134   0.371
 3918SOL    HW112653   4.879   1.173   0.280
 3918SOL    HW212654   4.845   1.198   0.438
 3919SOL     OW12655   4.156   0.971   0.801
 3919SOL    HW112656   4.247   0.965   0.758
 3919SOL    HW212657   4.086   0.977   0.729
 3920SOL     OW12658   2.174   1.355   6.762
 3920SOL    HW112659   2.110   1.296   6.812
 3920SOL    HW212660   2.172   1.447   6.801
 3921SOL     OW12661   6.646   3.121   6.873
 3921SOL    HW112662   6.631   3.139   6.970
 3921SOL    HW212663   6.625   3.204   6.820
 3922SOL     OW12664   4.804   5.169   1.805
 3922SOL    HW112665   4.809   5.117   1.890
 3922SOL    HW212666   4.738   5.125   1.743
 3923SOL     OW12667   5.935   1.495   1.159
 3923SOL    HW112668   5.889   1.406   1.156
 3923SOL    HW212669   5.936   1.535   1.067
 3924SOL     OW12670   0.261   4.111   3.139
 3924SOL    HW112671   0.226   4.196   3.100
 3924SOL    HW212672   0.184   4.051   3.161
 3925SOL     OW12673   4.666   4.142   0.806
 3925SOL    HW112674   4.684   4.127   0.903
 3925SOL    HW212675   4.753   4.145   0.756
 3926SOL     OW12676   1.070   0.199   5.942
 3926SOL    HW112677   0.987   0.250   5.919
 3926SOL    HW212678   1.092   0.211   6.039
 3927SOL     OW12679   0.952   3.251   3.854
 3927SOL    HW112680   0.867   3.298   3.876
 3927SOL    HW212681   1.023   3.277   3.919
 3928SOL     OW12682   2.645   6.769   2.778
 3928SOL    HW112683   2.609   6.814   2.696
 3928SOL    HW212684   2.705   6.833   2.827
 3929SOL     OW12685   6.895   1.683   6.967
 3929SOL    HW112686   6.822   1.749   6.983
 3929SOL    HW212687   6.879   1.601   0.006
 3930SOL     OW12688   1.055   2.001   3.929
 3930SOL    HW112689   1.113   2.069   3.974
 3930SOL    HW212690   1.112   1.939   3.874
 3931SOL     OW12691   1.571   1.833   1.647
 3931SOL    HW112692   1.667   1.829   1.673
 3931SOL    HW212693   1.548   1.926   1.618
 3932SOL     OW12694   2.407   5.502   4.052
 3932SOL    HW112695   2.477   5.449   4.004
 3932SOL    HW212696   2.421   5.599   4.034
 3933SOL     OW12697   0.959   5.668   0.356
 3933SOL    HW112698   0.972   5.761   0.322
 3933SOL    HW212699   0.895   5.620   0.296
 3934SOL     OW12700   0.204   2.250   3.186
 3934SOL    HW112701   0.252   2.277   3.103
 3934SOL    HW212702   0.271   2.234   3.259
 3935SOL     OW12703   6.304   2.772   6.687
 3935SOL    HW112704   6.376   2.759   6.619
 3935SOL    HW212705   6.215   2.769   6.643
 3936SOL     OW12706   6.493   5.732   5.260
 3936SOL    HW112707   6.440   5.816   5.262
 3936SOL    HW212708   6.587   5.752   5.233
 3937SOL     OW12709   0.289   5.555   2.601
 3937SOL    HW112710   0.311   5.612   2.522
 3937SOL    HW212711   0.221   5.601   2.658
 3938SOL     OW12712   6.929   3.356   4.655
 3938SOL    HW112713   6.854   3.417   4.682
 3938SOL    HW212714   6.988   3.402   4.589
 3939SOL     OW12715   1.796   1.011   2.803
 3939SOL    HW112716   1.768   1.105   2.825
 3939SOL    HW212717   1.839   0.970   2.884
 3940SOL     OW12718   2.998   4.816   2.015
 3940SOL    HW112719   2.951   4.903   2.028
 3940SOL    HW212720   2.930   4.742   2.014
 3941SOL     OW12721   6.298   6.890   4.550
 3941SOL    HW112722   6.325   6.819   4.616
 3941SOL    HW212723   6.216   6.861   4.501
 3942SOL     OW12724   1.568   6.179   6.047
 3942SOL    HW112725   1.606   6.095   6.087
 3942SOL    HW212726   1.642   6.245   6.031
 3943SOL     OW12727   1.083   3.731   1.642
 3943SOL    HW112728   1.157   3.786   1.679
 3943SOL    HW212729   1.101   3.634   1.659
 3944SOL     OW12730   5.363   2.841   6.183
 3944SOL    HW112731   5.400   2.886   6.101
 3944SOL    HW212732   5.358   2.742   6.167
 3945SOL     OW12733   0.954   2.533   2.861
 3945SOL    HW112734   0.886   2.466   2.832
 3945SOL    HW212735   1.032   2.531   2.798
 3946SOL     OW12736   6.811   3.543   0.214
 3946SOL    HW112737   6.845   3.456   0.179
 3946SOL    HW212738   6.729   3.527   0.269
 3947SOL     OW12739   5.940   5.592   0.303
 3947SOL    HW112740   5.853   5.597   0.352
 3947SOL    HW212741   5.992   5.676   0.317
 3948SOL     OW12742   1.891   3.637   6.948
 3948SOL    HW112743   1.902   3.539   6.960
 3948SOL    HW212744   1.832   3.673   0.004
 3949SOL     OW12745   6.689   6.911   2.577
 3949SOL    HW112746   6.644   7.000   2.572
 3949SOL    HW212747   6.620   6.839   2.583
 3950SOL     OW12748   4.230   4.130   1.690
 3950SOL    HW112749   4.197   4.047   1.735
 3950SOL    HW212750   4.307   4.168   1.742
 3951SOL     OW12751   0.772   2.699   6.067
 3951SOL    HW112752   0.775   2.713   6.166
 3951SOL    HW212753   0.865   2.696   6.031
 3952SOL     OW12754   5.791   2.529   4.174
 3952SOL    HW112755   5.762   2.437   4.200
 3952SOL    HW212756   5.741   2.596   4.229
 3953SOL     OW12757   3.158   4.232   5.927
 3953SOL    HW112758   3.258   4.239   5.920
 3953SOL    HW212759   3.122   4.315   5.970
 3954SOL     OW12760   6.348   3.567   5.758
 3954SOL    HW112761   6.318   3.631   5.687
 3954SOL    HW212762   6.375   3.619   5.839
 3955SOL     OW12763   4.859   6.268   0.184
 3955SOL    HW112764   4.774   6.218   0.165
 3955SOL    HW212765   4.837   6.357   0.223
 3956SOL     OW12766   1.130   2.710   5.514
 3956SOL    HW112767   1.190   2.633   5.536
 3956SOL    HW212768   1.057   2.679   5.453
 3957SOL     OW12769   3.141   6.827   4.056
 3957SOL    HW112770   3.082   6.754   4.091
 3957SOL    HW212771   3.175   6.882   4.133
 3958SOL     OW12772   6.188   6.817   0.361
 3958SOL    HW112773   6.279   6.801   0.322
 3958SOL    HW212774   6.174   6.755   0.438
 3959SOL     OW12775   2.977   5.322   0.753
 3959SOL    HW112776   2.952   5.316   0.849
 3959SOL    HW212777   3.027   5.407   0.736
 3960SOL     OW12778   4.683   2.542   6.603
 3960SOL    HW112779   4.743   2.617   6.632
 3960SOL    HW212780   4.590   2.560   6.636
 3961SOL     OW12781   5.054   2.177   2.245
 3961SOL    HW112782   5.042   2.276   2.244
 3961SOL    HW212783   5.026   2.139   2.156
 3962SOL     OW12784   0.792   5.545   0.194
 3962SOL    HW112785   0.703   5.572   0.156
 3962SOL    HW212786   0.855   5.527   0.119
 3963SOL     OW12787   5.476   5.513   3.118
 3963SOL    HW112788   5.469   5.613   3.109
 3963SOL    HW212789   5.410   5.482   3.187
 3964SOL     OW12790   4.595   6.315   5.002
 3964SOL    HW112791   4.641   6.316   5.091
 3964SOL    HW212792   4.652   6.266   4.936
 3965SOL     OW12793   3.650   4.453   6.657
 3965SOL    HW112794   3.605   4.423   6.741
 3965SOL    HW212795   3.632   4.387   6.584
 3966SOL     OW12796   6.684   4.464   6.488
 3966SOL    HW112797   6.712   4.368   6.486
 3966SOL    HW212798   6.609   4.474   6.554
 3967SOL     OW12799   0.946   5.237   3.698
 3967SOL    HW112800   0.847   5.253   3.694
 3967SOL    HW212801   0.994   5.324   3.712
 3968SOL     OW12802   5.283   0.351   2.878
 3968SOL    HW112803   5.239   0.284   2.937
 3968SOL    HW212804   5.383   0.340   2.884
 3969SOL     OW12805   1.452   4.852   2.950
 3969SOL    HW112806   1.437   4.898   2.863
 3969SOL    HW212807   1.381   4.783   2.964
 3970SOL     OW12808   4.781   4.826   3.881
 3970SOL    HW112809   4.777   4.898   3.812
 3970SOL    HW212810   4.690   4.810   3.919
 3971SOL     OW12811   2.947   5.683   3.115
 3971SOL    HW112812   2.990   5.706   3.202
 3971SOL    HW212813   2.874   5.616   3.130
 3972SOL     OW12814   0.306   6.455   0.442
 3972SOL    HW112815   0.361   6.538   0.443
 3972SOL    HW212816   0.363   6.376   0.465
 3973SOL     OW12817   3.161   3.418   5.039
 3973SOL    HW112818   3.070   3.456   5.020
 3973SOL    HW212819   3.155   3.357   5.118
 3974SOL     OW12820   0.461   1.421   6.547
 3974SOL    HW112821   0.393   1.494   6.534
 3974SOL    HW212822   0.548   1.450   6.506
 3975SOL     OW12823   6.738   0.554   5.733
 3975SOL    HW112824   6.649   0.537   5.774
 3975SOL    HW212825   6.807   0.566   5.804
 3976SOL     OW12826   0.958   4.294   0.870
 3976SOL    HW112827   1.044   4.259   0.908
 3976SOL    HW212828   0.909   4.345   0.940
 3977SOL     OW12829   2.507   5.889   5.766
 3977SOL    HW112830   2.470   5.871   5.675
 3977SOL    HW212831   2.512   5.803   5.818
 3978SOL     OW12832   5.627   1.327   5.797
 3978SOL    HW112833   5.630   1.234   5.832
 3978SOL    HW212834   5.720   1.361   5.783
 3979SOL     OW12835   2.128   0.122   1.426
 3979SOL    HW112836   2.097   0.044   1.370
 3979SOL    HW212837   2.125   0.205   1.371
 3980SOL     OW12838   5.691   3.467   4.756
 3980SOL    HW112839   5.630   3.488   4.832
 3980SOL    HW212840   5.684   3.540   4.688
 3981SOL     OW12841   6.883   2.205   6.400
 3981SOL    HW112842   6.865   2.211   6.302
 3981SOL    HW212843   6.917   2.293   6.433
 3982SOL     OW12844   2.475   1.031   4.888
 3982SOL    HW112845   2.458   0.997   4.980
 3982SOL    HW212846   2.432   1.121   4.877
 3983SOL     OW12847   3.560   6.439   4.489
 3983SOL    HW112848   3.565   6.481   4.399
 3983SOL    HW212849   3.653   6.420   4.522
 3984SOL     OW12850   1.771   6.937   2.049
 3984SOL    HW112851   1.862   6.976   2.039
 3984SOL    HW212852   1.712   7.001   2.099
 3985SOL     OW12853   2.144   4.130   6.911
 3985SOL    HW112854   2.243   4.120   6.920
 3985SOL    HW212855   2.121   4.155   6.816
 3986SOL     OW12856   0.141   1.881   2.425
 3986SOL    HW112857   0.048   1.918   2.416
 3986SOL    HW212858   0.203   1.935   2.368
 3987SOL     OW12859   1.522   5.797   5.182
 3987SOL    HW112860   1.617   5.820   5.199
 3987SOL    HW212861   1.492   5.834   5.094
 3988SOL     OW12862   3.410   2.254   5.923
 3988SOL    HW112863   3.491   2.196   5.913
 3988SOL    HW212864   3.412   2.326   5.854
 3989SOL     OW12865   6.205   0.102   6.412
 3989SOL    HW112866   6.287   0.144   6.375
 3989SOL    HW212867   6.174   0.029   6.350
 3990SOL     OW12868   6.110   2.430   5.104
 3990SOL    HW112869   6.172   2.407   5.179
 3990SOL    HW212870   6.164   2.458   5.024
 3991SOL     OW12871   0.234   2.715   3.467
 3991SOL    HW112872   0.242   2.690   3.563
 3991SOL    HW212873   0.325   2.728   3.428
 3992SOL     OW12874   3.838   3.009   6.658
 3992SOL    HW112875   3.917   2.973   6.706
 3992SOL    HW212876   3.857   3.015   6.560
 3993SOL     OW12877   2.840   2.282   2.602
 3993SOL    HW112878   2.816   2.187   2.582
 3993SOL    HW212879   2.825   2.300   2.699
 3994SOL     OW12880   2.361   2.362   5.147
 3994SOL    HW112881   2.283   2.401   5.195
 3994SOL    HW212882   2.392   2.425   5.075
 3995SOL     OW12883   2.455   4.354   3.482
 3995SOL    HW112884   2.438   4.366   3.384
 3995SOL    HW212885   2.388   4.290   3.519
 3996SOL     OW12886   1.986   1.383   4.572
 3996SOL    HW112887   1.907   1.386   4.511
 3996SOL    HW212888   2.000   1.474   4.612
 3997SOL     OW12889   4.911   3.490   3.150
 3997SOL    HW112890   4.919   3.403   3.199
 3997SOL    HW212891   4.862   3.556   3.207
 3998SOL     OW12892   5.831   2.170   1.940
 3998SOL    HW112893   5.887   2.233   1.886
 3998SOL    HW212894   5.751   2.219   1.977
 3999SOL     OW12895   6.333   4.085   3.575
 3999SOL    HW112896   6.334   4.009   3.640
 3999SOL    HW212897   6.265   4.067   3.504
 4000SOL     OW12898   3.372   5.681   2.976
 4000SOL    HW112899   3.344   5.617   2.905
 4000SOL    HW212900   3.328   5.770   2.961
 4001SOL     OW12901   2.491   4.044   5.917
 4001SOL    HW112902   2.504   4.050   6.016
 4001SOL    HW212903   2.579   4.053   5.871
 4002SOL     OW12904   3.520   2.927   4.288
 4002SOL    HW112905   3.494   2.910   4.383
 4002SOL    HW212906   3.575   3.010   4.283
 4003SOL     OW12907   1.717   1.178   6.409
 4003SOL    HW112908   1.809   1.171   6.371
 4003SOL    HW212909   1.720   1.234   6.492
 4004SOL     OW12910   6.839   3.299   4.007
 4004SOL    HW112911   6.766   3.249   4.053
 4004SOL    HW212912   6.899   3.234   3.959
 4005SOL     OW12913   4.345   4.784   0.925
 4005SOL    HW112914   4.367   4.698   0.971
 4005SOL    HW212915   4.402   4.793   0.843
 4006SOL     OW12916   5.507   4.861   2.016
 4006SOL    HW112917   5.546   4.829   2.103
 4006SOL    HW212918   5.454   4.787   1.974
 4007SOL     OW12919   0.905   2.592   3.113
 4007SOL    HW112920   0.911   2.584   3.013
 4007SOL    HW212921   0.893   2.501   3.152
 4008SOL     OW12922   3.307   0.543   6.357
 4008SOL    HW112923   3.316   0.557   6.259
 4008SOL    HW212924   3.220   0.580   6.388
 4009SOL     OW12925   4.666   1.934   1.366
 4009SOL    HW112926   4.595   1.984   1.316
 4009SOL    HW212927   4.740   1.911   1.303
 4010SOL     OW12928   3.108   3.373   1.949
 4010SOL    HW112929   3.032   3.309   1.939
 4010SOL    HW212930   3.153   3.358   2.038
 4011SOL     OW12931   0.064   6.553   2.076
 4011SOL    HW112932   0.056   6.651   2.057
 4011SOL    HW212933   0.098   6.540   2.169
 4012SOL     OW12934   4.506   6.576   2.646
 4012SOL    HW112935   4.518   6.502   2.711
 4012SOL    HW212936   4.533   6.546   2.555
 4013SOL     OW12937   2.368   0.991   0.977
 4013SOL    HW112938   2.383   0.998   1.075
 4013SOL    HW212939   2.392   0.899   0.946
 4014SOL     OW12940   3.432   5.631   3.807
 4014SOL    HW112941   3.375   5.550   3.819
 4014SOL    HW212942   3.398   5.684   3.730
 4015SOL     OW12943   4.895   5.174   6.238
 4015SOL    HW112944   4.807   5.185   6.192
 4015SOL    HW212945   4.964   5.145   6.172
 4016SOL     OW12946   2.830   6.050   0.039
 4016SOL    HW112947   2.901   5.981   0.049
 4016SOL    HW212948   2.830   6.086   6.961
 4017SOL     OW12949   0.481   5.663   5.626
 4017SOL    HW112950   0.407   5.598   5.643
 4017SOL    HW212951   0.568   5.624   5.657
 4018SOL     OW12952   4.542   6.835   2.008
 4018SOL    HW112953   4.519   6.812   2.103
 4018SOL    HW212954   4.520   6.931   1.991
 4019SOL     OW12955   5.677   3.903   2.279
 4019SOL    HW112956   5.768   3.869   2.302
 4019SOL    HW212957   5.610   3.866   2.343
 4020SOL     OW12958   6.545   3.099   5.401
 4020SOL    HW112959   6.463   3.143   5.365
 4020SOL    HW212960   6.624   3.157   5.385
 4021SOL     OW12961   3.586   4.232   5.245
 4021SOL    HW112962   3.529   4.186   5.312
 4021SOL    HW212963   3.599   4.328   5.272
 4022SOL     OW12964   3.221   6.428   6.521
 4022SOL    HW112965   3.209   6.493   6.596
 4022SOL    HW212966   3.159   6.453   6.446
 4023SOL     OW12967   0.033   0.459   5.220
 4023SOL    HW112968   6.974   0.414   5.172
 4023SOL    HW212969   0.103   0.392   5.244
 4024SOL     OW12970   2.303   4.536   4.274
 4024SOL    HW112971   2.333   4.496   4.188
 4024SOL    HW212972   2.353   4.493   4.350
 4025SOL     OW12973   0.760   6.366   4.342
 4025SOL    HW112974   0.851   6.372   4.301
 4025SOL    HW212975   0.736   6.455   4.382
 4026SOL     OW12976   5.910   6.966   3.837
 4026SOL    HW112977   5.876   6.889   3.891
 4026SOL    HW212978   5.835   7.005   3.784
 4027SOL     OW12979   2.488   2.668   0.130
 4027SOL    HW112980   2.486   2.598   0.201
 4027SOL    HW212981   2.511   2.756   0.171
 4028SOL     OW12982   4.639   1.294   3.841
 4028SOL    HW112983   4.736   1.279   3.824
 4028SOL    HW212984   4.601   1.351   3.769
 4029SOL     OW12985   3.159   4.129   5.664
 4029SOL    HW112986   3.134   4.209   5.608
 4029SOL    HW212987   3.152   4.152   5.761
 4030SOL     OW12988   6.972   1.049   2.108
 4030SOL    HW112989   6.897   1.016   2.166
 4030SOL    HW212990   6.948   1.037   2.012
 4031SOL     OW12991   5.381   6.258   3.270
 4031SOL    HW112992   5.310   6.277   3.338
 4031SOL    HW212993   5.418   6.344   3.235
 4032SOL     OW12994   0.093   0.013   1.874
 4032SOL    HW112995   0.001   0.047   1.854
 4032SOL    HW212996   0.157   0.089   1.880
 4033SOL     OW12997   1.972   3.292   1.497
 4033SOL    HW112998   2.047   3.285   1.432
 4033SOL    HW212999   2.009   3.302   1.589
 4034SOL     OW13000   5.996   1.532   4.885
 4034SOL    HW113001   5.934   1.610   4.896
 4034SOL    HW213002   5.942   1.447   4.883
 4035SOL     OW13003   5.977   1.519   0.854
 4035SOL    HW113004   5.914   1.587   0.815
 4035SOL    HW213005   5.971   1.434   0.801
 4036SOL     OW13006   4.097   4.760   2.300
 4036SOL    HW113007   4.089   4.732   2.204
 4036SOL    HW213008   4.008   4.792   2.333
 4037SOL     OW13009   1.944   1.562   0.107
 4037SOL    HW113010   1.885   1.607   0.040
 4037SOL    HW213011   1.954   1.621   0.187
 4038SOL     OW13012   4.097   2.758   1.555
 4038SOL    HW113013   4.127   2.851   1.576
 4038SOL    HW213014   4.023   2.732   1.618
 4039SOL     OW13015   5.760   5.417   1.389
 4039SOL    HW113016   5.807   5.360   1.322
 4039SOL    HW213017   5.794   5.396   1.481
 4040SOL     OW13018   3.317   6.773   5.114
 4040SOL    HW113019   3.416   6.775   5.125
 4040SOL    HW213020   3.283   6.866   5.099
 4041SOL     OW13021   1.048   4.999   0.664
 4041SOL    HW113022   0.963   4.973   0.619
 4041SOL    HW213023   1.077   4.927   0.727
 4042SOL     OW13024   5.905   6.390   4.288
 4042SOL    HW113025   5.881   6.301   4.328
 4042SOL    HW213026   5.871   6.394   4.195
 4043SOL     OW13027   6.906   2.489   5.799
 4043SOL    HW113028   6.840   2.553   5.762
 4043SOL    HW213029   6.876   2.395   5.781
 4044SOL     OW13030   4.642   6.826   3.589
 4044SOL    HW113031   4.599   6.899   3.536
 4044SOL    HW213032   4.707   6.865   3.654
 4045SOL     OW13033   3.935   5.963   5.880
 4045SOL    HW113034   3.940   5.904   5.960
 4045SOL    HW213035   3.839   5.989   5.863
 4046SOL     OW13036   1.405   1.743   3.602
 4046SOL    HW113037   1.455   1.661   3.574
 4046SOL    HW213038   1.468   1.808   3.645
 4047SOL     OW13039   1.903   2.523   0.316
 4047SOL    HW113040   1.999   2.550   0.331
 4047SOL    HW213041   1.843   2.580   0.373
 4048SOL     OW13042   4.902   1.818   1.910
 4048SOL    HW113043   4.817   1.812   1.857
 4048SOL    HW213044   4.939   1.726   1.923
 4049SOL     OW13045   5.438   5.224   6.451
 4049SOL    HW113046   5.340   5.218   6.435
 4049SOL    HW213047   5.456   5.290   6.523
 4050SOL     OW13048   1.267   6.369   1.614
 4050SOL    HW113049   1.307   6.406   1.697
 4050SOL    HW213050   1.336   6.316   1.564
 4051SOL     OW13051   3.744   1.628   6.553
 4051SOL    HW113052   3.690   1.611   6.636
 4051SOL    HW213053   3.815   1.695   6.572
 4052SOL     OW13054   6.737   1.341   1.985
 4052SOL    HW113055   6.770   1.365   2.076
 4052SOL    HW213056   6.780   1.255   1.955
 4053SOL     OW13057   3.095   6.009   4.148
 4053SOL    HW113058   3.112   5.921   4.103
 4053SOL    HW213059   3.179   6.041   4.191
 4054SOL     OW13060   5.684   3.880   0.952
 4054SOL    HW113061   5.602   3.927   0.985
 4054SOL    HW213062   5.661   3.826   0.871
 4055SOL     OW13063   2.886   3.209   0.214
 4055SOL    HW113064   2.797   3.254   0.218
 4055SOL    HW213065   2.953   3.264   0.263
 4056SOL     OW13066   5.263   3.806   0.911
 4056SOL    HW113067   5.288   3.781   0.817
 4056SOL    HW213068   5.211   3.892   0.909
 4057SOL     OW13069   6.484   2.304   1.135
 4057SOL    HW113070   6.582   2.285   1.129
 4057SOL    HW213071   6.456   2.361   1.059
 4058SOL     OW13072   2.128   7.016   5.101
 4058SOL    HW113073   2.210   0.002   5.158
 4058SOL    HW213074   2.127   0.081   5.042
 4059SOL     OW13075   0.479   1.631   3.023
 4059SOL    HW113076   0.476   1.629   3.123
 4059SOL    HW213077   0.416   1.562   2.987
 4060SOL     OW13078   5.336   5.744   4.738
 4060SOL    HW113079   5.304   5.833   4.706
 4060SOL    HW213080   5.360   5.751   4.835
 4061SOL     OW13081   2.562   4.551   2.368
 4061SOL    HW113082   2.531   4.618   2.436
 4061SOL    HW213083   2.584   4.465   2.414
 4062SOL     OW13084   2.446   1.337   1.697
 4062SOL    HW113085   2.369   1.308   1.754
 4062SOL    HW213086   2.531   1.333   1.751
 4063SOL     OW13087   6.222   6.453   0.197
 4063SOL    HW113088   6.250   6.548   0.203
 4063SOL    HW213089   6.147   6.435   0.260
 4064SOL     OW13090   2.452   0.362   3.568
 4064SOL    HW113091   2.427   0.445   3.518
 4064SOL    HW213092   2.551   0.353   3.571
 4065SOL     OW13093   1.631   6.766   1.432
 4065SOL    HW113094   1.668   6.855   1.459
 4065SOL    HW213095   1.634   6.758   1.332
 4066SOL     OW13096   5.978   4.754   3.283
 4066SOL    HW113097   5.899   4.812   3.303
 4066SOL    HW213098   6.032   4.796   3.210
 4067SOL     OW13099   6.543   3.452   2.812
 4067SOL    HW113100   6.465   3.391   2.824
 4067SOL    HW213101   6.533   3.504   2.727
 4068SOL     OW13102   1.924   1.362   4.859
 4068SOL    HW113103   2.001   1.408   4.903
 4068SOL    HW213104   1.954   1.326   4.771
 4069SOL     OW13105   2.942   5.498   6.534
 4069SOL    HW113106   2.909   5.507   6.628
 4069SOL    HW213107   2.997   5.415   6.526
 4070SOL     OW13108   0.679   3.851   1.890
 4070SOL    HW113109   0.588   3.857   1.849
 4070SOL    HW213110   0.747   3.830   1.820
 4071SOL     OW13111   1.268   1.240   4.934
 4071SOL    HW113112   1.259   1.190   5.021
 4071SOL    HW213113   1.339   1.310   4.943
 4072SOL     OW13114   0.132   5.759   4.172
 4072SOL    HW113115   0.189   5.799   4.244
 4072SOL    HW213116   0.042   5.803   4.173
 4073SOL     OW13117   2.902   6.079   6.050
 4073SOL    HW113118   2.969   6.012   6.081
 4073SOL    HW213119   2.944   6.170   6.049
 4074SOL     OW13120   0.001   4.018   2.102
 4074SOL    HW113121   6.932   4.063   2.130
 4074SOL    HW213122   0.041   3.969   2.179
 4075SOL     OW13123   4.267   2.211   2.064
 4075SOL    HW113124   4.195   2.209   2.133
 4075SOL    HW213125   4.244   2.277   1.993
 4076SOL     OW13126   2.865   2.751   5.831
 4076SOL    HW113127   2.837   2.655   5.829
 4076SOL    HW213128   2.929   2.769   5.757
 4077SOL     OW13129   3.086   1.423   6.970
 4077SOL    HW113130   3.047   1.394   6.882
 4077SOL    HW213131   3.153   1.354   7.000
 4078SOL     OW13132   0.538   5.714   0.993
 4078SOL    HW113133   0.608   5.747   0.931
 4078SOL    HW213134   0.516   5.785   1.060
 4079SOL     OW13135   1.726   0.595   3.525
 4079SOL    HW113136   1.715   0.589   3.625
 4079SOL    HW213137   1.813   0.639   3.503
 4080SOL     OW13138   3.945   4.515   6.059
 4080SOL    HW113139   4.004   4.593   6.083
 4080SOL    HW213140   4.001   4.443   6.019
 4081SOL     OW13141   1.760   2.558   4.624
 4081SOL    HW113142   1.743   2.587   4.530
 4081SOL    HW213143   1.674   2.560   4.676
 4082SOL     OW13144   0.754   3.883   0.748
 4082SOL    HW113145   0.685   3.818   0.717
 4082SOL    HW213146   0.756   3.962   0.687
 4083SOL     OW13147   6.675   4.073   1.877
 4083SOL    HW113148   6.696   4.103   1.971
 4083SOL    HW213149   6.667   3.974   1.875
 4084SOL     OW13150   5.367   1.967   3.369
 4084SOL    HW113151   5.457   1.923   3.376
 4084SOL    HW213152   5.378   2.066   3.375
 4085SOL     OW13153   2.559   5.715   1.525
 4085SOL    HW113154   2.563   5.676   1.618
 4085SOL    HW213155   2.643   5.691   1.476
 4086SOL     OW13156   1.018   5.478   2.052
 4086SOL    HW113157   1.027   5.563   2.000
 4086SOL    HW213158   1.085   5.411   2.019
 4087SOL     OW13159   1.485   1.718   3.304
 4087SOL    HW113160   1.545   1.661   3.360
 4087SOL    HW213161   1.392   1.712   3.338
 4088SOL     OW13162   6.627   0.720   6.810
 4088SOL    HW113163   6.700   0.701   6.876
 4088SOL    HW213164   6.665   0.768   6.731
 4089SOL     OW13165   6.076   5.801   4.393
 4089SOL    HW113166   6.097   5.819   4.490
 4089SOL    HW213167   6.120   5.716   4.364
 4090SOL     OW13168   1.684   5.343   5.563
 4090SOL    HW113169   1.607   5.334   5.500
 4090SOL    HW213170   1.715   5.252   5.591
 4091SOL     OW13171   6.808   6.340   0.041
 4091SOL    HW113172   6.725   6.299   0.079
 4091SOL    HW213173   6.849   6.277   6.991
 4092SOL     OW13174   6.494   2.471   5.496
 4092SOL    HW113175   6.487   2.546   5.429
 4092SOL    HW213176   6.577   2.419   5.479
 4093SOL     OW13177   4.601   6.502   2.383
 4093SOL    HW113178   4.535   6.432   2.355
 4093SOL    HW213179   4.683   6.495   2.326
 4094SOL     OW13180   2.152   5.444   5.246
 4094SOL    HW113181   2.142   5.400   5.156
 4094SOL    HW213182   2.168   5.542   5.234
 4095SOL     OW13183   0.515   3.690   0.266
 4095SOL    HW113184   0.451   3.685   0.343
 4095SOL    HW213185   0.473   3.652   0.184
 4096SOL     OW13186   4.574   5.973   5.931
 4096SOL    HW113187   4.613   5.967   5.839
 4096SOL    HW213188   4.480   5.940   5.929
 4097SOL     OW13189   3.984   4.647   5.439
 4097SOL    HW113190   3.946   4.588   5.510
 4097SOL    HW213191   4.043   4.593   5.379
 4098SOL     OW13192   0.154   2.152   1.865
 4098SOL    HW113193   0.252   2.135   1.875
 4098SOL    HW213194   0.107   2.132   1.952
 4099SOL     OW13195   3.131   4.965   1.701
 4099SOL    HW113196   3.037   4.934   1.719
 4099SOL    HW213197   3.170   4.911   1.626
 4100SOL     OW13198   0.125   6.503   4.697
 4100SOL    HW113199   0.190   6.449   4.644
 4100SOL    HW213200   0.131   6.599   4.669
 4101SOL     OW13201   5.768   0.960   0.466
 4101SOL    HW113202   5.669   0.971   0.469
 4101SOL    HW213203   5.812   1.047   0.492
 4102SOL     OW13204   6.572   0.463   0.954
 4102SOL    HW113205   6.530   0.421   0.873
 4102SOL    HW213206   6.596   0.391   1.020
 4103SOL     OW13207   0.310   0.460   0.423
 4103SOL    HW113208   0.292   0.556   0.399
 4103SOL    HW213209   0.328   0.454   0.521
 4104SOL     OW13210   1.114   5.081   2.758
 4104SOL    HW113211   1.023   5.115   2.732
 4104SOL    HW213212   1.110   4.982   2.772
 4105SOL     OW13213   4.858   0.019   1.408
 4105SOL    HW113214   4.946   6.997   1.380
 4105SOL    HW213215   4.861   0.040   1.506
 4106SOL     OW13216   6.211   3.026   2.655
 4106SOL    HW113217   6.219   3.060   2.749
 4106SOL    HW213218   6.219   2.927   2.654
 4107SOL     OW13219   1.504   5.625   0.784
 4107SOL    HW113220   1.448   5.706   0.764
 4107SOL    HW213221   1.501   5.606   0.882
 4108SOL     OW13222   6.411   4.043   5.626
 4108SOL    HW113223   6.390   4.101   5.547
 4108SOL    HW213224   6.393   3.947   5.603
 4109SOL     OW13225   6.219   0.107   5.068
 4109SOL    HW113226   6.132   0.057   5.071
 4109SOL    HW213227   6.257   0.103   4.976
 4110SOL     OW13228   3.989   3.505   5.829
 4110SOL    HW113229   4.047   3.586   5.820
 4110SOL    HW213230   3.930   3.514   5.910
 4111SOL     OW13231   4.411   3.449   0.100
 4111SOL    HW113232   4.434   3.546   0.107
 4111SOL    HW213233   4.332   3.429   0.158
 4112SOL     OW13234   4.932   6.282   4.608
 4112SOL    HW113235   5.028   6.289   4.636
 4112SOL    HW213236   4.905   6.366   4.560
 4113SOL     OW13237   4.793   6.049   4.863
 4113SOL    HW113238   4.731   5.973   4.881
 4113SOL    HW213239   4.850   6.065   4.944
 4114SOL     OW13240   3.306   2.144   4.022
 4114SOL    HW113241   3.353   2.061   3.993
 4114SOL    HW213242   3.211   2.142   3.991
 4115SOL     OW13243   3.600   4.879   2.203
 4115SOL    HW113244   3.558   4.835   2.124
 4115SOL    HW213245   3.534   4.881   2.278
 4116SOL     OW13246   3.406   1.300   1.898
 4116SOL    HW113247   3.322   1.341   1.933
 4116SOL    HW213248   3.480   1.315   1.963
 4117SOL     OW13249   1.592   4.349   2.802
 4117SOL    HW113250   1.657   4.409   2.848
 4117SOL    HW213251   1.604   4.256   2.835
 4118SOL     OW13252   3.304   6.648   0.350
 4118SOL    HW113253   3.237   6.711   0.387
 4118SOL    HW213254   3.288   6.556   0.387
 4119SOL     OW13255   3.449   1.893   3.903
 4119SOL    HW113256   3.513   1.968   3.886
 4119SOL    HW213257   3.446   1.874   4.001
 4120SOL     OW13258   3.521   0.608   6.964
 4120SOL    HW113259   3.508   0.523   7.016
 4120SOL    HW213260   3.434   0.635   6.922
 4121SOL     OW13261   6.099   0.622   4.364
 4121SOL    HW113262   6.190   0.579   4.361
 4121SOL    HW213263   6.083   0.660   4.455
 4122SOL     OW13264   1.427   5.798   4.931
 4122SOL    HW113265   1.374   5.880   4.909
 4122SOL    HW213266   1.416   5.731   4.858
 4123SOL     OW13267   4.416   5.384   5.809
 4123SOL    HW113268   4.381   5.312   5.870
 4123SOL    HW213269   4.358   5.465   5.816
 4124SOL     OW13270   6.104   5.839   6.936
 4124SOL    HW113271   6.125   5.741   6.938
 4124SOL    HW213272   6.159   5.882   6.865
 4125SOL     OW13273   4.812   1.517   2.481
 4125SOL    HW113274   4.885   1.448   2.489
 4125SOL    HW213275   4.814   1.556   2.389
 4126SOL     OW13276   1.038   3.696   4.595
 4126SOL    HW113277   1.099   3.718   4.671
 4126SOL    HW213278   0.964   3.763   4.590
 4127SOL     OW13279   4.376   5.158   4.842
 4127SOL    HW113280   4.413   5.066   4.827
 4127SOL    HW213281   4.333   5.163   4.932
 4128SOL     OW13282   1.159   2.502   1.594
 4128SOL    HW113283   1.149   2.513   1.693
 4128SOL    HW213284   1.127   2.584   1.547
 4129SOL     OW13285   3.702   1.233   6.693
 4129SOL    HW113286   3.705   1.175   6.611
 4129SOL    HW213287   3.610   1.268   6.706
 4130SOL     OW13288   6.637   2.799   6.727
 4130SOL    HW113289   6.615   2.823   6.821
 4130SOL    HW213290   6.596   2.866   6.665
 4131SOL     OW13291   1.345   0.360   3.424
 4131SOL    HW113292   1.424   0.416   3.397
 4131SOL    HW213293   1.378   0.274   3.463
 4132SOL     OW13294   5.177   4.451   3.512
 4132SOL    HW113295   5.087   4.407   3.505
 4132SOL    HW213296   5.244   4.397   3.462
 4133SOL     OW13297   2.886   6.002   0.580
 4133SOL    HW113298   2.802   6.014   0.528
 4133SOL    HW213299   2.965   6.023   0.522
 4134SOL     OW13300   2.556   3.325   0.941
 4134SOL    HW113301   2.616   3.276   0.877
 4134SOL    HW213302   2.464   3.286   0.935
 4135SOL     OW13303   0.862   1.524   2.903
 4135SOL    HW113304   0.806   1.442   2.896
 4135SOL    HW213305   0.935   1.509   2.970
 4136SOL     OW13306   1.062   2.212   3.090
 4136SOL    HW113307   1.003   2.273   3.035
 4136SOL    HW213308   1.061   2.120   3.050
 4137SOL     OW13309   0.608   4.547   0.779
 4137SOL    HW113310   0.540   4.569   0.849
 4137SOL    HW213311   0.642   4.455   0.793
 4138SOL     OW13312   4.357   5.445   3.197
 4138SOL    HW113313   4.303   5.511   3.145
 4138SOL    HW213314   4.453   5.453   3.171
 4139SOL     OW13315   1.764   1.960   5.326
 4139SOL    HW113316   1.839   2.025   5.326
 4139SOL    HW213317   1.731   1.946   5.233
 4140SOL     OW13318   3.061   0.537   5.217
 4140SOL    HW113319   2.965   0.520   5.238
 4140SOL    HW213320   3.110   0.560   5.302
 4141SOL     OW13321   6.413   6.076   1.335
 4141SOL    HW113322   6.326   6.032   1.355
 4141SOL    HW213323   6.423   6.158   1.392
 4142SOL     OW13324   6.499   5.465   1.058
 4142SOL    HW113325   6.399   5.469   1.054
 4142SOL    HW213326   6.531   5.504   1.145
 4143SOL     OW13327   6.264   1.570   1.217
 4143SOL    HW113328   6.218   1.607   1.297
 4143SOL    HW213329   6.341   1.629   1.192
 4144SOL     OW13330   4.997   3.718   6.420
 4144SOL    HW113331   4.942   3.635   6.411
 4144SOL    HW213332   5.067   3.720   6.348
 4145SOL     OW13333   6.468   6.323   1.407
 4145SOL    HW113334   6.405   6.394   1.374
 4145SOL    HW213335   6.562   6.357   1.402
 4146SOL     OW13336   6.841   0.471   4.688
 4146SOL    HW113337   6.920   0.493   4.745
 4146SOL    HW213338   6.803   0.554   4.649
 4147SOL     OW13339   4.848   4.200   6.005
 4147SOL    HW113340   4.845   4.150   6.091
 4147SOL    HW213341   4.813   4.143   5.931
 4148SOL     OW13342   0.767   0.706   4.838
 4148SOL    HW113343   0.673   0.706   4.805
 4148SOL    HW213344   0.826   0.660   4.772
 4149SOL     OW13345   0.133   3.088   1.017
 4149SOL    HW113346   0.079   3.149   0.959
 4149SOL    HW213347   0.230   3.096   0.992
 4150SOL     OW13348   0.996   0.683   6.204
 4150SOL    HW113349   0.935   0.615   6.164
 4150SOL    HW213350   0.945   0.742   6.266
 4151SOL     OW13351   2.830   5.718   5.422
 4151SOL    HW113352   2.730   5.718   5.420
 4151SOL    HW213353   2.863   5.811   5.440
 4152SOL     OW13354   4.277   6.158   1.593
 4152SOL    HW113355   4.216   6.234   1.617
 4152SOL    HW213356   4.335   6.137   1.672
 4153SOL     OW13357   4.507   5.147   6.756
 4153SOL    HW113358   4.427   5.098   6.791
 4153SOL    HW213359   4.585   5.086   6.752
 4154SOL     OW13360   0.289   5.016   4.039
 4154SOL    HW113361   0.237   4.962   4.105
 4154SOL    HW213362   0.261   4.991   3.946
 4155SOL     OW13363   0.103   1.300   2.025
 4155SOL    HW113364   0.099   1.217   2.081
 4155SOL    HW213365   0.091   1.276   1.929
 4156SOL     OW13366   5.643   6.316   5.241
 4156SOL    HW113367   5.635   6.217   5.247
 4156SOL    HW213368   5.580   6.358   5.307
 4157SOL     OW13369   5.177   5.422   4.675
 4157SOL    HW113370   5.213   5.445   4.766
 4157SOL    HW213371   5.208   5.330   4.650
 4158SOL     OW13372   1.679   4.740   2.641
 4158SOL    HW113373   1.681   4.646   2.606
 4158SOL    HW213374   1.762   4.757   2.694
 4159SOL     OW13375   2.088   3.595   4.394
 4159SOL    HW113376   2.089   3.496   4.407
 4159SOL    HW213377   2.079   3.616   4.297
 4160SOL     OW13378   5.733   0.841   0.786
 4160SOL    HW113379   5.798   0.773   0.821
 4160SOL    HW213380   5.783   0.918   0.747
 4161SOL     OW13381   0.813   0.932   0.285
 4161SOL    HW113382   0.821   0.862   0.356
 4161SOL    HW213383   0.856   0.899   0.201
 4162SOL     OW13384   6.370   6.444   6.405
 4162SOL    HW113385   6.426   6.384   6.461
 4162SOL    HW213386   6.281   6.401   6.389
 4163SOL     OW13387   5.746   6.447   3.243
 4163SOL    HW113388   5.739   6.357   3.285
 4163SOL    HW213389   5.841   6.480   3.250
 4164SOL     OW13390   1.582   6.712   6.552
 4164SOL    HW113391   1.591   6.811   6.543
 4164SOL    HW213392   1.647   6.679   6.621
 4165SOL     OW13393   3.904   0.063   0.113
 4165SOL    HW113394   3.924   0.030   0.205
 4165SOL    HW213395   3.906   0.163   0.112
 4166SOL     OW13396   6.436   4.209   1.231
 4166SOL    HW113397   6.352   4.250   1.265
 4166SOL    HW213398   6.459   4.249   1.142
 4167SOL     OW13399   1.256   4.248   0.949
 4167SOL    HW113400   1.209   4.173   0.994
 4167SOL    HW213401   1.259   4.327   1.010
 4168SOL     OW13402   6.490   5.088   0.799
 4168SOL    HW113403   6.423   5.100   0.872
 4168SOL    HW213404   6.502   5.174   0.750
 4169SOL     OW13405   5.844   3.869   3.532
 4169SOL    HW113406   5.765   3.810   3.550
 4169SOL    HW213407   5.845   3.943   3.600
 4170SOL     OW13408   4.072   4.050   5.424
 4170SOL    HW113409   4.156   4.104   5.431
 4170SOL    HW213410   4.034   4.059   5.332
 4171SOL     OW13411   6.077   5.587   0.911
 4171SOL    HW113412   6.142   5.611   0.839
 4171SOL    HW213413   6.073   5.661   0.978
 4172SOL     OW13414   0.411   2.536   6.168
 4172SOL    HW113415   0.415   2.627   6.127
 4172SOL    HW213416   0.374   2.471   6.101
 4173SOL     OW13417   5.151   3.912   5.934
 4173SOL    HW113418   5.069   3.862   5.961
 4173SOL    HW213419   5.159   3.995   5.989
 4174SOL     OW13420   5.455   0.714   3.481
 4174SOL    HW113421   5.453   0.614   3.489
 4174SOL    HW213422   5.498   0.739   3.393
 4175SOL     OW13423   1.943   6.398   4.682
 4175SOL    HW113424   1.900   6.464   4.621
 4175SOL    HW213425   2.041   6.392   4.661
 4176SOL     OW13426   2.902   6.557   2.093
 4176SOL    HW113427   2.922   6.626   2.162
 4176SOL    HW213428   2.813   6.515   2.112
 4177SOL     OW13429   6.314   4.384   4.925
 4177SOL    HW113430   6.256   4.446   4.978
 4177SOL    HW213431   6.410   4.399   4.949
 4178SOL     OW13432   4.696   0.335   4.325
 4178SOL    HW113433   4.599   0.312   4.337
 4178SOL    HW213434   4.751   0.251   4.328
 4179SOL     OW13435   5.562   2.429   3.118
 4179SOL    HW113436   5.495   2.416   3.045
 4179SOL    HW213437   5.517   2.416   3.207
 4180SOL     OW13438   4.915   4.104   1.564
 4180SOL    HW113439   4.963   4.099   1.652
 4180SOL    HW213440   4.820   4.132   1.580
 4181SOL     OW13441   1.893   1.937   0.633
 4181SOL    HW113442   1.823   2.003   0.607
 4181SOL    HW213443   1.850   1.851   0.660
 4182SOL     OW13444   0.435   6.945   3.198
 4182SOL    HW113445   0.413   6.864   3.144
 4182SOL    HW213446   0.480   7.013   3.139
 4183SOL     OW13447   4.529   0.696   6.869
 4183SOL    HW113448   4.554   0.609   6.828
 4183SOL    HW213449   4.434   0.693   6.900
 4184SOL     OW13450   4.376   4.868   1.672
 4184SOL    HW113451   4.278   4.884   1.686
 4184SOL    HW213452   4.389   4.790   1.612
 4185SOL     OW13453   0.404   5.712   2.388
 4185SOL    HW113454   0.370   5.806   2.392
 4185SOL    HW213455   0.502   5.713   2.368
 4186SOL     OW13456   2.448   5.018   0.762
 4186SOL    HW113457   2.349   5.014   0.768
 4186SOL    HW213458   2.474   5.092   0.699
 4187SOL     OW13459   3.713   3.814   5.796
 4187SOL    HW113460   3.654   3.866   5.734
 4187SOL    HW213461   3.766   3.747   5.743
 4188SOL     OW13462   4.810   0.122   4.262
 4188SOL    HW113463   4.776   0.036   4.224
 4188SOL    HW213464   4.899   0.143   4.222
 4189SOL     OW13465   3.711   0.632   5.027
 4189SOL    HW113466   3.749   0.648   5.118
 4189SOL    HW213467   3.762   0.685   4.960
 4190SOL     OW13468   0.579   0.705   0.227
 4190SOL    HW113469   0.520   0.696   0.308
 4190SOL    HW213470   0.545   0.779   0.169
 4191SOL     OW13471   5.324   3.284   3.234
 4191SOL    HW113472   5.320   3.282   3.134
 4191SOL    HW213473   5.420   3.279   3.264
 4192SOL     OW13474   0.709   1.172   4.032
 4192SOL    HW113475   0.662   1.085   4.016
 4192SOL    HW213476   0.647   1.247   4.010
 4193SOL     OW13477   1.552   6.886   3.090
 4193SOL    HW113478   1.482   6.847   3.031
 4193SOL    HW213479   1.515   6.964   3.140
 4194SOL     OW13480   5.932   0.260   5.318
 4194SOL    HW113481   5.899   0.326   5.251
 4194SOL    HW213482   5.901   0.286   5.409
 4195SOL     OW13483   4.278   0.295   2.316
 4195SOL    HW113484   4.223   0.304   2.399
 4195SOL    HW213485   4.344   0.221   2.327
 4196SOL     OW13486   5.869   2.266   3.581
 4196SOL    HW113487   5.890   2.184   3.634
 4196SOL    HW213488   5.954   2.309   3.552
 4197SOL     OW13489   5.090   5.811   5.135
 4197SOL    HW113490   5.159   5.880   5.111
 4197SOL    HW213491   5.134   5.722   5.145
 4198SOL     OW13492   5.395   2.991   6.420
 4198SOL    HW113493   5.363   2.993   6.325
 4198SOL    HW213494   5.469   2.924   6.429
 4199SOL     OW13495   2.035   3.525   6.278
 4199SOL    HW113496   2.007   3.580   6.199
 4199SOL    HW213497   2.004   3.569   6.362
 4200SOL     OW13498   2.757   6.330   5.164
 4200SOL    HW113499   2.803   6.398   5.107
 4200SOL    HW213500   2.788   6.238   5.138
 4201SOL     OW13501   5.945   6.307   3.618
 4201SOL    HW113502   5.982   6.221   3.653
 4201SOL    HW213503   5.916   6.295   3.523
 4202SOL     OW13504   4.063   5.700   5.654
 4202SOL    HW113505   3.990   5.637   5.627
 4202SOL    HW213506   4.071   5.773   5.586
 4203SOL     OW13507   5.080   5.403   1.079
 4203SOL    HW113508   5.001   5.434   1.132
 4203SOL    HW213509   5.123   5.481   1.033
 4204SOL     OW13510   3.833   2.938   2.485
 4204SOL    HW113511   3.839   2.916   2.582
 4204SOL    HW213512   3.755   2.888   2.445
 4205SOL     OW13513   3.736   4.885   3.698
 4205SOL    HW113514   3.826   4.892   3.656
 4205SOL    HW213515   3.667   4.874   3.627
 4206SOL     OW13516   5.801   0.471   5.507
 4206SOL    HW113517   5.716   0.448   5.556
 4206SOL    HW213518   5.782   0.544   5.442
 4207SOL     OW13519   2.004   1.363   1.851
 4207SOL    HW113520   2.083   1.355   1.911
 4207SOL    HW213521   1.995   1.279   1.797
 4208SOL     OW13522   1.170   3.282   6.754
 4208SOL    HW113523   1.176   3.295   6.656
 4208SOL    HW213524   1.256   3.310   6.798
 4209SOL     OW13525   0.551   1.571   5.444
 4209SOL    HW113526   0.499   1.516   5.509
 4209SOL    HW213527   0.496   1.649   5.414
 4210SOL     OW13528   3.334   3.592   2.045
 4210SOL    HW113529   3.282   3.510   2.069
 4210SOL    HW213530   3.380   3.578   1.957
 4211SOL     OW13531   3.914   5.370   5.263
 4211SOL    HW113532   3.922   5.459   5.218
 4211SOL    HW213533   3.942   5.298   5.199
 4212SOL     OW13534   6.238   2.532   2.151
 4212SOL    HW113535   6.174   2.456   2.159
 4212SOL    HW213536   6.287   2.526   2.064
 4213SOL     OW13537   2.597   0.838   2.387
 4213SOL    HW113538   2.539   0.913   2.354
 4213SOL    HW213539   2.540   0.759   2.408
 4214SOL     OW13540   1.120   3.967   5.609
 4214SOL    HW113541   1.082   4.043   5.557
 4214SOL    HW213542   1.197   3.999   5.664
 4215SOL     OW13543   6.810   5.790   4.745
 4215SOL    HW113544   6.867   5.821   4.822
 4215SOL    HW213545   6.795   5.866   4.682
 4216SOL     OW13546   1.358   1.725   3.075
 4216SOL    HW113547   1.422   1.699   3.147
 4216SOL    HW213548   1.408   1.749   2.992
 4217SOL     OW13549   6.879   0.169   2.732
 4217SOL    HW113550   6.898   0.187   2.635
 4217SOL    HW213551   6.952   0.113   2.771
 4218SOL     OW13552   5.177   0.419   1.738
 4218SOL    HW113553   5.154   0.499   1.683
 4218SOL    HW213554   5.274   0.397   1.726
 4219SOL     OW13555   3.123   5.137   3.580
 4219SOL    HW113556   3.162   5.100   3.665
 4219SOL    HW213557   3.138   5.073   3.506
 4220SOL     OW13558   5.778   2.506   3.514
 4220SOL    HW113559   5.827   2.513   3.427
 4220SOL    HW213560   5.800   2.420   3.559
 4221SOL     OW13561   6.081   5.653   6.663
 4221SOL    HW113562   6.003   5.625   6.608
 4221SOL    HW213563   6.087   5.596   6.745
 4222SOL     OW13564   5.962   2.599   2.697
 4222SOL    HW113565   6.059   2.603   2.721
 4222SOL    HW213566   5.930   2.690   2.672
 4223SOL     OW13567   2.885   3.224   4.902
 4223SOL    HW113568   2.819   3.160   4.943
 4223SOL    HW213569   2.902   3.299   4.966
 4224SOL     OW13570   4.733   2.906   3.708
 4224SOL    HW113571   4.727   2.807   3.711
 4224SOL    HW213572   4.728   2.943   3.801
 4225SOL     OW13573   4.855   0.531   5.658
 4225SOL    HW113574   4.758   0.532   5.682
 4225SOL    HW213575   4.864   0.530   5.558
 4226SOL     OW13576   0.780   0.188   3.136
 4226SOL    HW113577   0.683   0.211   3.125
 4226SOL    HW213578   0.811   0.216   3.227
 4227SOL     OW13579   3.779   5.101   6.524
 4227SOL    HW113580   3.818   5.010   6.536
 4227SOL    HW213581   3.836   5.168   6.573
 4228SOL     OW13582   0.783   3.538   3.309
 4228SOL    HW113583   0.810   3.550   3.404
 4228SOL    HW213584   0.829   3.458   3.270
 4229SOL     OW13585   4.726   5.207   5.995
 4229SOL    HW113586   4.788   5.190   5.919
 4229SOL    HW213587   4.689   5.300   5.987
 4230SOL     OW13588   2.527   0.794   4.259
 4230SOL    HW113589   2.512   0.861   4.331
 4230SOL    HW213590   2.471   0.818   4.179
 4231SOL     OW13591   5.299   6.006   4.658
 4231SOL    HW113592   5.261   6.023   4.567
 4231SOL    HW213593   5.397   6.023   4.657
 4232SOL     OW13594   6.708   4.537   1.721
 4232SOL    HW113595   6.636   4.519   1.789
 4232SOL    HW213596   6.667   4.546   1.631
 4233SOL     OW13597   6.973   0.743   0.195
 4233SOL    HW113598   6.967   0.716   0.099
 4233SOL    HW213599   6.882   0.759   0.232
 4234SOL     OW13600   1.425   0.059   5.628
 4234SOL    HW113601   1.427   7.002   5.560
 4234SOL    HW213602   1.489   0.131   5.602
 4235SOL     OW13603   5.466   3.988   5.210
 4235SOL    HW113604   5.377   3.971   5.167
 4235SOL    HW213605   5.530   4.023   5.142
 4236SOL     OW13606   0.450   3.687   3.034
 4236SOL    HW113607   0.441   3.766   2.973
 4236SOL    HW213608   0.534   3.696   3.088
 4237SOL     OW13609   6.371   4.994   4.069
 4237SOL    HW113610   6.355   5.017   4.165
 4237SOL    HW213611   6.306   4.923   4.041
 4238SOL     OW13612   3.872   5.146   3.188
 4238SOL    HW113613   3.964   5.138   3.225
 4238SOL    HW213614   3.846   5.060   3.145
 4239SOL     OW13615   5.865   1.182   3.786
 4239SOL    HW113616   5.804   1.165   3.864
 4239SOL    HW213617   5.917   1.266   3.803
 4240SOL     OW13618   2.206   0.034   6.970
 4240SOL    HW113619   2.167   0.036   0.046
 4240SOL    HW213620   2.300   0.000   6.974
 4241SOL     OW13621   5.599   1.375   1.517
 4241SOL    HW113622   5.645   1.461   1.493
 4241SOL    HW213623   5.655   1.324   1.582
 4242SOL     OW13624   2.020   0.403   3.260
 4242SOL    HW113625   2.050   0.490   3.221
 4242SOL    HW213626   2.099   0.342   3.271
 4243SOL     OW13627   0.617   3.890   3.393
 4243SOL    HW113628   0.664   3.958   3.450
 4243SOL    HW213629   0.563   3.830   3.451
 4244SOL     OW13630   4.890   5.389   0.890
 4244SOL    HW113631   4.863   5.301   0.853
 4244SOL    HW213632   4.968   5.377   0.951
 4245SOL     OW13633   6.253   1.459   6.153
 4245SOL    HW113634   6.173   1.400   6.139
 4245SOL    HW213635   6.224   1.544   6.197
 4246SOL     OW13636   5.595   2.242   3.605
 4246SOL    HW113637   5.571   2.320   3.663
 4246SOL    HW213638   5.694   2.238   3.593
 4247SOL     OW13639   2.153   4.994   3.487
 4247SOL    HW113640   2.056   5.007   3.509
 4247SOL    HW213641   2.206   5.066   3.532
 4248SOL     OW13642   1.194   1.333   3.567
 4248SOL    HW113643   1.164   1.376   3.482
 4248SOL    HW213644   1.239   1.246   3.548
 4249SOL     OW13645   5.529   1.604   3.391
 4249SOL    HW113646   5.584   1.688   3.392
 4249SOL    HW213647   5.501   1.583   3.297
 4250SOL     OW13648   6.450   6.007   4.432
 4250SOL    HW113649   6.352   6.027   4.429
 4250SOL    HW213650   6.484   6.020   4.525
 4251SOL     OW13651   6.508   3.047   0.909
 4251SOL    HW113652   6.527   2.961   0.957
 4251SOL    HW213653   6.419   3.082   0.937
 4252SOL     OW13654   4.896   5.975   6.521
 4252SOL    HW113655   4.996   5.977   6.530
 4252SOL    HW213656   4.864   6.063   6.486
 4253SOL     OW13657   3.152   6.781   1.735
 4253SOL    HW113658   3.116   6.874   1.729
 4253SOL    HW213659   3.100   6.721   1.673
 4254SOL     OW13660   2.107   3.996   1.959
 4254SOL    HW113661   2.141   4.050   1.882
 4254SOL    HW213662   2.020   4.034   1.990
 4255SOL     OW13663   0.181   3.796   3.797
 4255SOL    HW113664   0.188   3.885   3.752
 4255SOL    HW213665   0.090   3.759   3.782
 4256SOL     OW13666   0.994   5.991   0.975
 4256SOL    HW113667   0.972   6.078   1.020
 4256SOL    HW213668   1.021   5.924   1.043
 4257SOL     OW13669   4.954   1.397   4.527
 4257SOL    HW113670   4.860   1.370   4.548
 4257SOL    HW213671   4.953   1.468   4.456
 4258SOL     OW13672   3.031   5.853   1.002
 4258SOL    HW113673   2.963   5.855   1.076
 4258SOL    HW213674   3.022   5.936   0.947
 4259SOL     OW13675   1.340   5.945   0.863
 4259SOL    HW113676   1.263   5.980   0.916
 4259SOL    HW213677   1.426   5.976   0.904
 4260SOL     OW13678   5.843   0.681   3.376
 4260SOL    HW113679   5.750   0.703   3.346
 4260SOL    HW213680   5.895   0.643   3.300
 4261SOL     OW13681   1.877   0.262   2.981
 4261SOL    HW113682   1.909   0.279   3.074
 4261SOL    HW213683   1.905   0.170   2.952
 4262SOL     OW13684   1.014   4.221   6.117
 4262SOL    HW113685   0.979   4.186   6.204
 4262SOL    HW213686   1.105   4.183   6.101
 4263SOL     OW13687   2.784   0.939   3.634
 4263SOL    HW113688   2.870   0.989   3.645
 4263SOL    HW213689   2.732   0.943   3.719
 4264SOL     OW13690   6.407   1.729   4.723
 4264SOL    HW113691   6.406   1.677   4.637
 4264SOL    HW213692   6.440   1.821   4.705
 4265SOL     OW13693   3.595   0.909   0.965
 4265SOL    HW113694   3.665   0.959   1.015
 4265SOL    HW213695   3.615   0.911   0.867
 4266SOL     OW13696   1.954   6.278   6.844
 4266SOL    HW113697   1.863   6.274   6.801
 4266SOL    HW213698   2.024   6.257   6.776
 4267SOL     OW13699   2.042   3.646   4.151
 4267SOL    HW113700   1.957   3.693   4.126
 4267SOL    HW213701   2.096   3.631   4.069
 4268SOL     OW13702   2.030   5.570   6.644
 4268SOL    HW113703   1.964   5.511   6.690
 4268SOL    HW213704   2.115   5.574   6.697
 4269SOL     OW13705   2.878   0.821   3.323
 4269SOL    HW113706   2.811   0.769   3.375
 4269SOL    HW213707   2.857   0.816   3.226
 4270SOL     OW13708   3.166   2.932   2.315
 4270SOL    HW113709   3.241   2.993   2.290
 4270SOL    HW213710   3.173   2.908   2.412
 4271SOL     OW13711   7.004   1.012   0.232
 4271SOL    HW113712   0.004   1.033   0.329
 4271SOL    HW213713   7.008   0.913   0.218
 4272SOL     OW13714   6.931   2.593   4.840
 4272SOL    HW113715   6.853   2.601   4.902
 4272SOL    HW213716   6.973   2.503   4.851
 4273SOL     OW13717   4.904   6.396   4.866
 4273SOL    HW113718   4.873   6.380   4.773
 4273SOL    HW213719   4.919   6.308   4.912
 4274SOL     OW13720   1.264   0.017   1.893
 4274SOL    HW113721   1.222   6.974   1.962
 4274SOL    HW213722   1.356   6.999   1.871
 4275SOL     OW13723   6.835   1.807   4.048
 4275SOL    HW113724   6.855   1.710   4.064
 4275SOL    HW213725   6.888   1.839   3.969
 4276SOL     OW13726   3.158   4.966   3.801
 4276SOL    HW113727   3.111   5.037   3.853
 4276SOL    HW213728   3.224   4.919   3.860
 4277SOL     OW13729   0.237   4.425   2.501
 4277SOL    HW113730   0.220   4.485   2.579
 4277SOL    HW213731   0.162   4.358   2.495
 4278SOL     OW13732   0.478   6.749   4.246
 4278SOL    HW113733   0.396   6.692   4.239
 4278SOL    HW213734   0.512   6.772   4.155
 4279SOL     OW13735   1.958   0.900   2.971
 4279SOL    HW113736   2.051   0.884   2.938
 4279SOL    HW213737   1.943   0.848   3.055
 4280SOL     OW13738   6.333   0.083   5.994
 4280SOL    HW113739   6.358   0.178   6.017
 4280SOL    HW213740   6.349   0.068   5.896
 4281SOL     OW13741   5.321   5.202   3.258
 4281SOL    HW113742   5.350   5.289   3.298
 4281SOL    HW213743   5.247   5.218   3.193
 4282SOL     OW13744   3.416   4.437   0.461
 4282SOL    HW113745   3.384   4.473   0.373
 4282SOL    HW213746   3.386   4.498   0.534
 4283SOL     OW13747   3.422   1.291   3.650
 4283SOL    HW113748   3.341   1.250   3.690
 4283SOL    HW213749   3.413   1.391   3.650
 4284SOL     OW13750   4.501   5.406   0.535
 4284SOL    HW113751   4.493   5.329   0.472
 4284SOL    HW213752   4.597   5.430   0.546
 4285SOL     OW13753   2.274   1.361   5.772
 4285SOL    HW113754   2.325   1.413   5.840
 4285SOL    HW213755   2.329   1.351   5.689
 4286SOL     OW13756   5.941   0.133   6.045
 4286SOL    HW113757   5.976   0.068   5.977
 4286SOL    HW213758   5.853   0.168   6.015
 4287SOL     OW13759   4.842   1.028   5.824
 4287SOL    HW113760   4.914   1.026   5.754
 4287SOL    HW213761   4.799   0.938   5.830
 4288SOL     OW13762   0.992   5.376   3.059
 4288SOL    HW113763   0.929   5.395   2.984
 4288SOL    HW213764   1.020   5.463   3.101
 4289SOL     OW13765   0.797   2.292   6.326
 4289SOL    HW113766   0.827   2.329   6.413
 4289SOL    HW213767   0.876   2.283   6.265
 4290SOL     OW13768   0.709   6.149   4.895
 4290SOL    HW113769   0.668   6.221   4.839
 4290SOL    HW213770   0.710   6.063   4.844
 4291SOL     OW13771   5.169   4.270   6.479
 4291SOL    HW113772   5.222   4.323   6.413
 4291SOL    HW213773   5.175   4.173   6.457
 4292SOL     OW13774   5.695   2.989   0.241
 4292SOL    HW113775   5.681   2.945   0.330
 4292SOL    HW213776   5.772   2.946   0.195
 4293SOL     OW13777   3.723   4.489   0.054
 4293SOL    HW113778   3.625   4.492   0.037
 4293SOL    HW213779   3.754   4.394   0.053
 4294SOL     OW13780   2.056   1.108   6.459
 4294SOL    HW113781   2.109   1.074   6.381
 4294SOL    HW213782   2.102   1.188   6.498
 4295SOL     OW13783   4.951   5.900   3.914
 4295SOL    HW113784   4.945   5.876   3.817
 4295SOL    HW213785   4.997   5.827   3.964
 4296SOL     OW13786   3.098   6.886   0.056
 4296SOL    HW113787   3.083   6.978   0.092
 4296SOL    HW213788   3.035   6.822   0.099
 4297SOL     OW13789   6.823   6.486   2.064
 4297SOL    HW113790   6.917   6.520   2.070
 4297SOL    HW213791   6.824   6.390   2.036
 4298SOL     OW13792   3.448   6.184   1.615
 4298SOL    HW113793   3.421   6.105   1.669
 4298SOL    HW213794   3.434   6.268   1.668
 4299SOL     OW13795   0.879   3.160   0.237
 4299SOL    HW113796   0.950   3.118   0.180
 4299SOL    HW213797   0.914   3.247   0.273
 4300SOL     OW13798   2.567   6.895   0.398
 4300SOL    HW113799   2.606   6.976   0.353
 4300SOL    HW213800   2.586   6.815   0.342
 4301SOL     OW13801   4.677   0.399   1.782
 4301SOL    HW113802   4.713   0.442   1.699
 4301SOL    HW213803   4.584   0.366   1.764
 4302SOL     OW13804   6.902   0.512   6.298
 4302SOL    HW113805   6.836   0.437   6.303
 4302SOL    HW213806   6.877   0.573   6.223
 4303SOL     OW13807   0.122   4.256   4.219
 4303SOL    HW113808   0.042   4.235   4.275
 4303SOL    HW213809   0.167   4.337   4.254
 4304SOL     OW13810   3.501   3.668   2.279
 4304SOL    HW113811   3.451   3.651   2.194
 4304SOL    HW213812   3.569   3.740   2.264
 4305SOL     OW13813   0.444   6.304   6.321
 4305SOL    HW113814   0.497   6.386   6.304
 4305SOL    HW213815   0.369   6.299   6.256
 4306SOL     OW13816   4.892   4.704   4.521
 4306SOL    HW113817   4.799   4.724   4.492
 4306SOL    HW213818   4.901   4.607   4.543
 4307SOL     OW13819   5.315   3.183   5.016
 4307SOL    HW113820   5.274   3.234   5.091
 4307SOL    HW213821   5.340   3.092   5.047
 4308SOL     OW13822   5.667   5.573   1.143
 4308SOL    HW113823   5.741   5.526   1.096
 4308SOL    HW213824   5.602   5.609   1.076
 4309SOL     OW13825   1.355   1.366   0.805
 4309SOL    HW113826   1.394   1.383   0.714
 4309SOL    HW213827   1.427   1.375   0.874
 4310SOL     OW13828   1.623   2.400   1.194
 4310SOL    HW113829   1.675   2.482   1.221
 4310SOL    HW213830   1.687   2.328   1.166
 4311SOL     OW13831   0.451   6.204   2.895
 4311SOL    HW113832   0.494   6.143   2.828
 4311SOL    HW213833   0.387   6.265   2.848
 4312SOL     OW13834   1.862   5.294   2.983
 4312SOL    HW113835   1.769   5.280   2.947
 4312SOL    HW213836   1.918   5.214   2.960
 4313SOL     OW13837   4.408   1.815   0.474
 4313SOL    HW113838   4.479   1.769   0.420
 4313SOL    HW213839   4.323   1.764   0.467
 4314SOL     OW13840   6.360   1.377   4.926
 4314SOL    HW113841   6.354   1.476   4.939
 4314SOL    HW213842   6.444   1.355   4.876
 4315SOL     OW13843   2.430   0.628   3.401
 4315SOL    HW113844   2.433   0.652   3.304
 4315SOL    HW213845   2.505   0.673   3.449
 4316SOL     OW13846   5.179   0.005   2.252
 4316SOL    HW113847   5.153   0.082   2.194
 4316SOL    HW213848   5.274   6.996   2.235
 4317SOL     OW13849   5.261   1.528   5.897
 4317SOL    HW113850   5.289   1.542   5.992
 4317SOL    HW213851   5.334   1.483   5.846
 4318SOL     OW13852   0.923   1.628   4.846
 4318SOL    HW113853   0.861   1.616   4.924
 4318SOL    HW213854   0.988   1.553   4.842
 4319SOL     OW13855   0.982   2.185   1.137
 4319SOL    HW113856   1.022   2.238   1.212
 4319SOL    HW213857   1.005   2.088   1.149
 4320SOL     OW13858   3.841   5.486   1.136
 4320SOL    HW113859   3.924   5.494   1.081
 4320SOL    HW213860   3.865   5.467   1.231
 4321SOL     OW13861   6.962   4.487   4.518
 4321SOL    HW113862   6.964   4.407   4.458
 4321SOL    HW213863   0.005   4.558   4.480
 4322SOL     OW13864   6.473   2.987   6.594
 4322SOL    HW113865   6.493   3.043   6.674
 4322SOL    HW213866   6.397   3.028   6.543
 4323SOL     OW13867   4.982   4.809   0.283
 4323SOL    HW113868   5.006   4.853   0.369
 4323SOL    HW213869   4.979   4.877   0.210
 4324SOL     OW13870   6.463   3.996   5.908
 4324SOL    HW113871   6.457   3.976   5.810
 4324SOL    HW213872   6.378   4.040   5.938
 4325SOL     OW13873   2.978   1.568   2.181
 4325SOL    HW113874   2.960   1.642   2.246
 4325SOL    HW213875   2.921   1.489   2.203
 4326SOL     OW13876   5.324   4.450   1.950
 4326SOL    HW113877   5.313   4.463   2.049
 4326SOL    HW213878   5.381   4.371   1.932
 4327SOL     OW13879   4.699   6.130   2.039
 4327SOL    HW113880   4.777   6.105   2.097
 4327SOL    HW213881   4.626   6.063   2.050
 4328SOL     OW13882   5.618   4.588   5.566
 4328SOL    HW113883   5.646   4.588   5.663
 4328SOL    HW213884   5.522   4.614   5.560
 4329SOL     OW13885   5.821   2.581   5.438
 4329SOL    HW113886   5.869   2.616   5.357
 4329SOL    HW213887   5.872   2.606   5.520
 4330SOL     OW13888   2.252   6.708   4.653
 4330SOL    HW113889   2.247   6.725   4.751
 4330SOL    HW213890   2.348   6.706   4.624
 4331SOL     OW13891   5.783   0.762   1.726
 4331SOL    HW113892   5.712   0.693   1.711
 4331SOL    HW213893   5.814   0.797   1.638
 4332SOL     OW13894   6.262   2.857   2.926
 4332SOL    HW113895   6.216   2.778   2.884
 4332SOL    HW213896   6.313   2.827   3.007
 4333SOL     OW13897   4.390   1.636   4.710
 4333SOL    HW113898   4.314   1.621   4.645
 4333SOL    HW213899   4.365   1.708   4.774
 4334SOL     OW13900   1.833   3.037   1.881
 4334SOL    HW113901   1.781   2.956   1.909
 4334SOL    HW213902   1.795   3.071   1.794
 4335SOL     OW13903   3.589   2.877   2.107
 4335SOL    HW113904   3.505   2.931   2.110
 4335SOL    HW213905   3.632   2.876   2.197
 4336SOL     OW13906   2.734   5.675   5.722
 4336SOL    HW113907   2.757   5.586   5.681
 4336SOL    HW213908   2.768   5.749   5.664
 4337SOL     OW13909   2.164   4.729   1.390
 4337SOL    HW113910   2.221   4.762   1.464
 4337SOL    HW213911   2.146   4.631   1.402
 4338SOL     OW13912   6.500   0.365   6.057
 4338SOL    HW113913   6.438   0.424   6.110
 4338SOL    HW213914   6.546   0.419   5.987
 4339SOL     OW13915   4.079   2.769   6.411
 4339SOL    HW113916   4.043   2.861   6.396
 4339SOL    HW213917   4.090   2.753   6.509
 4340SOL     OW13918   5.975   4.008   1.026
 4340SOL    HW113919   6.015   4.049   0.945
 4340SOL    HW213920   5.876   3.998   1.013
 4341SOL     OW13921   1.261   5.322   1.076
 4341SOL    HW113922   1.277   5.364   0.987
 4341SOL    HW213923   1.205   5.240   1.065
 4342SOL     OW13924   5.423   3.641   3.224
 4342SOL    HW113925   5.383   3.622   3.134
 4342SOL    HW213926   5.371   3.592   3.294
 4343SOL     OW13927   3.354   6.094   4.669
 4343SOL    HW113928   3.338   6.180   4.621
 4343SOL    HW213929   3.390   6.113   4.761
 4344SOL     OW13930   1.223   3.147   2.902
 4344SOL    HW113931   1.196   3.240   2.924
 4344SOL    HW213932   1.322   3.137   2.914
 4345SOL     OW13933   3.340   3.445   4.833
 4345SOL    HW113934   3.272   3.395   4.887
 4345SOL    HW213935   3.294   3.506   4.769
 4346SOL     OW13936   2.073   2.601   2.584
 4346SOL    HW113937   2.016   2.539   2.530
 4346SOL    HW213938   2.050   2.695   2.562
 4347SOL     OW13939   5.554   6.483   2.648
 4347SOL    HW113940   5.653   6.487   2.640
 4347SOL    HW213941   5.529   6.406   2.708
 4348SOL     OW13942   0.277   5.910   4.386
 4348SOL    HW113943   0.210   5.973   4.425
 4348SOL    HW213944   0.340   5.960   4.326
 4349SOL     OW13945   6.359   2.432   4.144
 4349SOL    HW113946   6.382   2.352   4.201
 4349SOL    HW213947   6.431   2.500   4.153
 4350SOL     OW13948   4.515   1.615   4.078
 4350SOL    HW113949   4.585   1.549   4.051
 4350SOL    HW213950   4.530   1.643   4.173
 4351SOL     OW13951   1.375   6.465   1.252
 4351SOL    HW113952   1.411   6.394   1.312
 4351SOL    HW213953   1.440   6.541   1.246
 4352SOL     OW13954   6.397   4.216   1.761
 4352SOL    HW113955   6.380   4.236   1.664
 4352SOL    HW213956   6.495   4.204   1.775
 4353SOL     OW13957   3.579   3.510   0.709
 4353SOL    HW113958   3.668   3.552   0.730
 4353SOL    HW213959   3.593   3.433   0.647
 4354SOL     OW13960   2.062   1.432   6.439
 4354SOL    HW113961   2.036   1.483   6.521
 4354SOL    HW213962   2.153   1.461   6.410
 4355SOL     OW13963   1.956   0.004   2.861
 4355SOL    HW113964   1.886   6.949   2.875
 4355SOL    HW213965   1.974   0.014   2.764
 4356SOL     OW13966   4.575   3.594   5.685
 4356SOL    HW113967   4.585   3.674   5.744
 4356SOL    HW213968   4.478   3.575   5.670
 4357SOL     OW13969   6.777   1.100   1.580
 4357SOL    HW113970   6.791   1.011   1.537
 4357SOL    HW213971   6.711   1.153   1.526
 4358SOL     OW13972   6.739   0.540   0.481
 4358SOL    HW113973   6.761   0.498   0.569
 4358SOL    HW213974   6.755   0.474   0.408
 4359SOL     OW13975   1.048   1.324   0.304
 4359SOL    HW113976   1.025   1.256   0.374
 4359SOL    HW213977   1.127   1.291   0.251
 4360SOL     OW13978   0.606   2.823   4.441
 4360SOL    HW113979   0.685   2.840   4.499
 4360SOL    HW213980   0.572   2.909   4.404
 4361SOL     OW13981   2.200   3.826   1.353
 4361SOL    HW113982   2.187   3.897   1.422
 4361SOL    HW213983   2.197   3.736   1.396
 4362SOL     OW13984   6.912   5.894   4.183
 4362SOL    HW113985   6.863   5.960   4.126
 4362SOL    HW213986   6.846   5.829   4.223
 4363SOL     OW13987   4.649   1.156   1.591
 4363SOL    HW113988   4.658   1.169   1.690
 4363SOL    HW213989   4.728   1.196   1.545
 4364SOL     OW13990   3.236   4.108   3.489
 4364SOL    HW113991   3.213   4.050   3.412
 4364SOL    HW213992   3.165   4.178   3.501
 4365SOL     OW13993   2.832   0.787   2.234
 4365SOL    HW113994   2.906   0.851   2.255
 4365SOL    HW213995   2.753   0.807   2.292
 4366SOL     OW13996   6.556   6.551   6.685
 4366SOL    HW113997   6.518   6.522   6.597
 4366SOL    HW213998   6.574   6.649   6.683
 4367SOL     OW13999   2.680   4.945   3.664
 4367SOL    HW114000   2.593   4.927   3.619
 4367SOL    HW214001   2.727   5.020   3.617
 4368SOL     OW14002   3.684   5.554   1.657
 4368SOL    HW114003   3.628   5.487   1.706
 4368SOL    HW214004   3.641   5.644   1.664
 4369SOL     OW14005   4.749   5.263   3.280
 4369SOL    HW114006   4.705   5.184   3.236
 4369SOL    HW214007   4.686   5.303   3.347
 4370SOL     OW14008   3.489   3.968   1.485
 4370SOL    HW114009   3.431   3.925   1.554
 4370SOL    HW214010   3.585   3.959   1.511
 4371SOL     OW14011   2.131   2.080   3.046
 4371SOL    HW114012   2.113   2.021   3.124
 4371SOL    HW214013   2.101   2.173   3.067
 4372SOL     OW14014   2.577   2.531   4.416
 4372SOL    HW114015   2.486   2.568   4.434
 4372SOL    HW214016   2.633   2.537   4.499
 4373SOL     OW14017   4.408   0.666   6.539
 4373SOL    HW114018   4.324   0.695   6.494
 4373SOL    HW214019   4.386   0.609   6.618
 4374SOL     OW14020   1.834   1.829   1.723
 4374SOL    HW114021   1.838   1.884   1.806
 4374SOL    HW214022   1.908   1.763   1.723
 4375SOL     OW14023   3.904   5.774   2.864
 4375SOL    HW114024   3.814   5.741   2.894
 4375SOL    HW214025   3.898   5.801   2.768
 4376SOL     OW14026   6.399   0.587   1.973
 4376SOL    HW114027   6.439   0.665   2.021
 4376SOL    HW214028   6.326   0.619   1.913
 4377SOL     OW14029   5.904   5.907   0.382
 4377SOL    HW114030   5.806   5.885   0.376
 4377SOL    HW214031   5.930   5.920   0.477
 4378SOL     OW14032   1.839   3.854   2.872
 4378SOL    HW114033   1.919   3.810   2.829
 4378SOL    HW214034   1.806   3.797   2.947
 4379SOL     OW14035   2.270   1.200   1.883
 4379SOL    HW114036   2.213   1.182   1.803
 4379SOL    HW214037   2.280   1.115   1.935
 4380SOL     OW14038   1.730   6.423   3.984
 4380SOL    HW114039   1.823   6.395   3.958
 4380SOL    HW214040   1.731   6.517   4.019
 4381SOL     OW14041   2.160   4.054   4.744
 4381SOL    HW114042   2.185   3.980   4.681
 4381SOL    HW214043   2.215   4.047   4.827
 4382SOL     OW14044   6.078   3.417   6.170
 4382SOL    HW114045   6.012   3.361   6.219
 4382SOL    HW214046   6.053   3.423   6.074
 4383SOL     OW14047   0.605   2.655   5.510
 4383SOL    HW114048   0.704   2.666   5.501
 4383SOL    HW214049   0.570   2.720   5.577
 4384SOL     OW14050   5.412   0.949   6.743
 4384SOL    HW114051   5.337   0.958   6.679
 4384SOL    HW214052   5.437   0.852   6.752
 4385SOL     OW14053   6.655   2.656   4.577
 4385SOL    HW114054   6.745   2.616   4.591
 4385SOL    HW214055   6.664   2.748   4.538
 4386SOL     OW14056   1.044   3.914   6.796
 4386SOL    HW114057   1.078   3.873   6.711
 4386SOL    HW214058   0.976   3.984   6.775
 4387SOL     OW14059   1.210   1.625   1.628
 4387SOL    HW114060   1.262   1.698   1.673
 4387SOL    HW214061   1.195   1.649   1.532
 4388SOL     OW14062   5.157   1.097   6.225
 4388SOL    HW114063   5.150   1.001   6.253
 4388SOL    HW214064   5.131   1.105   6.129
 4389SOL     OW14065   5.197   1.837   0.592
 4389SOL    HW114066   5.144   1.897   0.652
 4389SOL    HW214067   5.177   1.861   0.497
 4390SOL     OW14068   4.090   1.850   2.294
 4390SOL    HW114069   4.039   1.912   2.235
 4390SOL    HW214070   4.177   1.826   2.251
 4391SOL     OW14071   1.535   5.533   6.337
 4391SOL    HW114072   1.503   5.438   6.342
 4391SOL    HW214073   1.600   5.550   6.411
 4392SOL     OW14074   6.417   3.705   5.101
 4392SOL    HW114075   6.446   3.708   5.197
 4392SOL    HW214076   6.317   3.709   5.097
 4393SOL     OW14077   5.706   6.347   2.969
 4393SOL    HW114078   5.799   6.354   2.931
 4393SOL    HW214079   5.699   6.403   3.051
 4394SOL     OW14080   6.391   5.331   2.617
 4394SOL    HW114081   6.372   5.240   2.580
 4394SOL    HW214082   6.408   5.323   2.715
 4395SOL     OW14083   3.887   1.234   2.011
 4395SOL    HW114084   3.879   1.191   2.101
 4395SOL    HW214085   3.981   1.223   1.977
 4396SOL     OW14086   2.707   2.045   3.997
 4396SOL    HW114087   2.708   2.028   3.898
 4396SOL    HW214088   2.751   2.132   4.016
 4397SOL     OW14089   0.592   1.464   4.889
 4397SOL    HW114090   0.605   1.397   4.963
 4397SOL    HW214091   0.567   1.552   4.928
 4398SOL     OW14092   1.463   4.761   5.135
 4398SOL    HW114093   1.555   4.735   5.165
 4398SOL    HW214094   1.458   4.759   5.035
 4399SOL     OW14095   1.656   0.374   2.254
 4399SOL    HW114096   1.720   0.392   2.329
 4399SOL    HW214097   1.593   0.451   2.245
 4400SOL     OW14098   2.213   0.215   4.919
 4400SOL    HW114099   2.165   0.294   4.881
 4400SOL    HW214100   2.308   0.216   4.887
 4401SOL     OW14101   5.214   6.552   6.754
 4401SOL    HW114102   5.267   6.619   6.806
 4401SOL    HW214103   5.149   6.599   6.695
 4402SOL     OW14104   1.874   6.527   2.299
 4402SOL    HW114105   1.951   6.491   2.352
 4402SOL    HW214106   1.904   6.609   2.250
 4403SOL     OW14107   0.324   0.132   3.361
 4403SOL    HW114108   0.339   0.122   3.460
 4403SOL    HW214109   0.378   0.063   3.312
 4404SOL     OW14110   0.952   4.168   5.455
 4404SOL    HW114111   0.896   4.181   5.373
 4404SOL    HW214112   1.029   4.232   5.453
 4405SOL     OW14113   2.777   3.907   0.173
 4405SOL    HW114114   2.851   3.965   0.139
 4405SOL    HW214115   2.715   3.962   0.229
 4406SOL     OW14116   5.834   4.824   1.646
 4406SOL    HW114117   5.745   4.865   1.668
 4406SOL    HW214118   5.837   4.731   1.683
 4407SOL     OW14119   0.072   4.369   0.759
 4407SOL    HW114120   0.030   4.381   0.849
 4407SOL    HW214121   0.171   4.355   0.771
 4408SOL     OW14122   4.637   1.051   0.918
 4408SOL    HW114123   4.576   1.038   0.997
 4408SOL    HW214124   4.681   1.141   0.925
 4409SOL     OW14125   4.296   0.622   2.148
 4409SOL    HW114126   4.355   0.620   2.067
 4409SOL    HW214127   4.280   0.529   2.180
 4410SOL     OW14128   1.855   5.475   0.302
 4410SOL    HW114129   1.866   5.376   0.304
 4410SOL    HW214130   1.776   5.502   0.358
 4411SOL     OW14131   3.995   3.186   3.734
 4411SOL    HW114132   4.005   3.161   3.830
 4411SOL    HW214133   3.929   3.261   3.725
 4412SOL     OW14134   3.474   1.191   4.652
 4412SOL    HW114135   3.413   1.251   4.602
 4412SOL    HW214136   3.552   1.167   4.593
 4413SOL     OW14137   4.698   5.804   4.562
 4413SOL    HW114138   4.710   5.732   4.629
 4413SOL    HW214139   4.740   5.889   4.595
 4414SOL     OW14140   4.054   4.751   2.041
 4414SOL    HW114141   4.030   4.678   1.976
 4414SOL    HW214142   3.981   4.819   2.043
 4415SOL     OW14143   4.114   4.132   6.186
 4415SOL    HW114144   4.211   4.117   6.206
 4415SOL    HW214145   4.058   4.081   6.251
 4416SOL     OW14146   3.233   0.814   4.033
 4416SOL    HW114147   3.234   0.832   4.131
 4416SOL    HW214148   3.307   0.864   3.989
 4417SOL     OW14149   6.658   4.475   3.265
 4417SOL    HW114150   6.592   4.401   3.256
 4417SOL    HW214151   6.627   4.541   3.333
 4418SOL     OW14152   5.364   0.621   3.771
 4418SOL    HW114153   5.462   0.604   3.766
 4418SOL    HW214154   5.345   0.688   3.842
 4419SOL     OW14155   5.596   6.303   0.361
 4419SOL    HW114156   5.512   6.249   0.365
 4419SOL    HW214157   5.622   6.332   0.453
 4420SOL     OW14158   4.894   1.859   1.196
 4420SOL    HW114159   4.968   1.925   1.182
 4420SOL    HW214160   4.866   1.821   1.107
 4421SOL     OW14161   2.159   0.899   3.346
 4421SOL    HW114162   2.203   0.883   3.434
 4421SOL    HW214163   2.176   0.992   3.316
 4422SOL     OW14164   2.082   3.772   5.913
 4422SOL    HW114165   2.109   3.722   5.830
 4422SOL    HW214166   2.139   3.854   5.921
 4423SOL     OW14167   1.436   2.653   5.764
 4423SOL    HW114168   1.383   2.728   5.726
 4423SOL    HW214169   1.374   2.585   5.803
 4424SOL     OW14170   4.938   6.766   4.013
 4424SOL    HW114171   4.982   6.782   4.101
 4424SOL    HW214172   5.008   6.766   3.941
 4425SOL     OW14173   3.347   5.734   5.832
 4425SOL    HW114174   3.255   5.700   5.809
 4425SOL    HW214175   3.359   5.825   5.794
 4426SOL     OW14176   0.018   1.867   4.863
 4426SOL    HW114177   6.961   1.804   4.836
 4426SOL    HW214178   6.997   1.959   4.870
 4427SOL     OW14179   6.703   6.741   3.080
 4427SOL    HW114180   6.710   6.744   3.180
 4427SOL    HW214181   6.765   6.809   3.040
 4428SOL     OW14182   2.935   5.080   2.101
 4428SOL    HW114183   2.971   5.131   2.023
 4428SOL    HW214184   2.997   5.090   2.179
 4429SOL     OW14185   3.404   0.498   3.653
 4429SOL    HW114186   3.466   0.419   3.654
 4429SOL    HW214187   3.368   0.513   3.745
 4430SOL     OW14188   5.111   2.958   4.422
 4430SOL    HW114189   5.115   2.965   4.521
 4430SOL    HW214190   5.108   2.862   4.395
 4431SOL     OW14191   1.440   1.050   2.084
 4431SOL    HW114192   1.347   1.066   2.049
 4431SOL    HW214193   1.464   1.122   2.149
 4432SOL     OW14194   3.461   4.166   3.674
 4432SOL    HW114195   3.550   4.181   3.633
 4432SOL    HW214196   3.394   4.144   3.602
 4433SOL     OW14197   6.069   0.457   4.801
 4433SOL    HW114198   6.090   0.380   4.861
 4433SOL    HW214199   6.017   0.426   4.722
 4434SOL     OW14200   3.624   1.912   3.334
 4434SOL    HW114201   3.668   1.973   3.399
 4434SOL    HW214202   3.691   1.880   3.268
 4435SOL     OW14203   4.075   3.914   1.070
 4435SOL    HW114204   4.050   3.852   1.144
 4435SOL    HW214205   4.109   3.861   0.992
 4436SOL     OW14206   3.710   1.759   0.457
 4436SOL    HW114207   3.687   1.816   0.536
 4436SOL    HW214208   3.640   1.768   0.387
 4437SOL     OW14209   5.648   1.075   4.075
 4437SOL    HW114210   5.578   1.103   4.010
 4437SOL    HW214211   5.690   1.156   4.116
 4438SOL     OW14212   4.402   1.357   0.014
 4438SOL    HW114213   4.317   1.396   6.995
 4438SOL    HW214214   4.475   1.425   0.008
 4439SOL     OW14215   0.522   5.904   1.197
 4439SOL    HW114216   0.616   5.929   1.221
 4439SOL    HW214217   0.458   5.946   1.261
 4440SOL     OW14218   1.893   4.642   0.823
 4440SOL    HW114219   1.841   4.716   0.866
 4440SOL    HW214220   1.986   4.641   0.860
 4441SOL     OW14221   6.614   1.942   2.950
 4441SOL    HW114222   6.548   2.002   2.994
 4441SOL    HW214223   6.588   1.927   2.855
 4442SOL     OW14224   2.884   5.761   4.592
 4442SOL    HW114225   2.808   5.798   4.537
 4442SOL    HW214226   2.871   5.663   4.605
 4443SOL     OW14227   6.838   3.002   0.676
 4443SOL    HW114228   6.879   2.974   0.590
 4443SOL    HW214229   6.743   3.029   0.660
 4444SOL     OW14230   3.797   5.500   6.293
 4444SOL    HW114231   3.838   5.412   6.269
 4444SOL    HW214232   3.779   5.552   6.209
 4445SOL     OW14233   0.002   0.494   1.079
 4445SOL    HW114234   0.076   0.561   1.086
 4445SOL    HW214235   6.940   0.535   1.032
 4446SOL     OW14236   6.338   1.605   1.666
 4446SOL    HW114237   6.311   1.699   1.646
 4446SOL    HW214238   6.353   1.595   1.764
 4447SOL     OW14239   5.806   3.627   6.285
 4447SOL    HW114240   5.884   3.578   6.324
 4447SOL    HW214241   5.836   3.680   6.206
 4448SOL     OW14242   3.275   4.167   0.707
 4448SOL    HW114243   3.249   4.081   0.751
 4448SOL    HW214244   3.220   4.242   0.743
 4449SOL     OW14245   4.487   0.953   5.982
 4449SOL    HW114246   4.516   1.028   6.040
 4449SOL    HW214247   4.404   0.912   6.018
 4450SOL     OW14248   4.115   3.375   4.147
 4450SOL    HW114249   4.133   3.391   4.050
 4450SOL    HW214250   4.123   3.461   4.197
 4451SOL     OW14251   5.673   4.324   3.089
 4451SOL    HW114252   5.748   4.267   3.053
 4451SOL    HW214253   5.589   4.304   3.039
 4452SOL     OW14254   5.596   6.541   4.733
 4452SOL    HW114255   5.531   6.542   4.656
 4452SOL    HW214256   5.664   6.613   4.720
 4453SOL     OW14257   0.090   2.987   1.408
 4453SOL    HW114258   0.048   3.012   1.496
 4453SOL    HW214259   0.018   2.973   1.340
 4454SOL     OW14260   5.604   1.975   6.873
 4454SOL    HW114261   5.577   1.929   6.957
 4454SOL    HW214262   5.699   2.006   6.881
 4455SOL     OW14263   3.964   0.576   5.983
 4455SOL    HW114264   4.001   0.495   5.937
 4455SOL    HW214265   4.001   0.582   6.075
 4456SOL     OW14266   3.055   5.376   2.739
 4456SOL    HW114267   2.995   5.433   2.682
 4456SOL    HW214268   3.003   5.296   2.771
 4457SOL     OW14269   4.367   2.384   0.309
 4457SOL    HW114270   4.354   2.285   0.314
 4457SOL    HW214271   4.352   2.425   0.399
 4458SOL     OW14272   1.174   3.871   0.038
 4458SOL    HW114273   1.115   3.927   6.995
 4458SOL    HW214274   1.152   3.775   0.024
 4459SOL     OW14275   4.934   0.586   3.718
 4459SOL    HW114276   4.943   0.517   3.790
 4459SOL    HW214277   4.841   0.581   3.679
 4460SOL     OW14278   2.901   3.158   5.213
 4460SOL    HW114279   2.873   3.067   5.244
 4460SOL    HW214280   2.998   3.156   5.188
 4461SOL     OW14281   0.804   0.398   2.684
 4461SOL    HW114282   0.863   0.414   2.604
 4461SOL    HW214283   0.828   0.463   2.756
 4462SOL     OW14284   0.038   3.250   2.063
 4462SOL    HW114285   6.986   3.219   2.130
 4462SOL    HW214286   0.130   3.233   2.098
 4463SOL     OW14287   3.640   2.885   0.080
 4463SOL    HW114288   3.627   2.983   0.070
 4463SOL    HW214289   3.630   2.840   7.007
 4464SOL     OW14290   6.501   4.304   0.035
 4464SOL    HW114291   6.532   4.273   6.961
 4464SOL    HW214292   6.580   4.332   0.089
 4465SOL     OW14293   2.467   5.259   2.470
 4465SOL    HW114294   2.374   5.296   2.478
 4465SOL    HW214295   2.510   5.293   2.386
 4466SOL     OW14296   1.162   0.716   2.319
 4466SOL    HW114297   1.186   0.723   2.222
 4466SOL    HW214298   1.198   0.630   2.355
 4467SOL     OW14299   1.511   6.839   3.780
 4467SOL    HW114300   1.443   6.770   3.802
 4467SOL    HW214301   1.481   6.928   3.814
 4468SOL     OW14302   1.309   2.866   0.857
 4468SOL    HW114303   1.398   2.822   0.849
 4468SOL    HW214304   1.294   2.894   0.952
 4469SOL     OW14305   3.898   0.395   1.618
 4469SOL    HW114306   3.831   0.325   1.642
 4469SOL    HW214307   3.981   0.351   1.583
 4470SOL     OW14308   6.334   3.225   1.940
 4470SOL    HW114309   6.310   3.322   1.936
 4470SOL    HW214310   6.426   3.212   1.903
 4471SOL     OW14311   7.010   1.938   0.140
 4471SOL    HW114312   6.935   1.982   0.191
 4471SOL    HW214313   0.072   2.001   0.135
 4472SOL     OW14314   1.978   2.981   3.510
 4472SOL    HW114315   1.958   2.985   3.608
 4472SOL    HW214316   1.914   2.917   3.466
 4473SOL     OW14317   6.934   2.649   3.772
 4473SOL    HW114318   6.866   2.590   3.729
 4473SOL    HW214319   6.994   2.687   3.701
 4474SOL     OW14320   3.703   0.508   1.930
 4474SOL    HW114321   3.798   0.538   1.939
 4474SOL    HW214322   3.677   0.456   2.012
 4475SOL     OW14323   1.482   3.827   2.654
 4475SOL    HW114324   1.509   3.746   2.601
 4475SOL    HW214325   1.396   3.808   2.701
 4476SOL     OW14326   4.586   6.295   4.099
 4476SOL    HW114327   4.591   6.313   4.197
 4476SOL    HW214328   4.618   6.376   4.049
 4477SOL     OW14329   1.103   0.318   5.462
 4477SOL    HW114330   1.061   0.370   5.388
 4477SOL    HW214331   1.159   0.245   5.424
 4478SOL     OW14332   3.587   6.003   2.364
 4478SOL    HW114333   3.533   5.919   2.361
 4478SOL    HW214334   3.606   6.027   2.459
 4479SOL     OW14335   0.583   0.629   1.000
 4479SOL    HW114336   0.616   0.679   0.920
 4479SOL    HW214337   0.661   0.584   1.046
 4480SOL     OW14338   1.431   3.380   5.347
 4480SOL    HW114339   1.503   3.372   5.416
 4480SOL    HW214340   1.413   3.476   5.328
 4481SOL     OW14341   2.676   6.828   4.906
 4481SOL    HW114342   2.769   6.825   4.871
 4481SOL    HW214343   2.667   6.764   4.983
 4482SOL     OW14344   0.461   4.176   4.188
 4482SOL    HW114345   0.418   4.087   4.200
 4482SOL    HW214346   0.560   4.165   4.175
 4483SOL     OW14347   4.923   3.411   2.339
 4483SOL    HW114348   4.981   3.454   2.409
 4483SOL    HW214349   4.893   3.322   2.372
 4484SOL     OW14350   3.438   2.794   5.344
 4484SOL    HW114351   3.535   2.771   5.344
 4484SOL    HW214352   3.404   2.795   5.438
 4485SOL     OW14353   5.396   1.986   5.819
 4485SOL    HW114354   5.343   2.070   5.829
 4485SOL    HW214355   5.333   1.910   5.802
 4486SOL     OW14356   5.239   3.704   4.456
 4486SOL    HW114357   5.267   3.609   4.467
 4486SOL    HW214358   5.167   3.725   4.522
 4487SOL     OW14359   2.316   2.986   6.530
 4487SOL    HW114360   2.399   3.032   6.499
 4487SOL    HW214361   2.341   2.911   6.592
 4488SOL     OW14362   6.170   3.530   5.150
 4488SOL    HW114363   6.128   3.464   5.213
 4488SOL    HW214364   6.214   3.481   5.075
 4489SOL     OW14365   5.809   5.365   4.319
 4489SOL    HW114366   5.715   5.335   4.306
 4489SOL    HW214367   5.833   5.432   4.248
 4490SOL     OW14368   6.230   2.615   2.802
 4490SOL    HW114369   6.218   2.518   2.824
 4490SOL    HW214370   6.322   2.629   2.765
 4491SOL     OW14371   0.089   2.977   4.251
 4491SOL    HW114372   0.079   3.067   4.293
 4491SOL    HW214373   0.095   2.907   4.323
 4492SOL     OW14374   5.081   3.313   1.058
 4492SOL    HW114375   5.110   3.405   1.035
 4492SOL    HW214376   4.990   3.296   1.020
 4493SOL     OW14377   4.733   5.977   5.427
 4493SOL    HW114378   4.773   5.916   5.358
 4493SOL    HW214379   4.646   6.012   5.394
 4494SOL     OW14380   6.829   1.511   5.770
 4494SOL    HW114381   6.881   1.483   5.850
 4494SOL    HW214382   6.892   1.540   5.697
 4495SOL     OW14383   4.760   5.746   4.243
 4495SOL    HW114384   4.731   5.703   4.329
 4495SOL    HW214385   4.741   5.844   4.247
 4496SOL     OW14386   4.372   5.760   1.092
 4496SOL    HW114387   4.362   5.769   0.993
 4496SOL    HW214388   4.424   5.839   1.127
 4497SOL     OW14389   5.005   0.534   6.480
 4497SOL    HW114390   5.095   0.575   6.498
 4497SOL    HW214391   5.015   0.435   6.471
 4498SOL     OW14392   0.084   3.148   6.647
 4498SOL    HW114393   0.007   3.100   6.689
 4498SOL    HW214394   0.081   3.135   6.547
 4499SOL     OW14395   0.321   3.551   3.832
 4499SOL    HW114396   0.279   3.461   3.819
 4499SOL    HW214397   0.255   3.622   3.809
 4500SOL     OW14398   2.943   3.326   4.069
 4500SOL    HW114399   2.875   3.343   4.140
 4500SOL    HW214400   3.023   3.282   4.110
 4501SOL     OW14401   6.797   3.189   5.355
 4501SOL    HW114402   6.846   3.134   5.287
 4501SOL    HW214403   6.839   3.280   5.361
 4502SOL     OW14404   1.505   1.732   0.194
 4502SOL    HW114405   1.472   1.677   0.118
 4502SOL    HW214406   1.566   1.803   0.160
 4503SOL     OW14407   3.482   6.699   2.934
 4503SOL    HW114408   3.456   6.680   2.839
 4503SOL    HW214409   3.429   6.641   2.995
 4504SOL     OW14410   6.595   1.249   4.812
 4504SOL    HW114411   6.642   1.252   4.900
 4504SOL    HW214412   6.635   1.316   4.750
 4505SOL     OW14413   6.254   5.745   3.280
 4505SOL    HW114414   6.155   5.741   3.277
 4505SOL    HW214415   6.283   5.821   3.339
 4506SOL     OW14416   4.284   2.373   4.232
 4506SOL    HW114417   4.203   2.318   4.254
 4506SOL    HW214418   4.315   2.421   4.314
 4507SOL     OW14419   5.460   4.765   2.512
 4507SOL    HW114420   5.406   4.848   2.528
 4507SOL    HW214421   5.478   4.756   2.414
 4508SOL     OW14422   1.016   5.077   6.077
 4508SOL    HW114423   1.087   5.035   6.021
 4508SOL    HW214424   0.974   5.007   6.135
 4509SOL     OW14425   5.092   2.000   3.573
 4509SOL    HW114426   5.014   2.024   3.516
 4509SOL    HW214427   5.128   1.911   3.545
 4510SOL     OW14428   4.838   0.117   5.052
 4510SOL    HW114429   4.795   0.093   4.965
 4510SOL    HW214430   4.782   0.185   5.100
 4511SOL     OW14431   6.994   3.544   6.627
 4511SOL    HW114432   6.900   3.514   6.640
 4511SOL    HW214433   0.029   3.533   6.713
 4512SOL     OW14434   2.861   7.001   5.814
 4512SOL    HW114435   2.847   0.030   5.726
 4512SOL    HW214436   2.900   6.910   5.799
 4513SOL     OW14437   4.959   6.390   0.523
 4513SOL    HW114438   4.937   6.469   0.580
 4513SOL    HW214439   4.941   6.306   0.575
 4514SOL     OW14440   4.998   1.033   5.138
 4514SOL    HW114441   5.028   1.056   5.045
 4514SOL    HW214442   5.002   1.115   5.195
 4515SOL     OW14443   0.426   3.483   5.787
 4515SOL    HW114444   0.483   3.410   5.823
 4515SOL    HW214445   0.434   3.564   5.846
 4516SOL     OW14446   1.749   0.788   6.300
 4516SOL    HW114447   1.668   0.823   6.255
 4516SOL    HW214448   1.734   0.693   6.327
 4517SOL     OW14449   2.256   0.771   6.856
 4517SOL    HW114450   2.242   0.822   6.771
 4517SOL    HW214451   2.181   0.791   6.919
 4518SOL     OW14452   6.727   0.962   3.470
 4518SOL    HW114453   6.791   0.968   3.393
 4518SOL    HW214454   6.662   0.888   3.453
 4519SOL     OW14455   5.740   0.114   2.232
 4519SOL    HW114456   5.813   0.109   2.300
 4519SOL    HW214457   5.652   0.126   2.278
 4520SOL     OW14458   5.619   6.314   3.614
 4520SOL    HW114459   5.718   6.304   3.616
 4520SOL    HW214460   5.577   6.227   3.590
 4521SOL     OW14461   5.256   1.767   3.944
 4521SOL    HW114462   5.296   1.716   3.868
 4521SOL    HW214463   5.237   1.861   3.916
 4522SOL     OW14464   5.746   0.035   3.632
 4522SOL    HW114465   5.812   0.031   3.557
 4522SOL    HW214466   5.708   6.960   3.649
 4523SOL     OW14467   1.479   4.448   6.929
 4523SOL    HW114468   1.430   4.512   6.988
 4523SOL    HW214469   1.574   4.440   6.960
 4524SOL     OW14470   5.556   2.390   4.410
 4524SOL    HW114471   5.497   2.311   4.391
 4524SOL    HW214472   5.601   2.377   4.498
 4525SOL     OW14473   5.458   1.216   2.887
 4525SOL    HW114474   5.518   1.208   2.967
 4525SOL    HW214475   5.482   1.298   2.836
 4526SOL     OW14476   5.510   0.572   0.771
 4526SOL    HW114477   5.484   0.476   0.770
 4526SOL    HW214478   5.443   0.625   0.822
 4527SOL     OW14479   4.555   1.428   3.626
 4527SOL    HW114480   4.614   1.414   3.546
 4527SOL    HW214481   4.482   1.492   3.602
 4528SOL     OW14482   4.350   6.852   6.685
 4528SOL    HW114483   4.359   6.936   6.738
 4528SOL    HW214484   4.441   6.816   6.663
 4529SOL     OW14485   3.124   1.660   4.497
 4529SOL    HW114486   3.220   1.644   4.477
 4529SOL    HW214487   3.075   1.683   4.413
 4530SOL     OW14488   0.259   3.629   5.412
 4530SOL    HW114489   0.284   3.700   5.477
 4530SOL    HW214490   0.189   3.664   5.349
 4531SOL     OW14491   0.596   3.487   3.725
 4531SOL    HW114492   0.515   3.520   3.771
 4531SOL    HW214493   0.570   3.422   3.653
 4532SOL     OW14494   6.106   1.497   3.547
 4532SOL    HW114495   6.033   1.433   3.570
 4532SOL    HW214496   6.081   1.548   3.465
 4533SOL     OW14497   1.522   0.456   2.593
 4533SOL    HW114498   1.488   0.404   2.672
 4533SOL    HW214499   1.617   0.429   2.574
 4534SOL     OW14500   5.643   4.053   5.000
 4534SOL    HW114501   5.623   3.982   4.933
 4534SOL    HW214502   5.624   4.143   4.960
 4535SOL     OW14503   4.936   1.852   2.856
 4535SOL    HW114504   4.956   1.924   2.790
 4535SOL    HW214505   4.876   1.783   2.814
 4536SOL     OW14506   4.238   2.133   4.015
 4536SOL    HW114507   4.254   2.042   4.054
 4536SOL    HW214508   4.256   2.203   4.084
 4537SOL     OW14509   3.756   3.069   5.980
 4537SOL    HW114510   3.701   3.024   5.909
 4537SOL    HW214511   3.830   3.120   5.937
 4538SOL     OW14512   2.837   0.836   4.003
 4538SOL    HW114513   2.827   0.868   4.098
 4538SOL    HW214514   2.784   0.896   3.943
 4539SOL     OW14515   2.337   0.811   4.005
 4539SOL    HW114516   2.349   0.750   3.926
 4539SOL    HW214517   2.258   0.870   3.990
 4540SOL     OW14518   3.144   3.016   4.511
 4540SOL    HW114519   3.235   2.974   4.520
 4540SOL    HW214520   3.143   3.104   4.559
 4541SOL     OW14521   5.434   1.446   0.420
 4541SOL    HW114522   5.416   1.365   0.363
 4541SOL    HW214523   5.385   1.525   0.381
 4542SOL     OW14524   6.612   6.870   2.131
 4542SOL    HW114525   6.608   6.968   2.111
 4542SOL    HW214526   6.590   6.818   2.049
 4543SOL     OW14527   5.112   2.083   0.948
 4543SOL    HW114528   5.048   2.157   0.968
 4543SOL    HW214529   5.077   2.028   0.872
 4544SOL     OW14530   3.387   6.418   6.055
 4544SOL    HW114531   3.358   6.510   6.081
 4544SOL    HW214532   3.398   6.362   6.137
 4545SOL     OW14533   5.706   2.397   4.652
 4545SOL    HW114534   5.800   2.365   4.642
 4545SOL    HW214535   5.695   2.440   4.742
 4546SOL     OW14536   1.482   1.312   6.302
 4546SOL    HW114537   1.442   1.383   6.360
 4546SOL    HW214538   1.571   1.285   6.339
 4547SOL     OW14539   6.657   2.700   3.244
 4547SOL    HW114540   6.671   2.705   3.342
 4547SOL    HW214541   6.632   2.607   3.218
 4548SOL     OW14542   1.137   4.307   4.833
 4548SOL    HW114543   1.125   4.356   4.747
 4548SOL    HW214544   1.233   4.315   4.862
 4549SOL     OW14545   5.846   3.620   2.174
 4549SOL    HW114546   5.889   3.705   2.205
 4549SOL    HW214547   5.909   3.570   2.115
 4550SOL     OW14548   0.870   6.106   2.971
 4550SOL    HW114549   0.893   6.064   2.883
 4550SOL    HW214550   0.939   6.175   2.993
 4551SOL     OW14551   6.280   1.689   6.341
 4551SOL    HW114552   6.310   1.780   6.313
 4551SOL    HW214553   6.180   1.684   6.337
 4552SOL     OW14554   6.588   3.111   0.656
 4552SOL    HW114555   6.511   3.143   0.602
 4552SOL    HW214556   6.555   3.073   0.743
 4553SOL     OW14557   3.855   4.251   6.713
 4553SOL    HW114558   3.825   4.262   6.807
 4553SOL    HW214559   3.850   4.155   6.686
 4554SOL     OW14560   4.473   0.590   1.632
 4554SOL    HW114561   4.396   0.649   1.659
 4554SOL    HW214562   4.524   0.635   1.559
 4555SOL     OW14563   3.547   1.681   5.682
 4555SOL    HW114564   3.455   1.653   5.710
 4555SOL    HW214565   3.588   1.737   5.754
 4556SOL     OW14566   4.490   2.109   3.845
 4556SOL    HW114567   4.390   2.115   3.849
 4556SOL    HW214568   4.529   2.201   3.844
 4557SOL     OW14569   5.107   6.779   4.988
 4557SOL    HW114570   5.057   6.797   4.903
 4557SOL    HW214571   5.102   6.861   5.047
 4558SOL     OW14572   0.081   3.504   5.617
 4558SOL    HW114573   0.118   3.533   5.705
 4558SOL    HW214574   0.119   3.560   5.543
 4559SOL     OW14575   0.625   4.628   1.985
 4559SOL    HW114576   0.563   4.563   1.942
 4559SOL    HW214577   0.698   4.579   2.033
 4560SOL     OW14578   4.690   4.810   3.553
 4560SOL    HW114579   4.620   4.834   3.485
 4560SOL    HW214580   4.728   4.894   3.592
 4561SOL     OW14581   2.960   0.591   1.139
 4561SOL    HW114582   2.990   0.572   1.232
 4561SOL    HW214583   2.971   0.508   1.083
 4562SOL     OW14584   3.054   6.368   5.433
 4562SOL    HW114585   3.073   6.402   5.341
 4562SOL    HW214586   3.082   6.437   5.500
 4563SOL     OW14587   0.464   4.274   0.545
 4563SOL    HW114588   0.449   4.309   0.638
 4563SOL    HW214589   0.408   4.326   0.480
 4564SOL     OW14590   0.508   6.895   0.998
 4564SOL    HW114591   0.524   6.866   0.904
 4564SOL    HW214592   0.409   6.900   1.015
 4565SOL     OW14593   7.009   1.326   5.952
 4565SOL    HW114594   7.005   1.382   6.035
 4565SOL    HW214595   6.959   1.241   5.966
 4566SOL     OW14596   6.763   1.555   0.722
 4566SOL    HW114597   6.738   1.484   0.656
 4566SOL    HW214598   6.862   1.572   0.715
 4567SOL     OW14599   0.364   0.821   6.929
 4567SOL    HW114600   0.292   0.867   6.877
 4567SOL    HW214601   0.340   0.725   6.941
 4568SOL     OW14602   0.867   4.870   5.359
 4568SOL    HW114603   0.788   4.919   5.396
 4568SOL    HW214604   0.927   4.841   5.434
 4569SOL     OW14605   1.853   1.151   3.296
 4569SOL    HW114606   1.881   1.231   3.243
 4569SOL    HW214607   1.917   1.076   3.281
 4570SOL     OW14608   0.439   5.251   3.229
 4570SOL    HW114609   0.373   5.319   3.260
 4570SOL    HW214610   0.415   5.161   3.266
 4571SOL     OW14611   2.819   3.239   5.841
 4571SOL    HW114612   2.752   3.245   5.766
 4571SOL    HW214613   2.899   3.295   5.819
 4572SOL     OW14614   0.801   6.858   6.482
 4572SOL    HW114615   0.800   6.786   6.413
 4572SOL    HW214616   0.788   6.817   6.573
 4573SOL     OW14617   6.460   6.270   0.607
 4573SOL    HW114618   6.449   6.222   0.695
 4573SOL    HW214619   6.475   6.367   0.624
 4574SOL     OW14620   6.435   3.983   1.083
 4574SOL    HW114621   6.451   4.056   1.149
 4574SOL    HW214622   6.491   3.903   1.106
 4575SOL     OW14623   6.185   1.929   6.525
 4575SOL    HW114624   6.205   1.834   6.499
 4575SOL    HW214625   6.204   1.941   6.622
 4576SOL     OW14626   2.196   6.270   6.675
 4576SOL    HW114627   2.254   6.350   6.655
 4576SOL    HW214628   2.245   6.187   6.648
 4577SOL     OW14629   0.722   2.259   3.847
 4577SOL    HW114630   0.750   2.166   3.825
 4577SOL    HW214631   0.643   2.256   3.909
 4578SOL     OW14632   1.090   3.479   3.678
 4578SOL    HW114633   1.171   3.537   3.684
 4578SOL    HW214634   1.107   3.393   3.727
 4579SOL     OW14635   5.536   2.404   2.687
 4579SOL    HW114636   5.599   2.474   2.723
 4579SOL    HW214637   5.476   2.446   2.619
 4580SOL     OW14638   4.900   5.620   0.005
 4580SOL    HW114639   4.900   5.700   0.065
 4580SOL    HW214640   4.825   5.628   6.955
 4581SOL     OW14641   3.227   5.560   3.153
 4581SOL    HW114642   3.261   5.609   3.073
 4581SOL    HW214643   3.163   5.489   3.125
 4582SOL     OW14644   5.696   6.302   4.957
 4582SOL    HW114645   5.628   6.237   4.923
 4582SOL    HW214646   5.703   6.294   5.057
 4583SOL     OW14647   3.227   1.104   4.973
 4583SOL    HW114648   3.138   1.138   5.002
 4583SOL    HW214649   3.217   1.057   4.885
 4584SOL     OW14650   0.264   4.968   5.524
 4584SOL    HW114651   0.258   4.871   5.550
 4584SOL    HW214652   0.307   4.975   5.434
 4585SOL     OW14653   3.036   6.715   2.910
 4585SOL    HW114654   3.067   6.671   2.994
 4585SOL    HW214655   2.958   6.775   2.931
 4586SOL     OW14656   4.124   5.248   0.174
 4586SOL    HW114657   4.037   5.231   0.221
 4586SOL    HW214658   4.173   5.321   0.223
 4587SOL     OW14659   3.983   3.907   2.076
 4587SOL    HW114660   3.981   3.913   2.176
 4587SOL    HW214661   4.078   3.903   2.044
 4588SOL     OW14662   4.242   4.294   5.538
 4588SOL    HW114663   4.174   4.324   5.471
 4588SOL    HW214664   4.210   4.316   5.630
 4589SOL     OW14665   5.646   1.150   2.039
 4589SOL    HW114666   5.739   1.183   2.054
 4589SOL    HW214667   5.648   1.068   1.981
 4590SOL     OW14668   5.047   5.766   1.399
 4590SOL    HW114669   5.066   5.858   1.366
 4590SOL    HW214670   4.951   5.745   1.386
 4591SOL     OW14671   0.197   5.978   5.114
 4591SOL    HW114672   0.206   6.077   5.100
 4591SOL    HW214673   0.268   5.948   5.178
 4592SOL     OW14674   4.045   2.180   2.227
 4592SOL    HW114675   3.955   2.135   2.223
 4592SOL    HW214676   4.060   2.215   2.320
 4593SOL     OW14677   3.744   5.853   4.188
 4593SOL    HW114678   3.731   5.819   4.095
 4593SOL    HW214679   3.835   5.895   4.196
 4594SOL     OW14680   3.254   1.098   1.822
 4594SOL    HW114681   3.337   1.141   1.859
 4594SOL    HW214682   3.209   1.160   1.758
 4595SOL     OW14683   3.680   2.544   6.368
 4595SOL    HW114684   3.631   2.493   6.298
 4595SOL    HW214685   3.619   2.611   6.410
 4596SOL     OW14686   5.826   6.449   2.625
 4596SOL    HW114687   5.854   6.528   2.571
 4596SOL    HW214688   5.905   6.412   2.673
 4597SOL     OW14689   5.196   4.739   6.723
 4597SOL    HW114690   5.247   4.822   6.700
 4597SOL    HW214691   5.156   4.748   6.814
 4598SOL     OW14692   2.340   4.810   0.170
 4598SOL    HW114693   2.331   4.828   0.072
 4598SOL    HW214694   2.435   4.791   0.191
 4599SOL     OW14695   1.833   5.036   0.570
 4599SOL    HW114696   1.878   4.946   0.575
 4599SOL    HW214697   1.843   5.082   0.658
 4600SOL     OW14698   1.531   5.048   5.398
 4600SOL    HW114699   1.507   5.143   5.380
 4600SOL    HW214700   1.451   4.999   5.433
 4601SOL     OW14701   1.750   6.964   5.308
 4601SOL    HW114702   1.844   6.932   5.321
 4601SOL    HW214703   1.699   6.956   5.393
 4602SOL     OW14704   1.043   5.914   0.728
 4602SOL    HW114705   0.970   5.933   0.662
 4602SOL    HW214706   1.022   5.958   0.815
 4603SOL     OW14707   3.482   6.551   1.510
 4603SOL    HW114708   3.547   6.498   1.564
 4603SOL    HW214709   3.530   6.622   1.460
 4604SOL     OW14710   4.504   0.636   1.927
 4604SOL    HW114711   4.580   0.689   1.966
 4604SOL    HW214712   4.523   0.620   1.830
 4605SOL     OW14713   4.220   0.922   3.051
 4605SOL    HW114714   4.138   0.963   3.092
 4605SOL    HW214715   4.204   0.825   3.034
 4606SOL     OW14716   1.384   6.895   1.210
 4606SOL    HW114717   1.285   6.896   1.201
 4606SOL    HW214718   1.409   6.877   1.305
 4607SOL     OW14719   2.364   2.654   1.171
 4607SOL    HW114720   2.339   2.749   1.159
 4607SOL    HW214721   2.295   2.608   1.228
 4608SOL     OW14722   0.419   5.456   3.794
 4608SOL    HW114723   0.402   5.554   3.810
 4608SOL    HW214724   0.483   5.446   3.719
 4609SOL     OW14725   4.116   5.053   5.894
 4609SOL    HW114726   4.210   5.017   5.894
 4609SOL    HW214727   4.110   5.130   5.957
 4610SOL     OW14728   5.049   2.303   0.651
 4610SOL    HW114729   5.079   2.368   0.720
 4610SOL    HW214730   5.105   2.312   0.569
 4611SOL     OW14731   6.553   6.219   5.813
 4611SOL    HW114732   6.463   6.212   5.772
 4611SOL    HW214733   6.623   6.200   5.744
 4612SOL     OW14734   0.852   5.725   6.825
 4612SOL    HW114735   0.951   5.738   6.822
 4612SOL    HW214736   0.832   5.627   6.822
 4613SOL     OW14737   2.842   5.914   2.527
 4613SOL    HW114738   2.931   5.926   2.570
 4613SOL    HW214739   2.802   6.004   2.507
 4614SOL     OW14740   0.968   4.275   5.025
 4614SOL    HW114741   1.010   4.269   4.934
 4614SOL    HW214742   0.886   4.331   5.019
 4615SOL     OW14743   1.918   0.624   0.079
 4615SOL    HW114744   1.894   0.590   0.170
 4615SOL    HW214745   1.930   0.547   0.016
 4616SOL     OW14746   5.791   0.192   5.615
 4616SOL    HW114747   5.753   0.260   5.677
 4616SOL    HW214748   5.889   0.182   5.633
 4617SOL     OW14749   1.260   2.364   2.265
 4617SOL    HW114750   1.181   2.342   2.208
 4617SOL    HW214751   1.315   2.434   2.219
 4618SOL     OW14752   2.117   2.519   5.188
 4618SOL    HW114753   2.064   2.543   5.270
 4618SOL    HW214754   2.170   2.598   5.158
 4619SOL     OW14755   3.489   6.221   3.101
 4619SOL    HW114756   3.561   6.242   3.035
 4619SOL    HW214757   3.525   6.234   3.194
 4620SOL     OW14758   3.550   4.039   0.107
 4620SOL    HW114759   3.540   3.944   0.136
 4620SOL    HW214760   3.478   4.094   0.149
 4621SOL     OW14761   4.772   1.608   3.392
 4621SOL    HW114762   4.844   1.565   3.338
 4621SOL    HW214763   4.686   1.558   3.378
 4622SOL     OW14764   2.069   3.972   0.423
 4622SOL    HW114765   2.072   3.873   0.434
 4622SOL    HW214766   1.981   3.998   0.383
 4623SOL     OW14767   6.740   6.404   0.833
 4623SOL    HW114768   6.770   6.398   0.738
 4623SOL    HW214769   6.724   6.312   0.869
 4624SOL     OW14770   5.549   0.036   3.078
 4624SOL    HW114771   5.567   7.010   3.167
 4624SOL    HW214772   5.529   6.980   3.011
 4625SOL     OW14773   1.810   4.511   0.250
 4625SOL    HW114774   1.904   4.546   0.254
 4625SOL    HW214775   1.773   4.527   0.158
 4626SOL     OW14776   5.686   5.470   2.541
 4626SOL    HW114777   5.676   5.541   2.611
 4626SOL    HW214778   5.599   5.457   2.494
 4627SOL     OW14779   3.580   5.297   3.849
 4627SOL    HW114780   3.612   5.233   3.780
 4627SOL    HW214781   3.486   5.275   3.874
 4628SOL     OW14782   5.611   3.718   3.592
 4628SOL    HW114783   5.515   3.724   3.621
 4628SOL    HW214784   5.620   3.645   3.524
 4629SOL     OW14785   2.308   4.985   4.678
 4629SOL    HW114786   2.347   5.048   4.611
 4629SOL    HW214787   2.237   5.031   4.731
 4630SOL     OW14788   3.837   5.770   2.143
 4630SOL    HW114789   3.824   5.712   2.223
 4630SOL    HW214790   3.907   5.730   2.084
 4631SOL     OW14791   2.544   6.498   3.771
 4631SOL    HW114792   2.531   6.407   3.810
 4631SOL    HW214793   2.462   6.553   3.787
 4632SOL     OW14794   4.188   4.908   2.558
 4632SOL    HW114795   4.252   4.835   2.582
 4632SOL    HW214796   4.218   4.994   2.599
 4633SOL     OW14797   5.794   1.751   3.639
 4633SOL    HW114798   5.849   1.742   3.723
 4633SOL    HW214799   5.853   1.780   3.564
 4634SOL     OW14800   2.172   4.829   6.459
 4634SOL    HW114801   2.204   4.882   6.380
 4634SOL    HW214802   2.248   4.814   6.522
 4635SOL     OW14803   5.524   3.353   2.039
 4635SOL    HW114804   5.444   3.388   1.989
 4635SOL    HW214805   5.580   3.430   2.069
 4636SOL     OW14806   2.489   5.042   6.743
 4636SOL    HW114807   2.504   5.073   6.649
 4636SOL    HW214808   2.393   5.055   6.767
 4637SOL     OW14809   1.086   0.252   0.080
 4637SOL    HW114810   1.170   0.301   0.058
 4637SOL    HW214811   1.100   0.154   0.069
 4638SOL     OW14812   4.435   2.576   6.709
 4638SOL    HW114813   4.400   2.631   6.785
 4638SOL    HW214814   4.371   2.501   6.691
 4639SOL     OW14815   2.343   4.413   5.092
 4639SOL    HW114816   2.335   4.373   5.000
 4639SOL    HW214817   2.282   4.492   5.100
 4640SOL     OW14818   5.107   4.723   4.175
 4640SOL    HW114819   5.178   4.756   4.238
 4640SOL    HW214820   5.095   4.790   4.102
 4641SOL     OW14821   2.708   6.152   4.594
 4641SOL    HW114822   2.665   6.217   4.530
 4641SOL    HW214823   2.797   6.125   4.559
 4642SOL     OW14824   0.921   6.035   4.584
 4642SOL    HW114825   0.929   5.936   4.579
 4642SOL    HW214826   0.837   6.064   4.539
 4643SOL     OW14827   5.490   2.933   1.084
 4643SOL    HW114828   5.456   2.932   0.990
 4643SOL    HW214829   5.420   2.972   1.144
 4644SOL     OW14830   0.702   4.842   5.119
 4644SOL    HW114831   0.691   4.903   5.041
 4644SOL    HW214832   0.763   4.883   5.186
 4645SOL     OW14833   0.879   1.035   4.510
 4645SOL    HW114834   0.785   1.061   4.486
 4645SOL    HW214835   0.916   0.974   4.440
 4646SOL     OW14836   2.992   6.135   3.458
 4646SOL    HW114837   2.955   6.217   3.414
 4646SOL    HW214838   2.954   6.054   3.415
 4647SOL     OW14839   1.384   0.215   3.811
 4647SOL    HW114840   1.373   0.129   3.862
 4647SOL    HW214841   1.482   0.235   3.802
 4648SOL     OW14842   4.185   0.632   1.822
 4648SOL    HW114843   4.103   0.650   1.876
 4648SOL    HW214844   4.218   0.540   1.840
 4649SOL     OW14845   5.335   6.833   5.862
 4649SOL    HW114846   5.391   6.893   5.804
 4649SOL    HW214847   5.353   6.854   5.958
 4650SOL     OW14848   4.728   5.587   4.040
 4650SOL    HW114849   4.707   5.634   4.125
 4650SOL    HW214850   4.661   5.611   3.970
 4651SOL     OW14851   6.942   1.406   0.956
 4651SOL    HW114852   6.846   1.378   0.967
 4651SOL    HW214853   6.963   1.415   0.859
 4652SOL     OW14854   0.524   0.332   4.190
 4652SOL    HW114855   0.602   0.377   4.234
 4652SOL    HW214856   0.449   0.323   4.255
 4653SOL     OW14857   6.064   5.221   6.981
 4653SOL    HW114858   6.132   5.241   0.036
 4653SOL    HW214859   5.974   5.216   0.007
 4654SOL     OW14860   0.454   6.670   0.341
 4654SOL    HW114861   0.455   6.613   0.259
 4654SOL    HW214862   0.418   6.761   0.318
 4655SOL     OW14863   6.620   5.820   1.627
 4655SOL    HW114864   6.702   5.821   1.569
 4655SOL    HW214865   6.564   5.900   1.607
 4656SOL     OW14866   0.947   0.549   3.436
 4656SOL    HW114867   0.883   0.514   3.368
 4656SOL    HW214868   0.907   0.541   3.527
 4657SOL     OW14869   4.817   6.094   1.146
 4657SOL    HW114870   4.751   6.041   1.199
 4657SOL    HW214871   4.849   6.172   1.200
 4658SOL     OW14872   4.824   1.642   2.737
 4658SOL    HW114873   4.879   1.584   2.797
 4658SOL    HW214874   4.810   1.596   2.649
 4659SOL     OW14875   2.673   4.069   5.293
 4659SOL    HW114876   2.649   4.122   5.373
 4659SOL    HW214877   2.590   4.032   5.251
 4660SOL     OW14878   1.419   3.096   5.563
 4660SOL    HW114879   1.518   3.113   5.564
 4660SOL    HW214880   1.371   3.182   5.543
 4661SOL     OW14881   3.950   3.862   5.590
 4661SOL    HW114882   3.891   3.801   5.537
 4661SOL    HW214883   4.007   3.916   5.529
 4662SOL     OW14884   4.228   0.511   4.934
 4662SOL    HW114885   4.300   0.446   4.914
 4662SOL    HW214886   4.170   0.476   5.007
 4663SOL     OW14887   0.777   2.015   2.678
 4663SOL    HW114888   0.802   1.943   2.614
 4663SOL    HW214889   0.677   2.019   2.685
 4664SOL     OW14890   1.984   1.923   0.905
 4664SOL    HW114891   2.050   1.998   0.907
 4664SOL    HW214892   1.942   1.918   0.814
 4665SOL     OW14893   4.153   0.113   0.759
 4665SOL    HW114894   4.129   0.128   0.663
 4665SOL    HW214895   4.155   0.015   0.778
 4666SOL     OW14896   1.350   2.337   0.873
 4666SOL    HW114897   1.292   2.347   0.792
 4666SOL    HW214898   1.363   2.425   0.916
 4667SOL     OW14899   6.166   4.271   1.365
 4667SOL    HW114900   6.157   4.224   1.277
 4667SOL    HW214901   6.086   4.253   1.421
 4668SOL     OW14902   5.713   2.643   3.086
 4668SOL    HW114903   5.632   2.701   3.089
 4668SOL    HW214904   5.692   2.554   3.128
 4669SOL     OW14905   3.570   6.755   7.006
 4669SOL    HW114906   3.480   6.778   0.027
 4669SOL    HW214907   3.561   6.725   6.911
 4670SOL     OW14908   3.006   2.310   5.354
 4670SOL    HW114909   3.084   2.338   5.298
 4670SOL    HW214910   3.026   2.223   5.398
 4671SOL     OW14911   6.595   2.294   2.804
 4671SOL    HW114912   6.649   2.374   2.832
 4671SOL    HW214913   6.619   2.270   2.710
 4672SOL     OW14914   2.606   4.637   5.962
 4672SOL    HW114915   2.514   4.610   5.937
 4672SOL    HW214916   2.650   4.564   6.015
 4673SOL     OW14917   4.865   6.479   0.974
 4673SOL    HW114918   4.782   6.429   0.999
 4673SOL    HW214919   4.849   6.577   0.986
 4674SOL     OW14920   4.966   0.158   7.006
 4674SOL    HW114921   4.971   0.124   6.912
 4674SOL    HW214922   4.964   0.080   0.053
 4675SOL     OW14923   0.453   2.795   6.428
 4675SOL    HW114924   0.379   2.839   6.478
 4675SOL    HW214925   0.458   2.832   6.335
 4676SOL     OW14926   6.889   6.096   3.373
 4676SOL    HW114927   6.897   5.998   3.388
 4676SOL    HW214928   6.872   6.114   3.276
 4677SOL     OW14929   2.828   1.528   0.564
 4677SOL    HW114930   2.877   1.601   0.516
 4677SOL    HW214931   2.833   1.444   0.510
 4678SOL     OW14932   1.952   4.329   3.114
 4678SOL    HW114933   1.963   4.230   3.123
 4678SOL    HW214934   1.900   4.349   3.032
 4679SOL     OW14935   4.503   0.150   1.649
 4679SOL    HW114936   4.495   0.211   1.570
 4679SOL    HW214937   4.418   0.097   1.658
 4680SOL     OW14938   3.641   1.087   6.465
 4680SOL    HW114939   3.543   1.107   6.470
 4680SOL    HW214940   3.683   1.140   6.391
 4681SOL     OW14941   5.304   4.474   0.209
 4681SOL    HW114942   5.342   4.382   0.201
 4681SOL    HW214943   5.314   4.522   0.121
 4682SOL     OW14944   4.786   4.763   5.459
 4682SOL    HW114945   4.855   4.820   5.414
 4682SOL    HW214946   4.805   4.760   5.558
 4683SOL     OW14947   5.027   5.570   2.769
 4683SOL    HW114948   4.953   5.530   2.716
 4683SOL    HW214949   5.115   5.541   2.731
 4684SOL     OW14950   5.057   6.656   5.705
 4684SOL    HW114951   5.074   6.659   5.607
 4684SOL    HW214952   5.143   6.643   5.754
 4685SOL     OW14953   1.909   4.757   6.396
 4685SOL    HW114954   1.891   4.820   6.321
 4685SOL    HW214955   1.996   4.780   6.439
 4686SOL     OW14956   3.955   5.291   6.661
 4686SOL    HW114957   3.903   5.349   6.723
 4686SOL    HW214958   3.999   5.348   6.592
 4687SOL     OW14959   4.840   3.114   3.954
 4687SOL    HW114960   4.834   3.206   3.915
 4687SOL    HW214961   4.931   3.076   3.936
 4688SOL     OW14962   5.522   3.381   4.976
 4688SOL    HW114963   5.447   3.315   4.978
 4688SOL    HW214964   5.492   3.466   5.020
 4689SOL     OW14965   4.879   0.574   0.200
 4689SOL    HW114966   4.859   0.518   0.280
 4689SOL    HW214967   4.905   0.666   0.229
 4690SOL     OW14968   1.340   0.218   0.489
 4690SOL    HW114969   1.368   0.295   0.431
 4690SOL    HW214970   1.387   0.225   0.577
 4691SOL     OW14971   2.890   3.439   0.866
 4691SOL    HW114972   2.963   3.471   0.926
 4691SOL    HW214973   2.854   3.353   0.901
 4692SOL     OW14974   5.380   5.413   2.824
 4692SOL    HW114975   5.335   5.390   2.911
 4692SOL    HW214976   5.454   5.478   2.842
 4693SOL     OW14977   1.249   1.448   2.740
 4693SOL    HW114978   1.287   1.405   2.658
 4693SOL    HW214979   1.193   1.526   2.712
 4694SOL     OW14980   2.509   1.298   0.090
 4694SOL    HW114981   2.427   1.261   0.048
 4694SOL    HW214982   2.500   1.294   0.190
 4695SOL     OW14983   1.326   4.821   1.044
 4695SOL    HW114984   1.278   4.734   1.053
 4695SOL    HW214985   1.389   4.832   1.122
 4696SOL     OW14986   6.991   4.743   6.895
 4696SOL    HW114987   0.041   4.678   6.933
 4696SOL    HW214988   0.018   4.834   6.890
 4697SOL     OW14989   1.238   4.000   1.407
 4697SOL    HW114990   1.201   4.073   1.349
 4697SOL    HW214991   1.171   3.926   1.414
 4698SOL     OW14992   4.657   5.986   2.913
 4698SOL    HW114993   4.717   6.065   2.927
 4698SOL    HW214994   4.612   5.963   2.999
 4699SOL     OW14995   0.881   6.185   2.069
 4699SOL    HW114996   0.867   6.232   1.982
 4699SOL    HW214997   0.919   6.094   2.053
 4700SOL     OW14998   6.911   1.862   2.821
 4700SOL    HW114999   6.833   1.924   2.820
 4700SOL    HW215000   6.986   1.904   2.874
 4701SOL     OW15001   3.141   2.207   0.246
 4701SOL    HW115002   3.143   2.276   0.318
 4701SOL    HW215003   3.064   2.223   0.185
 4702SOL     OW15004   5.012   4.917   0.520
 4702SOL    HW115005   4.972   4.998   0.564
 4702SOL    HW215006   5.056   4.860   0.589
 4703SOL     OW15007   0.464   0.165   2.591
 4703SOL    HW115008   0.386   0.217   2.626
 4703SOL    HW215009   0.432   0.075   2.559
 4704SOL     OW15010   6.346   6.080   6.469
 4704SOL    HW115011   6.271   6.081   6.403
 4704SOL    HW215012   6.311   6.100   6.560
 4705SOL     OW15013   4.275   2.359   1.273
 4705SOL    HW115014   4.217   2.385   1.351
 4705SOL    HW215015   4.237   2.276   1.230
 4706SOL     OW15016   2.862   0.417   0.297
 4706SOL    HW115017   2.925   0.428   0.220
 4706SOL    HW215018   2.769   0.440   0.267
 4707SOL     OW15019   1.316   6.842   0.931
 4707SOL    HW115020   1.342   6.847   1.028
 4707SOL    HW215021   1.387   6.885   0.875
 4708SOL     OW15022   1.031   2.078   5.826
 4708SOL    HW115023   1.101   2.037   5.767
 4708SOL    HW215024   0.946   2.026   5.816
 4709SOL     OW15025   4.738   5.567   5.211
 4709SOL    HW115026   4.807   5.635   5.186
 4709SOL    HW215027   4.769   5.476   5.182
 4710SOL     OW15028   4.932   6.908   5.778
 4710SOL    HW115029   4.980   6.820   5.774
 4710SOL    HW215030   4.995   6.981   5.755
 4711SOL     OW15031   6.191   1.844   1.620
 4711SOL    HW115032   6.199   1.921   1.556
 4711SOL    HW215033   6.096   1.832   1.647
 4712SOL     OW15034   3.014   4.723   6.095
 4712SOL    HW115035   3.044   4.759   6.007
 4712SOL    HW215036   3.091   4.724   6.159
 4713SOL     OW15037   3.765   4.319   0.699
 4713SOL    HW115038   3.858   4.352   0.687
 4713SOL    HW215039   3.729   4.289   0.611
 4714SOL     OW15040   1.188   1.232   6.140
 4714SOL    HW115041   1.169   1.328   6.162
 4714SOL    HW215042   1.225   1.186   6.220
 4715SOL     OW15043   6.017   3.174   2.060
 4715SOL    HW115044   6.043   3.153   1.966
 4715SOL    HW215045   5.941   3.114   2.087
 4716SOL     OW15046   3.857   6.859   5.865
 4716SOL    HW115047   3.919   6.936   5.877
 4716SOL    HW215048   3.905   6.783   5.820
 4717SOL     OW15049   0.668   5.818   3.950
 4717SOL    HW115050   0.718   5.861   4.024
 4717SOL    HW215051   0.576   5.794   3.981
 4718SOL     OW15052   5.829   1.813   0.989
 4718SOL    HW115053   5.858   1.837   0.896
 4718SOL    HW215054   5.801   1.896   1.038
 4719SOL     OW15055   4.882   3.255   1.883
 4719SOL    HW115056   4.847   3.171   1.925
 4719SOL    HW215057   4.831   3.275   1.800
 4720SOL     OW15058   2.126   5.578   5.712
 4720SOL    HW115059   2.059   5.548   5.645
 4720SOL    HW215060   2.083   5.585   5.802
 4721SOL     OW15061   6.961   1.646   2.658
 4721SOL    HW115062   6.875   1.632   2.608
 4721SOL    HW215063   6.956   1.731   2.710
 4722SOL     OW15064   1.191   5.999   6.922
 4722SOL    HW115065   1.188   6.075   6.856
 4722SOL    HW215066   1.190   6.036   7.015
 4723SOL     OW15067   2.095   3.328   5.523
 4723SOL    HW115068   2.132   3.348   5.614
 4723SOL    HW215069   2.162   3.355   5.453
 4724SOL     OW15070   6.570   0.139   4.588
 4724SOL    HW115071   6.548   0.116   4.493
 4724SOL    HW215072   6.550   0.061   4.647
 4725SOL     OW15073   6.533   5.305   0.611
 4725SOL    HW115074   6.623   5.349   0.601
 4725SOL    HW215075   6.462   5.368   0.579
 4726SOL     OW15076   1.541   3.252   6.205
 4726SOL    HW115077   1.602   3.320   6.245
 4726SOL    HW215078   1.535   3.267   6.106
 4727SOL     OW15079   0.990   6.282   1.144
 4727SOL    HW115080   0.995   6.280   1.244
 4727SOL    HW215081   1.054   6.350   1.108
 4728SOL     OW15082   5.925   1.181   2.006
 4728SOL    HW115083   5.975   1.256   2.048
 4728SOL    HW215084   5.969   1.154   1.921
 4729SOL     OW15085   4.790   0.896   0.502
 4729SOL    HW115086   4.813   0.967   0.436
 4729SOL    HW215087   4.694   0.869   0.489
 4730SOL     OW15088   3.048   6.083   4.738
 4730SOL    HW115089   3.021   6.075   4.642
 4730SOL    HW215090   3.148   6.088   4.744
 4731SOL     OW15091   3.365   0.589   0.430
 4731SOL    HW115092   3.366   0.556   0.524
 4731SOL    HW215093   3.273   0.621   0.407
 4732SOL     OW15094   0.756   3.986   5.489
 4732SOL    HW115095   0.842   4.037   5.497
 4732SOL    HW215096   0.725   3.990   5.394
 4733SOL     OW15097   1.538   3.887   4.087
 4733SOL    HW115098   1.576   3.969   4.043
 4733SOL    HW215099   1.477   3.840   4.024
 4734SOL     OW15100   4.123   3.209   0.234
 4734SOL    HW115101   4.202   3.157   0.203
 4734SOL    HW215102   4.145   3.307   0.236
 4735SOL     OW15103   0.124   5.274   4.515
 4735SOL    HW115104   0.192   5.268   4.443
 4735SOL    HW215105   0.168   5.265   4.604
 4736SOL     OW15106   6.069   1.645   6.003
 4736SOL    HW115107   6.084   1.739   5.971
 4736SOL    HW215108   5.987   1.642   6.061
 4737SOL     OW15109   3.168   4.201   1.491
 4737SOL    HW115110   3.167   4.156   1.581
 4737SOL    HW215111   3.079   4.189   1.447
 4738SOL     OW15112   1.866   6.603   3.107
 4738SOL    HW115113   1.935   6.586   3.178
 4738SOL    HW215114   1.883   6.692   3.066
 4739SOL     OW15115   4.871   1.546   3.083
 4739SOL    HW115116   4.912   1.627   3.125
 4739SOL    HW215117   4.937   1.470   3.087
 4740SOL     OW15118   0.263   1.662   0.671
 4740SOL    HW115119   0.293   1.702   0.584
 4740SOL    HW215120   0.217   1.731   0.726
 4741SOL     OW15121   4.805   3.220   1.162
 4741SOL    HW115122   4.724   3.265   1.198
 4741SOL    HW215123   4.883   3.237   1.222
 4742SOL     OW15124   2.859   0.115   0.079
 4742SOL    HW115125   2.882   0.197   0.027
 4742SOL    HW215126   2.916   0.110   0.161
 4743SOL     OW15127   1.668   3.247   5.190
 4743SOL    HW115128   1.597   3.257   5.259
 4743SOL    HW215129   1.746   3.305   5.213
 4744SOL     OW15130   2.913   3.623   6.225
 4744SOL    HW115131   2.982   3.650   6.157
 4744SOL    HW215132   2.840   3.572   6.180
 4745SOL     OW15133   2.812   5.978   5.817
 4745SOL    HW115134   2.743   5.914   5.850
 4745SOL    HW215135   2.864   6.013   5.894
 4746SOL     OW15136   5.544   6.596   2.380
 4746SOL    HW115137   5.505   6.684   2.404
 4746SOL    HW215138   5.543   6.536   2.460
 4747SOL     OW15139   1.790   3.635   6.680
 4747SOL    HW115140   1.833   3.632   6.770
 4747SOL    HW215141   1.859   3.649   6.610
 4748SOL     OW15142   0.785   4.957   0.557
 4748SOL    HW115143   0.747   4.865   0.553
 4748SOL    HW215144   0.773   4.995   0.649
 4749SOL     OW15145   2.734   6.452   5.437
 4749SOL    HW115146   2.669   6.398   5.490
 4749SOL    HW215147   2.757   6.405   5.352
 4750SOL     OW15148   0.024   3.547   3.491
 4750SOL    HW115149   0.028   3.447   3.494
 4750SOL    HW215150   6.997   3.581   3.574
 4751SOL     OW15151   2.652   2.638   1.199
 4751SOL    HW115152   2.552   2.641   1.200
 4751SOL    HW215153   2.687   2.732   1.207
 4752SOL     OW15154   2.788   0.291   6.734
 4752SOL    HW115155   2.754   0.197   6.724
 4752SOL    HW215156   2.837   0.317   6.651
 4753SOL     OW15157   5.351   0.663   4.215
 4753SOL    HW115158   5.404   0.744   4.241
 4753SOL    HW215159   5.405   0.606   4.153
 4754SOL     OW15160   6.348   0.251   4.815
 4754SOL    HW115161   6.296   0.325   4.858
 4754SOL    HW215162   6.285   0.183   4.777
 4755SOL     OW15163   2.396   0.526   0.761
 4755SOL    HW115164   2.341   0.595   0.715
 4755SOL    HW215165   2.402   0.444   0.704
 4756SOL     OW15166   5.850   3.743   1.118
 4756SOL    HW115167   5.909   3.681   1.066
 4756SOL    HW215168   5.784   3.785   1.056
 4757SOL     OW15169   1.947   2.211   0.871
 4757SOL    HW115170   1.936   2.301   0.913
 4757SOL    HW215171   1.901   2.142   0.927
 4758SOL     OW15172   1.914   6.123   4.093
 4758SOL    HW115173   1.881   6.088   4.181
 4758SOL    HW215174   1.975   6.056   4.052
 4759SOL     OW15175   5.626   5.072   4.434
 4759SOL    HW115176   5.662   4.979   4.424
 4759SOL    HW215177   5.575   5.078   4.520
 4760SOL     OW15178   3.261   1.759   0.308
 4760SOL    HW115179   3.185   1.811   0.269
 4760SOL    HW215180   3.285   1.683   0.247
 4761SOL     OW15181   0.378   6.122   6.776
 4761SOL    HW115182   0.430   6.122   6.691
 4761SOL    HW215183   0.353   6.029   6.800
 4762SOL     OW15184   1.863   5.657   2.799
 4762SOL    HW115185   1.837   5.626   2.890
 4762SOL    HW215186   1.940   5.603   2.766
 4763SOL     OW15187   6.556   6.382   3.459
 4763SOL    HW115188   6.465   6.351   3.485
 4763SOL    HW215189   6.553   6.425   3.369
 4764SOL     OW15190   5.074   3.803   5.173
 4764SOL    HW115191   4.984   3.843   5.190
 4764SOL    HW215192   5.066   3.703   5.173
 4765SOL     OW15193   4.970   1.094   4.352
 4765SOL    HW115194   5.032   1.125   4.425
 4765SOL    HW215195   5.002   1.006   4.318
 4766SOL     OW15196   4.766   6.035   4.247
 4766SOL    HW115197   4.789   6.056   4.152
 4766SOL    HW215198   4.667   6.042   4.260
 4767SOL     OW15199   3.984   5.161   5.643
 4767SOL    HW115200   3.981   5.115   5.732
 4767SOL    HW215201   4.052   5.233   5.645
 4768SOL     OW15202   4.645   1.966   5.608
 4768SOL    HW115203   4.573   1.923   5.554
 4768SOL    HW215204   4.638   1.936   5.703
 4769SOL     OW15205   5.030   4.544   0.271
 4769SOL    HW115206   5.118   4.539   0.223
 4769SOL    HW215207   5.010   4.640   0.292
 4770SOL     OW15208   1.373   0.937   4.591
 4770SOL    HW115209   1.424   0.953   4.676
 4770SOL    HW215210   1.360   0.839   4.578
 4771SOL     OW15211   2.961   5.296   5.882
 4771SOL    HW115212   2.862   5.292   5.871
 4771SOL    HW215213   3.003   5.338   5.801
 4772SOL     OW15214   3.398   4.612   1.148
 4772SOL    HW115215   3.477   4.570   1.104
 4772SOL    HW215216   3.326   4.544   1.161
 4773SOL     OW15217   6.795   5.486   4.882
 4773SOL    HW115218   6.870   5.437   4.837
 4773SOL    HW215219   6.734   5.524   4.812
 4774SOL     OW15220   1.190   2.495   1.872
 4774SOL    HW115221   1.281   2.488   1.914
 4774SOL    HW215222   1.155   2.403   1.855
 4775SOL     OW15223   5.023   6.845   2.614
 4775SOL    HW115224   5.073   6.832   2.528
 4775SOL    HW215225   4.926   6.827   2.598
 4776SOL     OW15226   1.448   6.169   5.512
 4776SOL    HW115227   1.348   6.171   5.501
 4776SOL    HW215228   1.471   6.136   5.603
 4777SOL     OW15229   2.881   4.725   1.155
 4777SOL    HW115230   2.810   4.755   1.091
 4777SOL    HW215231   2.971   4.737   1.114
 4778SOL     OW15232   6.493   2.658   2.792
 4778SOL    HW115233   6.545   2.625   2.871
 4778SOL    HW215234   6.496   2.758   2.789
 4779SOL     OW15235   6.301   6.085   2.297
 4779SOL    HW115236   6.301   5.993   2.334
 4779SOL    HW215237   6.292   6.081   2.197
 4780SOL     OW15238   6.568   0.608   0.252
 4780SOL    HW115239   6.600   0.580   0.343
 4780SOL    HW215240   6.474   0.578   0.240
 4781SOL     OW15241   2.184   6.226   1.825
 4781SOL    HW115242   2.145   6.185   1.742
 4781SOL    HW215243   2.162   6.170   1.904
 4782SOL     OW15244   3.895   6.334   6.841
 4782SOL    HW115245   3.800   6.344   6.871
 4782SOL    HW215246   3.907   6.245   6.799
 4783SOL     OW15247   5.075   4.787   6.960
 4783SOL    HW115248   4.995   4.727   6.969
 4783SOL    HW215249   5.050   4.868   6.906
 4784SOL     OW15250   5.963   3.853   0.014
 4784SOL    HW115251   6.019   3.925   0.055
 4784SOL    HW215252   5.888   3.830   0.076
 4785SOL     OW15253   6.404   5.417   1.846
 4785SOL    HW115254   6.501   5.403   1.865
 4785SOL    HW215255   6.393   5.472   1.764
 4786SOL     OW15256   2.314   1.921   0.817
 4786SOL    HW115257   2.253   1.897   0.742
 4786SOL    HW215258   2.262   1.929   0.902
 4787SOL     OW15259   4.354   1.582   2.539
 4787SOL    HW115260   4.290   1.632   2.596
 4787SOL    HW215261   4.422   1.645   2.501
 4788SOL     OW15262   1.020   5.179   5.779
 4788SOL    HW115263   1.112   5.216   5.787
 4788SOL    HW215264   0.991   5.141   5.866
 4789SOL     OW15265   5.302   0.724   0.866
 4789SOL    HW115266   5.258   0.793   0.810
 4789SOL    HW215267   5.346   0.767   0.945
 4790SOL     OW15268   6.941   3.029   5.156
 4790SOL    HW115269   0.004   3.083   5.184
 4790SOL    HW215270   6.968   2.961   5.089
 4791SOL     OW15271   6.054   2.260   1.243
 4791SOL    HW115272   6.152   2.273   1.256
 4791SOL    HW215273   6.040   2.186   1.176
 4792SOL     OW15274   2.128   3.363   3.166
 4792SOL    HW115275   2.201   3.430   3.184
 4792SOL    HW215276   2.125   3.342   3.069
 4793SOL     OW15277   1.839   2.805   6.159
 4793SOL    HW115278   1.771   2.742   6.120
 4793SOL    HW215279   1.873   2.865   6.087
 4794SOL     OW15280   4.470   0.454   3.288
 4794SOL    HW115281   4.543   0.433   3.222
 4794SOL    HW215282   4.489   0.406   3.374
 4795SOL     OW15283   6.491   2.012   4.400
 4795SOL    HW115284   6.506   1.951   4.323
 4795SOL    HW215285   6.487   2.107   4.367
 4796SOL     OW15286   5.062   1.897   5.657
 4796SOL    HW115287   5.138   1.845   5.696
 4796SOL    HW215288   5.096   1.957   5.585
 4797SOL     OW15289   1.674   6.523   6.177
 4797SOL    HW115290   1.628   6.612   6.173
 4797SOL    HW215291   1.749   6.527   6.243
 4798SOL     OW15292   0.061   3.266   4.873
 4798SOL    HW115293   7.012   3.212   4.927
 4798SOL    HW215294   0.014   3.303   4.792
 4799SOL     OW15295   5.153   2.476   6.767
 4799SOL    HW115296   5.077   2.416   6.794
 4799SOL    HW215297   5.148   2.495   6.669
 4800SOL     OW15298   3.090   3.387   6.067
 4800SOL    HW115299   3.081   3.367   5.970
 4800SOL    HW215300   3.078   3.486   6.082
 4801SOL     OW15301   2.959   1.795   0.696
 4801SOL    HW115302   2.931   1.792   0.600
 4801SOL    HW215303   3.000   1.885   0.716
 4802SOL     OW15304   1.341   6.518   1.833
 4802SOL    HW115305   1.392   6.494   1.916
 4802SOL    HW215306   1.387   6.594   1.787
 4803SOL     OW15307   1.290   5.459   0.842
 4803SOL    HW115308   1.228   5.536   0.859
 4803SOL    HW215309   1.321   5.463   0.747
 4804SOL     OW15310   5.348   5.662   6.686
 4804SOL    HW115311   5.423   5.684   6.623
 4804SOL    HW215312   5.261   5.694   6.648
 4805SOL     OW15313   5.793   0.452   1.708
 4805SOL    HW115314   5.714   0.487   1.657
 4805SOL    HW215315   5.785   0.479   1.804
 4806SOL     OW15316   0.753   4.725   3.488
 4806SOL    HW115317   0.685   4.656   3.513
 4806SOL    HW215318   0.749   4.742   3.390
 4807SOL     OW15319   0.860   4.589   0.215
 4807SOL    HW115320   0.817   4.506   0.178
 4807SOL    HW215321   0.855   4.587   0.314
 4808SOL     OW15322   6.057   3.520   6.508
 4808SOL    HW115323   6.142   3.572   6.502
 4808SOL    HW215324   5.985   3.579   6.545
 4809SOL     OW15325   3.704   4.224   6.970
 4809SOL    HW115326   3.626   4.226   6.908
 4809SOL    HW215327   3.682   4.166   0.033
 4810SOL     OW15328   1.054   5.054   2.137
 4810SOL    HW115329   1.045   5.051   2.037
 4810SOL    HW215330   1.150   5.049   2.162
 4811SOL     OW15331   2.139   4.494   1.490
 4811SOL    HW115332   2.232   4.482   1.525
 4811SOL    HW215333   2.090   4.407   1.497
 4812SOL     OW15334   6.489   5.360   4.261
 4812SOL    HW115335   6.397   5.328   4.281
 4812SOL    HW215336   6.528   5.306   4.187
 4813SOL     OW15337   4.904   1.750   0.943
 4813SOL    HW115338   4.984   1.694   0.963
 4813SOL    HW215339   4.892   1.756   0.843
 4814SOL     OW15340   6.153   3.715   0.307
 4814SOL    HW115341   6.131   3.804   0.347
 4814SOL    HW215342   6.253   3.704   0.306
 4815SOL     OW15343   5.537   4.889   2.876
 4815SOL    HW115344   5.570   4.910   2.784
 4815SOL    HW215345   5.601   4.827   2.921
 4816SOL     OW15346   1.291   5.584   1.178
 4816SOL    HW115347   1.244   5.496   1.177
 4816SOL    HW215348   1.374   5.579   1.122
 4817SOL     OW15349   0.414   2.169   6.933
 4817SOL    HW115350   0.492   2.112   6.959
 4817SOL    HW215351   0.424   2.197   6.838
 4818SOL     OW15352   1.283   0.375   4.886
 4818SOL    HW115353   1.217   0.300   4.889
 4818SOL    HW215354   1.275   0.429   4.970
 4819SOL     OW15355   1.295   2.033   0.417
 4819SOL    HW115356   1.265   1.941   0.390
 4819SOL    HW215357   1.394   2.033   0.431
 4820SOL     OW15358   6.121   2.903   1.392
 4820SOL    HW115359   6.064   2.917   1.473
 4820SOL    HW215360   6.217   2.898   1.420
 4821SOL     OW15361   0.651   5.830   2.838
 4821SOL    HW115362   0.660   5.909   2.898
 4821SOL    HW215363   0.616   5.752   2.890
 4822SOL     OW15364   2.242   2.027   4.657
 4822SOL    HW115365   2.149   2.012   4.690
 4822SOL    HW215366   2.299   2.061   4.731
 4823SOL     OW15367   2.060   1.124   4.180
 4823SOL    HW115368   2.039   1.061   4.254
 4823SOL    HW215369   1.979   1.135   4.122
 4824SOL     OW15370   5.071   2.714   5.189
 4824SOL    HW115371   5.002   2.659   5.237
 4824SOL    HW215372   5.048   2.716   5.091
 4825SOL     OW15373   1.847   2.831   4.641
 4825SOL    HW115374   1.812   2.740   4.661
 4825SOL    HW215375   1.810   2.896   4.706
 4826SOL     OW15376   5.497   1.018   0.361
 4826SOL    HW115377   5.474   1.056   0.451
 4826SOL    HW215378   5.429   0.949   0.337
 4827SOL     OW15379   6.279   1.535   0.834
 4827SOL    HW115380   6.183   1.550   0.860
 4827SOL    HW215381   6.320   1.468   0.895
 4828SOL     OW15382   4.752   2.116   0.935
 4828SOL    HW115383   4.753   2.060   0.852
 4828SOL    HW215384   4.676   2.086   0.994
 4829SOL     OW15385   3.771   0.392   5.138
 4829SOL    HW115386   3.756   0.479   5.091
 4829SOL    HW215387   3.686   0.362   5.181
 4830SOL     OW15388   3.664   5.848   4.766
 4830SOL    HW115389   3.655   5.850   4.866
 4830SOL    HW215390   3.639   5.758   4.732
 4831SOL     OW15391   1.012   4.487   6.139
 4831SOL    HW115392   1.005   4.387   6.142
 4831SOL    HW215393   1.090   4.513   6.082
 4832SOL     OW15394   3.691   4.145   3.496
 4832SOL    HW115395   3.777   4.115   3.538
 4832SOL    HW215396   3.702   4.149   3.397
 4833SOL     OW15397   5.983   1.159   2.931
 4833SOL    HW115398   5.922   1.228   2.891
 4833SOL    HW215399   6.040   1.120   2.858
 4834SOL     OW15400   2.878   6.465   1.566
 4834SOL    HW115401   2.954   6.425   1.618
 4834SOL    HW215402   2.820   6.519   1.626
 4835SOL     OW15403   5.792   2.025   6.572
 4835SOL    HW115404   5.820   2.054   6.481
 4835SOL    HW215405   5.767   2.105   6.626
 4836SOL     OW15406   5.345   2.159   4.692
 4836SOL    HW115407   5.438   2.153   4.729
 4836SOL    HW215408   5.279   2.152   4.767
 4837SOL     OW15409   6.812   3.733   2.727
 4837SOL    HW115410   6.884   3.694   2.784
 4837SOL    HW215411   6.745   3.781   2.784
 4838SOL     OW15412   2.068   5.376   0.097
 4838SOL    HW115413   2.015   5.300   0.060
 4838SOL    HW215414   2.112   5.348   0.182
 4839SOL     OW15415   1.114   3.869   0.308
 4839SOL    HW115416   1.149   3.901   0.220
 4839SOL    HW215417   1.024   3.828   0.295
 4840SOL     OW15418   6.448   4.714   6.368
 4840SOL    HW115419   6.429   4.716   6.270
 4840SOL    HW215420   6.436   4.621   6.402
 4841SOL     OW15421   2.585   5.249   2.955
 4841SOL    HW115422   2.533   5.310   2.895
 4841SOL    HW215423   2.664   5.298   2.992
 4842SOL     OW15424   3.456   4.943   2.772
 4842SOL    HW115425   3.445   5.005   2.850
 4842SOL    HW215426   3.375   4.886   2.762
 4843SOL     OW15427   6.119   2.590   1.258
 4843SOL    HW115428   6.097   2.511   1.200
 4843SOL    HW215429   6.041   2.611   1.317
 4844SOL     OW15430   0.459   3.349   6.257
 4844SOL    HW115431   0.467   3.439   6.300
 4844SOL    HW215432   0.362   3.327   6.246
 4845SOL     OW15433   5.592   4.935   6.803
 4845SOL    HW115434   5.627   5.028   6.812
 4845SOL    HW215435   5.602   4.904   6.709
 4846SOL     OW15436   0.075   2.340   3.832
 4846SOL    HW115437   0.058   2.413   3.898
 4846SOL    HW215438   0.161   2.293   3.855
 4847SOL     OW15439   2.433   1.028   6.349
 4847SOL    HW115440   2.345   1.010   6.305
 4847SOL    HW215441   2.418   1.068   6.440
 4848SOL     OW15442   2.185   0.932   4.865
 4848SOL    HW115443   2.266   0.960   4.815
 4848SOL    HW215444   2.163   1.000   4.935
 4849SOL     OW15445   1.711   5.825   0.634
 4849SOL    HW115446   1.670   5.911   0.665
 4849SOL    HW215447   1.791   5.804   0.690
 4850SOL     OW15448   4.482   1.173   1.389
 4850SOL    HW115449   4.402   1.114   1.380
 4850SOL    HW215450   4.513   1.174   1.484
 4851SOL     OW15451   3.180   6.574   5.590
 4851SOL    HW115452   3.146   6.549   5.682
 4851SOL    HW215453   3.205   6.670   5.589
 4852SOL     OW15454   1.904   5.824   4.671
 4852SOL    HW115455   1.873   5.918   4.688
 4852SOL    HW215456   1.885   5.799   4.577
 4853SOL     OW15457   3.802   1.283   3.940
 4853SOL    HW115458   3.746   1.336   4.003
 4853SOL    HW215459   3.809   1.331   3.852
 4854SOL     OW15460   4.360   6.547   2.130
 4854SOL    HW115461   4.262   6.532   2.134
 4854SOL    HW215462   4.405   6.495   2.203
 4855SOL     OW15463   5.911   2.320   4.963
 4855SOL    HW115464   5.995   2.320   5.016
 4855SOL    HW215465   5.847   2.388   5.000
 4856SOL     OW15466   1.722   3.376   3.027
 4856SOL    HW115467   1.734   3.288   2.982
 4856SOL    HW215468   1.812   3.411   3.056
 4857SOL     OW15469   2.721   2.236   3.601
 4857SOL    HW115470   2.735   2.312   3.665
 4857SOL    HW215471   2.631   2.245   3.558
 4858SOL     OW15472   0.048   6.492   5.090
 4858SOL    HW115473   0.138   6.534   5.078
 4858SOL    HW215474   0.038   6.463   5.185
 4859SOL     OW15475   0.531   5.135   2.739
 4859SOL    HW115476   0.462   5.191   2.694
 4859SOL    HW215477   0.533   5.044   2.696
 4860SOL     OW15478   4.189   3.882   0.389
 4860SOL    HW115479   4.184   3.782   0.389
 4860SOL    HW215480   4.246   3.912   0.312
 4861SOL     OW15481   6.013   5.351   6.730
 4861SOL    HW115482   5.933   5.400   6.765
 4861SOL    HW215483   6.049   5.291   6.802
 4862SOL     OW15484   2.211   4.637   5.160
 4862SOL    HW115485   2.150   4.659   5.236
 4862SOL    HW215486   2.175   4.678   5.076
 4863SOL     OW15487   5.218   3.200   2.382
 4863SOL    HW115488   5.132   3.164   2.419
 4863SOL    HW215489   5.210   3.209   2.283
 4864SOL     OW15490   3.049   1.046   2.004
 4864SOL    HW115491   3.109   1.101   1.945
 4864SOL    HW215492   3.077   0.950   2.001
 4865SOL     OW15493   1.868   6.141   4.598
 4865SOL    HW115494   1.890   6.229   4.641
 4865SOL    HW215495   1.945   6.113   4.539
 4866SOL     OW15496   5.970   4.954   1.442
 4866SOL    HW115497   5.947   4.921   1.350
 4866SOL    HW215498   5.908   4.913   1.509
 4867SOL     OW15499   5.025   5.582   3.040
 4867SOL    HW115500   5.045   5.574   2.943
 4867SOL    HW215501   4.987   5.496   3.074
 4868SOL     OW15502   0.153   5.292   1.908
 4868SOL    HW115503   0.229   5.344   1.949
 4868SOL    HW215504   0.093   5.354   1.858
 4869SOL     OW15505   0.579   2.303   1.535
 4869SOL    HW115506   0.546   2.370   1.602
 4869SOL    HW215507   0.663   2.337   1.493
 4870SOL     OW15508   6.158   5.726   1.707
 4870SOL    HW115509   6.233   5.662   1.726
 4870SOL    HW215510   6.193   5.819   1.705
 4871SOL     OW15511   0.289   1.631   5.035
 4871SOL    HW115512   0.387   1.647   5.021
 4871SOL    HW215513   0.276   1.541   5.075
 4872SOL     OW15514   0.570   6.256   4.113
 4872SOL    HW115515   0.620   6.300   4.188
 4872SOL    HW215516   0.480   6.298   4.103
 4873SOL     OW15517   6.858   4.699   3.970
 4873SOL    HW115518   6.813   4.776   4.016
 4873SOL    HW215519   6.956   4.715   3.968
 4874SOL     OW15520   6.143   3.992   2.799
 4874SOL    HW115521   6.172   4.033   2.886
 4874SOL    HW215522   6.216   3.934   2.764
 4875SOL     OW15523   4.875   2.401   1.358
 4875SOL    HW115524   4.822   2.317   1.369
 4875SOL    HW215525   4.825   2.477   1.399
 4876SOL     OW15526   6.077   0.855   4.563
 4876SOL    HW115527   6.015   0.809   4.627
 4876SOL    HW215528   6.166   0.868   4.606
 4877SOL     OW15529   6.334   1.804   0.679
 4877SOL    HW115530   6.311   1.722   0.732
 4877SOL    HW215531   6.432   1.805   0.661
 4878SOL     OW15532   6.494   1.428   2.774
 4878SOL    HW115533   6.531   1.340   2.742
 4878SOL    HW215534   6.515   1.499   2.706
 4879SOL     OW15535   4.558   5.086   3.535
 4879SOL    HW115536   4.566   5.041   3.445
 4879SOL    HW215537   4.566   5.185   3.524
 4880SOL     OW15538   6.446   3.418   6.464
 4880SOL    HW115539   6.529   3.362   6.458
 4880SOL    HW215540   6.390   3.386   6.540
 4881SOL     OW15541   2.187   6.929   6.280
 4881SOL    HW115542   2.169   0.007   6.252
 4881SOL    HW215543   2.159   6.867   6.206
 4882SOL     OW15544   5.833   1.277   4.223
 4882SOL    HW115545   5.912   1.217   4.212
 4882SOL    HW215546   5.861   1.373   4.211
 4883SOL     OW15547   5.108   4.846   2.199
 4883SOL    HW115548   5.136   4.939   2.177
 4883SOL    HW215549   5.104   4.835   2.299
 4884SOL     OW15550   4.532   0.314   1.128
 4884SOL    HW115551   4.549   0.234   1.185
 4884SOL    HW215552   4.435   0.337   1.131
 4885SOL     OW15553   2.686   6.214   2.058
 4885SOL    HW115554   2.609   6.278   2.061
 4885SOL    HW215555   2.772   6.265   2.054
 4886SOL     OW15556   6.659   5.401   5.985
 4886SOL    HW115557   6.559   5.402   5.978
 4886SOL    HW215558   6.691   5.306   5.994
 4887SOL     OW15559   0.068   0.846   2.844
 4887SOL    HW115560   0.122   0.907   2.902
 4887SOL    HW215561   0.106   0.845   2.752
 4888SOL     OW15562   1.945   6.737   4.604
 4888SOL    HW115563   1.949   6.745   4.704
 4888SOL    HW215564   2.032   6.767   4.565
 4889SOL     OW15565   6.724   0.840   6.587
 4889SOL    HW115566   6.770   0.927   6.607
 4889SOL    HW215567   6.694   0.840   6.491
 4890SOL     OW15568   0.723   2.202   5.620
 4890SOL    HW115569   0.694   2.129   5.559
 4890SOL    HW215570   0.755   2.280   5.567
 4891SOL     OW15571   1.277   5.927   0.332
 4891SOL    HW115572   1.363   5.926   0.281
 4891SOL    HW215573   1.292   5.893   0.425
 4892SOL     OW15574   2.372   6.022   2.179
 4892SOL    HW115575   2.311   6.095   2.148
 4892SOL    HW215576   2.376   6.022   2.279
 4893SOL     OW15577   6.423   4.493   0.407
 4893SOL    HW115578   6.430   4.562   0.334
 4893SOL    HW215579   6.444   4.403   0.369
 4894SOL     OW15580   2.315   1.562   1.968
 4894SOL    HW115581   2.381   1.532   2.036
 4894SOL    HW215582   2.229   1.585   2.012
 4895SOL     OW15583   0.441   4.846   2.263
 4895SOL    HW115584   0.355   4.898   2.266
 4895SOL    HW215585   0.464   4.816   2.355
 4896SOL     OW15586   2.156   5.513   2.237
 4896SOL    HW115587   2.061   5.540   2.245
 4896SOL    HW215588   2.171   5.471   2.147
 4897SOL     OW15589   2.197   5.371   5.939
 4897SOL    HW115590   2.291   5.376   5.907
 4897SOL    HW215591   2.195   5.335   6.032
 4898SOL     OW15592   5.901   1.185   5.119
 4898SOL    HW115593   5.871   1.265   5.065
 4898SOL    HW215594   5.837   1.110   5.104
 4899SOL     OW15595   6.214   4.712   3.424
 4899SOL    HW115596   6.228   4.615   3.443
 4899SOL    HW215597   6.142   4.723   3.356
 4900SOL     OW15598   1.963   6.156   5.566
 4900SOL    HW115599   1.974   6.227   5.635
 4900SOL    HW215600   1.931   6.197   5.480
 4901SOL     OW15601   2.989   0.102   5.007
 4901SOL    HW115602   2.899   0.144   5.016
 4901SOL    HW215603   2.990   0.013   5.052
 4902SOL     OW15604   2.981   2.068   5.126
 4902SOL    HW115605   3.034   2.147   5.096
 4902SOL    HW215606   2.928   2.032   5.049
 4903SOL     OW15607   2.969   6.748   6.346
 4903SOL    HW115608   3.034   6.787   6.411
 4903SOL    HW215609   2.932   6.820   6.288
 4904SOL     OW15610   1.170   0.280   3.656
 4904SOL    HW115611   1.180   0.369   3.612
 4904SOL    HW215612   1.256   0.255   3.699
 4905SOL     OW15613   4.441   1.823   2.346
 4905SOL    HW115614   4.539   1.804   2.354
 4905SOL    HW215615   4.409   1.791   2.257
 4906SOL     OW15616   3.379   1.181   6.461
 4906SOL    HW115617   3.392   1.230   6.547
 4906SOL    HW215618   3.321   1.234   6.400
 4907SOL     OW15619   4.756   6.630   1.252
 4907SOL    HW115620   4.717   6.655   1.163
 4907SOL    HW215621   4.685   6.638   1.323
 4908SOL     OW15622   4.828   4.799   6.388
 4908SOL    HW115623   4.785   4.749   6.462
 4908SOL    HW215624   4.848   4.893   6.418
 4909SOL     OW15625   6.530   0.398   5.473
 4909SOL    HW115626   6.436   0.364   5.475
 4909SOL    HW215627   6.567   0.399   5.566
 4910SOL     OW15628   5.696   6.854   4.499
 4910SOL    HW115629   5.632   6.777   4.499
 4910SOL    HW215630   5.647   6.938   4.519
 4911SOL     OW15631   6.737   2.669   5.703
 4911SOL    HW115632   6.655   2.691   5.651
 4911SOL    HW215633   6.733   2.715   5.792
 4912SOL     OW15634   5.683   2.098   1.485
 4912SOL    HW115635   5.694   2.082   1.583
 4912SOL    HW215636   5.586   2.107   1.463
 4913SOL     OW15637   3.724   3.737   3.395
 4913SOL    HW115638   3.657   3.789   3.448
 4913SOL    HW215639   3.687   3.717   3.305
 4914SOL     OW15640   3.357   0.159   4.649
 4914SOL    HW115641   3.335   0.235   4.588
 4914SOL    HW215642   3.301   0.079   4.626
 4915SOL     OW15643   4.568   0.427   4.564
 4915SOL    HW115644   4.600   0.498   4.627
 4915SOL    HW215645   4.621   0.430   4.480
 4916SOL     OW15646   2.220   1.150   3.239
 4916SOL    HW115647   2.165   1.154   3.155
 4916SOL    HW215648   2.317   1.146   3.215
 4917SOL     OW15649   1.611   4.742   0.637
 4917SOL    HW115650   1.647   4.650   0.649
 4917SOL    HW215651   1.618   4.769   0.541
 4918SOL     OW15652   3.029   0.067   2.801
 4918SOL    HW115653   3.088   0.046   2.880
 4918SOL    HW215654   2.986   0.156   2.814
 4919SOL     OW15655   1.816   1.827   1.095
 4919SOL    HW115656   1.826   1.853   1.191
 4919SOL    HW215657   1.877   1.883   1.038
 4920SOL     OW15658   4.586   0.446   6.078
 4920SOL    HW115659   4.676   0.439   6.035
 4920SOL    HW215660   4.592   0.504   6.159
 4921SOL     OW15661   1.644   4.338   1.290
 4921SOL    HW115662   1.715   4.345   1.220
 4921SOL    HW215663   1.601   4.248   1.286
 4922SOL     OW15664   1.750   3.379   4.925
 4922SOL    HW115665   1.710   3.307   4.869
 4922SOL    HW215666   1.685   3.408   4.994
 4923SOL     OW15667   3.778   1.038   1.112
 4923SOL    HW115668   3.728   1.012   1.194
 4923SOL    HW215669   3.735   1.118   1.070
 4924SOL     OW15670   2.054   2.491   6.305
 4924SOL    HW115671   2.036   2.498   6.207
 4924SOL    HW215672   2.022   2.574   6.351
 4925SOL     OW15673   5.985   6.481   0.725
 4925SOL    HW115674   5.918   6.456   0.795
 4925SOL    HW215675   6.076   6.480   0.765
 4926SOL     OW15676   4.497   2.112   1.051
 4926SOL    HW115677   4.493   2.110   1.151
 4926SOL    HW215678   4.405   2.120   1.013
 4927SOL     OW15679   4.063   3.841   4.120
 4927SOL    HW115680   3.975   3.844   4.167
 4927SOL    HW215681   4.056   3.888   4.032
 4928SOL     OW15682   0.192   0.093   6.451
 4928SOL    HW115683   0.133   0.069   6.374
 4928SOL    HW215684   0.265   0.024   6.459
 4929SOL     OW15685   1.424   4.449   4.795
 4929SOL    HW115686   1.495   4.414   4.856
 4929SOL    HW215687   1.435   4.408   4.705
 4930SOL     OW15688   6.624   0.507   1.809
 4930SOL    HW115689   6.577   0.518   1.722
 4930SOL    HW215690   6.570   0.552   1.881
 4931SOL     OW15691   0.157   6.904   0.789
 4931SOL    HW115692   0.146   6.805   0.788
 4931SOL    HW215693   0.199   6.932   0.876
 4932SOL     OW15694   2.226   3.016   1.720
 4932SOL    HW115695   2.263   3.105   1.695
 4932SOL    HW215696   2.216   3.011   1.820
 4933SOL     OW15697   2.836   6.774   4.218
 4933SOL    HW115698   2.838   6.871   4.241
 4933SOL    HW215699   2.873   6.722   4.295
 4934SOL     OW15700   1.659   5.162   2.804
 4934SOL    HW115701   1.609   5.237   2.846
 4934SOL    HW215702   1.596   5.105   2.751
 4935SOL     OW15703   0.884   1.355   0.083
 4935SOL    HW115704   0.885   1.448   0.120
 4935SOL    HW215705   0.920   1.291   0.151
 4936SOL     OW15706   2.120   5.237   2.021
 4936SOL    HW115707   2.184   5.231   2.097
 4936SOL    HW215708   2.166   5.209   1.936
 4937SOL     OW15709   0.103   2.937   6.194
 4937SOL    HW115710   0.031   2.928   6.125
 4937SOL    HW215711   0.065   2.972   6.279
 4938SOL     OW15712   3.048   5.209   1.221
 4938SOL    HW115713   3.044   5.109   1.227
 4938SOL    HW215714   3.000   5.238   1.138
 4939SOL     OW15715   1.197   1.810   3.767
 4939SOL    HW115716   1.258   1.808   3.687
 4939SOL    HW215717   1.251   1.828   3.849
 4940SOL     OW15718   0.780   1.538   5.948
 4940SOL    HW115719   0.698   1.494   5.910
 4940SOL    HW215720   0.862   1.500   5.906
 4941SOL     OW15721   4.304   2.600   5.394
 4941SOL    HW115722   4.363   2.520   5.379
 4941SOL    HW215723   4.230   2.600   5.326
 4942SOL     OW15724   5.434   3.699   4.747
 4942SOL    HW115725   5.341   3.718   4.716
 4942SOL    HW215726   5.433   3.681   4.846
 4943SOL     OW15727   4.784   4.075   5.488
 4943SOL    HW115728   4.862   4.069   5.426
 4943SOL    HW215729   4.764   3.984   5.525
 4944SOL     OW15730   2.496   4.370   1.826
 4944SOL    HW115731   2.585   4.336   1.796
 4944SOL    HW215732   2.435   4.380   1.747
 4945SOL     OW15733   1.099   6.888   5.358
 4945SOL    HW115734   1.054   6.805   5.324
 4945SOL    HW215735   1.083   6.897   5.456
 4946SOL     OW15736   0.376   5.171   0.031
 4946SOL    HW115737   0.400   5.084   7.004
 4946SOL    HW215738   0.455   5.205   0.083
 4947SOL     OW15739   2.461   0.740   0.960
 4947SOL    HW115740   2.557   0.760   0.982
 4947SOL    HW215741   2.454   0.649   0.920
 4948SOL     OW15742   2.254   2.624   2.270
 4948SOL    HW115743   2.181   2.568   2.230
 4948SOL    HW215744   2.341   2.576   2.263
 4949SOL     OW15745   6.768   4.076   5.248
 4949SOL    HW115746   6.808   4.018   5.177
 4949SOL    HW215747   6.821   4.161   5.256
 4950SOL     OW15748   1.879   4.057   5.590
 4950SOL    HW115749   1.964   4.014   5.621
 4950SOL    HW215750   1.886   4.080   5.493
 4951SOL     OW15751   6.207   0.685   4.120
 4951SOL    HW115752   6.271   0.749   4.163
 4951SOL    HW215753   6.138   0.657   4.187
 4952SOL     OW15754   0.469   6.737   5.854
 4952SOL    HW115755   0.511   6.826   5.872
 4952SOL    HW215756   0.396   6.720   5.920
 4953SOL     OW15757   1.103   6.649   3.485
 4953SOL    HW115758   1.195   6.689   3.484
 4953SOL    HW215759   1.036   6.721   3.466
 4954SOL     OW15760   3.285   3.410   0.033
 4954SOL    HW115761   3.255   3.315   0.031
 4954SOL    HW215762   3.310   3.439   6.957
 4955SOL     OW15763   2.758   6.897   0.001
 4955SOL    HW115764   2.812   6.862   6.941
 4955SOL    HW215765   2.783   6.992   0.019
 4956SOL     OW15766   3.177   0.292   4.915
 4956SOL    HW115767   3.173   0.315   4.818
 4956SOL    HW215768   3.108   0.223   4.936
 4957SOL     OW15769   5.549   2.813   1.363
 4957SOL    HW115770   5.535   2.865   1.447
 4957SOL    HW215771   5.553   2.875   1.285
 4958SOL     OW15772   1.022   5.519   6.356
 4958SOL    HW115773   0.954   5.589   6.378
 4958SOL    HW215774   1.013   5.493   6.259
 4959SOL     OW15775   5.845   1.691   0.652
 4959SOL    HW115776   5.752   1.656   0.648
 4959SOL    HW215777   5.899   1.652   0.577
 4960SOL     OW15778   4.355   4.670   4.244
 4960SOL    HW115779   4.347   4.769   4.235
 4960SOL    HW215780   4.288   4.637   4.311
 4961SOL     OW15781   3.140   0.825   6.154
 4961SOL    HW115782   3.210   0.761   6.123
 4961SOL    HW215783   3.133   0.822   6.254
 4962SOL     OW15784   5.718   2.875   0.512
 4962SOL    HW115785   5.632   2.825   0.502
 4962SOL    HW215786   5.749   2.869   0.607
 4963SOL     OW15787   0.514   5.804   0.362
 4963SOL    HW115788   0.507   5.735   0.290
 4963SOL    HW215789   0.513   5.758   0.451
 4964SOL     OW15790   2.339   0.118   4.611
 4964SOL    HW115791   2.249   0.081   4.588
 4964SOL    HW215792   2.409   0.050   4.591
 4965SOL     OW15793   0.540   6.915   1.837
 4965SOL    HW115794   0.495   6.910   1.926
 4965SOL    HW215795   0.582   6.826   1.815
 4966SOL     OW15796   2.964   6.829   4.838
 4966SOL    HW115797   2.967   6.914   4.891
 4966SOL    HW215798   3.022   6.760   4.882
 4967SOL     OW15799   3.409   4.744   5.882
 4967SOL    HW115800   3.366   4.713   5.797
 4967SOL    HW215801   3.432   4.666   5.938
 4968SOL     OW15802   0.430   1.063   3.024
 4968SOL    HW115803   0.524   1.096   3.039
 4968SOL    HW215804   0.424   0.968   3.053
 4969SOL     OW15805   2.070   6.022   2.604
 4969SOL    HW115806   2.069   6.107   2.656
 4969SOL    HW215807   2.064   5.944   2.667
 4970SOL     OW15808   2.288   1.841   1.377
 4970SOL    HW115809   2.279   1.746   1.346
 4970SOL    HW215810   2.360   1.847   1.446
 4971SOL     OW15811   5.927   5.411   3.018
 4971SOL    HW115812   5.836   5.396   2.979
 4971SOL    HW215813   5.939   5.508   3.038
 4972SOL     OW15814   0.661   3.828   1.010
 4972SOL    HW115815   0.708   3.834   0.922
 4972SOL    HW215816   0.572   3.872   1.004
 4973SOL     OW15817   1.531   6.983   1.854
 4973SOL    HW115818   1.535   0.035   1.781
 4973SOL    HW215819   1.619   6.979   1.901
 4974SOL     OW15820   5.932   5.071   0.763
 4974SOL    HW115821   5.911   5.155   0.812
 4974SOL    HW215822   6.031   5.058   0.760
 4975SOL     OW15823   5.891   4.121   6.188
 4975SOL    HW115824   5.881   4.028   6.154
 4975SOL    HW215825   5.910   4.119   6.287
 4976SOL     OW15826   2.173   2.101   3.902
 4976SOL    HW115827   2.223   2.015   3.914
 4976SOL    HW215828   2.147   2.137   3.992
 4977SOL     OW15829   4.432   5.085   0.036
 4977SOL    HW115830   4.334   5.069   0.028
 4977SOL    HW215831   4.447   5.178   0.072
 4978SOL     OW15832   6.063   4.498   5.063
 4978SOL    HW115833   6.049   4.470   4.968
 4978SOL    HW215834   6.035   4.424   5.124
 4979SOL     OW15835   6.609   6.831   5.909
 4979SOL    HW115836   6.552   6.851   5.988
 4979SOL    HW215837   6.704   6.857   5.929
 4980SOL     OW15838   5.423   5.266   3.791
 4980SOL    HW115839   5.350   5.284   3.856
 4980SOL    HW215840   5.503   5.231   3.840
 4981SOL     OW15841   4.104   5.079   0.932
 4981SOL    HW115842   4.129   5.041   0.843
 4981SOL    HW215843   4.175   5.143   0.961
 4982SOL     OW15844   3.235   2.083   5.682
 4982SOL    HW115845   3.202   2.158   5.739
 4982SOL    HW215846   3.175   2.072   5.602
 4983SOL     OW15847   5.979   3.418   5.910
 4983SOL    HW115848   5.925   3.496   5.878
 4983SOL    HW215849   6.055   3.402   5.846
 4984SOL     OW15850   5.550   3.742   2.848
 4984SOL    HW115851   5.616   3.693   2.906
 4984SOL    HW215852   5.457   3.718   2.876
 4985SOL     OW15853   6.206   6.834   3.159
 4985SOL    HW115854   6.125   6.892   3.147
 4985SOL    HW215855   6.276   6.884   3.210
 4986SOL     OW15856   6.937   4.844   0.559
 4986SOL    HW115857   6.930   4.942   0.580
 4986SOL    HW215858   6.884   4.792   0.626
 4987SOL     OW15859   0.376   6.353   2.496
 4987SOL    HW115860   0.462   6.308   2.472
 4987SOL    HW215861   0.349   6.327   2.588
 4988SOL     OW15862   5.284   0.908   2.180
 4988SOL    HW115863   5.284   0.812   2.152
 4988SOL    HW215864   5.378   0.937   2.201
 4989SOL     OW15865   5.370   6.474   1.143
 4989SOL    HW115866   5.457   6.441   1.106
 4989SOL    HW215867   5.358   6.438   1.236
 4990SOL     OW15868   2.391   1.913   5.729
 4990SOL    HW115869   2.326   1.882   5.798
 4990SOL    HW215870   2.483   1.914   5.767
 4991SOL     OW15871   6.527   5.567   4.432
 4991SOL    HW115872   6.477   5.629   4.371
 4991SOL    HW215873   6.523   5.474   4.395
 4992SOL     OW15874   4.729   0.262   2.236
 4992SOL    HW115875   4.796   0.209   2.184
 4992SOL    HW215876   4.773   0.300   2.318
 4993SOL     OW15877   3.084   6.356   5.131
 4993SOL    HW115878   3.054   6.432   5.074
 4993SOL    HW215879   3.043   6.271   5.097
 4994SOL     OW15880   1.816   0.007   4.519
 4994SOL    HW115881   1.869   6.976   4.590
 4994SOL    HW215882   1.766   0.084   4.559
 4995SOL     OW15883   1.116   2.062   5.078
 4995SOL    HW115884   1.152   1.984   5.129
 4995SOL    HW215885   1.026   2.040   5.041
 4996SOL     OW15886   0.254   1.751   3.329
 4996SOL    HW115887   0.226   1.789   3.241
 4996SOL    HW215888   0.345   1.712   3.321
 4997SOL     OW15889   4.385   2.356   2.672
 4997SOL    HW115890   4.332   2.322   2.749
 4997SOL    HW215891   4.329   2.356   2.590
 4998SOL     OW15892   2.159   3.091   4.971
 4998SOL    HW115893   2.145   3.163   5.039
 4998SOL    HW215894   2.250   3.052   4.982
 4999SOL     OW15895   6.441   3.749   5.392
 4999SOL    HW115896   6.345   3.732   5.412
 4999SOL    HW215897   6.495   3.668   5.413
 5000SOL     OW15898   3.464   6.943   3.054
 5000SOL    HW115899   3.455   6.859   3.000
 5000SOL    HW215900   3.375   6.966   3.094
 5001SOL     OW15901   1.530   4.749   1.911
 5001SOL    HW115902   1.472   4.802   1.850
 5001SOL    HW215903   1.590   4.689   1.856
 5002SOL     OW15904   1.175   3.725   2.157
 5002SOL    HW115905   1.094   3.781   2.140
 5002SOL    HW215906   1.177   3.697   2.253
 5003SOL     OW15907   3.542   5.536   2.774
 5003SOL    HW115908   3.443   5.536   2.760
 5003SOL    HW215909   3.566   5.600   2.847
 5004SOL     OW15910   2.544   4.955   5.060
 5004SOL    HW115911   2.450   4.971   5.028
 5004SOL    HW215912   2.608   4.971   4.985
 5005SOL     OW15913   3.470   3.088   0.742
 5005SOL    HW115914   3.402   3.157   0.718
 5005SOL    HW215915   3.560   3.118   0.711
 5006SOL     OW15916   5.171   0.718   1.767
 5006SOL    HW115917   5.205   0.714   1.673
 5006SOL    HW215918   5.072   0.701   1.767
 5007SOL     OW15919   0.688   6.624   0.896
 5007SOL    HW115920   0.670   6.701   0.836
 5007SOL    HW215921   0.770   6.643   0.951
 5008SOL     OW15922   5.139   6.353   1.445
 5008SOL    HW115923   5.103   6.440   1.479
 5008SOL    HW215924   5.238   6.360   1.433
 5009SOL     OW15925   0.185   2.078   0.531
 5009SOL    HW115926   0.110   2.015   0.512
 5009SOL    HW215927   0.149   2.170   0.547
 5010SOL     OW15928   4.211   3.013   1.510
 5010SOL    HW115929   4.149   3.074   1.560
 5010SOL    HW215930   4.305   3.031   1.538
 5011SOL     OW15931   1.497   4.713   2.326
 5011SOL    HW115932   1.593   4.725   2.300
 5011SOL    HW215933   1.491   4.666   2.414
 5012SOL     OW15934   5.595   3.554   5.607
 5012SOL    HW115935   5.563   3.643   5.574
 5012SOL    HW215936   5.625   3.499   5.530
 5013SOL     OW15937   5.371   1.405   6.994
 5013SOL    HW115938   5.368   1.323   0.034
 5013SOL    HW215939   5.446   1.399   6.928
 5014SOL     OW15940   5.754   4.733   1.033
 5014SOL    HW115941   5.743   4.811   1.095
 5014SOL    HW215942   5.723   4.760   0.942
 5015SOL     OW15943   5.057   1.907   4.810
 5015SOL    HW115944   4.996   1.829   4.826
 5015SOL    HW215945   5.138   1.876   4.760
 5016SOL     OW15946   2.173   2.742   5.951
 5016SOL    HW115947   2.112   2.664   5.968
 5016SOL    HW215948   2.247   2.741   6.018
 5017SOL     OW15949   2.639   2.432   1.505
 5017SOL    HW115950   2.540   2.444   1.506
 5017SOL    HW215951   2.683   2.505   1.557
 5018SOL     OW15952   1.260   4.667   2.933
 5018SOL    HW115953   1.293   4.614   2.854
 5018SOL    HW215954   1.179   4.720   2.905
 5019SOL     OW15955   1.245   5.348   5.786
 5019SOL    HW115956   1.344   5.329   5.787
 5019SOL    HW215957   1.226   5.418   5.717
 5020SOL     OW15958   5.428   0.103   6.917
 5020SOL    HW115959   5.494   0.153   6.972
 5020SOL    HW215960   5.412   0.013   6.958
 5021SOL     OW15961   0.574   1.461   0.112
 5021SOL    HW115962   0.631   1.380   0.098
 5021SOL    HW215963   0.479   1.432   0.123
 5022SOL     OW15964   1.676   1.595   1.098
 5022SOL    HW115965   1.580   1.607   1.072
 5022SOL    HW215966   1.715   1.683   1.124
 5023SOL     OW15967   0.076   3.455   1.850
 5023SOL    HW115968   0.095   3.422   1.758
 5023SOL    HW215969   0.035   3.382   1.904
 5024SOL     OW15970   6.061   5.184   1.571
 5024SOL    HW115971   6.029   5.098   1.531
 5024SOL    HW215972   6.106   5.165   1.658
 5025SOL     OW15973   4.181   1.568   2.901
 5025SOL    HW115974   4.259   1.505   2.913
 5025SOL    HW215975   4.187   1.611   2.811
 5026SOL     OW15976   6.173   5.986   5.438
 5026SOL    HW115977   6.129   5.905   5.397
 5026SOL    HW215978   6.104   6.057   5.452
 5027SOL     OW15979   0.132   6.236   1.916
 5027SOL    HW115980   0.112   6.208   2.010
 5027SOL    HW215981   0.047   6.252   1.866
 5028SOL     OW15982   0.329   1.988   2.284
 5028SOL    HW115983   0.414   1.958   2.327
 5028SOL    HW215984   0.341   1.992   2.185
 5029SOL     OW15985   6.502   2.169   2.356
 5029SOL    HW115986   6.523   2.245   2.418
 5029SOL    HW215987   6.418   2.190   2.305
 5030SOL     OW15988   6.927   6.359   6.655
 5030SOL    HW115989   6.907   6.305   6.737
 5030SOL    HW215990   0.008   6.350   6.633
 5031SOL     OW15991   6.597   0.858   5.984
 5031SOL    HW115992   6.570   0.933   6.043
 5031SOL    HW215993   6.641   0.894   5.902
 5032SOL     OW15994   1.692   2.257   0.016
 5032SOL    HW115995   1.697   2.213   0.105
 5032SOL    HW215996   1.756   2.334   0.013
 5033SOL     OW15997   2.209   6.867   5.655
 5033SOL    HW115998   2.217   6.918   5.740
 5033SOL    HW215999   2.291   6.812   5.641
 5034SOL     OW16000   6.119   0.470   3.253
 5034SOL    HW116001   6.124   0.373   3.229
 5034SOL    HW216002   6.081   0.480   3.345
 5035SOL     OW16003   0.744   3.632   6.261
 5035SOL    HW116004   0.822   3.693   6.246
 5035SOL    HW216005   0.735   3.570   6.183
 5036SOL     OW16006   0.681   4.846   6.774
 5036SOL    HW116007   0.638   4.839   6.684
 5036SOL    HW216008   0.780   4.831   6.765
 5037SOL     OW16009   5.838   3.874   1.892
 5037SOL    HW116010   5.801   3.781   1.887
 5037SOL    HW216011   5.806   3.927   1.814
 5038SOL     OW16012   3.456   3.720   5.879
 5038SOL    HW116013   3.467   3.657   5.956
 5038SOL    HW216014   3.546   3.752   5.850
 5039SOL     OW16015   2.690   4.380   5.993
 5039SOL    HW116016   2.608   4.336   6.030
 5039SOL    HW216017   2.671   4.410   5.899
 5040SOL     OW16018   1.692   6.310   5.555
 5040SOL    HW116019   1.625   6.363   5.606
 5040SOL    HW216020   1.702   6.220   5.598
 5041SOL     OW16021   1.937   1.834   2.712
 5041SOL    HW116022   1.992   1.913   2.741
 5041SOL    HW216023   1.847   1.838   2.757
 5042SOL     OW16024   6.321   3.246   0.035
 5042SOL    HW116025   6.325   3.159   7.000
 5042SOL    HW216026   6.230   3.257   0.075
 5043SOL     OW16027   3.011   0.026   6.173
 5043SOL    HW116028   3.022   6.996   6.085
 5043SOL    HW216029   3.101   0.044   6.213
 5044SOL     OW16030   0.471   6.655   6.842
 5044SOL    HW116031   0.512   6.671   6.931
 5044SOL    HW216032   0.430   6.564   6.839
 5045SOL     OW16033   5.297   0.262   6.282
 5045SOL    HW116034   5.272   0.342   6.338
 5045SOL    HW216035   5.335   0.191   6.341
 5046SOL     OW16036   3.386   4.153   2.625
 5046SOL    HW116037   3.447   4.076   2.603
 5046SOL    HW216038   3.378   4.162   2.725
 5047SOL     OW16039   1.044   4.402   2.869
 5047SOL    HW116040   1.091   4.323   2.908
 5047SOL    HW216041   1.105   4.481   2.869
 5048SOL     OW16042   1.051   1.645   2.734
 5048SOL    HW116043   0.992   1.584   2.787
 5048SOL    HW216044   0.996   1.692   2.665
 5049SOL     OW16045   5.472   2.047   6.500
 5049SOL    HW116046   5.481   2.098   6.585
 5049SOL    HW216047   5.422   1.962   6.517
 5050SOL     OW16048   1.946   0.890   1.519
 5050SOL    HW116049   1.859   0.853   1.487
 5050SOL    HW216050   1.983   0.953   1.451
 5051SOL     OW16051   4.192   4.536   0.956
 5051SOL    HW116052   4.130   4.600   0.912
 5051SOL    HW216053   4.173   4.443   0.923
 5052SOL     OW16054   2.461   1.045   6.016
 5052SOL    HW116055   2.506   1.107   5.952
 5052SOL    HW216056   2.466   1.083   6.108
 5053SOL     OW16057   2.196   3.946   3.919
 5053SOL    HW116058   2.173   3.973   4.012
 5053SOL    HW216059   2.112   3.929   3.867
 5054SOL     OW16060   3.327   5.534   4.896
 5054SOL    HW116061   3.411   5.482   4.911
 5054SOL    HW216062   3.252   5.490   4.945
 5055SOL     OW16063   1.948   2.021   5.931
 5055SOL    HW116064   1.918   2.007   5.836
 5055SOL    HW216065   2.043   2.050   5.932
 5056SOL     OW16066   6.121   4.371   6.892
 5056SOL    HW116067   6.172   4.295   6.931
 5056SOL    HW216068   6.037   4.385   6.945
 5057SOL     OW16069   6.650   5.819   3.954
 5057SOL    HW116070   6.728   5.784   3.902
 5057SOL    HW216071   6.624   5.909   3.918
 5058SOL     OW16072   2.616   3.254   5.643
 5058SOL    HW116073   2.600   3.255   5.544
 5058SOL    HW216074   2.572   3.173   5.683
 5059SOL     OW16075   6.237   1.226   3.522
 5059SOL    HW116076   6.145   1.191   3.504
 5059SOL    HW216077   6.239   1.272   3.610
 5060SOL     OW16078   0.796   1.979   5.758
 5060SOL    HW116079   0.827   1.981   5.663
 5060SOL    HW216080   0.763   2.069   5.785
 5061SOL     OW16081   4.423   2.680   1.636
 5061SOL    HW116082   4.345   2.706   1.578
 5061SOL    HW216083   4.461   2.594   1.603
 5062SOL     OW16084   5.790   0.765   3.088
 5062SOL    HW116085   5.818   0.673   3.059
 5062SOL    HW216086   5.771   0.820   3.007
 5063SOL     OW16087   1.069   6.816   1.786
 5063SOL    HW116088   1.068   6.889   1.854
 5063SOL    HW216089   1.064   6.727   1.832
 5064SOL     OW16090   4.876   3.925   1.353
 5064SOL    HW116091   4.906   3.970   1.437
 5064SOL    HW216092   4.949   3.864   1.321
 5065SOL     OW16093   2.118   0.578   3.490
 5065SOL    HW116094   2.199   0.607   3.440
 5065SOL    HW216095   2.057   0.528   3.428
 5066SOL     OW16096   4.848   5.025   2.043
 5066SOL    HW116097   4.751   5.000   2.054
 5066SOL    HW216098   4.865   5.110   2.091
 5067SOL     OW16099   4.947   0.882   1.508
 5067SOL    HW116100   5.022   0.939   1.542
 5067SOL    HW216101   4.874   0.880   1.575
 5068SOL     OW16102   3.631   4.555   0.710
 5068SOL    HW116103   3.662   4.467   0.672
 5068SOL    HW216104   3.707   4.620   0.709
 5069SOL     OW16105   1.961   3.678   5.490
 5069SOL    HW116106   1.892   3.748   5.470
 5069SOL    HW216107   1.922   3.588   5.473
 5070SOL     OW16108   4.735   4.216   3.919
 5070SOL    HW116109   4.701   4.151   3.987
 5070SOL    HW216110   4.742   4.307   3.959
 5071SOL     OW16111   4.186   2.232   3.444
 5071SOL    HW116112   4.207   2.298   3.517
 5071SOL    HW216113   4.124   2.162   3.480
 5072SOL     OW16114   0.971   0.341   1.337
 5072SOL    HW116115   0.964   0.301   1.246
 5072SOL    HW216116   0.890   0.397   1.355
 5073SOL     OW16117   0.064   5.610   2.058
 5073SOL    HW116118   0.159   5.582   2.043
 5073SOL    HW216119   0.059   5.671   2.136
 5074SOL     OW16120   3.449   2.753   1.376
 5074SOL    HW116121   3.540   2.745   1.416
 5074SOL    HW216122   3.399   2.667   1.390
 5075SOL     OW16123   1.140   2.052   0.082
 5075SOL    HW116124   1.144   2.142   0.126
 5075SOL    HW216125   1.078   1.993   0.133
 5076SOL     OW16126   3.836   1.277   0.786
 5076SOL    HW116127   3.806   1.193   0.740
 5076SOL    HW216128   3.812   1.356   0.729
 5077SOL     OW16129   1.192   4.411   5.500
 5077SOL    HW116130   1.288   4.397   5.523
 5077SOL    HW216131   1.181   4.408   5.400
 5078SOL     OW16132   2.122   1.130   3.602
 5078SOL    HW116133   2.158   1.037   3.604
 5078SOL    HW216134   2.188   1.193   3.642
 5079SOL     OW16135   2.354   3.225   6.141
 5079SOL    HW116136   2.310   3.159   6.079
 5079SOL    HW216137   2.413   3.176   6.205
 5080SOL     OW16138   6.058   6.411   6.136
 5080SOL    HW116139   6.081   6.396   6.232
 5080SOL    HW216140   6.130   6.374   6.078
 5081SOL     OW16141   3.339   3.030   4.088
 5081SOL    HW116142   3.254   3.002   4.133
 5081SOL    HW216143   3.417   2.987   4.133
 5082SOL     OW16144   4.491   5.789   6.821
 5082SOL    HW116145   4.567   5.822   6.764
 5082SOL    HW216146   4.444   5.715   6.773
 5083SOL     OW16147   2.303   6.981   2.912
 5083SOL    HW116148   2.377   6.935   2.960
 5083SOL    HW216149   2.216   6.938   2.935
 5084SOL     OW16150   0.446   4.923   4.686
 5084SOL    HW116151   0.449   4.882   4.777
 5084SOL    HW216152   0.357   4.906   4.645
 5085SOL     OW16153   4.987   3.470   6.741
 5085SOL    HW116154   4.892   3.461   6.770
 5085SOL    HW216155   4.995   3.442   6.645
 5086SOL     OW16156   0.298   5.055   3.386
 5086SOL    HW116157   0.301   5.054   3.486
 5086SOL    HW216158   0.217   5.107   3.357
 5087SOL     OW16159   1.093   4.805   1.789
 5087SOL    HW116160   1.107   4.706   1.794
 5087SOL    HW216161   0.996   4.826   1.798
 5088SOL     OW16162   6.487   1.282   5.409
 5088SOL    HW116163   6.479   1.380   5.393
 5088SOL    HW216164   6.545   1.241   5.338
 5089SOL     OW16165   5.083   3.773   4.223
 5089SOL    HW116166   5.040   3.693   4.181
 5089SOL    HW216167   5.152   3.743   4.288
 5090SOL     OW16168   2.004   3.759   3.226
 5090SOL    HW116169   1.919   3.736   3.180
 5090SOL    HW216170   2.071   3.792   3.160
 5091SOL     OW16171   0.547   0.099   2.185
 5091SOL    HW116172   0.544   0.120   2.087
 5091SOL    HW216173   0.582   0.006   2.197
 5092SOL     OW16174   3.858   2.952   1.580
 5092SOL    HW116175   3.876   2.884   1.651
 5092SOL    HW216176   3.909   3.036   1.601
 5093SOL     OW16177   2.830   1.307   1.578
 5093SOL    HW116178   2.866   1.391   1.537
 5093SOL    HW216179   2.802   1.244   1.505
 5094SOL     OW16180   2.205   6.051   5.501
 5094SOL    HW116181   2.229   6.037   5.405
 5094SOL    HW216182   2.116   6.098   5.506
 5095SOL     OW16183   6.520   2.433   4.995
 5095SOL    HW116184   6.449   2.472   4.936
 5095SOL    HW216185   6.526   2.334   4.978
 5096SOL     OW16186   4.414   4.117   0.802
 5096SOL    HW116187   4.512   4.132   0.805
 5096SOL    HW216188   4.383   4.117   0.707
 5097SOL     OW16189   1.347   0.374   6.822
 5097SOL    HW116190   1.360   0.300   6.757
 5097SOL    HW216191   1.418   0.444   6.808
 5098SOL     OW16192   1.457   0.709   1.773
 5098SOL    HW116193   1.487   0.636   1.834
 5098SOL    HW216194   1.505   0.794   1.796
 5099SOL     OW16195   0.423   6.383   6.787
 5099SOL    HW116196   0.374   6.298   6.768
 5099SOL    HW216197   0.520   6.363   6.802
 5100SOL     OW16198   3.922   5.490   5.536
 5100SOL    HW116199   3.844   5.435   5.507
 5100SOL    HW216200   3.990   5.492   5.463
 5101SOL     OW16201   4.734   6.757   0.381
 5101SOL    HW116202   4.669   6.827   0.353
 5101SOL    HW216203   4.783   6.787   0.463
 5102SOL     OW16204   5.742   0.556   4.475
 5102SOL    HW116205   5.718   0.616   4.552
 5102SOL    HW216206   5.705   0.595   4.391
 5103SOL     OW16207   0.425   1.346   4.515
 5103SOL    HW116208   0.401   1.383   4.425
 5103SOL    HW216209   0.524   1.342   4.524
 5104SOL     OW16210   1.750   6.814   2.926
 5104SOL    HW116211   1.710   6.723   2.932
 5104SOL    HW216212   1.701   6.876   2.988
 5105SOL     OW16213   3.280   2.741   0.104
 5105SOL    HW116214   3.324   2.791   0.029
 5105SOL    HW216215   3.188   2.714   0.077
 5106SOL     OW16216   3.282   0.898   0.496
 5106SOL    HW116217   3.335   0.912   0.412
 5106SOL    HW216218   3.219   0.822   0.483
 5107SOL     OW16219   3.765   0.411   0.442
 5107SOL    HW116220   3.721   0.429   0.530
 5107SOL    HW216221   3.774   0.497   0.391
 5108SOL     OW16222   2.973   3.847   4.565
 5108SOL    HW116223   3.057   3.885   4.526
 5108SOL    HW216224   2.937   3.777   4.504
 5109SOL     OW16225   1.293   0.771   0.781
 5109SOL    HW116226   1.299   0.829   0.862
 5109SOL    HW216227   1.257   0.826   0.705
 5110SOL     OW16228   0.639   0.489   6.342
 5110SOL    HW116229   0.705   0.535   6.402
 5110SOL    HW216230   0.608   0.405   6.387
 5111SOL     OW16231   2.460   1.446   5.036
 5111SOL    HW116232   2.495   1.523   4.982
 5111SOL    HW216233   2.526   1.421   5.106
 5112SOL     OW16234   0.581   6.684   2.537
 5112SOL    HW116235   0.531   6.640   2.611
 5112SOL    HW216236   0.638   6.757   2.575
 5113SOL     OW16237   2.311   6.965   1.924
 5113SOL    HW116238   2.286   0.017   1.855
 5113SOL    HW216239   2.410   6.964   1.936
 5114SOL     OW16240   3.124   2.200   0.623
 5114SOL    HW116241   3.155   2.108   0.598
 5114SOL    HW216242   3.040   2.193   0.676
 5115SOL     OW16243   1.979   5.187   4.500
 5115SOL    HW116244   2.064   5.222   4.539
 5115SOL    HW216245   1.950   5.246   4.425
 5116SOL     OW16246   5.655   6.740   6.661
 5116SOL    HW116247   5.660   6.644   6.631
 5116SOL    HW216248   5.744   6.783   6.650
 5117SOL     OW16249   2.662   4.767   4.778
 5117SOL    HW116250   2.583   4.715   4.745
 5117SOL    HW216251   2.725   4.705   4.825
 5118SOL     OW16252   4.808   0.498   0.457
 5118SOL    HW116253   4.865   0.543   0.526
 5118SOL    HW216254   4.714   0.530   0.466
 5119SOL     OW16255   5.557   0.618   1.669
 5119SOL    HW116256   5.492   0.614   1.593
 5119SOL    HW216257   5.507   0.638   1.754
 5120SOL     OW16258   4.044   1.261   4.064
 5120SOL    HW116259   4.120   1.297   4.010
 5120SOL    HW216260   3.957   1.287   4.021
 5121SOL     OW16261   2.401   2.344   0.657
 5121SOL    HW116262   2.415   2.249   0.629
 5121SOL    HW216263   2.358   2.395   0.582
 5122SOL     OW16264   2.934   0.008   3.482
 5122SOL    HW116265   2.837   7.007   3.495
 5122SOL    HW216266   2.983   6.936   3.484
 5123SOL     OW16267   5.848   1.990   5.134
 5123SOL    HW116268   5.804   1.964   5.048
 5123SOL    HW216269   5.932   1.938   5.147
 5124SOL     OW16270   2.882   5.322   5.113
 5124SOL    HW116271   2.916   5.231   5.091
 5124SOL    HW216272   2.785   5.317   5.135
 5125SOL     OW16273   6.019   2.699   4.215
 5125SOL    HW116274   6.048   2.604   4.209
 5125SOL    HW216275   5.920   2.704   4.228
 5126SOL     OW16276   6.191   5.254   5.915
 5126SOL    HW116277   6.227   5.169   5.877
 5126SOL    HW216278   6.110   5.234   5.970
 5127SOL     OW16279   0.046   4.001   0.357
 5127SOL    HW116280   0.086   3.956   0.437
 5127SOL    HW216281   0.073   3.953   0.274
 5128SOL     OW16282   0.355   0.317   6.463
 5128SOL    HW116283   0.296   0.237   6.454
 5128SOL    HW216284   0.300   0.400   6.470
 5129SOL     OW16285   4.804   6.997   3.121
 5129SOL    HW116286   4.740   6.979   3.046
 5129SOL    HW216287   4.898   6.986   3.088
 5130SOL     OW16288   1.348   5.724   4.306
 5130SOL    HW116289   1.360   5.806   4.362
 5130SOL    HW216290   1.272   5.670   4.343
 5131SOL     OW16291   2.975   4.805   3.655
 5131SOL    HW116292   2.918   4.750   3.717
 5131SOL    HW216293   3.039   4.860   3.708
 5132SOL     OW16294   3.537   1.393   6.189
 5132SOL    HW116295   3.444   1.383   6.224
 5132SOL    HW216296   3.543   1.474   6.131
 5133SOL     OW16297   2.459   5.393   6.411
 5133SOL    HW116298   2.551   5.427   6.396
 5133SOL    HW216299   2.392   5.456   6.370
 5134SOL     OW16300   6.585   0.781   2.142
 5134SOL    HW116301   6.660   0.735   2.190
 5134SOL    HW216302   6.548   0.854   2.200
 5135SOL     OW16303   5.170   3.483   3.863
 5135SOL    HW116304   5.163   3.573   3.820
 5135SOL    HW216305   5.235   3.486   3.939
 5136SOL     OW16306   5.300   0.427   6.499
 5136SOL    HW116307   5.310   0.523   6.523
 5136SOL    HW216308   5.288   0.373   6.582
 5137SOL     OW16309   5.169   3.445   4.798
 5137SOL    HW116310   5.174   3.478   4.892
 5137SOL    HW216311   5.253   3.468   4.750
 5138SOL     OW16312   3.273   4.179   4.770
 5138SOL    HW116313   3.290   4.274   4.797
 5138SOL    HW216314   3.200   4.141   4.826
 5139SOL     OW16315   0.719   0.090   4.460
 5139SOL    HW116316   0.646   0.158   4.465
 5139SOL    HW216317   0.693   0.009   4.512
 5140SOL     OW16318   4.075   1.635   5.465
 5140SOL    HW116319   3.976   1.628   5.482
 5140SOL    HW216320   4.114   1.702   5.527
 5141SOL     OW16321   6.523   3.576   1.324
 5141SOL    HW116322   6.475   3.550   1.408
 5141SOL    HW216323   6.565   3.666   1.337
 5142SOL     OW16324   5.468   6.648   4.516
 5142SOL    HW116325   5.431   6.741   4.503
 5142SOL    HW216326   5.465   6.599   4.428
 5143SOL     OW16327   0.633   4.268   4.601
 5143SOL    HW116328   0.549   4.319   4.615
 5143SOL    HW216329   0.704   4.329   4.565
 5144SOL     OW16330   1.688   4.802   5.850
 5144SOL    HW116331   1.666   4.754   5.765
 5144SOL    HW216332   1.663   4.744   5.928
 5145SOL     OW16333   3.671   6.046   5.901
 5145SOL    HW116334   3.699   6.140   5.882
 5145SOL    HW216335   3.672   6.030   5.999
 5146SOL     OW16336   3.357   3.782   5.296
 5146SOL    HW116337   3.355   3.868   5.244
 5146SOL    HW216338   3.452   3.751   5.305
 5147SOL     OW16339   6.207   5.471   3.953
 5147SOL    HW116340   6.304   5.490   3.940
 5147SOL    HW216341   6.154   5.519   3.883
 5148SOL     OW16342   0.141   1.061   2.313
 5148SOL    HW116343   0.129   1.110   2.400
 5148SOL    HW216344   0.057   1.067   2.260
 5149SOL     OW16345   5.745   5.885   4.982
 5149SOL    HW116346   5.822   5.910   4.924
 5149SOL    HW216347   5.710   5.796   4.954
 5150SOL     OW16348   2.055   4.613   4.116
 5150SOL    HW116349   1.985   4.679   4.143
 5150SOL    HW216350   2.106   4.584   4.197
 5151SOL     OW16351   0.022   4.399   2.085
 5151SOL    HW116352   6.974   4.415   2.009
 5151SOL    HW216353   0.097   4.342   2.053
 5152SOL     OW16354   2.193   5.517   6.889
 5152SOL    HW116355   2.286   5.552   6.894
 5152SOL    HW216356   2.171   5.466   6.972
 5153SOL     OW16357   0.371   2.098   0.991
 5153SOL    HW116358   0.328   2.135   1.074
 5153SOL    HW216359   0.358   2.162   0.915
 5154SOL     OW16360   1.077   2.847   5.772
 5154SOL    HW116361   1.175   2.862   5.757
 5154SOL    HW216362   1.038   2.801   5.693
 5155SOL     OW16363   4.101   0.204   2.107
 5155SOL    HW116364   4.100   0.104   2.112
 5155SOL    HW216365   4.162   0.240   2.178
 5156SOL     OW16366   5.629   4.619   5.268
 5156SOL    HW116367   5.613   4.627   5.367
 5156SOL    HW216368   5.725   4.637   5.248
 5157SOL     OW16369   3.074   1.900   2.736
 5157SOL    HW116370   3.124   1.986   2.724
 5157SOL    HW216371   2.995   1.898   2.675
 5158SOL     OW16372   4.137   2.372   0.883
 5158SOL    HW116373   4.142   2.377   0.783
 5158SOL    HW216374   4.158   2.462   0.922
 5159SOL     OW16375   5.970   3.312   5.520
 5159SOL    HW116376   5.917   3.238   5.560
 5159SOL    HW216377   6.035   3.347   5.588
 5160SOL     OW16378   6.823   4.750   3.218
 5160SOL    HW116379   6.839   4.741   3.120
 5160SOL    HW216380   6.911   4.747   3.267
 5161SOL     OW16381   1.748   3.764   0.394
 5161SOL    HW116382   1.650   3.779   0.380
 5161SOL    HW216383   1.800   3.821   0.330
 5162SOL     OW16384   1.116   5.504   2.590
 5162SOL    HW116385   1.130   5.519   2.492
 5162SOL    HW216386   1.119   5.591   2.639
 5163SOL     OW16387   3.313   6.364   0.468
 5163SOL    HW116388   3.287   6.406   0.555
 5163SOL    HW216389   3.314   6.264   0.478
 5164SOL     OW16390   3.245   2.979   0.295
 5164SOL    HW116391   3.231   3.050   0.226
 5164SOL    HW216392   3.267   2.892   0.250
 5165SOL     OW16393   0.610   4.068   5.984
 5165SOL    HW116394   0.663   4.150   6.001
 5165SOL    HW216395   0.521   4.093   5.945
 5166SOL     OW16396   2.681   5.106   2.547
 5166SOL    HW116397   2.613   5.180   2.536
 5166SOL    HW216398   2.768   5.136   2.509
 5167SOL     OW16399   6.285   4.204   5.438
 5167SOL    HW116400   6.268   4.142   5.361
 5167SOL    HW216401   6.257   4.297   5.412
 5168SOL     OW16402   5.323   3.259   2.946
 5168SOL    HW116403   5.299   3.284   2.852
 5168SOL    HW216404   5.327   3.159   2.954
 5169SOL     OW16405   3.831   2.108   3.414
 5169SOL    HW116406   3.803   2.139   3.323
 5169SOL    HW216407   3.903   2.040   3.405
 5170SOL     OW16408   1.483   3.580   4.971
 5170SOL    HW116409   1.551   3.603   5.040
 5170SOL    HW216410   1.420   3.656   4.959
 5171SOL     OW16411   6.975   4.052   6.101
 5171SOL    HW116412   0.006   4.081   6.184
 5171SOL    HW216413   6.999   4.114   6.026
 5172SOL     OW16414   1.803   3.667   3.055
 5172SOL    HW116415   1.760   3.636   2.971
 5172SOL    HW216416   1.755   3.627   3.134
 5173SOL     OW16417   4.210   5.593   5.156
 5173SOL    HW116418   4.275   5.558   5.089
 5173SOL    HW216419   4.240   5.569   5.249
 5174SOL     OW16420   2.442   4.908   3.529
 5174SOL    HW116421   2.344   4.907   3.512
 5174SOL    HW216422   2.486   4.976   3.470
 5175SOL     OW16423   2.606   3.612   6.555
 5175SOL    HW116424   2.568   3.684   6.496
 5175SOL    HW216425   2.660   3.655   6.628
 5176SOL     OW16426   5.213   4.585   6.511
 5176SOL    HW116427   5.192   4.490   6.486
 5176SOL    HW216428   5.177   4.605   6.602
 5177SOL     OW16429   5.330   6.857   0.728
 5177SOL    HW116430   5.281   6.857   0.815
 5177SOL    HW216431   5.266   6.842   0.653
 5178SOL     OW16432   1.576   4.388   1.889
 5178SOL    HW116433   1.494   4.402   1.945
 5178SOL    HW216434   1.616   4.477   1.866
 5179SOL     OW16435   4.779   4.486   4.024
 5179SOL    HW116436   4.726   4.479   4.109
 5179SOL    HW216437   4.771   4.578   3.986
 5180SOL     OW16438   3.803   1.477   1.632
 5180SOL    HW116439   3.870   1.413   1.596
 5180SOL    HW216440   3.750   1.516   1.556
 5181SOL     OW16441   5.959   0.514   2.042
 5181SOL    HW116442   5.899   0.543   2.117
 5181SOL    HW216443   5.945   0.416   2.024
 5182SOL     OW16444   4.550   4.534   2.314
 5182SOL    HW116445   4.574   4.537   2.216
 5182SOL    HW216446   4.454   4.559   2.325
 5183SOL     OW16447   3.452   1.808   2.978
 5183SOL    HW116448   3.502   1.733   3.021
 5183SOL    HW216449   3.443   1.884   3.044
 5184SOL     OW16450   1.886   2.600   3.741
 5184SOL    HW116451   1.796   2.635   3.767
 5184SOL    HW216452   1.880   2.553   3.653
 5185SOL     OW16453   4.868   0.946   2.893
 5185SOL    HW116454   4.912   0.963   2.805
 5185SOL    HW216455   4.771   0.969   2.887
 5186SOL     OW16456   5.888   1.907   6.109
 5186SOL    HW116457   5.805   1.959   6.132
 5186SOL    HW216458   5.960   1.971   6.082
 5187SOL     OW16459   1.264   5.746   5.288
 5187SOL    HW116460   1.330   5.758   5.214
 5187SOL    HW216461   1.215   5.831   5.303
 5188SOL     OW16462   6.552   6.113   1.644
 5188SOL    HW116463   6.582   6.169   1.568
 5188SOL    HW216464   6.526   6.171   1.721
 5189SOL     OW16465   4.596   6.178   0.146
 5189SOL    HW116466   4.511   6.225   0.123
 5189SOL    HW216467   4.589   6.081   0.122
 5190SOL     OW16468   0.721   3.399   3.962
 5190SOL    HW116469   0.673   3.423   3.878
 5190SOL    HW216470   0.659   3.408   4.040
 5191SOL     OW16471   3.156   6.277   2.247
 5191SOL    HW116472   3.169   6.373   2.222
 5191SOL    HW216473   3.244   6.230   2.247
 5192SOL     OW16474   1.677   5.955   1.403
 5192SOL    HW116475   1.730   6.024   1.452
 5192SOL    HW216476   1.638   5.890   1.470
 5193SOL     OW16477   5.324   5.904   5.675
 5193SOL    HW116478   5.236   5.949   5.660
 5193SOL    HW216479   5.320   5.810   5.641
 5194SOL     OW16480   3.300   2.715   6.773
 5194SOL    HW116481   3.214   2.675   6.805
 5194SOL    HW216482   3.327   2.673   6.687
 5195SOL     OW16483   0.487   0.643   3.761
 5195SOL    HW116484   0.524   0.570   3.819
 5195SOL    HW216485   0.561   0.703   3.732
 5196SOL     OW16486   5.420   6.898   2.160
 5196SOL    HW116487   5.355   6.825   2.142
 5196SOL    HW216488   5.480   6.909   2.081
 5197SOL     OW16489   2.466   3.816   6.437
 5197SOL    HW116490   2.446   3.844   6.343
 5197SOL    HW216491   2.408   3.867   6.500
 5198SOL     OW16492   4.660   5.640   2.840
 5198SOL    HW116493   4.704   5.596   2.761
 5198SOL    HW216494   4.648   5.737   2.821
 5199SOL     OW16495   1.306   5.872   0.591
 5199SOL    HW116496   1.299   5.774   0.575
 5199SOL    HW216497   1.269   5.894   0.681
 5200SOL     OW16498   6.791   3.872   4.712
 5200SOL    HW116499   6.701   3.882   4.670
 5200SOL    HW216500   6.808   3.949   4.773
 5201SOL     OW16501   0.823   6.580   2.924
 5201SOL    HW116502   0.905   6.575   2.867
 5201SOL    HW216503   0.848   6.569   3.020
 5202SOL     OW16504   5.087   2.801   6.194
 5202SOL    HW116505   5.055   2.726   6.137
 5202SOL    HW216506   5.187   2.800   6.196
 5203SOL     OW16507   2.470   2.078   6.112
 5203SOL    HW116508   2.549   2.071   6.052
 5203SOL    HW216509   2.468   2.168   6.154
 5204SOL     OW16510   3.854   4.892   6.882
 5204SOL    HW116511   3.894   4.943   6.959
 5204SOL    HW216512   3.901   4.805   6.872
 5205SOL     OW16513   0.703   6.423   0.318
 5205SOL    HW116514   0.789   6.396   0.362
 5205SOL    HW216515   0.690   6.370   0.234
 5206SOL     OW16516   7.009   4.481   5.099
 5206SOL    HW116517   0.052   4.523   5.030
 5206SOL    HW216518   6.989   4.548   5.171
 5207SOL     OW16519   1.163   5.949   3.598
 5207SOL    HW116520   1.125   6.037   3.628
 5207SOL    HW216521   1.198   5.899   3.677
 5208SOL     OW16522   3.414   2.304   6.649
 5208SOL    HW116523   3.441   2.269   6.738
 5208SOL    HW216524   3.469   2.260   6.578
 5209SOL     OW16525   5.841   6.186   3.396
 5209SOL    HW116526   5.752   6.141   3.390
 5209SOL    HW216527   5.913   6.122   3.370
 5210SOL     OW16528   5.569   2.412   5.529
 5210SOL    HW116529   5.665   2.384   5.517
 5210SOL    HW216530   5.547   2.485   5.464
 5211SOL     OW16531   3.411   2.865   4.539
 5211SOL    HW116532   3.421   2.768   4.558
 5211SOL    HW216533   3.398   2.915   4.625
 5212SOL     OW16534   6.053   1.533   0.470
 5212SOL    HW116535   6.140   1.532   0.520
 5212SOL    HW216536   6.033   1.442   0.436
 5213SOL     OW16537   4.484   3.851   6.634
 5213SOL    HW116538   4.553   3.805   6.691
 5213SOL    HW216539   4.393   3.834   6.671
 5214SOL     OW16540   4.994   1.498   5.844
 5214SOL    HW116541   5.088   1.518   5.871
 5214SOL    HW216542   4.945   1.458   5.922
 5215SOL     OW16543   5.758   4.984   3.193
 5215SOL    HW116544   5.821   5.054   3.227
 5215SOL    HW216545   5.664   5.014   3.211
 5216SOL     OW16546   4.119   5.617   1.923
 5216SOL    HW116547   4.098   5.703   1.875
 5216SOL    HW216548   4.091   5.540   1.866
 5217SOL     OW16549   3.460   5.177   4.173
 5217SOL    HW116550   3.480   5.275   4.165
 5217SOL    HW216551   3.369   5.165   4.211
 5218SOL     OW16552   1.035   1.055   3.344
 5218SOL    HW116553   1.111   0.992   3.358
 5218SOL    HW216554   1.056   1.118   3.269
 5219SOL     OW16555   4.329   0.604   5.807
 5219SOL    HW116556   4.271   0.577   5.731
 5219SOL    HW216557   4.306   0.551   5.889
 5220SOL     OW16558   1.330   6.005   2.604
 5220SOL    HW116559   1.421   6.040   2.585
 5220SOL    HW216560   1.263   6.078   2.592
 5221SOL     OW16561   5.477   2.018   3.705
 5221SOL    HW116562   5.510   2.101   3.659
 5221SOL    HW216563   5.387   2.035   3.745
 5222SOL     OW16564   3.361   6.024   3.706
 5222SOL    HW116565   3.379   6.072   3.620
 5222SOL    HW216566   3.295   6.077   3.760
 5223SOL     OW16567   5.404   1.375   0.668
 5223SOL    HW116568   5.415   1.410   0.575
 5223SOL    HW216569   5.361   1.444   0.725
 5224SOL     OW16570   6.919   2.535   4.359
 5224SOL    HW116571   7.014   2.535   4.327
 5224SOL    HW216572   6.880   2.444   4.348
 5225SOL     OW16573   0.517   0.202   3.119
 5225SOL    HW116574   0.448   0.236   3.183
 5225SOL    HW216575   0.503   0.245   3.029
 5226SOL     OW16576   0.102   5.632   4.866
 5226SOL    HW116577   0.060   5.701   4.925
 5226SOL    HW216578   0.136   5.557   4.923
 5227SOL     OW16579   1.435   4.555   4.085
 5227SOL    HW116580   1.451   4.492   4.010
 5227SOL    HW216581   1.362   4.619   4.060
 5228SOL     OW16582   6.536   2.033   1.210
 5228SOL    HW116583   6.501   2.084   1.131
 5228SOL    HW216584   6.500   2.072   1.294
 5229SOL     OW16585   2.043   4.801   0.013
 5229SOL    HW116586   2.119   4.861   7.005
 5229SOL    HW216587   2.046   4.718   6.973
 5230SOL     OW16588   0.631   6.111   0.796
 5230SOL    HW116589   0.538   6.104   0.831
 5230SOL    HW216590   0.675   6.193   0.833
 5231SOL     OW16591   4.036   3.407   4.845
 5231SOL    HW116592   4.053   3.384   4.749
 5231SOL    HW216593   4.120   3.442   4.887
 5232SOL     OW16594   3.191   1.794   5.711
 5232SOL    HW116595   3.162   1.769   5.619
 5232SOL    HW216596   3.210   1.892   5.714
 5233SOL     OW16597   5.961   0.203   1.818
 5233SOL    HW116598   6.020   0.147   1.876
 5233SOL    HW216599   5.886   0.240   1.874
 5234SOL     OW16600   2.308   0.661   0.107
 5234SOL    HW116601   2.339   0.755   0.119
 5234SOL    HW216602   2.323   0.633   0.012
 5235SOL     OW16603   1.729   2.944   1.227
 5235SOL    HW116604   1.656   3.006   1.200
 5235SOL    HW216605   1.818   2.988   1.211
 5236SOL     OW16606   5.976   3.873   2.267
 5236SOL    HW116607   5.989   3.963   2.310
 5236SOL    HW216608   6.062   3.821   2.275
 5237SOL     OW16609   2.339   0.553   5.188
 5237SOL    HW116610   2.273   0.479   5.181
 5237SOL    HW216611   2.391   0.544   5.273
 5238SOL     OW16612   1.274   4.832   0.475
 5238SOL    HW116613   1.353   4.891   0.456
 5238SOL    HW216614   1.255   4.833   0.573
 5239SOL     OW16615   4.129   3.615   4.280
 5239SOL    HW116616   4.127   3.698   4.223
 5239SOL    HW216617   4.140   3.641   4.376
 5240SOL     OW16618   3.177   1.860   6.297
 5240SOL    HW116619   3.086   1.859   6.338
 5240SOL    HW216620   3.180   1.929   6.225
 5241SOL     OW16621   0.451   5.115   5.663
 5241SOL    HW116622   0.498   5.193   5.624
 5241SOL    HW216623   0.384   5.080   5.597
 5242SOL     OW16624   6.837   6.479   5.652
 5242SOL    HW116625   6.921   6.488   5.704
 5242SOL    HW216626   6.802   6.569   5.628
 5243SOL     OW16627   1.360   5.767   1.880
 5243SOL    HW116628   1.448   5.807   1.853
 5243SOL    HW216629   1.365   5.737   1.975
 5244SOL     OW16630   3.206   3.924   5.937
 5244SOL    HW116631   3.171   4.018   5.944
 5244SOL    HW216632   3.279   3.920   5.869
 5245SOL     OW16633   4.772   4.497   0.191
 5245SOL    HW116634   4.869   4.515   0.203
 5245SOL    HW216635   4.735   4.455   0.274
 5246SOL     OW16636   5.712   4.536   2.328
 5246SOL    HW116637   5.628   4.492   2.297
 5246SOL    HW216638   5.756   4.478   2.396
 5247SOL     OW16639   1.015   6.497   0.365
 5247SOL    HW116640   1.093   6.537   0.414
 5247SOL    HW216641   0.989   6.411   0.408
 5248SOL     OW16642   6.033   0.353   4.561
 5248SOL    HW116643   6.101   0.288   4.594
 5248SOL    HW216644   6.048   0.371   4.463
 5249SOL     OW16645   0.328   4.803   4.966
 5249SOL    HW116646   0.268   4.728   4.939
 5249SOL    HW216647   0.359   4.790   5.060
 5250SOL     OW16648   1.209   1.085   5.151
 5250SOL    HW116649   1.124   1.107   5.199
 5250SOL    HW216650   1.221   0.986   5.146
 5251SOL     OW16651   0.352   3.710   0.518
 5251SOL    HW116652   0.279   3.777   0.528
 5251SOL    HW216653   0.314   3.618   0.526
 5252SOL     OW16654   2.449   5.571   1.173
 5252SOL    HW116655   2.497   5.658   1.157
 5252SOL    HW216656   2.447   5.552   1.272
 5253SOL     OW16657   5.694   3.717   4.631
 5253SOL    HW116658   5.598   3.729   4.655
 5253SOL    HW216659   5.751   3.761   4.700
 5254SOL     OW16660   4.955   0.708   2.900
 5254SOL    HW116661   4.959   0.808   2.894
 5254SOL    HW216662   4.909   0.682   2.984
 5255SOL     OW16663   4.524   0.158   6.122
 5255SOL    HW116664   4.462   0.195   6.191
 5255SOL    HW216665   4.572   0.233   6.076
 5256SOL     OW16666   4.374   0.690   3.489
 5256SOL    HW116667   4.401   0.628   3.415
 5256SOL    HW216668   4.455   0.735   3.526
 5257SOL     OW16669   4.782   6.963   2.495
 5257SOL    HW116670   4.757   0.027   2.550
 5257SOL    HW216671   4.837   6.991   2.417
 5258SOL     OW16672   5.011   3.187   1.377
 5258SOL    HW116673   5.015   3.093   1.343
 5258SOL    HW216674   5.007   3.186   1.476
 5259SOL     OW16675   4.462   6.064   1.184
 5259SOL    HW116676   4.386   6.093   1.242
 5259SOL    HW216677   4.457   6.112   1.096
 5260SOL     OW16678   5.544   3.563   1.016
 5260SOL    HW116679   5.552   3.590   0.920
 5260SOL    HW216680   5.599   3.482   1.033
 5261SOL     OW16681   1.598   3.120   6.878
 5261SOL    HW116682   1.530   3.109   6.805
 5261SOL    HW216683   1.608   3.034   6.927
 5262SOL     OW16684   2.560   0.445   2.862
 5262SOL    HW116685   2.653   0.413   2.879
 5262SOL    HW216686   2.548   0.462   2.764
 5263SOL     OW16687   1.370   1.082   5.374
 5263SOL    HW116688   1.314   1.102   5.454
 5263SOL    HW216689   1.311   1.075   5.293
 5264SOL     OW16690   6.122   1.059   2.734
 5264SOL    HW116691   6.081   1.039   2.645
 5264SOL    HW216692   6.171   0.978   2.767
 5265SOL     OW16693   5.340   4.541   3.089
 5265SOL    HW116694   5.388   4.531   3.176
 5265SOL    HW216695   5.381   4.480   3.021
 5266SOL     OW16696   2.450   0.611   2.448
 5266SOL    HW116697   2.436   0.557   2.531
 5266SOL    HW216698   2.451   0.552   2.368
 5267SOL     OW16699   4.986   4.589   5.997
 5267SOL    HW116700   4.973   4.679   5.955
 5267SOL    HW216701   4.897   4.546   6.009
 5268SOL     OW16702   6.221   6.662   5.970
 5268SOL    HW116703   6.202   6.707   6.058
 5268SOL    HW216704   6.140   6.611   5.941
 5269SOL     OW16705   2.046   0.283   4.332
 5269SOL    HW116706   2.114   0.210   4.320
 5269SOL    HW216707   2.017   0.286   4.428
 5270SOL     OW16708   5.374   1.654   2.367
 5270SOL    HW116709   5.375   1.554   2.361
 5270SOL    HW216710   5.399   1.682   2.460
 5271SOL     OW16711   5.230   5.050   5.130
 5271SOL    HW116712   5.206   5.021   5.038
 5271SOL    HW216713   5.172   5.127   5.157
 5272SOL     OW16714   1.803   6.284   2.517
 5272SOL    HW116715   1.817   6.280   2.418
 5272SOL    HW216716   1.745   6.362   2.540
 5273SOL     OW16717   6.985   3.112   2.789
 5273SOL    HW116718   6.921   3.046   2.751
 5273SOL    HW216719   6.972   3.119   2.888
 5274SOL     OW16720   6.224   5.533   2.517
 5274SOL    HW116721   6.289   5.460   2.494
 5274SOL    HW216722   6.162   5.548   2.441
 5275SOL     OW16723   3.472   2.162   6.389
 5275SOL    HW116724   3.457   2.064   6.401
 5275SOL    HW216725   3.565   2.178   6.358
 5276SOL     OW16726   1.146   0.936   1.206
 5276SOL    HW116727   1.173   0.863   1.268
 5276SOL    HW216728   1.153   1.024   1.253
 5277SOL     OW16729   1.770   2.475   3.018
 5277SOL    HW116730   1.755   2.451   3.114
 5277SOL    HW216731   1.848   2.537   3.011
 5278SOL     OW16732   5.092   0.167   4.133
 5278SOL    HW116733   5.167   0.127   4.081
 5278SOL    HW216734   5.125   0.250   4.179
 5279SOL     OW16735   1.915   5.338   6.712
 5279SOL    HW116736   1.845   5.317   6.780
 5279SOL    HW216737   1.976   5.260   6.701
 5280SOL     OW16738   2.907   6.285   5.656
 5280SOL    HW116739   2.808   6.288   5.668
 5280SOL    HW216740   2.930   6.317   5.564
 5281SOL     OW16741   0.752   1.767   3.337
 5281SOL    HW116742   0.824   1.794   3.274
 5281SOL    HW216743   0.766   1.810   3.426
 5282SOL     OW16744   1.991   1.499   3.150
 5282SOL    HW116745   2.076   1.455   3.179
 5282SOL    HW216746   2.008   1.596   3.135
 5283SOL     OW16747   2.968   0.106   2.192
 5283SOL    HW116748   3.040   0.065   2.135
 5283SOL    HW216749   3.007   0.179   2.247
 5284SOL     OW16750   4.998   2.836   2.857
 5284SOL    HW116751   4.906   2.813   2.827
 5284SOL    HW216752   5.064   2.808   2.788
 5285SOL     OW16753   1.279   4.217   4.420
 5285SOL    HW116754   1.333   4.226   4.504
 5285SOL    HW216755   1.272   4.120   4.396
 5286SOL     OW16756   0.179   4.197   1.539
 5286SOL    HW116757   0.103   4.153   1.492
 5286SOL    HW216758   0.208   4.139   1.616
 5287SOL     OW16759   1.447   5.810   1.562
 5287SOL    HW116760   1.513   5.773   1.627
 5287SOL    HW216761   1.392   5.736   1.523
 5288SOL     OW16762   3.970   0.887   2.313
 5288SOL    HW116763   3.927   0.815   2.258
 5288SOL    HW216764   4.067   0.866   2.324
 5289SOL     OW16765   1.503   5.255   6.361
 5289SOL    HW116766   1.529   5.175   6.306
 5289SOL    HW216767   1.407   5.276   6.346
 5290SOL     OW16768   1.447   4.110   5.456
 5290SOL    HW116769   1.538   4.124   5.419
 5290SOL    HW216770   1.419   4.192   5.508
 5291SOL     OW16771   3.054   4.836   5.831
 5291SOL    HW116772   3.019   4.928   5.812
 5291SOL    HW216773   3.006   4.770   5.773
 5292SOL     OW16774   6.481   5.102   6.751
 5292SOL    HW116775   6.438   5.016   6.723
 5292SOL    HW216776   6.580   5.096   6.739
 5293SOL     OW16777   1.106   0.243   4.178
 5293SOL    HW116778   1.100   0.327   4.124
 5293SOL    HW216779   1.196   0.237   4.221
 5294SOL     OW16780   5.766   2.845   4.204
 5294SOL    HW116781   5.703   2.779   4.244
 5294SOL    HW216782   5.768   2.927   4.260
 5295SOL     OW16783   4.049   1.086   2.571
 5295SOL    HW116784   4.093   1.010   2.619
 5295SOL    HW216785   3.975   1.051   2.513
 5296SOL     OW16786   2.665   4.760   6.944
 5296SOL    HW116787   2.684   4.856   6.920
 5296SOL    HW216788   2.612   4.718   6.871
 5297SOL     OW16789   2.808   2.540   0.973
 5297SOL    HW116790   2.766   2.580   1.054
 5297SOL    HW216791   2.737   2.517   0.906
 5298SOL     OW16792   1.287   5.454   0.073
 5298SOL    HW116793   1.288   5.467   6.989
 5298SOL    HW216794   1.358   5.511   0.115
 5299SOL     OW16795   2.178   2.870   0.800
 5299SOL    HW116796   2.191   2.771   0.787
 5299SOL    HW216797   2.263   2.918   0.775
 5300SOL     OW16798   0.789   6.290   0.971
 5300SOL    HW116799   0.773   6.389   0.978
 5300SOL    HW216800   0.802   6.252   1.063
 5301SOL     OW16801   3.529   2.756   6.490
 5301SOL    HW116802   3.504   2.833   6.431
 5301SOL    HW216803   3.446   2.711   6.523
 5302SOL     OW16804   5.698   5.800   3.838
 5302SOL    HW116805   5.599   5.788   3.845
 5302SOL    HW216806   5.719   5.875   3.775
 5303SOL     OW16807   6.518   5.599   3.345
 5303SOL    HW116808   6.435   5.616   3.292
 5303SOL    HW216809   6.578   5.680   3.339
 5304SOL     OW16810   5.176   0.997   6.544
 5304SOL    HW116811   5.082   0.991   6.578
 5304SOL    HW216812   5.184   0.943   6.460
 5305SOL     OW16813   0.902   5.462   2.791
 5305SOL    HW116814   0.812   5.425   2.769
 5305SOL    HW216815   0.962   5.454   2.711
 5306SOL     OW16816   0.718   4.307   4.878
 5306SOL    HW116817   0.662   4.389   4.887
 5306SOL    HW216818   0.758   4.304   4.786
 5307SOL     OW16819   4.395   0.907   0.272
 5307SOL    HW116820   4.470   0.858   0.227
 5307SOL    HW216821   4.310   0.889   0.223
 5308SOL     OW16822   0.849   5.656   3.561
 5308SOL    HW116823   0.805   5.633   3.474
 5308SOL    HW216824   0.797   5.729   3.606
 5309SOL     OW16825   3.848   4.841   1.488
 5309SOL    HW116826   3.820   4.749   1.460
 5309SOL    HW216827   3.829   4.906   1.415
 5310SOL     OW16828   6.183   3.498   2.353
 5310SOL    HW116829   6.133   3.415   2.327
 5310SOL    HW216830   6.167   3.570   2.285
 5311SOL     OW16831   6.251   5.606   0.193
 5311SOL    HW116832   6.337   5.656   0.185
 5311SOL    HW216833   6.194   5.648   0.263
 5312SOL     OW16834   0.484   5.162   2.133
 5312SOL    HW116835   0.451   5.114   2.052
 5312SOL    HW216836   0.584   5.157   2.136
 5313SOL     OW16837   1.692   3.930   6.489
 5313SOL    HW116838   1.654   4.021   6.473
 5313SOL    HW216839   1.697   3.912   6.587
 5314SOL     OW16840   3.342   6.463   0.028
 5314SOL    HW116841   3.355   6.374   0.072
 5314SOL    HW216842   3.380   6.535   0.087
 5315SOL     OW16843   4.802   3.019   1.570
 5315SOL    HW116844   4.794   2.957   1.648
 5315SOL    HW216845   4.860   3.097   1.596
 5316SOL     OW16846   0.617   4.056   4.869
 5316SOL    HW116847   0.697   3.998   4.858
 5316SOL    HW216848   0.645   4.152   4.866
 5317SOL     OW16849   6.923   6.854   5.229
 5317SOL    HW116850   6.981   6.782   5.266
 5317SOL    HW216851   6.897   6.831   5.135
 5318SOL     OW16852   0.193   2.580   6.364
 5318SOL    HW116853   0.121   2.599   6.296
 5318SOL    HW216854   0.278   2.557   6.317
 5319SOL     OW16855   3.885   6.921   6.897
 5319SOL    HW116856   3.916   6.978   6.973
 5319SOL    HW216857   3.914   6.963   6.810
 5320SOL     OW16858   5.876   4.985   0.286
 5320SOL    HW116859   5.903   4.920   0.216
 5320SOL    HW216860   5.940   5.062   0.286
 5321SOL     OW16861   0.802   4.086   3.593
 5321SOL    HW116862   0.844   4.100   3.682
 5321SOL    HW216863   0.710   4.126   3.593
 5322SOL     OW16864   4.188   6.226   6.729
 5322SOL    HW116865   4.112   6.166   6.705
 5322SOL    HW216866   4.184   6.309   6.673
 5323SOL     OW16867   3.555   2.277   6.868
 5323SOL    HW116868   3.590   2.285   6.961
 5323SOL    HW216869   3.595   2.349   6.811
 5324SOL     OW16870   4.328   2.109   0.508
 5324SOL    HW116871   4.235   2.144   0.521
 5324SOL    HW216872   4.334   2.016   0.544
 5325SOL     OW16873   4.661   0.630   4.728
 5325SOL    HW116874   4.759   0.632   4.709
 5325SOL    HW216875   4.637   0.711   4.783
 5326SOL     OW16876   0.337   5.282   4.031
 5326SOL    HW116877   0.307   5.194   3.996
 5326SOL    HW216878   0.380   5.334   3.957
 5327SOL     OW16879   5.410   3.138   4.748
 5327SOL    HW116880   5.348   3.090   4.687
 5327SOL    HW216881   5.360   3.166   4.831
 5328SOL     OW16882   4.622   2.573   5.447
 5328SOL    HW116883   4.548   2.635   5.423
 5328SOL    HW216884   4.637   2.576   5.546
 5329SOL     OW16885   6.747   4.745   6.776
 5329SOL    HW116886   6.750   4.739   6.677
 5329SOL    HW216887   6.838   4.728   6.813
 5330SOL     OW16888   3.566   3.965   5.637
 5330SOL    HW116889   3.533   3.906   5.564
 5330SOL    HW216890   3.568   4.060   5.605
 5331SOL     OW16891   5.120   1.191   0.677
 5331SOL    HW116892   5.073   1.107   0.703
 5331SOL    HW216893   5.219   1.179   0.689
 5332SOL     OW16894   0.350   4.211   1.294
 5332SOL    HW116895   0.440   4.193   1.334
 5332SOL    HW216896   0.288   4.243   1.365
 5333SOL     OW16897   1.104   1.204   3.128
 5333SOL    HW116898   1.117   1.293   3.085
 5333SOL    HW216899   1.191   1.155   3.131
 5334SOL     OW16900   3.766   6.791   4.217
 5334SOL    HW116901   3.840   6.792   4.148
 5334SOL    HW216902   3.718   6.878   4.214
 5335SOL     OW16903   6.071   5.553   2.308
 5335SOL    HW116904   6.106   5.584   2.219
 5335SOL    HW216905   6.053   5.455   2.304
 5336SOL     OW16906   2.404   2.035   3.103
 5336SOL    HW116907   2.411   1.968   3.176
 5336SOL    HW216908   2.307   2.055   3.085
 5337SOL     OW16909   5.419   4.175   2.056
 5337SOL    HW116910   5.348   4.106   2.048
 5337SOL    HW216911   5.509   4.133   2.039
 5338SOL     OW16912   6.087   0.511   5.519
 5338SOL    HW116913   6.005   0.458   5.541
 5338SOL    HW216914   6.063   0.585   5.456
 5339SOL     OW16915   6.517   2.116   3.982
 5339SOL    HW116916   6.521   2.048   3.908
 5339SOL    HW216917   6.593   2.180   3.972
 5340SOL     OW16918   5.336   2.480   0.964
 5340SOL    HW116919   5.324   2.509   1.059
 5340SOL    HW216920   5.422   2.430   0.955
 5341SOL     OW16921   3.599   4.248   6.195
 5341SOL    HW116922   3.518   4.198   6.165
 5341SOL    HW216923   3.662   4.260   6.118
 5342SOL     OW16924   4.255   6.802   3.838
 5342SOL    HW116925   4.286   6.846   3.754
 5342SOL    HW216926   4.272   6.863   3.916
 5343SOL     OW16927   3.653   3.170   4.380
 5343SOL    HW116928   3.715   3.122   4.442
 5343SOL    HW216929   3.615   3.251   4.426
 5344SOL     OW16930   1.912   2.153   1.487
 5344SOL    HW116931   2.008   2.128   1.471
 5344SOL    HW216932   1.886   2.126   1.579
 5345SOL     OW16933   3.237   6.501   0.699
 5345SOL    HW116934   3.283   6.584   0.730
 5345SOL    HW216935   3.138   6.517   0.696
 5346SOL     OW16936   3.252   5.666   4.368
 5346SOL    HW116937   3.172   5.640   4.422
 5346SOL    HW216938   3.335   5.632   4.412
 5347SOL     OW16939   6.999   3.061   1.894
 5347SOL    HW116940   7.013   3.127   1.968
 5347SOL    HW216941   6.932   2.992   1.923
 5348SOL     OW16942   6.506   1.694   1.171
 5348SOL    HW116943   6.555   1.728   1.251
 5348SOL    HW216944   6.544   1.736   1.088
 5349SOL     OW16945   2.189   2.846   0.418
 5349SOL    HW116946   2.253   2.922   0.414
 5349SOL    HW216947   2.096   2.881   0.430
 5350SOL     OW16948   1.448   6.794   5.283
 5350SOL    HW116949   1.460   6.695   5.280
 5350SOL    HW216950   1.483   6.835   5.199
 5351SOL     OW16951   6.837   5.150   2.234
 5351SOL    HW116952   6.894   5.227   2.203
 5351SOL    HW216953   6.849   5.073   2.172
 5352SOL     OW16954   2.124   5.248   3.291
 5352SOL    HW116955   2.038   5.298   3.282
 5352SOL    HW216956   2.105   5.152   3.311
 5353SOL     OW16957   3.715   4.915   4.249
 5353SOL    HW116958   3.620   4.899   4.272
 5353SOL    HW216959   3.733   4.883   4.155
 5354SOL     OW16960   2.356   4.839   1.580
 5354SOL    HW116961   2.427   4.773   1.601
 5354SOL    HW216962   2.371   4.923   1.633
 5355SOL     OW16963   6.471   4.002   4.378
 5355SOL    HW116964   6.517   3.972   4.461
 5355SOL    HW216965   6.380   4.037   4.401
 5356SOL     OW16966   5.929   4.419   2.514
 5356SOL    HW116967   5.971   4.418   2.605
 5356SOL    HW216968   5.977   4.485   2.456
 5357SOL     OW16969   3.300   6.202   0.120
 5357SOL    HW116970   3.202   6.203   0.138
 5357SOL    HW216971   3.342   6.126   0.169
 5358SOL     OW16972   4.842   1.087   6.912
 5358SOL    HW116973   4.765   1.112   6.854
 5358SOL    HW216974   4.814   1.017   6.977
 5359SOL     OW16975   1.588   1.151   5.779
 5359SOL    HW116976   1.617   1.101   5.860
 5359SOL    HW216977   1.668   1.169   5.721
 5360SOL     OW16978   3.754   6.266   3.932
 5360SOL    HW116979   3.751   6.170   3.906
 5360SOL    HW216980   3.733   6.274   4.030
 5361SOL     OW16981   2.751   1.068   4.971
 5361SOL    HW116982   2.698   1.065   4.886
 5361SOL    HW216983   2.813   1.146   4.969
 5362SOL     OW16984   6.681   6.067   2.657
 5362SOL    HW116985   6.582   6.061   2.647
 5362SOL    HW216986   6.704   6.143   2.717
 5363SOL     OW16987   0.170   0.149   5.707
 5363SOL    HW116988   0.073   0.170   5.708
 5363SOL    HW216989   0.195   0.099   5.790
 5364SOL     OW16990   6.795   6.649   2.628
 5364SOL    HW116991   6.757   6.737   2.599
 5364SOL    HW216992   6.784   6.583   2.554
 5365SOL     OW16993   3.621   2.649   0.702
 5365SOL    HW116994   3.661   2.706   0.630
 5365SOL    HW216995   3.605   2.705   0.783
 5366SOL     OW16996   5.963   5.991   1.554
 5366SOL    HW116997   5.925   6.067   1.607
 5366SOL    HW216998   5.971   6.018   1.458
 5367SOL     OW16999   0.593   6.830   0.759
 5367SOL    HW117000   0.664   6.891   0.725
 5367SOL    HW217001   0.543   6.790   0.681
 5368SOL     OW17002   5.831   0.220   2.738
 5368SOL    HW117003   5.802   0.164   2.816
 5368SOL    HW217004   5.931   0.220   2.732
 5369SOL     OW17005   2.699   6.606   0.964
 5369SOL    HW117006   2.716   6.651   1.052
 5369SOL    HW217007   2.650   6.669   0.904
 5370SOL     OW17008   4.729   2.283   1.684
 5370SOL    HW117009   4.719   2.238   1.773
 5370SOL    HW217010   4.755   2.215   1.615
 5371SOL     OW17011   0.239   3.735   5.054
 5371SOL    HW117012   0.291   3.665   5.005
 5371SOL    HW217013   0.289   3.821   5.053
 5372SOL     OW17014   1.886   6.080   3.406
 5372SOL    HW117015   1.823   6.006   3.431
 5372SOL    HW217016   1.952   6.046   3.339
 5373SOL     OW17017   3.450   6.704   4.560
 5373SOL    HW117018   3.498   6.617   4.554
 5373SOL    HW217019   3.431   6.725   4.656
 5374SOL     OW17020   2.155   4.251   0.555
 5374SOL    HW117021   2.057   4.234   0.544
 5374SOL    HW217022   2.196   4.176   0.606
 5375SOL     OW17023   0.661   5.448   4.331
 5375SOL    HW117024   0.636   5.487   4.242
 5375SOL    HW217025   0.628   5.508   4.404
 5376SOL     OW17026   1.721   2.695   1.093
 5376SOL    HW117027   1.770   2.641   1.161
 5376SOL    HW217028   1.723   2.792   1.120
 5377SOL     OW17029   0.121   6.811   2.292
 5377SOL    HW117030   0.192   6.867   2.249
 5377SOL    HW217031   0.032   6.838   2.255
 5378SOL     OW17032   6.992   0.491   2.417
 5378SOL    HW117033   6.960   0.542   2.337
 5378SOL    HW217034   6.954   0.399   2.415
 5379SOL     OW17035   1.052   5.008   4.895
 5379SOL    HW117036   1.026   4.914   4.915
 5379SOL    HW217037   1.123   5.038   4.958
 5380SOL     OW17038   2.854   1.227   2.590
 5380SOL    HW117039   2.908   1.175   2.523
 5380SOL    HW217040   2.777   1.172   2.621
 5381SOL     OW17041   6.414   4.912   2.294
 5381SOL    HW117042   6.323   4.938   2.261
 5381SOL    HW217043   6.431   4.955   2.382
 5382SOL     OW17044   2.773   1.123   1.979
 5382SOL    HW117045   2.763   1.191   1.906
 5382SOL    HW217046   2.869   1.119   2.007
 5383SOL     OW17047   1.988   2.155   5.336
 5383SOL    HW117048   2.075   2.175   5.380
 5383SOL    HW217049   1.979   2.211   5.254
 5384SOL     OW17050   5.859   6.805   5.532
 5384SOL    HW117051   5.863   6.888   5.476
 5384SOL    HW217052   5.772   6.802   5.581
 5385SOL     OW17053   3.558   3.373   3.878
 5385SOL    HW117054   3.614   3.395   3.958
 5385SOL    HW217055   3.522   3.280   3.887
 5386SOL     OW17056   5.377   1.188   4.305
 5386SOL    HW117057   5.316   1.265   4.323
 5386SOL    HW217058   5.472   1.216   4.320
 5387SOL     OW17059   2.171   0.274   3.548
 5387SOL    HW117060   2.204   0.313   3.634
 5387SOL    HW217061   2.248   0.264   3.485
 5388SOL     OW17062   0.322   1.694   3.846
 5388SOL    HW117063   0.260   1.771   3.831
 5388SOL    HW217064   0.273   1.622   3.895
 5389SOL     OW17065   3.729   1.491   3.504
 5389SOL    HW117066   3.771   1.540   3.427
 5389SOL    HW217067   3.653   1.434   3.470
 5390SOL     OW17068   4.798   3.964   3.311
 5390SOL    HW117069   4.804   3.959   3.411
 5390SOL    HW217070   4.781   3.873   3.274
 5391SOL     OW17071   2.262   1.567   0.845
 5391SOL    HW117072   2.186   1.589   0.906
 5391SOL    HW217073   2.347   1.569   0.897
 5392SOL     OW17074   5.320   3.509   1.194
 5392SOL    HW117075   5.229   3.504   1.153
 5392SOL    HW217076   5.381   3.557   1.131
 5393SOL     OW17077   4.793   6.989   5.525
 5393SOL    HW117078   4.856   6.970   5.600
 5393SOL    HW217079   4.805   6.920   5.453
 5394SOL     OW17080   0.137   5.273   0.780
 5394SOL    HW117081   0.106   5.354   0.830
 5394SOL    HW217082   0.199   5.220   0.837
 5395SOL     OW17083   4.420   0.870   1.253
 5395SOL    HW117084   4.499   0.830   1.299
 5395SOL    HW217085   4.444   0.961   1.218
 5396SOL     OW17086   5.451   4.192   1.653
 5396SOL    HW117087   5.366   4.215   1.698
 5396SOL    HW217088   5.453   4.234   1.562
 5397SOL     OW17089   0.811   3.082   1.338
 5397SOL    HW117090   0.714   3.104   1.350
 5397SOL    HW217091   0.861   3.104   1.422
 5398SOL     OW17092   3.200   2.196   3.687
 5398SOL    HW117093   3.268   2.125   3.706
 5398SOL    HW217094   3.126   2.158   3.632
 5399SOL     OW17095   2.704   6.323   0.923
 5399SOL    HW117096   2.712   6.423   0.928
 5399SOL    HW217097   2.721   6.284   1.013
 5400SOL     OW17098   3.517   3.744   6.800
 5400SOL    HW117099   3.499   3.724   6.704
 5400SOL    HW217100   3.434   3.780   6.843
 5401SOL     OW17101   6.100   3.955   1.998
 5401SOL    HW117102   6.004   3.937   1.978
 5401SOL    HW217103   6.124   4.046   1.962
 5402SOL     OW17104   2.337   5.826   1.741
 5402SOL    HW117105   2.240   5.812   1.723
 5402SOL    HW217106   2.372   5.753   1.800
 5403SOL     OW17107   5.742   2.806   5.754
 5403SOL    HW117108   5.730   2.779   5.850
 5403SOL    HW217109   5.811   2.747   5.712
 5404SOL     OW17110   0.940   0.165   2.451
 5404SOL    HW117111   0.841   0.178   2.447
 5404SOL    HW217112   0.965   0.127   2.541
 5405SOL     OW17113   5.865   6.242   0.239
 5405SOL    HW117114   5.767   6.254   0.253
 5405SOL    HW217115   5.906   6.205   0.323
 5406SOL     OW17116   2.199   0.215   5.421
 5406SOL    HW117117   2.201   0.256   5.330
 5406SOL    HW217118   2.162   0.122   5.415
 5407SOL     OW17119   3.790   1.753   2.055
 5407SOL    HW117120   3.864   1.689   2.077
 5407SOL    HW217121   3.740   1.720   1.975
 5408SOL     OW17122   3.289   0.994   5.223
 5408SOL    HW117123   3.325   1.087   5.229
 5408SOL    HW217124   3.244   0.981   5.135
 5409SOL     OW17125   6.871   1.931   3.277
 5409SOL    HW117126   6.876   1.944   3.178
 5409SOL    HW217127   6.917   2.007   3.322
 5410SOL     OW17128   1.353   2.828   6.910
 5410SOL    HW117129   1.291   2.904   6.890
 5410SOL    HW217130   1.403   2.803   6.827
 5411SOL     OW17131   6.154   4.752   5.497
 5411SOL    HW117132   6.237   4.805   5.511
 5411SOL    HW217133   6.089   4.805   5.443
 5412SOL     OW17134   3.938   1.344   6.847
 5412SOL    HW117135   3.905   1.270   6.788
 5412SOL    HW217136   3.938   1.430   6.795
 5413SOL     OW17137   0.632   0.267   1.408
 5413SOL    HW117138   0.541   0.226   1.418
 5413SOL    HW217139   0.677   0.228   1.327
 5414SOL     OW17140   6.329   3.213   5.235
 5414SOL    HW117141   6.386   3.292   5.211
 5414SOL    HW217142   6.245   3.244   5.278
 5415SOL     OW17143   0.930   5.902   1.629
 5415SOL    HW117144   0.838   5.904   1.669
 5415SOL    HW217145   0.969   5.994   1.633
 5416SOL     OW17146   3.272   4.778   6.247
 5416SOL    HW117147   3.317   4.707   6.193
 5416SOL    HW217148   3.326   4.862   6.243
 5417SOL     OW17149   4.306   6.725   4.344
 5417SOL    HW117150   4.377   6.794   4.356
 5417SOL    HW217151   4.335   6.659   4.275
 5418SOL     OW17152   5.320   0.629   4.489
 5418SOL    HW117153   5.353   0.629   4.395
 5418SOL    HW217154   5.292   0.722   4.515
 5419SOL     OW17155   3.346   5.329   0.453
 5419SOL    HW117156   3.353   5.332   0.553
 5419SOL    HW217157   3.256   5.363   0.426
 5420SOL     OW17158   1.769   2.901   1.572
 5420SOL    HW117159   1.749   2.999   1.565
 5420SOL    HW217160   1.863   2.884   1.544
 5421SOL     OW17161   2.585   4.567   3.129
 5421SOL    HW117162   2.592   4.600   3.223
 5421SOL    HW217163   2.557   4.642   3.069
 5422SOL     OW17164   1.268   6.030   5.301
 5422SOL    HW117165   1.192   6.028   5.367
 5422SOL    HW217166   1.348   5.986   5.341
 5423SOL     OW17167   5.863   3.643   6.650
 5423SOL    HW117168   5.804   3.593   6.713
 5423SOL    HW217169   5.869   3.739   6.680
 5424SOL     OW17170   6.079   3.483   4.153
 5424SOL    HW117171   6.022   3.539   4.092
 5424SOL    HW217172   6.079   3.388   4.121
 5425SOL     OW17173   5.266   1.961   4.218
 5425SOL    HW117174   5.201   1.911   4.276
 5425SOL    HW217175   5.280   1.910   4.133
 5426SOL     OW17176   6.130   4.806   3.758
 5426SOL    HW117177   6.186   4.766   3.684
 5426SOL    HW217178   6.165   4.897   3.780
 5427SOL     OW17179   5.165   4.728   0.643
 5427SOL    HW117180   5.115   4.649   0.607
 5427SOL    HW217181   5.249   4.697   0.687
 5428SOL     OW17182   6.326   6.679   2.144
 5428SOL    HW117183   6.396   6.619   2.181
 5428SOL    HW217184   6.313   6.757   2.205
 5429SOL     OW17185   1.499   0.814   5.014
 5429SOL    HW117186   1.411   0.801   5.059
 5429SOL    HW217187   1.571   0.824   5.083
 5430SOL     OW17188   2.436   2.378   5.932
 5430SOL    HW117189   2.472   2.350   6.022
 5430SOL    HW217190   2.491   2.453   5.896
 5431SOL     OW17191   3.402   4.671   6.690
 5431SOL    HW117192   3.482   4.732   6.689
 5431SOL    HW217193   3.380   4.645   6.596
 5432SOL     OW17194   3.691   5.903   5.611
 5432SOL    HW117195   3.681   5.805   5.595
 5432SOL    HW217196   3.679   5.923   5.708
 5433SOL     OW17197   0.474   1.304   2.645
 5433SOL    HW117198   0.465   1.371   2.572
 5433SOL    HW217199   0.460   1.212   2.609
 5434SOL     OW17200   4.426   1.356   4.780
 5434SOL    HW117201   4.423   1.453   4.754
 5434SOL    HW217202   4.500   1.343   4.847
 5435SOL     OW17203   6.268   1.914   1.221
 5435SOL    HW117204   6.201   1.875   1.158
 5435SOL    HW217205   6.357   1.918   1.177
 5436SOL     OW17206   5.607   4.212   4.599
 5436SOL    HW117207   5.512   4.244   4.595
 5436SOL    HW217208   5.653   4.238   4.514
 5437SOL     OW17209   2.606   5.043   5.732
 5437SOL    HW117210   2.538   4.980   5.695
 5437SOL    HW217211   2.657   4.998   5.806
 5438SOL     OW17212   6.161   3.758   2.584
 5438SOL    HW117213   6.124   3.815   2.658
 5438SOL    HW217214   6.108   3.673   2.578
 5439SOL     OW17215   0.003   2.281   0.229
 5439SOL    HW117216   6.949   2.213   0.249
 5439SOL    HW217217   0.065   2.245   0.158
 5440SOL     OW17218   6.715   0.272   3.159
 5440SOL    HW117219   6.684   0.225   3.077
 5440SOL    HW217220   6.750   0.362   3.134
 5441SOL     OW17221   4.729   2.638   3.699
 5441SOL    HW117222   4.800   2.633   3.629
 5441SOL    HW217223   4.646   2.593   3.666
 5442SOL     OW17224   3.289   6.624   3.617
 5442SOL    HW117225   3.381   6.600   3.585
 5442SOL    HW217226   3.280   6.598   3.713
 5443SOL     OW17227   3.209   5.454   4.153
 5443SOL    HW117228   3.174   5.542   4.186
 5443SOL    HW217229   3.299   5.437   4.193
 5444SOL     OW17230   0.164   1.000   3.064
 5444SOL    HW117231   0.138   0.948   3.145
 5444SOL    HW217232   0.263   1.011   3.061
 5445SOL     OW17233   6.444   4.099   3.875
 5445SOL    HW117234   6.406   4.096   3.968
 5445SOL    HW217235   6.419   4.015   3.826
 5446SOL     OW17236   5.819   5.148   4.832
 5446SOL    HW117237   5.743   5.213   4.827
 5446SOL    HW217238   5.903   5.192   4.798
 5447SOL     OW17239   1.591   1.900   0.958
 5447SOL    HW117240   1.673   1.896   1.015
 5447SOL    HW217241   1.521   1.841   0.998
 5448SOL     OW17242   6.025   4.311   4.414
 5448SOL    HW117243   6.017   4.396   4.465
 5448SOL    HW217244   5.988   4.323   4.322
 5449SOL     OW17245   1.730   1.240   0.873
 5449SOL    HW117246   1.659   1.268   0.937
 5449SOL    HW217247   1.707   1.151   0.834
 5450SOL     OW17248   3.026   6.868   0.887
 5450SOL    HW117249   3.119   6.878   0.853
 5450SOL    HW217250   2.974   6.808   0.826
 5451SOL     OW17251   2.272   5.715   3.655
 5451SOL    HW117252   2.206   5.641   3.662
 5451SOL    HW217253   2.238   5.785   3.593
 5452SOL     OW17254   2.993   4.115   0.092
 5452SOL    HW117255   3.013   4.124   7.011
 5452SOL    HW217256   3.072   4.075   0.139
 5453SOL     OW17257   5.500   4.000   1.396
 5453SOL    HW117258   5.583   4.018   1.344
 5453SOL    HW217259   5.485   3.902   1.403
 5454SOL     OW17260   5.591   5.369   5.624
 5454SOL    HW117261   5.652   5.332   5.693
 5454SOL    HW217262   5.508   5.313   5.619
 5455SOL     OW17263   6.967   2.202   3.143
 5455SOL    HW117264   6.925   2.256   3.216
 5455SOL    HW217265   0.050   2.198   3.158
 5456SOL     OW17266   2.831   0.060   0.711
 5456SOL    HW117267   2.915   0.080   0.763
 5456SOL    HW217268   2.833   6.981   0.680
 5457SOL     OW17269   0.232   2.200   1.471
 5457SOL    HW117270   0.143   2.176   1.511
 5457SOL    HW217271   0.257   2.293   1.499
 5458SOL     OW17272   0.646   4.708   0.563
 5458SOL    HW117273   0.611   4.669   0.648
 5458SOL    HW217274   0.573   4.758   0.516
 5459SOL     OW17275   3.489   3.714   6.531
 5459SOL    HW117276   3.433   3.792   6.505
 5459SOL    HW217277   3.467   3.636   6.473
 5460SOL     OW17278   3.795   6.319   3.216
 5460SOL    HW117279   3.750   6.393   3.167
 5460SOL    HW217280   3.840   6.258   3.151
 5461SOL     OW17281   0.441   0.895   5.606
 5461SOL    HW117282   0.418   0.983   5.647
 5461SOL    HW217283   0.493   0.841   5.672
 5462SOL     OW17284   6.356   6.893   1.372
 5462SOL    HW117285   6.339   6.805   1.417
 5462SOL    HW217286   6.411   6.878   1.290
 5463SOL     OW17287   0.255   1.590   6.955
 5463SOL    HW117288   0.211   1.533   6.886
 5463SOL    HW217289   0.265   1.683   6.920
 5464SOL     OW17290   6.800   0.235   4.521
 5464SOL    HW117291   6.721   0.177   4.539
 5464SOL    HW217292   6.790   0.322   4.569
 5465SOL     OW17293   4.933   0.653   4.626
 5465SOL    HW117294   4.993   0.578   4.601
 5465SOL    HW217295   4.902   0.700   4.544
 5466SOL     OW17296   5.150   3.021   4.702
 5466SOL    HW117297   5.152   2.947   4.769
 5466SOL    HW217298   5.099   3.098   4.739
 5467SOL     OW17299   5.256   4.088   3.223
 5467SOL    HW117300   5.238   4.179   3.187
 5467SOL    HW217301   5.201   4.021   3.174
 5468SOL     OW17302   6.774   2.794   4.022
 5468SOL    HW117303   6.709   2.752   3.958
 5468SOL    HW217304   6.756   2.761   4.115
 5469SOL     OW17305   2.756   6.650   5.680
 5469SOL    HW117306   2.757   6.579   5.610
 5469SOL    HW217307   2.848   6.688   5.690
 5470SOL     OW17308   3.740   5.597   3.225
 5470SOL    HW117309   3.832   5.626   3.251
 5470SOL    HW217310   3.744   5.509   3.179
 5471SOL     OW17311   6.115   0.186   3.209
 5471SOL    HW117312   6.129   0.160   3.304
 5471SOL    HW217313   6.060   0.116   3.163
 5472SOL     OW17314   2.527   3.844   6.784
 5472SOL    HW117315   2.490   3.801   6.867
 5472SOL    HW217316   2.454   3.853   6.716
 5473SOL     OW17317   1.355   3.352   1.839
 5473SOL    HW117318   1.332   3.395   1.927
 5473SOL    HW217319   1.454   3.344   1.831
 5474SOL     OW17320   0.938   4.221   3.814
 5474SOL    HW117321   1.008   4.252   3.750
 5474SOL    HW217322   0.899   4.300   3.861
 5475SOL     OW17323   1.965   2.526   0.983
 5475SOL    HW117324   1.891   2.575   0.936
 5475SOL    HW217325   1.948   2.527   1.081
 5476SOL     OW17326   2.347   4.019   5.408
 5476SOL    HW117327   2.360   3.987   5.314
 5476SOL    HW217328   2.386   3.953   5.472
 5477SOL     OW17329   2.130   4.510   2.278
 5477SOL    HW117330   2.075   4.592   2.297
 5477SOL    HW217331   2.085   4.430   2.319
 5478SOL     OW17332   2.965   6.030   4.470
 5478SOL    HW117333   2.995   6.053   4.378
 5478SOL    HW217334   2.973   5.931   4.484
 5479SOL     OW17335   5.810   0.706   6.624
 5479SOL    HW117336   5.813   0.657   6.537
 5479SOL    HW217337   5.717   0.704   6.660
 5480SOL     OW17338   5.945   5.479   4.053
 5480SOL    HW117339   6.037   5.447   4.027
 5480SOL    HW217340   5.931   5.572   4.018
 5481SOL     OW17341   4.680   1.681   4.629
 5481SOL    HW117342   4.580   1.678   4.628
 5481SOL    HW217343   4.712   1.741   4.556
 5482SOL     OW17344   3.744   4.403   1.691
 5482SOL    HW117345   3.703   4.494   1.682
 5482SOL    HW217346   3.673   4.333   1.683
 5483SOL     OW17347   7.011   2.063   5.516
 5483SOL    HW117348   6.926   2.115   5.513
 5483SOL    HW217349   0.059   2.098   5.447
 5484SOL     OW17350   4.233   1.305   3.640
 5484SOL    HW117351   4.142   1.264   3.635
 5484SOL    HW217352   4.224   1.404   3.646
 5485SOL     OW17353   3.955   0.034   4.371
 5485SOL    HW117354   4.000   6.961   4.384
 5485SOL    HW217355   3.922   0.068   4.459
 5486SOL     OW17356   2.144   6.419   5.002
 5486SOL    HW117357   2.189   6.486   5.061
 5486SOL    HW217358   2.184   6.424   4.910
 5487SOL     OW17359   5.652   2.774   6.930
 5487SOL    HW117360   5.734   2.805   6.977
 5487SOL    HW217361   5.635   2.832   6.850
 5488SOL     OW17362   6.075   7.006   1.513
 5488SOL    HW117363   6.074   0.089   1.501
 5488SOL    HW217364   6.107   6.962   1.429
 5489SOL     OW17365   0.355   4.346   2.103
 5489SOL    HW117366   0.354   4.424   2.166
 5489SOL    HW217367   0.421   4.278   2.135
 5490SOL     OW17368   3.203   0.126   1.578
 5490SOL    HW117369   3.198   0.044   1.522
 5490SOL    HW217370   3.298   0.145   1.601
 5491SOL     OW17371   1.265   4.234   0.621
 5491SOL    HW117372   1.189   4.174   0.594
 5491SOL    HW217373   1.267   4.241   0.721
 5492SOL     OW17374   0.225   3.249   5.947
 5492SOL    HW117375   0.153   3.214   5.887
 5492SOL    HW217376   0.269   3.328   5.905
 5493SOL     OW17377   2.955   3.638   4.343
 5493SOL    HW117378   2.950   3.539   4.337
 5493SOL    HW217379   2.949   3.678   4.252
 5494SOL     OW17380   0.386   3.065   5.779
 5494SOL    HW117381   0.347   2.975   5.757
 5494SOL    HW217382   0.350   3.096   5.867
 5495SOL     OW17383   4.334   1.472   1.028
 5495SOL    HW117384   4.268   1.535   0.988
 5495SOL    HW217385   4.299   1.378   1.019
 5496SOL     OW17386   4.019   0.978   3.234
 5496SOL    HW117387   4.083   0.976   3.310
 5496SOL    HW217388   3.932   0.936   3.262
 5497SOL     OW17389   0.061   1.216   4.913
 5497SOL    HW117390   0.137   1.219   4.979
 5497SOL    HW217391   0.009   1.301   4.919
 5498SOL     OW17392   6.676   6.146   0.926
 5498SOL    HW117393   6.600   6.146   0.861
 5498SOL    HW217394   6.732   6.064   0.910
 5499SOL     OW17395   0.222   0.728   4.791
 5499SOL    HW117396   0.261   0.715   4.882
 5499SOL    HW217397   0.231   0.643   4.738
 5500SOL     OW17398   1.196   0.478   0.411
 5500SOL    HW117399   1.234   0.549   0.352
 5500SOL    HW217400   1.144   0.413   0.357
 5501SOL     OW17401   3.282   1.533   0.150
 5501SOL    HW117402   3.250   1.465   0.216
 5501SOL    HW217403   3.362   1.497   0.102
 5502SOL     OW17404   5.183   3.986   6.871
 5502SOL    HW117405   5.118   4.045   6.823
 5502SOL    HW217406   5.144   3.894   6.879
 5503SOL     OW17407   0.071   4.747   2.046
 5503SOL    HW117408   0.155   4.794   2.018
 5503SOL    HW217409   0.077   4.723   2.143
 5504SOL     OW17410   4.855   1.373   5.639
 5504SOL    HW117411   4.785   1.307   5.668
 5504SOL    HW217412   4.898   1.413   5.720
 5505SOL     OW17413   2.218   5.333   4.446
 5505SOL    HW117414   2.308   5.374   4.432
 5505SOL    HW217415   2.189   5.287   4.362
 5506SOL     OW17416   0.852   3.714   0.360
 5506SOL    HW117417   0.810   3.643   0.416
 5506SOL    HW217418   0.855   3.685   0.264
 5507SOL     OW17419   4.057   1.244   4.879
 5507SOL    HW117420   4.053   1.183   4.958
 5507SOL    HW217421   3.985   1.313   4.886
 5508SOL     OW17422   1.425   1.376   0.519
 5508SOL    HW117423   1.473   1.293   0.487
 5508SOL    HW217424   1.327   1.365   0.505
 5509SOL     OW17425   0.247   5.848   6.782
 5509SOL    HW117426   0.243   5.834   6.881
 5509SOL    HW217427   0.160   5.820   6.741
 5510SOL     OW17428   4.779   5.431   0.545
 5510SOL    HW117429   4.877   5.438   0.562
 5510SOL    HW217430   4.750   5.508   0.488
 5511SOL     OW17431   1.603   1.074   3.376
 5511SOL    HW117432   1.623   1.026   3.461
 5511SOL    HW217433   1.684   1.123   3.345
 5512SOL     OW17434   5.012   2.496   0.874
 5512SOL    HW117435   4.970   2.447   0.951
 5512SOL    HW217436   5.104   2.525   0.899
 5513SOL     OW17437   3.744   4.274   5.959
 5513SOL    HW117438   3.737   4.365   5.916
 5513SOL    HW217439   3.835   4.264   5.999
 5514SOL     OW17440   3.692   0.055   4.226
 5514SOL    HW117441   3.783   0.020   4.250
 5514SOL    HW217442   3.687   0.153   4.245
 5515SOL     OW17443   0.663   5.711   2.306
 5515SOL    HW117444   0.677   5.711   2.405
 5515SOL    HW217445   0.710   5.632   2.265
 5516SOL     OW17446   1.768   3.793   6.253
 5516SOL    HW117447   1.717   3.829   6.331
 5516SOL    HW217448   1.794   3.868   6.192
 5517SOL     OW17449   2.068   3.209   2.123
 5517SOL    HW117450   2.105   3.125   2.084
 5517SOL    HW217451   2.129   3.285   2.101
 5518SOL     OW17452   5.732   6.452   6.589
 5518SOL    HW117453   5.698   6.366   6.551
 5518SOL    HW217454   5.801   6.434   6.658
 5519SOL     OW17455   5.692   3.601   3.367
 5519SOL    HW117456   5.615   3.558   3.319
 5519SOL    HW217457   5.718   3.685   3.319
 5520SOL     OW17458   6.636   6.610   2.207
 5520SOL    HW117459   6.704   6.545   2.174
 5520SOL    HW217460   6.655   6.701   2.170
 5521SOL     OW17461   5.553   6.580   2.096
 5521SOL    HW117462   5.592   6.590   2.187
 5521SOL    HW217463   5.608   6.633   2.031
 5522SOL     OW17464   6.009   5.310   0.888
 5522SOL    HW117465   6.010   5.408   0.903
 5522SOL    HW217466   6.058   5.288   0.803
 5523SOL     OW17467   3.717   1.059   1.838
 5523SOL    HW117468   3.701   1.087   1.743
 5523SOL    HW217469   3.805   1.093   1.868
 5524SOL     OW17470   4.840   0.512   4.181
 5524SOL    HW117471   4.780   0.445   4.225
 5524SOL    HW217472   4.875   0.575   4.250
 5525SOL     OW17473   0.142   2.360   0.950
 5525SOL    HW117474   0.213   2.312   0.897
 5525SOL    HW217475   0.179   2.446   0.985
 5526SOL     OW17476   4.827   5.782   3.362
 5526SOL    HW117477   4.734   5.800   3.393
 5526SOL    HW217478   4.834   5.802   3.264
 5527SOL     OW17479   5.356   3.511   4.066
 5527SOL    HW117480   5.339   3.455   4.148
 5527SOL    HW217481   5.425   3.580   4.087
 5528SOL     OW17482   1.241   0.734   0.146
 5528SOL    HW117483   1.298   0.656   0.122
 5528SOL    HW217484   1.146   0.715   0.121
 5529SOL     OW17485   3.309   6.964   3.922
 5529SOL    HW117486   3.228   6.923   3.965
 5529SOL    HW217487   3.391   6.921   3.959
 5530SOL     OW17488   5.611   2.380   1.049
 5530SOL    HW117489   5.672   2.346   0.978
 5530SOL    HW217490   5.609   2.316   1.126
 5531SOL     OW17491   3.743   3.699   2.045
 5531SOL    HW117492   3.842   3.697   2.055
 5531SOL    HW217493   3.708   3.788   2.074
 5532SOL     OW17494   1.074   3.756   0.990
 5532SOL    HW117495   1.073   3.779   0.893
 5532SOL    HW217496   1.156   3.703   1.011
 5533SOL     OW17497   3.672   2.104   2.921
 5533SOL    HW117498   3.612   2.097   3.001
 5533SOL    HW217499   3.618   2.131   2.842
 5534SOL     OW17500   0.733   1.445   6.716
 5534SOL    HW117501   0.705   1.473   6.625
 5534SOL    HW217502   0.806   1.377   6.709
 5535SOL     OW17503   0.501   2.762   3.452
 5535SOL    HW117504   0.520   2.670   3.419
 5535SOL    HW217505   0.580   2.797   3.502
 5536SOL     OW17506   3.557   1.118   4.125
 5536SOL    HW117507   3.581   1.212   4.101
 5536SOL    HW217508   3.578   1.102   4.222
 5537SOL     OW17509   2.689   1.121   2.236
 5537SOL    HW117510   2.701   1.126   2.137
 5537SOL    HW217511   2.592   1.107   2.257
 5538SOL     OW17512   2.828   6.030   5.363
 5538SOL    HW117513   2.878   6.028   5.449
 5538SOL    HW217514   2.733   6.057   5.380
 5539SOL     OW17515   1.156   3.598   1.360
 5539SOL    HW117516   1.155   3.605   1.460
 5539SOL    HW217517   1.071   3.635   1.323
 5540SOL     OW17518   4.511   4.416   3.892
 5540SOL    HW117519   4.502   4.495   3.831
 5540SOL    HW217520   4.594   4.366   3.869
 5541SOL     OW17521   5.069   6.877   6.309
 5541SOL    HW117522   5.065   6.801   6.244
 5541SOL    HW217523   4.978   6.919   6.316
 5542SOL     OW17524   4.774   3.528   6.447
 5542SOL    HW117525   4.706   3.472   6.494
 5542SOL    HW217526   4.744   3.624   6.446
 5543SOL     OW17527   3.392   4.416   5.967
 5543SOL    HW117528   3.481   4.460   5.981
 5543SOL    HW217529   3.354   4.388   6.056
 5544SOL     OW17530   4.681   5.599   6.865
 5544SOL    HW117531   4.647   5.508   6.840
 5544SOL    HW217532   4.604   5.663   6.870
 5545SOL     OW17533   4.649   1.329   2.211
 5545SOL    HW117534   4.700   1.245   2.230
 5545SOL    HW217535   4.551   1.310   2.218
 5546SOL     OW17536   0.389   4.679   4.412
 5546SOL    HW117537   0.452   4.648   4.341
 5546SOL    HW217538   0.390   4.779   4.417
 5547SOL     OW17539   2.674   6.692   5.166
 5547SOL    HW117540   2.739   6.725   5.234
 5547SOL    HW217541   2.596   6.650   5.213
 5548SOL     OW17542   6.690   1.840   5.414
 5548SOL    HW117543   6.789   1.855   5.411
 5548SOL    HW217544   6.664   1.768   5.350
 5549SOL     OW17545   5.229   4.836   6.387
 5549SOL    HW117546   5.252   4.772   6.460
 5549SOL    HW217547   5.146   4.805   6.340
 5550SOL     OW17548   2.994   5.616   2.259
 5550SOL    HW117549   2.944   5.702   2.252
 5550SOL    HW217550   3.033   5.593   2.169
 5551SOL     OW17551   2.215   0.277   2.842
 5551SOL    HW117552   2.248   0.184   2.828
 5551SOL    HW217553   2.222   0.300   2.939
 5552SOL     OW17554   6.719   0.453   0.087
 5552SOL    HW117555   6.664   0.496   0.159
 5552SOL    HW217556   6.667   0.379   0.045
 5553SOL     OW17557   3.838   6.744   0.181
 5553SOL    HW117558   3.875   6.662   0.138
 5553SOL    HW217559   3.766   6.783   0.124
 5554SOL     OW17560   3.090   1.819   5.124
 5554SOL    HW117561   3.051   1.902   5.166
 5554SOL    HW217562   3.189   1.831   5.114
 5555SOL     OW17563   0.098   4.734   4.412
 5555SOL    HW117564   0.198   4.743   4.417
 5555SOL    HW217565   0.063   4.789   4.337
 5556SOL     OW17566   0.559   2.609   4.295
 5556SOL    HW117567   0.572   2.680   4.365
 5556SOL    HW217568   0.522   2.650   4.212
 5557SOL     OW17569   3.979   5.381   3.038
 5557SOL    HW117570   3.990   5.307   2.972
 5557SOL    HW217571   3.882   5.390   3.062
 5558SOL     OW17572   5.403   3.802   6.195
 5558SOL    HW117573   5.304   3.785   6.193
 5558SOL    HW217574   5.450   3.725   6.153
 5559SOL     OW17575   2.533   6.866   2.279
 5559SOL    HW117576   2.628   6.891   2.298
 5559SOL    HW217577   2.472   6.940   2.306
 5560SOL     OW17578   0.523   6.680   3.602
 5560SOL    HW117579   0.442   6.638   3.563
 5560SOL    HW217580   0.499   6.769   3.642
 5561SOL     OW17581   2.356   1.680   4.007
 5561SOL    HW117582   2.285   1.660   4.074
 5561SOL    HW217583   2.435   1.620   4.024
 5562SOL     OW17584   2.315   2.757   6.980
 5562SOL    HW117585   2.376   2.727   0.038
 5562SOL    HW217586   2.237   2.695   6.975
 5563SOL     OW17587   4.748   6.418   2.176
 5563SOL    HW117588   4.773   6.421   2.079
 5563SOL    HW217589   4.799   6.345   2.221
 5564SOL     OW17590   4.643   1.704   1.568
 5564SOL    HW117591   4.666   1.738   1.659
 5564SOL    HW217592   4.651   1.779   1.501
 5565SOL     OW17593   4.662   1.168   6.372
 5565SOL    HW117594   4.755   1.202   6.356
 5565SOL    HW217595   4.666   1.083   6.424
 5566SOL     OW17596   1.941   5.448   1.013
 5566SOL    HW117597   1.883   5.446   0.932
 5566SOL    HW217598   1.943   5.358   1.055
 5567SOL     OW17599   0.913   4.489   1.498
 5567SOL    HW117600   0.888   4.393   1.513
 5567SOL    HW217601   0.881   4.544   1.575
 5568SOL     OW17602   4.996   2.450   2.594
 5568SOL    HW117603   4.995   2.439   2.693
 5568SOL    HW217604   4.905   2.428   2.558
 5569SOL     OW17605   3.563   1.928   1.721
 5569SOL    HW117606   3.483   1.981   1.693
 5569SOL    HW217607   3.645   1.985   1.714
 5570SOL     OW17608   6.002   4.383   4.785
 5570SOL    HW117609   5.960   4.293   4.772
 5570SOL    HW217610   6.080   4.393   4.723
 5571SOL     OW17611   0.372   6.897   6.757
 5571SOL    HW117612   0.452   6.954   6.738
 5571SOL    HW217613   0.401   6.811   6.799
 5572SOL     OW17614   2.135   2.924   6.342
 5572SOL    HW117615   2.182   2.952   6.426
 5572SOL    HW217616   2.122   3.003   6.282
 5573SOL     OW17617   1.486   3.135   0.172
 5573SOL    HW117618   1.507   3.162   0.265
 5573SOL    HW217619   1.518   3.042   0.156
 5574SOL     OW17620   0.163   1.118   4.007
 5574SOL    HW117621   0.118   1.139   3.920
 5574SOL    HW217622   0.182   1.203   4.056
 5575SOL     OW17623   1.294   1.182   1.817
 5575SOL    HW117624   1.271   1.089   1.791
 5575SOL    HW217625   1.380   1.209   1.773
 5576SOL     OW17626   6.655   5.971   1.865
 5576SOL    HW117627   6.618   5.993   1.775
 5576SOL    HW217628   6.754   5.964   1.860
 5577SOL     OW17629   2.713   2.805   6.190
 5577SOL    HW117630   2.719   2.710   6.221
 5577SOL    HW217631   2.792   2.826   6.132
 5578SOL     OW17632   4.245   2.884   0.930
 5578SOL    HW117633   4.222   2.953   0.863
 5578SOL    HW217634   4.328   2.911   0.979
 5579SOL     OW17635   6.422   3.722   5.960
 5579SOL    HW117636   6.437   3.820   5.944
 5579SOL    HW217637   6.360   3.710   6.038
 5580SOL     OW17638   4.547   1.595   0.036
 5580SOL    HW117639   4.587   1.682   0.065
 5580SOL    HW217640   4.618   1.536   7.014
 5581SOL     OW17641   2.527   0.153   0.989
 5581SOL    HW117642   2.456   0.223   0.982
 5581SOL    HW217643   2.556   0.144   1.084
 5582SOL     OW17644   3.442   3.380   3.623
 5582SOL    HW117645   3.485   3.295   3.592
 5582SOL    HW217646   3.488   3.411   3.707
 5583SOL     OW17647   3.967   6.375   2.844
 5583SOL    HW117648   3.926   6.441   2.781
 5583SOL    HW217649   4.065   6.368   2.825
 5584SOL     OW17650   5.578   4.039   4.026
 5584SOL    HW117651   5.595   4.134   4.000
 5584SOL    HW217652   5.515   4.037   4.104
 5585SOL     OW17653   5.141   1.007   3.843
 5585SOL    HW117654   5.144   1.074   3.917
 5585SOL    HW217655   5.046   0.987   3.820
 5586SOL     OW17656   1.225   2.492   0.298
 5586SOL    HW117657   1.180   2.535   0.219
 5586SOL    HW217658   1.198   2.396   0.304
 5587SOL     OW17659   4.191   6.638   2.484
 5587SOL    HW117660   4.235   6.548   2.488
 5587SOL    HW217661   4.095   6.626   2.459
 5588SOL     OW17662   1.351   6.856   4.409
 5588SOL    HW117663   1.358   6.804   4.324
 5588SOL    HW217664   1.370   6.952   4.391
 5589SOL     OW17665   4.717   3.444   6.813
 5589SOL    HW117666   4.641   3.445   6.749
 5589SOL    HW217667   4.744   3.349   6.832
 5590SOL     OW17668   6.729   5.361   2.986
 5590SOL    HW117669   6.750   5.457   2.972
 5590SOL    HW217670   6.631   5.346   2.971
 5591SOL     OW17671   5.832   0.268   6.751
 5591SOL    HW117672   5.885   0.266   6.666
 5591SOL    HW217673   5.794   0.177   6.768
 5592SOL     OW17674   2.471   4.469   2.867
 5592SOL    HW117675   2.472   4.568   2.885
 5592SOL    HW217676   2.494   4.420   2.951
 5593SOL     OW17677   6.961   2.749   5.426
 5593SOL    HW117678   0.035   2.790   5.411
 5593SOL    HW217679   6.944   2.740   5.524
 5594SOL     OW17680   2.242   1.465   0.015
 5594SOL    HW117681   2.280   1.388   6.980
 5594SOL    HW217682   2.226   1.437   0.110
 5595SOL     OW17683   6.444   0.606   5.251
 5595SOL    HW117684   6.542   0.594   5.264
 5595SOL    HW217685   6.414   0.693   5.292
 5596SOL     OW17686   5.352   0.066   2.855
 5596SOL    HW117687   5.414   0.144   2.855
 5596SOL    HW217688   5.396   7.005   2.808
 5597SOL     OW17689   5.301   2.820   5.305
 5597SOL    HW117690   5.287   2.875   5.387
 5597SOL    HW217691   5.212   2.786   5.273
 5598SOL     OW17692   4.730   2.030   3.733
 5598SOL    HW117693   4.651   2.047   3.791
 5598SOL    HW217694   4.811   2.015   3.790
 5599SOL     OW17695   5.629   3.624   2.028
 5599SOL    HW117696   5.721   3.618   2.068
 5599SOL    HW217697   5.561   3.631   2.101
 5600SOL     OW17698   2.567   0.283   2.529
 5600SOL    HW117699   2.492   0.216   2.530
 5600SOL    HW217700   2.599   0.297   2.435
 5601SOL     OW17701   4.884   2.383   5.744
 5601SOL    HW117702   4.956   2.409   5.808
 5601SOL    HW217703   4.841   2.298   5.774
 5602SOL     OW17704   6.806   1.244   3.040
 5602SOL    HW117705   6.761   1.322   3.084
 5602SOL    HW217706   6.853   1.190   3.109
 5603SOL     OW17707   4.468   2.597   5.134
 5603SOL    HW117708   4.503   2.686   5.102
 5603SOL    HW217709   4.368   2.600   5.133
 5604SOL     OW17710   1.023   1.798   4.369
 5604SOL    HW117711   1.044   1.705   4.338
 5604SOL    HW217712   0.940   1.796   4.426
 5605SOL     OW17713   1.112   0.275   5.124
 5605SOL    HW117714   1.072   0.361   5.156
 5605SOL    HW217715   1.059   0.240   5.047
 5606SOL     OW17716   4.248   1.557   0.464
 5606SOL    HW117717   4.192   1.595   0.538
 5606SOL    HW217718   4.223   1.461   0.449
 5607SOL     OW17719   6.121   2.190   3.326
 5607SOL    HW117720   6.122   2.286   3.354
 5607SOL    HW217721   6.213   2.161   3.302
 5608SOL     OW17722   6.414   1.198   3.011
 5608SOL    HW117723   6.463   1.281   2.986
 5608SOL    HW217724   6.416   1.133   2.934
 5609SOL     OW17725   4.689   6.508   0.277
 5609SOL    HW117726   4.653   6.551   0.194
 5609SOL    HW217727   4.729   6.579   0.335
 5610SOL     OW17728   5.552   3.856   0.356
 5610SOL    HW117729   5.560   3.920   0.432
 5610SOL    HW217730   5.638   3.805   0.347
 5611SOL     OW17731   0.747   5.087   2.246
 5611SOL    HW117732   0.728   4.989   2.252
 5611SOL    HW217733   0.840   5.100   2.210
 5612SOL     OW17734   2.958   2.648   0.746
 5612SOL    HW117735   2.946   2.588   0.825
 5612SOL    HW217736   2.924   2.739   0.767
 5613SOL     OW17737   6.826   4.198   4.690
 5613SOL    HW117738   6.737   4.158   4.671
 5613SOL    HW217739   6.871   4.146   4.762
 5614SOL     OW17740   6.461   1.983   4.661
 5614SOL    HW117741   6.381   2.030   4.697
 5614SOL    HW217742   6.469   2.002   4.563
 5615SOL     OW17743   7.010   1.431   2.480
 5615SOL    HW117744   0.024   1.490   2.405
 5615SOL    HW217745   6.987   1.486   2.560
 5616SOL     OW17746   2.564   1.839   5.252
 5616SOL    HW117747   2.660   1.819   5.235
 5616SOL    HW217748   2.513   1.838   5.166
 5617SOL     OW17749   1.358   4.478   4.343
 5617SOL    HW117750   1.381   4.488   4.246
 5617SOL    HW217751   1.334   4.383   4.363
 5618SOL     OW17752   6.115   5.281   3.362
 5618SOL    HW117753   6.141   5.237   3.276
 5618SOL    HW217754   6.125   5.216   3.437
 5619SOL     OW17755   3.831   3.020   3.564
 5619SOL    HW117756   3.879   3.012   3.477
 5619SOL    HW217757   3.887   3.072   3.628
 5620SOL     OW17758   4.450   4.472   5.514
 5620SOL    HW117759   4.466   4.452   5.417
 5620SOL    HW217760   4.364   4.428   5.543
 5621SOL     OW17761   1.568   3.143   6.456
 5621SOL    HW117762   1.544   3.192   6.373
 5621SOL    HW217763   1.660   3.105   6.446
 5622SOL     OW17764   4.602   6.326   5.432
 5622SOL    HW117765   4.603   6.404   5.494
 5622SOL    HW217766   4.526   6.336   5.367
 5623SOL     OW17767   4.744   6.710   5.011
 5623SOL    HW117768   4.662   6.760   4.983
 5623SOL    HW217769   4.816   6.724   4.943
 5624SOL     OW17770   0.878   5.249   3.260
 5624SOL    HW117771   0.915   5.279   3.172
 5624SOL    HW217772   0.945   5.268   3.332
 5625SOL     OW17773   0.886   5.210   4.933
 5625SOL    HW117774   0.948   5.137   4.903
 5625SOL    HW217775   0.894   5.221   5.032
 5626SOL     OW17776   2.444   4.427   4.523
 5626SOL    HW117777   2.444   4.527   4.532
 5626SOL    HW217778   2.506   4.388   4.591
 5627SOL     OW17779   0.205   5.746   5.802
 5627SOL    HW117780   0.136   5.685   5.763
 5627SOL    HW217781   0.181   5.769   5.896
 5628SOL     OW17782   3.045   2.898   1.081
 5628SOL    HW117783   3.056   2.966   1.009
 5628SOL    HW217784   3.078   2.809   1.049
 5629SOL     OW17785   3.855   2.851   1.311
 5629SOL    HW117786   3.784   2.786   1.339
 5629SOL    HW217787   3.915   2.869   1.389
 5630SOL     OW17788   1.597   3.784   5.987
 5630SOL    HW117789   1.692   3.800   6.013
 5630SOL    HW217790   1.562   3.704   6.036
 5631SOL     OW17791   5.341   1.132   1.949
 5631SOL    HW117792   5.352   1.187   1.867
 5631SOL    HW217793   5.424   1.139   2.005
 5632SOL     OW17794   5.145   1.741   6.091
 5632SOL    HW117795   5.137   1.702   5.999
 5632SOL    HW217796   5.109   1.677   6.158
 5633SOL     OW17797   0.279   5.148   4.707
 5633SOL    HW117798   0.297   5.165   4.803
 5633SOL    HW217799   0.366   5.134   4.659
 5634SOL     OW17800   1.751   5.096   4.362
 5634SOL    HW117801   1.797   5.080   4.274
 5634SOL    HW217802   1.818   5.127   4.429
 5635SOL     OW17803   2.888   6.781   6.811
 5635SOL    HW117804   2.988   6.772   6.807
 5635SOL    HW217805   2.851   6.774   6.718
 5636SOL     OW17806   5.900   0.975   5.575
 5636SOL    HW117807   5.989   0.935   5.554
 5636SOL    HW217808   5.907   1.074   5.576
 5637SOL     OW17809   5.164   6.805   3.857
 5637SOL    HW117810   5.254   6.829   3.893
 5637SOL    HW217811   5.145   6.860   3.776
 5638SOL     OW17812   5.392   5.714   1.278
 5638SOL    HW117813   5.381   5.792   1.340
 5638SOL    HW217814   5.314   5.652   1.287
 5639SOL     OW17815   1.227   0.903   1.824
 5639SOL    HW117816   1.272   0.814   1.833
 5639SOL    HW217817   1.131   0.894   1.851
 5640SOL     OW17818   2.800   6.976   2.362
 5640SOL    HW117819   2.871   6.973   2.432
 5640SOL    HW217820   2.838   7.015   2.278
 5641SOL     OW17821   0.368   4.789   5.931
 5641SOL    HW117822   0.361   4.711   5.868
 5641SOL    HW217823   0.316   4.769   6.014
 5642SOL     OW17824   1.469   5.186   5.800
 5642SOL    HW117825   1.415   5.111   5.762
 5642SOL    HW217826   1.562   5.153   5.820
 5643SOL     OW17827   3.592   1.016   4.899
 5643SOL    HW117828   3.595   0.983   4.805
 5643SOL    HW217829   3.560   1.111   4.900
 5644SOL     OW17830   4.901   0.858   3.818
 5644SOL    HW117831   4.920   0.760   3.813
 5644SOL    HW217832   4.810   0.872   3.858
 5645SOL     OW17833   6.731   4.361   2.762
 5645SOL    HW117834   6.785   4.333   2.842
 5645SOL    HW217835   6.758   4.453   2.734
 5646SOL     OW17836   2.149   5.426   3.548
 5646SOL    HW117837   2.116   5.351   3.491
 5646SOL    HW217838   2.110   5.419   3.640
 5647SOL     OW17839   6.491   6.632   6.964
 5647SOL    HW117840   6.563   6.693   6.930
 5647SOL    HW217841   6.482   6.553   6.904
 5648SOL     OW17842   1.779   0.799   3.193
 5648SOL    HW117843   1.712   0.859   3.236
 5648SOL    HW217844   1.736   0.713   3.168
 5649SOL     OW17845   1.270   6.183   6.298
 5649SOL    HW117846   1.178   6.159   6.328
 5649SOL    HW217847   1.283   6.153   6.204
 5650SOL     OW17848   0.576   5.343   1.221
 5650SOL    HW117849   0.484   5.357   1.258
 5650SOL    HW217850   0.621   5.431   1.208
 5651SOL     OW17851   6.946   1.298   1.691
 5651SOL    HW117852   6.881   1.371   1.713
 5651SOL    HW217853   6.899   1.223   1.645
 5652SOL     OW17854   5.473   6.327   1.987
 5652SOL    HW117855   5.527   6.407   2.014
 5652SOL    HW217856   5.462   6.326   1.888
 5653SOL     OW17857   0.292   6.490   6.562
 5653SOL    HW117858   0.228   6.553   6.606
 5653SOL    HW217859   0.361   6.461   6.627
 5654SOL     OW17860   0.189   6.024   5.717
 5654SOL    HW117861   0.195   6.067   5.807
 5654SOL    HW217862   0.179   5.925   5.728
 5655SOL     OW17863   1.448   3.350   4.192
 5655SOL    HW117864   1.424   3.347   4.289
 5655SOL    HW217865   1.462   3.258   4.158
 5656SOL     OW17866   2.162   4.381   0.289
 5656SOL    HW117867   2.120   4.333   0.366
 5656SOL    HW217868   2.132   4.477   0.289
 5657SOL     OW17869   5.530   0.204   1.077
 5657SOL    HW117870   5.531   0.139   1.001
 5657SOL    HW217871   5.446   0.192   1.130
 5658SOL     OW17872   3.424   5.984   5.776
 5658SOL    HW117873   3.436   6.012   5.681
 5658SOL    HW217874   3.507   6.004   5.828
 5659SOL     OW17875   3.145   3.974   3.233
 5659SOL    HW117876   3.173   3.963   3.137
 5659SOL    HW217877   3.067   3.914   3.252
 5660SOL     OW17878   5.577   0.408   5.713
 5660SOL    HW117879   5.491   0.405   5.764
 5660SOL    HW217880   5.649   0.445   5.772
 5661SOL     OW17881   6.869   4.731   6.092
 5661SOL    HW117882   6.769   4.737   6.081
 5661SOL    HW217883   6.913   4.763   6.009
 5662SOL     OW17884   2.795   5.021   3.919
 5662SOL    HW117885   2.767   4.943   3.976
 5662SOL    HW217886   2.736   5.027   3.839
 5663SOL     OW17887   2.014   3.931   0.022
 5663SOL    HW117888   1.952   3.969   0.090
 5663SOL    HW217889   2.065   4.005   6.993
 5664SOL     OW17890   6.709   3.719   4.206
 5664SOL    HW117891   6.768   3.763   4.138
 5664SOL    HW217892   6.614   3.742   4.187
 5665SOL     OW17893   2.161   1.877   0.134
 5665SOL    HW117894   2.151   1.960   0.188
 5665SOL    HW217895   2.145   1.898   0.038
 5666SOL     OW17896   5.444   5.983   0.584
 5666SOL    HW117897   5.401   5.940   0.663
 5666SOL    HW217898   5.496   6.063   0.613
 5667SOL     OW17899   0.632   4.533   3.638
 5667SOL    HW117900   0.591   4.442   3.632
 5667SOL    HW217901   0.624   4.567   3.732
 5668SOL     OW17902   5.275   2.284   5.729
 5668SOL    HW117903   5.350   2.347   5.746
 5668SOL    HW217904   5.235   2.254   5.816
 5669SOL     OW17905   0.800   3.290   6.342
 5669SOL    HW117906   0.735   3.309   6.268
 5669SOL    HW217907   0.867   3.365   6.347
 5670SOL     OW17908   0.204   3.307   3.751
 5670SOL    HW117909   0.276   3.260   3.700
 5670SOL    HW217910   0.215   3.289   3.848
 5671SOL     OW17911   0.788   6.289   6.474
 5671SOL    HW117912   0.746   6.222   6.413
 5671SOL    HW217913   0.855   6.344   6.422
 5672SOL     OW17914   4.489   4.771   6.835
 5672SOL    HW117915   4.475   4.721   6.921
 5672SOL    HW217916   4.585   4.795   6.826
 5673SOL     OW17917   0.660   6.154   2.238
 5673SOL    HW117918   0.705   6.073   2.201
 5673SOL    HW217919   0.693   6.235   2.192
 5674SOL     OW17920   6.767   3.895   3.692
 5674SOL    HW117921   6.829   3.960   3.647
 5674SOL    HW217922   6.722   3.941   3.769
 5675SOL     OW17923   4.519   1.796   6.433
 5675SOL    HW117924   4.460   1.825   6.508
 5675SOL    HW217925   4.469   1.800   6.347
 5676SOL     OW17926   1.891   1.930   1.996
 5676SOL    HW117927   1.812   1.988   2.015
 5676SOL    HW217928   1.968   1.988   1.968
 5677SOL     OW17929   0.753   2.355   2.741
 5677SOL    HW117930   0.804   2.311   2.666
 5677SOL    HW217931   0.687   2.419   2.703
 5678SOL     OW17932   2.576   6.634   2.987
 5678SOL    HW117933   2.625   6.669   2.908
 5678SOL    HW217934   2.638   6.578   3.042
 5679SOL     OW17935   1.095   0.595   3.017
 5679SOL    HW117936   1.094   0.537   2.935
 5679SOL    HW217937   1.133   0.544   3.094
 5680SOL     OW17938   1.463   5.384   0.593
 5680SOL    HW117939   1.454   5.335   0.506
 5680SOL    HW217940   1.447   5.321   0.669
 5681SOL     OW17941   0.544   3.565   6.451
 5681SOL    HW117942   0.515   3.634   6.516
 5681SOL    HW217943   0.621   3.600   6.396
 5682SOL     OW17944   1.958   4.673   5.327
 5682SOL    HW117945   1.917   4.730   5.399
 5682SOL    HW217946   1.903   4.682   5.244
 5683SOL     OW17947   4.161   1.573   6.744
 5683SOL    HW117948   4.225   1.637   6.787
 5683SOL    HW217949   4.151   1.492   6.802
 5684SOL     OW17950   3.889   2.965   4.497
 5684SOL    HW117951   3.959   3.037   4.497
 5684SOL    HW217952   3.879   2.928   4.589
 5685SOL     OW17953   1.275   3.828   1.791
 5685SOL    HW117954   1.303   3.816   1.887
 5685SOL    HW217955   1.317   3.912   1.755
 5686SOL     OW17956   2.923   0.063   6.499
 5686SOL    HW117957   2.893   0.027   6.411
 5686SOL    HW217958   3.007   0.017   6.527
 5687SOL     OW17959   6.760   3.554   4.740
 5687SOL    HW117960   6.742   3.536   4.837
 5687SOL    HW217961   6.769   3.652   4.726
 5688SOL     OW17962   6.526   1.774   0.271
 5688SOL    HW117963   6.528   1.687   0.320
 5688SOL    HW217964   6.506   1.758   0.175
 5689SOL     OW17965   4.014   0.956   6.745
 5689SOL    HW117966   4.032   0.870   6.793
 5689SOL    HW217967   4.097   0.985   6.697
 5690SOL     OW17968   2.311   6.475   0.775
 5690SOL    HW117969   2.307   6.520   0.864
 5690SOL    HW217970   2.351   6.384   0.785
 5691SOL     OW17971   2.673   6.209   1.738
 5691SOL    HW117972   2.755   6.171   1.781
 5691SOL    HW217973   2.599   6.142   1.741
 5692SOL     OW17974   7.007   3.110   6.369
 5692SOL    HW117975   6.949   3.182   6.331
 5692SOL    HW217976   6.952   3.050   6.427
 5693SOL     OW17977   5.996   3.045   2.515
 5693SOL    HW117978   6.025   2.976   2.449
 5693SOL    HW217979   6.068   3.059   2.583
 5694SOL     OW17980   0.974   1.655   3.609
 5694SOL    HW117981   1.043   1.623   3.545
 5694SOL    HW217982   1.018   1.705   3.684
 5695SOL     OW17983   1.062   2.788   2.744
 5695SOL    HW117984   1.155   2.752   2.747
 5695SOL    HW217985   1.019   2.774   2.833
 5696SOL     OW17986   1.182   6.991   3.357
 5696SOL    HW117987   1.111   0.043   3.376
 5696SOL    HW217988   1.214   6.952   3.443
 5697SOL     OW17989   5.926   2.163   1.033
 5697SOL    HW117990   5.855   2.116   1.086
 5697SOL    HW217991   5.886   2.205   0.952
 5698SOL     OW17992   0.333   3.112   2.060
 5698SOL    HW117993   0.409   3.174   2.075
 5698SOL    HW217994   0.293   3.086   2.148
 5699SOL     OW17995   6.266   2.472   3.147
 5699SOL    HW117996   6.224   2.561   3.166
 5699SOL    HW217997   6.206   2.420   3.085
 5700SOL     OW17998   6.669   6.452   4.454
 5700SOL    HW117999   6.581   6.500   4.447
 5700SOL    HW218000   6.717   6.457   4.367
 5701SOL     OW18001   1.485   6.047   3.255
 5701SOL    HW118002   1.549   5.982   3.296
 5701SOL    HW218003   1.395   6.038   3.299
 5702SOL     OW18004   1.298   0.560   5.185
 5702SOL    HW118005   1.218   0.513   5.220
 5702SOL    HW218006   1.375   0.546   5.247
 5703SOL     OW18007   5.032   4.138   1.161
 5703SOL    HW118008   5.124   4.148   1.124
 5703SOL    HW218009   5.025   4.189   1.247
 5704SOL     OW18010   4.349   5.395   2.225
 5704SOL    HW118011   4.366   5.320   2.161
 5704SOL    HW218012   4.309   5.358   2.309
 5705SOL     OW18013   5.042   0.866   0.272
 5705SOL    HW118014   5.073   0.942   0.329
 5705SOL    HW218015   5.069   0.780   0.313
 5706SOL     OW18016   0.862   2.284   0.536
 5706SOL    HW118017   0.869   2.202   0.593
 5706SOL    HW218018   0.912   2.359   0.579
 5707SOL     OW18019   0.693   6.950   0.196
 5707SOL    HW118020   0.782   6.960   0.240
 5707SOL    HW218021   0.684   6.857   0.160
 5708SOL     OW18022   5.109   6.381   0.998
 5708SOL    HW118023   5.020   6.427   0.992
 5708SOL    HW218024   5.169   6.433   1.058
 5709SOL     OW18025   1.101   6.889   3.904
 5709SOL    HW118026   1.064   6.812   3.853
 5709SOL    HW218027   1.044   6.907   3.984
 5710SOL     OW18028   2.620   3.133   6.000
 5710SOL    HW118029   2.648   3.166   6.090
 5710SOL    HW218030   2.689   3.156   5.932
 5711SOL     OW18031   4.675   0.449   3.091
 5711SOL    HW118032   4.703   0.545   3.098
 5711SOL    HW218033   4.684   0.419   2.996
 5712SOL     OW18034   0.846   5.790   6.086
 5712SOL    HW118035   0.940   5.808   6.113
 5712SOL    HW218036   0.841   5.784   5.986
 5713SOL     OW18037   1.095   2.334   1.358
 5713SOL    HW118038   1.078   2.419   1.410
 5713SOL    HW218039   1.185   2.338   1.317
 5714SOL     OW18040   0.856   6.075   6.738
 5714SOL    HW118041   0.866   5.976   6.739
 5714SOL    HW218042   0.944   6.118   6.715
 5715SOL     OW18043   1.348   6.296   3.317
 5715SOL    HW118044   1.374   6.221   3.257
 5715SOL    HW218045   1.252   6.287   3.343
 5716SOL     OW18046   1.522   4.252   6.615
 5716SOL    HW118047   1.494   4.160   6.642
 5716SOL    HW218048   1.443   4.302   6.582
 5717SOL     OW18049   2.013   6.276   0.524
 5717SOL    HW118050   1.998   6.182   0.554
 5717SOL    HW218051   2.106   6.304   0.547
 5718SOL     OW18052   0.976   3.762   6.199
 5718SOL    HW118053   0.998   3.769   6.101
 5718SOL    HW218054   1.054   3.794   6.253
 5719SOL     OW18055   2.331   1.297   6.132
 5719SOL    HW118056   2.401   1.312   6.062
 5719SOL    HW218057   2.365   1.327   6.221
 5720SOL     OW18058   1.105   4.893   4.614
 5720SOL    HW118059   1.168   4.821   4.585
 5720SOL    HW218060   1.126   4.918   4.709
 5721SOL     OW18061   6.838   3.631   0.883
 5721SOL    HW118062   6.774   3.553   0.882
 5721SOL    HW218063   6.926   3.601   0.918
 5722SOL     OW18064   5.726   1.636   4.834
 5722SOL    HW118065   5.745   1.619   4.738
 5722SOL    HW218066   5.727   1.734   4.851
 5723SOL     OW18067   4.155   3.483   0.219
 5723SOL    HW118068   4.089   3.532   0.162
 5723SOL    HW218069   4.170   3.534   0.304
 5724SOL     OW18070   3.922   2.559   5.385
 5724SOL    HW118071   3.859   2.481   5.382
 5724SOL    HW218072   3.983   2.556   5.307
 5725SOL     OW18073   6.049   5.557   3.744
 5725SOL    HW118074   5.979   5.485   3.743
 5725SOL    HW218075   6.096   5.558   3.656
 5726SOL     OW18076   6.534   3.323   4.143
 5726SOL    HW118077   6.484   3.397   4.098
 5726SOL    HW218078   6.469   3.256   4.179
 5727SOL     OW18079   1.061   2.386   4.119
 5727SOL    HW118080   1.123   2.453   4.160
 5727SOL    HW218081   1.006   2.431   4.049
 5728SOL     OW18082   4.958   1.403   6.560
 5728SOL    HW118083   4.870   1.447   6.578
 5728SOL    HW218084   5.007   1.388   6.646
 5729SOL     OW18085   0.867   1.563   0.396
 5729SOL    HW118086   0.796   1.493   0.386
 5729SOL    HW218087   0.945   1.525   0.445
 5730SOL     OW18088   4.286   5.050   5.609
 5730SOL    HW118089   4.201   4.998   5.608
 5730SOL    HW218090   4.352   5.006   5.669
 5731SOL     OW18091   2.157   6.579   3.982
 5731SOL    HW118092   2.238   6.582   3.923
 5731SOL    HW218093   2.085   6.636   3.943
 5732SOL     OW18094   6.433   4.505   5.465
 5732SOL    HW118095   6.472   4.426   5.418
 5732SOL    HW218096   6.344   4.527   5.425
 5733SOL     OW18097   3.112   0.539   5.512
 5733SOL    HW118098   3.199   0.521   5.557
 5733SOL    HW218099   3.041   0.479   5.549
 5734SOL     OW18100   1.782   6.306   6.390
 5734SOL    HW118101   1.812   6.252   6.310
 5734SOL    HW218102   1.860   6.355   6.428
 5735SOL     OW18103   3.939   1.553   3.085
 5735SOL    HW118104   4.028   1.558   3.039
 5735SOL    HW218105   3.867   1.576   3.019
 5736SOL     OW18106   5.620   4.089   0.476
 5736SOL    HW118107   5.696   4.068   0.536
 5736SOL    HW218108   5.541   4.119   0.530
 5737SOL     OW18109   5.533   6.072   6.860
 5737SOL    HW118110   5.583   6.077   6.947
 5737SOL    HW218111   5.593   6.035   6.789
 5738SOL     OW18112   3.339   2.537   6.570
 5738SOL    HW118113   3.389   2.457   6.603
 5738SOL    HW218114   3.267   2.507   6.507
 5739SOL     OW18115   1.101   6.051   5.529
 5739SOL    HW118116   1.105   6.057   5.629
 5739SOL    HW218117   1.016   6.092   5.496
 5740SOL     OW18118   4.315   4.270   0.988
 5740SOL    HW118119   4.358   4.359   1.005
 5740SOL    HW218120   4.366   4.220   0.918
 5741SOL     OW18121   6.705   4.044   4.251
 5741SOL    HW118122   6.619   4.011   4.289
 5741SOL    HW218123   6.772   3.970   4.250
 5742SOL     OW18124   4.405   6.323   2.298
 5742SOL    HW118125   4.367   6.262   2.228
 5742SOL    HW218126   4.441   6.268   2.373
 5743SOL     OW18127   2.161   5.857   5.708
 5743SOL    HW118128   2.187   5.765   5.680
 5743SOL    HW218129   2.180   5.921   5.633
 5744SOL     OW18130   4.876   1.222   1.442
 5744SOL    HW118131   4.967   1.194   1.472
 5744SOL    HW218132   4.883   1.272   1.356
 5745SOL     OW18133   1.898   0.775   3.418
 5745SOL    HW118134   1.864   0.787   3.325
 5745SOL    HW218135   1.993   0.807   3.423
 5746SOL     OW18136   5.075   0.180   2.010
 5746SOL    HW118137   5.012   0.102   2.005
 5746SOL    HW218138   5.035   0.259   1.965
 5747SOL     OW18139   1.344   5.135   1.598
 5747SOL    HW118140   1.376   5.230   1.601
 5747SOL    HW218141   1.323   5.110   1.504
 5748SOL     OW18142   1.018   0.084   1.456
 5748SOL    HW118143   0.984   0.167   1.412
 5748SOL    HW218144   0.943   0.018   1.466
 5749SOL     OW18145   1.792   6.675   5.146
 5749SOL    HW118146   1.787   6.597   5.084
 5749SOL    HW218147   1.760   6.648   5.237
 5750SOL     OW18148   6.109   6.295   4.651
 5750SOL    HW118149   6.127   6.391   4.670
 5750SOL    HW218150   6.093   6.246   4.736
 5751SOL     OW18151   2.494   2.550   4.977
 5751SOL    HW118152   2.575   2.597   5.010
 5751SOL    HW218153   2.434   2.614   4.930
 5752SOL     OW18154   5.226   0.367   0.377
 5752SOL    HW118155   5.322   0.339   0.387
 5752SOL    HW218156   5.196   0.353   0.283
 5753SOL     OW18157   3.529   4.112   4.401
 5753SOL    HW118158   3.437   4.137   4.371
 5753SOL    HW218159   3.538   4.129   4.499
 5754SOL     OW18160   0.297   5.575   1.867
 5754SOL    HW118161   0.329   5.527   1.949
 5754SOL    HW218162   0.336   5.532   1.786
 5755SOL     OW18163   1.836   2.026   6.512
 5755SOL    HW118164   1.766   1.957   6.494
 5755SOL    HW218165   1.864   2.068   6.426
 5756SOL     OW18166   0.200   0.171   2.915
 5756SOL    HW118167   0.229   0.249   2.970
 5756SOL    HW218168   0.159   0.101   2.974
 5757SOL     OW18169   6.970   5.202   3.766
 5757SOL    HW118170   6.972   5.257   3.850
 5757SOL    HW218171   6.876   5.193   3.734
 5758SOL     OW18172   2.043   1.196   3.047
 5758SOL    HW118173   1.989   1.122   3.007
 5758SOL    HW218174   2.051   1.271   2.982
 5759SOL     OW18175   4.814   0.483   6.684
 5759SOL    HW118176   4.877   0.532   6.624
 5759SOL    HW218177   4.833   0.508   6.779
 5760SOL     OW18178   6.384   1.990   0.969
 5760SOL    HW118179   6.400   2.045   0.887
 5760SOL    HW218180   6.286   1.978   0.983
 5761SOL     OW18181   6.036   4.587   5.985
 5761SOL    HW118182   5.995   4.499   6.009
 5761SOL    HW218183   6.080   4.581   5.896
 5762SOL     OW18184   5.058   4.291   1.381
 5762SOL    HW118185   4.994   4.365   1.365
 5762SOL    HW218186   5.022   4.230   1.451
 5763SOL     OW18187   6.800   5.717   0.769
 5763SOL    HW118188   6.881   5.688   0.718
 5763SOL    HW218189   6.765   5.640   0.822
 5764SOL     OW18190   5.156   4.950   4.880
 5764SOL    HW118191   5.227   4.904   4.934
 5764SOL    HW218192   5.079   4.888   4.868
 5765SOL     OW18193   6.382   3.211   0.529
 5765SOL    HW118194   6.336   3.276   0.469
 5765SOL    HW218195   6.330   3.125   0.531
 5766SOL     OW18196   1.505   2.052   5.970
 5766SOL    HW118197   1.559   1.968   5.979
 5766SOL    HW218198   1.553   2.116   5.910
 5767SOL     OW18199   2.088   0.246   0.839
 5767SOL    HW118200   2.004   0.301   0.837
 5767SOL    HW218201   2.141   0.263   0.756
 5768SOL     OW18202   1.006   6.383   4.206
 5768SOL    HW118203   1.099   6.351   4.188
 5768SOL    HW218204   0.945   6.348   4.135
 5769SOL     OW18205   2.114   5.826   4.266
 5769SOL    HW118206   2.065   5.776   4.194
 5769SOL    HW218207   2.105   5.777   4.353
 5770SOL     OW18208   6.587   5.918   6.415
 5770SOL    HW118209   6.601   5.879   6.324
 5770SOL    HW218210   6.497   5.961   6.419
 5771SOL     OW18211   0.956   6.848   4.459
 5771SOL    HW118212   0.898   6.846   4.378
 5771SOL    HW218213   0.933   6.771   4.519
 5772SOL     OW18214   5.656   0.987   1.815
 5772SOL    HW118215   5.561   0.974   1.790
 5772SOL    HW218216   5.710   0.909   1.783
 5773SOL     OW18217   4.126   0.454   2.971
 5773SOL    HW118218   4.176   0.399   3.038
 5773SOL    HW218219   4.029   0.427   2.973
 5774SOL     OW18220   2.827   6.498   4.071
 5774SOL    HW118221   2.845   6.592   4.042
 5774SOL    HW218222   2.893   6.436   4.027
 5775SOL     OW18223   1.486   0.260   2.790
 5775SOL    HW118224   1.434   0.260   2.875
 5775SOL    HW218225   1.579   0.229   2.808
 5776SOL     OW18226   0.567   0.960   3.930
 5776SOL    HW118227   0.472   0.932   3.945
 5776SOL    HW218228   0.599   0.923   3.843
 5777SOL     OW18229   7.010   0.095   4.833
 5777SOL    HW118230   0.050   0.163   4.881
 5777SOL    HW218231   6.946   0.054   4.896
 5778SOL     OW18232   1.647   0.113   0.119
 5778SOL    HW118233   1.617   0.208   0.125
 5778SOL    HW218234   1.704   0.090   0.198
 5779SOL     OW18235   4.360   2.571   1.137
 5779SOL    HW118236   4.356   2.476   1.167
 5779SOL    HW218237   4.318   2.630   1.206
 5780SOL     OW18238   6.412   5.737   4.214
 5780SOL    HW118239   6.413   5.750   4.114
 5780SOL    HW218240   6.384   5.822   4.258
 5781SOL     OW18241   6.506   5.148   4.593
 5781SOL    HW118242   6.507   5.064   4.647
 5781SOL    HW218243   6.590   5.201   4.612
 5782SOL     OW18244   1.429   1.692   1.084
 5782SOL    HW118245   1.353   1.757   1.081
 5782SOL    HW218246   1.394   1.599   1.076
 5783SOL     OW18247   1.186   0.429   1.782
 5783SOL    HW118248   1.171   0.423   1.684
 5783SOL    HW218249   1.280   0.402   1.803
 5784SOL     OW18250   0.118   5.724   6.089
 5784SOL    HW118251   0.039   5.784   6.101
 5784SOL    HW218252   0.170   5.720   6.174
 5785SOL     OW18253   1.951   1.738   0.309
 5785SOL    HW118254   2.016   1.758   0.235
 5785SOL    HW218255   2.000   1.723   0.394
 5786SOL     OW18256   0.812   4.126   0.643
 5786SOL    HW118257   0.843   4.185   0.718
 5786SOL    HW218258   0.773   4.182   0.570
 5787SOL     OW18259   3.439   1.989   4.850
 5787SOL    HW118260   3.419   1.957   4.943
 5787SOL    HW218261   3.356   2.026   4.809
 5788SOL     OW18262   3.134   1.101   1.378
 5788SOL    HW118263   3.097   1.124   1.467
 5788SOL    HW218264   3.120   1.004   1.360
 5789SOL     OW18265   3.477   4.498   6.977
 5789SOL    HW118266   3.479   4.543   6.887
 5789SOL    HW218267   3.383   4.496   7.011
 5790SOL     OW18268   1.272   4.695   4.788
 5790SOL    HW118269   1.303   4.609   4.746
 5790SOL    HW218270   1.180   4.683   4.824
 5791SOL     OW18271   3.509   1.549   2.669
 5791SOL    HW118272   3.534   1.584   2.759
 5791SOL    HW218273   3.412   1.524   2.669
 5792SOL     OW18274   6.312   3.330   2.559
 5792SOL    HW118275   6.300   3.390   2.480
 5792SOL    HW218276   6.297   3.235   2.530
 5793SOL     OW18277   5.215   1.147   4.086
 5793SOL    HW118278   5.194   1.230   4.034
 5793SOL    HW218279   5.281   1.168   4.158
 5794SOL     OW18280   2.491   0.569   0.499
 5794SOL    HW118281   2.488   0.659   0.454
 5794SOL    HW218282   2.559   0.571   0.572
 5795SOL     OW18283   6.556   0.440   6.527
 5795SOL    HW118284   6.524   0.534   6.512
 5795SOL    HW218285   6.650   0.442   6.560
 5796SOL     OW18286   4.933   1.385   6.111
 5796SOL    HW118287   4.868   1.455   6.143
 5796SOL    HW218288   4.938   1.311   6.178
 5797SOL     OW18289   4.765   2.292   6.216
 5797SOL    HW118290   4.728   2.282   6.308
 5797SOL    HW218291   4.794   2.387   6.202
 5798SOL     OW18292   0.765   4.567   5.074
 5798SOL    HW118293   0.710   4.642   5.111
 5798SOL    HW218294   0.714   4.522   5.000
 5799SOL     OW18295   0.498   0.554   3.200
 5799SOL    HW118296   0.530   0.517   3.286
 5799SOL    HW218297   0.556   0.522   3.125
 5800SOL     OW18298   6.113   6.081   1.848
 5800SOL    HW118299   6.041   6.015   1.867
 5800SOL    HW218300   6.111   6.153   1.918
 5801SOL     OW18301   2.033   2.684   3.380
 5801SOL    HW118302   2.041   2.585   3.370
 5801SOL    HW218303   2.115   2.720   3.425
 5802SOL     OW18304   0.943   4.010   2.436
 5802SOL    HW118305   0.989   3.952   2.502
 5802SOL    HW218306   0.947   3.968   2.345
 5803SOL     OW18307   2.333   5.235   2.181
 5803SOL    HW118308   2.405   5.304   2.188
 5803SOL    HW218309   2.368   5.158   2.127
 5804SOL     OW18310   0.430   5.870   3.812
 5804SOL    HW118311   0.387   5.960   3.804
 5804SOL    HW218312   0.529   5.879   3.801
 5805SOL     OW18313   2.287   3.393   0.191
 5805SOL    HW118314   2.299   3.295   0.203
 5805SOL    HW218315   2.296   3.417   0.094
 5806SOL     OW18316   6.768   5.101   5.067
 5806SOL    HW118317   6.817   5.029   5.115
 5806SOL    HW218318   6.749   5.071   4.973
 5807SOL     OW18319   0.294   4.156   1.831
 5807SOL    HW118320   0.357   4.233   1.828
 5807SOL    HW218321   0.345   4.070   1.830
 5808SOL     OW18322   5.980   5.980   4.844
 5808SOL    HW118323   5.972   6.079   4.856
 5808SOL    HW218324   6.023   5.961   4.756
 5809SOL     OW18325   5.776   1.984   4.503
 5809SOL    HW118326   5.770   1.906   4.566
 5809SOL    HW218327   5.767   1.951   4.409
 5810SOL     OW18328   4.214   1.490   4.950
 5810SOL    HW118329   4.280   1.516   5.020
 5810SOL    HW218330   4.202   1.391   4.949
 5811SOL     OW18331   3.459   1.262   4.909
 5811SOL    HW118332   3.384   1.216   4.957
 5811SOL    HW218333   3.447   1.252   4.810
 5812SOL     OW18334   6.312   2.368   4.566
 5812SOL    HW118335   6.284   2.327   4.653
 5812SOL    HW218336   6.278   2.462   4.561
 5813SOL     OW18337   1.773   2.199   1.095
 5813SOL    HW118338   1.716   2.201   1.012
 5813SOL    HW218339   1.726   2.148   1.166
 5814SOL     OW18340   6.316   4.612   1.638
 5814SOL    HW118341   6.282   4.695   1.593
 5814SOL    HW218342   6.320   4.537   1.572
 5815SOL     OW18343   3.781   2.146   4.471
 5815SOL    HW118344   3.690   2.106   4.467
 5815SOL    HW218345   3.816   2.158   4.378
 5816SOL     OW18346   4.438   5.404   0.119
 5816SOL    HW118347   4.415   5.437   0.027
 5816SOL    HW218348   4.406   5.471   0.187
 5817SOL     OW18349   5.349   3.737   5.862
 5817SOL    HW118350   5.422   3.758   5.928
 5817SOL    HW218351   5.268   3.789   5.887
 5818SOL     OW18352   6.361   6.025   4.827
 5818SOL    HW118353   6.409   5.938   4.816
 5818SOL    HW218354   6.321   6.031   4.918
 5819SOL     OW18355   3.591   6.617   6.735
 5819SOL    HW118356   3.680   6.635   6.777
 5819SOL    HW218357   3.588   6.657   6.644
 5820SOL     OW18358   4.560   5.219   3.896
 5820SOL    HW118359   4.595   5.285   3.831
 5820SOL    HW218360   4.503   5.151   3.849
 5821SOL     OW18361   0.280   6.561   1.377
 5821SOL    HW118362   0.258   6.464   1.393
 5821SOL    HW218363   0.206   6.603   1.324
 5822SOL     OW18364   1.742   2.580   1.558
 5822SOL    HW118365   1.701   2.490   1.543
 5822SOL    HW218366   1.822   2.570   1.617
 5823SOL     OW18367   1.926   0.897   5.807
 5823SOL    HW118368   1.998   0.965   5.817
 5823SOL    HW218369   1.931   0.855   5.716
 5824SOL     OW18370   6.641   5.459   2.262
 5824SOL    HW118371   6.733   5.421   2.252
 5824SOL    HW218372   6.640   5.523   2.338
 5825SOL     OW18373   1.284   1.596   5.515
 5825SOL    HW118374   1.346   1.658   5.565
 5825SOL    HW218375   1.263   1.635   5.426
 5826SOL     OW18376   6.820   5.028   5.736
 5826SOL    HW118377   6.834   5.088   5.815
 5826SOL    HW218378   6.811   5.082   5.653
 5827SOL     OW18379   2.368   4.290   5.383
 5827SOL    HW118380   2.331   4.316   5.294
 5827SOL    HW218381   2.352   4.193   5.398
 5828SOL     OW18382   6.666   1.824   1.341
 5828SOL    HW118383   6.642   1.904   1.287
 5828SOL    HW218384   6.705   1.853   1.428
 5829SOL     OW18385   1.352   0.722   3.156
 5829SOL    HW118386   1.272   0.738   3.099
 5829SOL    HW218387   1.432   0.707   3.097
 5830SOL     OW18388   5.225   6.585   5.923
 5830SOL    HW118389   5.257   6.492   5.905
 5830SOL    HW218390   5.301   6.649   5.913
 5831SOL     OW18391   0.969   1.161   5.320
 5831SOL    HW118392   0.891   1.174   5.259
 5831SOL    HW218393   0.952   1.083   5.380
 5832SOL     OW18394   2.912   4.624   6.948
 5832SOL    HW118395   2.821   4.664   6.933
 5832SOL    HW218396   2.921   4.542   6.893
 5833SOL     OW18397   3.577   3.750   4.549
 5833SOL    HW118398   3.481   3.755   4.578
 5833SOL    HW218399   3.581   3.755   4.449
 5834SOL     OW18400   0.004   3.251   6.888
 5834SOL    HW118401   0.040   3.255   6.795
 5834SOL    HW218402   0.034   3.166   6.931
 5835SOL     OW18403   5.204   3.219   3.786
 5835SOL    HW118404   5.127   3.170   3.829
 5835SOL    HW218405   5.190   3.317   3.796
 5836SOL     OW18406   2.655   6.449   2.206
 5836SOL    HW118407   2.622   6.375   2.264
 5836SOL    HW218408   2.577   6.494   2.162
 5837SOL     OW18409   4.124   3.783   6.009
 5837SOL    HW118410   4.126   3.764   5.911
 5837SOL    HW218411   4.133   3.882   6.024
 5838SOL     OW18412   2.600   2.362   0.832
 5838SOL    HW118413   2.547   2.348   0.749
 5838SOL    HW218414   2.539   2.370   0.911
 5839SOL     OW18415   0.902   1.752   2.534
 5839SOL    HW118416   0.827   1.686   2.537
 5839SOL    HW218417   0.917   1.780   2.440
 5840SOL     OW18418   0.474   5.766   5.924
 5840SOL    HW118419   0.397   5.747   5.863
 5840SOL    HW218420   0.505   5.680   5.965
 5841SOL     OW18421   5.075   2.064   2.726
 5841SOL    HW118422   5.134   2.090   2.803
 5841SOL    HW218423   5.119   2.090   2.640
 5842SOL     OW18424   4.526   2.898   1.410
 5842SOL    HW118425   4.620   2.899   1.376
 5842SOL    HW218426   4.516   2.963   1.485
 5843SOL     OW18427   1.792   3.989   3.317
 5843SOL    HW118428   1.714   3.932   3.292
 5843SOL    HW218429   1.863   3.931   3.358
 5844SOL     OW18430   2.052   6.398   5.719
 5844SOL    HW118431   2.044   6.395   5.818
 5844SOL    HW218432   2.059   6.493   5.689
 5845SOL     OW18433   0.262   0.621   2.430
 5845SOL    HW118434   0.208   0.541   2.405
 5845SOL    HW218435   0.354   0.593   2.457
 5846SOL     OW18436   6.915   2.825   4.716
 5846SOL    HW118437   6.981   2.873   4.773
 5846SOL    HW218438   6.912   2.728   4.743
 5847SOL     OW18439   2.509   2.220   1.956
 5847SOL    HW118440   2.479   2.198   2.049
 5847SOL    HW218441   2.458   2.164   1.891
 5848SOL     OW18442   2.217   6.197   3.268
 5848SOL    HW118443   2.260   6.280   3.230
 5848SOL    HW218444   2.243   6.188   3.364
 5849SOL     OW18445   0.629   0.270   5.919
 5849SOL    HW118446   0.655   0.339   5.986
 5849SOL    HW218447   0.602   0.186   5.967
 5850SOL     OW18448   6.858   3.166   2.255
 5850SOL    HW118449   6.880   3.072   2.278
 5850SOL    HW218450   6.758   3.176   2.249
 5851SOL     OW18451   4.871   3.588   2.872
 5851SOL    HW118452   4.928   3.540   2.805
 5851SOL    HW218453   4.885   3.550   2.963
 5852SOL     OW18454   6.253   5.635   2.988
 5852SOL    HW118455   6.167   5.669   2.950
 5852SOL    HW218456   6.284   5.697   3.061
 5853SOL     OW18457   3.571   6.041   4.287
 5853SOL    HW118458   3.636   5.991   4.230
 5853SOL    HW218459   3.546   5.986   4.366
 5854SOL     OW18460   5.388   4.611   6.180
 5854SOL    HW118461   5.339   4.578   6.099
 5854SOL    HW218462   5.337   4.686   6.222
 5855SOL     OW18463   0.327   1.408   4.769
 5855SOL    HW118464   0.348   1.385   4.674
 5855SOL    HW218465   0.411   1.438   4.815
 5856SOL     OW18466   2.051   5.438   3.797
 5856SOL    HW118467   1.977   5.503   3.815
 5856SOL    HW218468   2.062   5.378   3.876
 5857SOL     OW18469   6.379   2.126   6.023
 5857SOL    HW118470   6.424   2.093   5.940
 5857SOL    HW218471   6.322   2.205   6.000
 5858SOL     OW18472   2.626   2.036   2.317
 5858SOL    HW118473   2.681   2.028   2.400
 5858SOL    HW218474   2.668   2.104   2.256
 5859SOL     OW18475   5.741   6.135   1.321
 5859SOL    HW118476   5.707   6.108   1.231
 5859SOL    HW218477   5.828   6.089   1.339
 5860SOL     OW18478   0.833   3.531   1.784
 5860SOL    HW118479   0.887   3.503   1.863
 5860SOL    HW218480   0.826   3.631   1.783
 5861SOL     OW18481   4.359   1.795   4.409
 5861SOL    HW118482   4.309   1.710   4.393
 5861SOL    HW218483   4.300   1.861   4.456
 5862SOL     OW18484   5.035   4.965   1.278
 5862SOL    HW118485   4.965   4.981   1.348
 5862SOL    HW218486   5.118   4.930   1.321
 5863SOL     OW18487   3.166   1.621   4.937
 5863SOL    HW118488   3.128   1.692   4.997
 5863SOL    HW218489   3.226   1.664   4.870
 5864SOL     OW18490   4.268   3.620   1.789
 5864SOL    HW118491   4.355   3.571   1.784
 5864SOL    HW218492   4.214   3.586   1.866
 5865SOL     OW18493   5.930   0.269   4.981
 5865SOL    HW118494   5.902   0.250   4.887
 5865SOL    HW218495   5.944   0.183   5.030
 5866SOL     OW18496   4.532   4.616   0.073
 5866SOL    HW118497   4.461   4.643   0.139
 5866SOL    HW218498   4.622   4.622   0.116
 5867SOL     OW18499   1.332   3.892   0.689
 5867SOL    HW118500   1.357   3.817   0.628
 5867SOL    HW218501   1.232   3.901   0.691
 5868SOL     OW18502   1.047   1.476   5.865
 5868SOL    HW118503   1.087   1.408   5.804
 5868SOL    HW218504   1.086   1.566   5.847
 5869SOL     OW18505   1.722   5.858   3.466
 5869SOL    HW118506   1.818   5.833   3.453
 5869SOL    HW218507   1.663   5.789   3.423
 5870SOL     OW18508   5.024   5.883   4.773
 5870SOL    HW118509   4.956   5.955   4.784
 5870SOL    HW218510   5.112   5.923   4.745
 5871SOL     OW18511   4.061   2.398   1.459
 5871SOL    HW118512   4.078   2.436   1.550
 5871SOL    HW218513   4.029   2.471   1.398
 5872SOL     OW18514   4.098   6.420   1.302
 5872SOL    HW118515   4.120   6.503   1.250
 5872SOL    HW218516   4.004   6.392   1.281
 5873SOL     OW18517   2.867   2.143   1.566
 5873SOL    HW118518   2.842   2.153   1.662
 5873SOL    HW218519   2.924   2.220   1.538
 5874SOL     OW18520   2.995   4.102   6.818
 5874SOL    HW118521   3.064   4.049   6.769
 5874SOL    HW218522   2.904   4.079   6.783
 5875SOL     OW18523   4.204   0.817   6.422
 5875SOL    HW118524   4.110   0.820   6.389
 5875SOL    HW218525   4.224   0.900   6.473
 5876SOL     OW18526   3.301   3.882   0.842
 5876SOL    HW118527   3.245   3.806   0.809
 5876SOL    HW218528   3.338   3.860   0.933
 5877SOL     OW18529   0.324   0.305   0.981
 5877SOL    HW118530   0.322   0.405   0.995
 5877SOL    HW218531   0.417   0.277   0.959
 5878SOL     OW18532   6.192   5.560   4.266
 5878SOL    HW118533   6.166   5.464   4.255
 5878SOL    HW218534   6.243   5.590   4.185
 5879SOL     OW18535   2.145   3.660   6.758
 5879SOL    HW118536   2.125   3.570   6.719
 5879SOL    HW218537   2.092   3.674   6.841
 5880SOL     OW18538   5.427   4.566   6.936
 5880SOL    HW118539   5.384   4.563   6.845
 5880SOL    HW218540   5.427   4.660   6.970
 5881SOL     OW18541   1.107   6.475   2.333
 5881SOL    HW118542   1.160   6.520   2.406
 5881SOL    HW218543   1.080   6.384   2.364
 5882SOL     OW18544   0.110   5.534   6.299
 5882SOL    HW118545   0.097   5.438   6.323
 5882SOL    HW218546   0.025   5.570   6.260
 5883SOL     OW18547   0.572   1.911   6.813
 5883SOL    HW118548   0.600   1.834   6.871
 5883SOL    HW218549   0.483   1.891   6.773
 5884SOL     OW18550   4.709   1.178   4.302
 5884SOL    HW118551   4.809   1.176   4.310
 5884SOL    HW218552   4.670   1.228   4.379
 5885SOL     OW18553   0.086   5.837   2.509
 5885SOL    HW118554   0.180   5.840   2.476
 5885SOL    HW218555   0.084   5.850   2.608
 5886SOL     OW18556   0.286   2.149   3.992
 5886SOL    HW118557   0.249   2.137   4.084
 5886SOL    HW218558   0.378   2.188   3.998
 5887SOL     OW18559   2.403   2.230   1.672
 5887SOL    HW118560   2.480   2.196   1.619
 5887SOL    HW218561   2.389   2.327   1.652
 5888SOL     OW18562   1.850   0.338   1.215
 5888SOL    HW118563   1.912   0.373   1.145
 5888SOL    HW218564   1.766   0.393   1.215
 5889SOL     OW18565   6.892   1.412   0.021
 5889SOL    HW118566   6.809   1.410   6.980
 5889SOL    HW218567   6.926   1.319   0.034
 5890SOL     OW18568   2.053   0.574   2.378
 5890SOL    HW118569   1.956   0.595   2.367
 5890SOL    HW218570   2.107   0.646   2.335
 5891SOL     OW18571   3.169   3.929   6.685
 5891SOL    HW118572   3.225   3.911   6.766
 5891SOL    HW218573   3.088   3.871   6.687
 5892SOL     OW18574   1.237   5.300   1.997
 5892SOL    HW118575   1.205   5.216   1.953
 5892SOL    HW218576   1.288   5.355   1.931
 5893SOL     OW18577   2.213   4.115   2.242
 5893SOL    HW118578   2.227   4.129   2.144
 5893SOL    HW218579   2.168   4.027   2.258
 5894SOL     OW18580   0.567   5.602   4.542
 5894SOL    HW118581   0.619   5.573   4.623
 5894SOL    HW218582   0.602   5.689   4.509
 5895SOL     OW18583   5.399   3.497   3.608
 5895SOL    HW118584   5.496   3.477   3.596
 5895SOL    HW218585   5.365   3.451   3.691
 5896SOL     OW18586   4.327   1.666   1.277
 5896SOL    HW118587   4.380   1.726   1.217
 5896SOL    HW218588   4.281   1.596   1.222
 5897SOL     OW18589   3.861   0.669   1.729
 5897SOL    HW118590   3.885   0.577   1.697
 5897SOL    HW218591   3.777   0.698   1.682
 5898SOL     OW18592   2.795   1.017   4.489
 5898SOL    HW118593   2.834   1.107   4.473
 5898SOL    HW218594   2.730   1.022   4.565
 5899SOL     OW18595   5.895   5.592   0.043
 5899SOL    HW118596   5.905   5.606   0.142
 5899SOL    HW218597   5.985   5.574   0.003
 5900SOL     OW18598   6.916   4.405   3.296
 5900SOL    HW118599   6.927   4.308   3.273
 5900SOL    HW218600   6.819   4.427   3.302
 5901SOL     OW18601   3.285   0.584   1.029
 5901SOL    HW118602   3.222   0.662   1.033
 5901SOL    HW218603   3.371   0.609   1.075
 5902SOL     OW18604   6.152   3.367   5.719
 5902SOL    HW118605   6.226   3.434   5.727
 5902SOL    HW218606   6.186   3.286   5.671
 5903SOL     OW18607   5.026   4.284   5.819
 5903SOL    HW118608   4.974   4.269   5.903
 5903SOL    HW218609   4.965   4.320   5.748
 5904SOL     OW18610   1.248   4.800   0.749
 5904SOL    HW118611   1.199   4.745   0.816
 5904SOL    HW218612   1.331   4.836   0.790
 5905SOL     OW18613   6.684   6.930   3.607
 5905SOL    HW118614   6.666   0.005   3.645
 5905SOL    HW218615   6.782   6.913   3.605
 5906SOL     OW18616   4.382   1.680   3.840
 5906SOL    HW118617   4.428   1.671   3.928
 5906SOL    HW218618   4.397   1.772   3.804
 5907SOL     OW18619   0.677   6.044   0.306
 5907SOL    HW118620   0.758   5.991   0.284
 5907SOL    HW218621   0.595   5.987   0.294
 5908SOL     OW18622   6.314   3.520   0.525
 5908SOL    HW118623   6.281   3.613   0.539
 5908SOL    HW218624   6.326   3.504   0.427
 5909SOL     OW18625   6.454   4.950   6.499
 5909SOL    HW118626   6.522   5.004   6.451
 5909SOL    HW218627   6.446   4.860   6.455
 5910SOL     OW18628   0.376   4.487   1.884
 5910SOL    HW118629   0.367   4.431   1.966
 5910SOL    HW218630   0.303   4.463   1.819
 5911SOL     OW18631   6.569   4.488   6.772
 5911SOL    HW118632   6.597   4.581   6.792
 5911SOL    HW218633   6.469   4.482   6.774
 5912SOL     OW18634   5.632   2.939   6.697
 5912SOL    HW118635   5.641   2.881   6.616
 5912SOL    HW218636   5.707   3.005   6.699
 5913SOL     OW18637   3.489   3.405   6.425
 5913SOL    HW118638   3.399   3.425   6.386
 5913SOL    HW218639   3.542   3.350   6.361
 5914SOL     OW18640   2.528   5.708   6.459
 5914SOL    HW118641   2.598   5.750   6.401
 5914SOL    HW218642   2.466   5.653   6.404
 5915SOL     OW18643   5.640   4.443   1.629
 5915SOL    HW118644   5.713   4.489   1.679
 5915SOL    HW218645   5.599   4.372   1.687
 5916SOL     OW18646   4.464   6.002   5.296
 5916SOL    HW118647   4.481   5.908   5.265
 5916SOL    HW218648   4.452   6.061   5.216
 5917SOL     OW18649   3.649   3.893   3.612
 5917SOL    HW118650   3.660   3.863   3.706
 5917SOL    HW218651   3.597   3.979   3.610
 5918SOL     OW18652   1.928   3.137   5.432
 5918SOL    HW118653   1.982   3.213   5.469
 5918SOL    HW218654   1.986   3.057   5.421
 5919SOL     OW18655   4.126   2.629   1.006
 5919SOL    HW118656   4.203   2.617   1.069
 5919SOL    HW218657   4.115   2.726   0.984
 5920SOL     OW18658   3.768   0.459   0.092
 5920SOL    HW118659   3.790   0.509   0.175
 5920SOL    HW218660   3.669   0.454   0.081
 5921SOL     OW18661   3.667   5.210   5.942
 5921SOL    HW118662   3.711   5.245   5.860
 5921SOL    HW218663   3.673   5.110   5.943
 5922SOL     OW18664   6.582   5.281   3.447
 5922SOL    HW118665   6.584   5.252   3.352
 5922SOL    HW218666   6.553   5.377   3.452
 5923SOL     OW18667   5.516   0.993   0.869
 5923SOL    HW118668   5.489   1.021   0.961
 5923SOL    HW218669   5.589   0.925   0.875
 5924SOL     OW18670   0.150   1.528   3.992
 5924SOL    HW118671   0.184   1.448   4.040
 5924SOL    HW218672   0.050   1.527   3.991
 5925SOL     OW18673   4.049   5.530   2.233
 5925SOL    HW118674   4.114   5.604   2.218
 5925SOL    HW218675   4.081   5.447   2.188
 5926SOL     OW18676   3.815   4.891   2.015
 5926SOL    HW118677   3.740   4.858   2.073
 5926SOL    HW218678   3.787   4.889   1.919
 5927SOL     OW18679   1.357   4.326   2.980
 5927SOL    HW118680   1.353   4.227   2.967
 5927SOL    HW218681   1.441   4.362   2.939
 5928SOL     OW18682   3.616   0.120   0.996
 5928SOL    HW118683   3.566   0.160   1.073
 5928SOL    HW218684   3.576   0.152   0.910
 5929SOL     OW18685   0.963   6.114   6.232
 5929SOL    HW118686   0.875   6.082   6.268
 5929SOL    HW218687   1.019   6.035   6.207
 5930SOL     OW18688   6.921   2.300   3.611
 5930SOL    HW118689   6.823   2.312   3.630
 5930SOL    HW218690   6.972   2.305   3.697
 5931SOL     OW18691   6.635   5.365   3.872
 5931SOL    HW118692   6.572   5.441   3.854
 5931SOL    HW218693   6.721   5.401   3.909
 5932SOL     OW18694   1.943   6.974   0.598
 5932SOL    HW118695   1.923   6.877   0.606
 5932SOL    HW218696   1.857   0.010   0.600
 5933SOL     OW18697   0.766   5.881   3.681
 5933SOL    HW118698   0.823   5.964   3.680
 5933SOL    HW218699   0.729   5.867   3.772
 5934SOL     OW18700   3.775   4.081   4.278
 5934SOL    HW118701   3.678   4.096   4.296
 5934SOL    HW218702   3.830   4.124   4.350
 5935SOL     OW18703   4.533   3.809   5.889
 5935SOL    HW118704   4.453   3.839   5.837
 5935SOL    HW218705   4.602   3.881   5.887
 5936SOL     OW18706   4.093   3.724   0.871
 5936SOL    HW118707   4.144   3.640   0.856
 5936SOL    HW218708   4.084   3.774   0.785
 5937SOL     OW18709   0.774   4.766   2.881
 5937SOL    HW118710   0.703   4.816   2.932
 5937SOL    HW218711   0.801   4.685   2.932
 5938SOL     OW18712   0.776   5.132   4.058
 5938SOL    HW118713   0.823   5.054   4.016
 5938SOL    HW218714   0.834   5.170   4.131
 5939SOL     OW18715   2.926   0.010   3.201
 5939SOL    HW118716   2.929   7.012   3.300
 5939SOL    HW218717   2.867   0.087   3.179
 5940SOL     OW18718   4.166   5.631   1.206
 5940SOL    HW118719   4.243   5.693   1.186
 5940SOL    HW218720   4.084   5.685   1.224
 5941SOL     OW18721   6.101   3.140   1.808
 5941SOL    HW118722   6.193   3.173   1.832
 5941SOL    HW218723   6.109   3.057   1.753
 5942SOL     OW18724   5.027   2.955   0.271
 5942SOL    HW118725   5.088   2.876   0.275
 5942SOL    HW218726   5.060   3.019   0.201
 5943SOL     OW18727   3.553   5.548   0.532
 5943SOL    HW118728   3.479   5.613   0.516
 5943SOL    HW218729   3.535   5.465   0.479
 5944SOL     OW18730   6.009   2.525   0.943
 5944SOL    HW118731   5.999   2.429   0.971
 5944SOL    HW218732   6.100   2.558   0.968
 5945SOL     OW18733   6.100   5.224   5.201
 5945SOL    HW118734   6.160   5.273   5.264
 5945SOL    HW218735   6.035   5.288   5.160
 5946SOL     OW18736   3.064   3.397   5.798
 5946SOL    HW118737   3.122   3.365   5.722
 5946SOL    HW218738   3.028   3.488   5.777
 5947SOL     OW18739   4.133   3.475   1.991
 5947SOL    HW118740   4.110   3.530   2.071
 5947SOL    HW218741   4.151   3.381   2.018
 5948SOL     OW18742   4.377   5.365   2.903
 5948SOL    HW118743   4.321   5.444   2.925
 5948SOL    HW218744   4.459   5.365   2.959
 5949SOL     OW18745   4.126   3.422   1.576
 5949SOL    HW118746   4.184   3.474   1.639
 5949SOL    HW218747   4.183   3.385   1.502
 5950SOL     OW18748   4.994   2.749   5.527
 5950SOL    HW118749   5.090   2.770   5.510
 5950SOL    HW218750   4.969   2.666   5.477
 5951SOL     OW18751   6.997   5.441   4.711
 5951SOL    HW118752   0.018   5.527   4.748
 5951SOL    HW218753   0.036   5.412   4.633
 5952SOL     OW18754   5.338   4.553   3.959
 5952SOL    HW118755   5.333   4.468   4.012
 5952SOL    HW218756   5.402   4.616   4.004
 5953SOL     OW18757   6.149   2.802   5.148
 5953SOL    HW118758   6.052   2.776   5.139
 5953SOL    HW218759   6.201   2.755   5.076
 5954SOL     OW18760   0.271   4.328   5.873
 5954SOL    HW118761   0.263   4.359   5.968
 5954SOL    HW218762   0.241   4.401   5.812
 5955SOL     OW18763   5.063   5.679   2.468
 5955SOL    HW118764   5.110   5.622   2.535
 5955SOL    HW218765   5.110   5.767   2.460
 5956SOL     OW18766   3.448   1.159   5.732
 5956SOL    HW118767   3.445   1.138   5.830
 5956SOL    HW218768   3.509   1.237   5.716
 5957SOL     OW18769   4.457   0.691   5.495
 5957SOL    HW118770   4.403   0.747   5.432
 5957SOL    HW218771   4.424   0.597   5.493
 5958SOL     OW18772   6.350   5.831   2.437
 5958SOL    HW118773   6.318   5.802   2.347
 5958SOL    HW218774   6.449   5.817   2.442
 5959SOL     OW18775   3.799   2.296   5.625
 5959SOL    HW118776   3.864   2.230   5.663
 5959SOL    HW218777   3.830   2.389   5.648
 5960SOL     OW18778   3.861   5.531   4.598
 5960SOL    HW118779   3.954   5.537   4.634
 5960SOL    HW218780   3.849   5.443   4.552
 5961SOL     OW18781   5.363   0.781   3.065
 5961SOL    HW118782   5.306   0.707   3.029
 5961SOL    HW218783   5.370   0.854   2.997
 5962SOL     OW18784   5.013   6.100   0.971
 5962SOL    HW118785   5.022   6.200   0.965
 5962SOL    HW218786   4.937   6.077   1.031
 5963SOL     OW18787   3.364   3.070   4.703
 5963SOL    HW118788   3.374   3.141   4.632
 5963SOL    HW218789   3.290   3.095   4.765
 5964SOL     OW18790   0.098   5.049   5.724
 5964SOL    HW118791   0.009   5.078   5.689
 5964SOL    HW218792   0.166   5.054   5.651
 5965SOL     OW18793   1.031   2.274   0.202
 5965SOL    HW118794   0.964   2.222   0.149
 5965SOL    HW218795   1.002   2.370   0.207
 5966SOL     OW18796   2.160   5.723   5.139
 5966SOL    HW118797   2.233   5.704   5.072
 5966SOL    HW218798   2.196   5.780   5.212
 5967SOL     OW18799   4.011   6.293   0.249
 5967SOL    HW118800   4.002   6.357   0.173
 5967SOL    HW218801   4.107   6.273   0.266
 5968SOL     OW18802   5.171   0.724   1.490
 5968SOL    HW118803   5.084   0.769   1.509
 5968SOL    HW218804   5.178   0.705   1.392
 5969SOL     OW18805   0.095   0.774   6.807
 5969SOL    HW118806   0.079   0.714   6.729
 5969SOL    HW218807   0.081   0.723   6.892
 5970SOL     OW18808   0.718   4.303   2.811
 5970SOL    HW118809   0.665   4.235   2.860
 5970SOL    HW218810   0.816   4.283   2.821
 5971SOL     OW18811   1.370   1.284   2.931
 5971SOL    HW118812   1.355   1.195   2.887
 5971SOL    HW218813   1.316   1.354   2.885
 5972SOL     OW18814   5.264   6.082   6.787
 5972SOL    HW118815   5.268   6.176   6.754
 5972SOL    HW218816   5.352   6.057   6.828
 5973SOL     OW18817   1.856   3.551   2.462
 5973SOL    HW118818   1.858   3.470   2.520
 5973SOL    HW218819   1.857   3.524   2.366
 5974SOL     OW18820   5.729   4.527   6.533
 5974SOL    HW118821   5.649   4.558   6.482
 5974SOL    HW218822   5.719   4.554   6.629
 5975SOL     OW18823   3.537   2.006   0.976
 5975SOL    HW118824   3.589   2.067   1.036
 5975SOL    HW218825   3.450   2.049   0.953
 5976SOL     OW18826   2.907   3.479   5.008
 5976SOL    HW118827   2.880   3.553   4.947
 5976SOL    HW218828   2.849   3.480   5.089
 5977SOL     OW18829   2.661   5.257   0.714
 5977SOL    HW118830   2.732   5.192   0.742
 5977SOL    HW218831   2.698   5.350   0.717
 5978SOL     OW18832   5.160   5.844   3.476
 5978SOL    HW118833   5.132   5.770   3.416
 5978SOL    HW218834   5.094   5.919   3.470
 5979SOL     OW18835   6.558   0.176   2.527
 5979SOL    HW118836   6.499   0.156   2.448
 5979SOL    HW218837   6.502   0.204   2.604
 5980SOL     OW18838   3.605   3.293   0.536
 5980SOL    HW118839   3.553   3.231   0.477
 5980SOL    HW218840   3.686   3.246   0.570
 5981SOL     OW18841   5.898   1.457   1.871
 5981SOL    HW118842   5.949   1.463   1.785
 5981SOL    HW218843   5.840   1.538   1.880
 5982SOL     OW18844   6.724   2.780   1.549
 5982SOL    HW118845   6.821   2.756   1.557
 5982SOL    HW218846   6.711   2.837   1.468
 5983SOL     OW18847   1.920   0.830   4.321
 5983SOL    HW118848   1.917   0.918   4.369
 5983SOL    HW218849   1.972   0.764   4.375
 5984SOL     OW18850   6.346   6.437   5.084
 5984SOL    HW118851   6.429   6.419   5.032
 5984SOL    HW218852   6.356   6.399   5.176
 5985SOL     OW18853   6.414   2.848   4.440
 5985SOL    HW118854   6.479   2.900   4.384
 5985SOL    HW218855   6.407   2.889   4.530
 5986SOL     OW18856   3.462   3.454   4.261
 5986SOL    HW118857   3.514   3.493   4.185
 5986SOL    HW218858   3.435   3.527   4.324
 5987SOL     OW18859   4.356   0.309   4.829
 5987SOL    HW118860   4.451   0.309   4.796
 5987SOL    HW218861   4.297   0.266   4.761
 5988SOL     OW18862   5.496   6.822   5.328
 5988SOL    HW118863   5.453   6.780   5.248
 5988SOL    HW218864   5.526   6.750   5.391
 5989SOL     OW18865   2.630   6.004   0.483
 5989SOL    HW118866   2.577   5.924   0.510
 5989SOL    HW218867   2.569   6.083   0.473
 5990SOL     OW18868   3.894   4.752   0.734
 5990SOL    HW118869   3.900   4.843   0.692
 5990SOL    HW218870   3.980   4.704   0.719
 5991SOL     OW18871   3.722   5.656   6.088
 5991SOL    HW118872   3.687   5.654   5.994
 5991SOL    HW218873   3.651   5.691   6.149
 5992SOL     OW18874   3.328   0.447   2.894
 5992SOL    HW118875   3.352   0.512   2.966
 5992SOL    HW218876   3.382   0.364   2.905
 5993SOL     OW18877   3.205   6.019   5.981
 5993SOL    HW118878   3.255   5.987   5.900
 5993SOL    HW218879   3.270   6.055   6.048
 5994SOL     OW18880   6.905   2.462   2.358
 5994SOL    HW118881   6.973   2.465   2.431
 5994SOL    HW218882   6.868   2.554   2.344
 5995SOL     OW18883   5.801   5.211   2.636
 5995SOL    HW118884   5.759   5.299   2.614
 5995SOL    HW218885   5.870   5.224   2.707
 5996SOL     OW18886   0.967   6.180   0.184
 5996SOL    HW118887   1.055   6.203   0.142
 5996SOL    HW218888   0.893   6.227   0.134
 5997SOL     OW18889   0.916   5.736   2.861
 5997SOL    HW118890   0.935   5.651   2.812
 5997SOL    HW218891   0.817   5.746   2.874
 5998SOL     OW18892   6.299   2.188   2.192
 5998SOL    HW118893   6.349   2.179   2.106
 5998SOL    HW218894   6.201   2.184   2.174
 5999SOL     OW18895   1.786   1.420   2.618
 5999SOL    HW118896   1.784   1.338   2.559
 5999SOL    HW218897   1.814   1.499   2.564
 6000SOL     OW18898   4.298   6.935   1.593
 6000SOL    HW118899   4.211   6.921   1.547
 6000SOL    HW218900   4.372   6.936   1.526
 6001SOL     OW18901   0.494   4.049   6.529
 6001SOL    HW118902   0.531   3.989   6.458
 6001SOL    HW218903   0.455   4.131   6.487
 6002SOL     OW18904   6.631   0.023   1.641
 6002SOL    HW118905   6.646   6.967   1.573
 6002SOL    HW218906   6.617   0.110   1.594
 6003SOL     OW18907   0.164   2.224   4.229
 6003SOL    HW118908   0.172   2.294   4.300
 6003SOL    HW218909   0.074   2.182   4.234
 6004SOL     OW18910   0.368   4.253   3.349
 6004SOL    HW118911   0.376   4.338   3.295
 6004SOL    HW218912   0.344   4.178   3.288
 6005SOL     OW18913   4.717   5.310   4.657
 6005SOL    HW118914   4.770   5.359   4.588
 6005SOL    HW218915   4.767   5.229   4.687
 6006SOL     OW18916   2.548   0.495   6.881
 6006SOL    HW118917   2.554   0.488   6.782
 6006SOL    HW218918   2.561   0.405   6.922
 6007SOL     OW18919   5.013   3.540   5.194
 6007SOL    HW118920   4.984   3.461   5.248
 6007SOL    HW218921   4.935   3.575   5.141
 6008SOL     OW18922   1.743   4.958   5.549
 6008SOL    HW118923   1.676   5.001   5.489
 6008SOL    HW218924   1.719   4.862   5.563
 6009SOL     OW18925   3.925   0.557   4.087
 6009SOL    HW118926   3.924   0.517   4.178
 6009SOL    HW218927   4.020   0.563   4.054
 6010SOL     OW18928   1.658   3.937   3.698
 6010SOL    HW118929   1.758   3.932   3.692
 6010SOL    HW218930   1.618   3.854   3.660
 6011SOL     OW18931   4.952   2.720   3.114
 6011SOL    HW118932   4.989   2.754   3.028
 6011SOL    HW218933   5.006   2.642   3.145
 6012SOL     OW18934   5.472   0.816   0.081
 6012SOL    HW118935   5.549   0.865   0.122
 6012SOL    HW218936   5.459   0.729   0.128
 6013SOL     OW18937   5.852   2.899   2.721
 6013SOL    HW118938   5.879   2.932   2.631
 6013SOL    HW218939   5.755   2.916   2.736
 6014SOL     OW18940   4.194   3.140   0.805
 6014SOL    HW118941   4.148   3.154   0.718
 6014SOL    HW218942   4.127   3.143   0.879
 6015SOL     OW18943   5.769   1.934   4.877
 6015SOL    HW118944   5.721   2.003   4.824
 6015SOL    HW218945   5.867   1.946   4.866
 6016SOL     OW18946   6.489   1.605   6.114
 6016SOL    HW118947   6.426   1.530   6.133
 6016SOL    HW218948   6.470   1.681   6.176
 6017SOL     OW18949   0.496   4.483   2.916
 6017SOL    HW118950   0.523   4.447   3.006
 6017SOL    HW218951   0.565   4.458   2.848
 6018SOL     OW18952   2.863   0.924   6.699
 6018SOL    HW118953   2.881   1.020   6.722
 6018SOL    HW218954   2.786   0.919   6.635
 6019SOL     OW18955   6.376   1.748   4.039
 6019SOL    HW118956   6.439   1.803   4.094
 6019SOL    HW218957   6.428   1.696   3.971
 6020SOL     OW18958   2.152   5.168   1.256
 6020SOL    HW118959   2.174   5.256   1.215
 6020SOL    HW218960   2.236   5.118   1.275
 6021SOL     OW18961   4.183   0.889   2.058
 6021SOL    HW118962   4.110   0.824   2.078
 6021SOL    HW218963   4.259   0.873   2.122
 6022SOL     OW18964   5.018   1.909   4.356
 6022SOL    HW118965   4.947   1.897   4.287
 6022SOL    HW218966   5.009   2.000   4.397
 6023SOL     OW18967   6.129   1.128   1.835
 6023SOL    HW118968   6.150   1.161   1.743
 6023SOL    HW218969   6.093   1.035   1.830
 6024SOL     OW18970   0.571   4.934   2.965
 6024SOL    HW118971   0.497   4.954   3.029
 6024SOL    HW218972   0.559   4.988   2.882
 6025SOL     OW18973   3.599   1.852   2.713
 6025SOL    HW118974   3.547   1.862   2.799
 6025SOL    HW218975   3.551   1.790   2.652
 6026SOL     OW18976   0.006   3.856   4.586
 6026SOL    HW118977   6.997   3.875   4.491
 6026SOL    HW218978   6.940   3.860   4.643
 6027SOL     OW18979   1.380   3.731   6.311
 6027SOL    HW118980   1.397   3.725   6.410
 6027SOL    HW218981   1.348   3.823   6.288
 6028SOL     OW18982   0.918   4.295   0.368
 6028SOL    HW118983   0.838   4.234   0.367
 6028SOL    HW218984   0.902   4.370   0.432
 6029SOL     OW18985   2.308   6.453   4.788
 6029SOL    HW118986   2.393   6.491   4.824
 6029SOL    HW218987   2.302   6.470   4.690
 6030SOL     OW18988   4.192   6.270   2.719
 6030SOL    HW118989   4.187   6.275   2.619
 6030SOL    HW218990   4.131   6.199   2.753
 6031SOL     OW18991   3.698   5.341   3.098
 6031SOL    HW118992   3.746   5.267   3.145
 6031SOL    HW218993   3.599   5.329   3.110
 6032SOL     OW18994   2.386   4.391   3.204
 6032SOL    HW118995   2.304   4.448   3.214
 6032SOL    HW218996   2.465   4.449   3.186
 6033SOL     OW18997   2.948   1.738   2.458
 6033SOL    HW118998   3.040   1.724   2.495
 6033SOL    HW218999   2.885   1.674   2.500
 6034SOL     OW19000   0.978   5.197   4.221
 6034SOL    HW119001   1.045   5.254   4.267
 6034SOL    HW219002   0.969   5.110   4.269
 6035SOL     OW19003   6.733   0.439   2.663
 6035SOL    HW119004   6.787   0.356   2.650
 6035SOL    HW219005   6.793   0.513   2.692
 6036SOL     OW19006   6.205   6.161   4.451
 6036SOL    HW119007   6.216   6.213   4.366
 6036SOL    HW219008   6.167   6.219   4.522
 6037SOL     OW19009   4.311   4.935   6.172
 6037SOL    HW119010   4.254   5.015   6.154
 6037SOL    HW219011   4.397   4.964   6.215
 6038SOL     OW19012   1.436   2.949   6.222
 6038SOL    HW119013   1.486   2.978   6.303
 6038SOL    HW219014   1.415   2.852   6.228
 6039SOL     OW19015   3.032   3.044   2.676
 6039SOL    HW119016   3.012   3.131   2.631
 6039SOL    HW219017   2.948   2.991   2.685
 6040SOL     OW19018   0.520   2.294   6.484
 6040SOL    HW119019   0.520   2.211   6.428
 6040SOL    HW219020   0.466   2.279   6.566
 6041SOL     OW19021   2.070   0.418   4.843
 6041SOL    HW119022   2.125   0.470   4.777
 6041SOL    HW219023   2.012   0.481   4.895
 6042SOL     OW19024   5.217   5.932   2.150
 6042SOL    HW119025   5.133   5.881   2.170
 6042SOL    HW219026   5.205   6.028   2.174
 6043SOL     OW19027   0.725   4.639   5.773
 6043SOL    HW119028   0.675   4.556   5.748
 6043SOL    HW219029   0.815   4.638   5.730
 6044SOL     OW19030   1.645   2.055   1.284
 6044SOL    HW119031   1.556   2.020   1.314
 6044SOL    HW219032   1.706   2.060   1.363
 6045SOL     OW19033   6.555   5.072   1.113
 6045SOL    HW119034   6.593   4.987   1.079
 6045SOL    HW219035   6.618   5.111   1.181
 6046SOL     OW19036   3.230   2.016   6.873
 6046SOL    HW119037   3.154   2.081   6.877
 6046SOL    HW219038   3.197   1.924   6.894
 6047SOL     OW19039   6.021   2.331   2.087
 6047SOL    HW119040   5.977   2.242   2.091
 6047SOL    HW219041   5.955   2.401   2.060
 6048SOL     OW19042   4.468   6.010   4.251
 6048SOL    HW119043   4.398   6.081   4.261
 6048SOL    HW219044   4.454   5.940   4.320
 6049SOL     OW19045   5.948   3.135   6.011
 6049SOL    HW119046   5.965   3.233   6.005
 6049SOL    HW219047   5.850   3.117   5.996
 6050SOL     OW19048   2.975   5.141   4.755
 6050SOL    HW119049   2.985   5.119   4.852
 6050SOL    HW219050   2.991   5.239   4.741
 6051SOL     OW19051   2.540   1.646   4.531
 6051SOL    HW119052   2.528   1.722   4.468
 6051SOL    HW219053   2.452   1.602   4.547
 6052SOL     OW19054   6.281   6.865   0.931
 6052SOL    HW119055   6.256   6.941   0.870
 6052SOL    HW219056   6.349   6.896   0.997
 6053SOL     OW19057   3.354   0.923   6.438
 6053SOL    HW119058   3.366   1.022   6.432
 6053SOL    HW219059   3.438   0.877   6.410
 6054SOL     OW19060   2.795   3.667   0.040
 6054SOL    HW119061   2.873   3.624   0.086
 6054SOL    HW219062   2.762   3.744   0.094
 6055SOL     OW19063   5.119   1.333   5.521
 6055SOL    HW119064   5.184   1.315   5.594
 6055SOL    HW219065   5.043   1.388   5.556
 6056SOL     OW19066   4.772   2.922   4.602
 6056SOL    HW119067   4.866   2.928   4.567
 6056SOL    HW219068   4.714   2.876   4.535
 6057SOL     OW19069   5.063   2.647   4.485
 6057SOL    HW119070   4.981   2.607   4.445
 6057SOL    HW219071   5.085   2.600   4.571
 6058SOL     OW19072   4.903   2.518   1.991
 6058SOL    HW119073   4.908   2.527   1.892
 6058SOL    HW219074   4.813   2.547   2.023
 6059SOL     OW19075   5.122   5.101   4.648
 6059SOL    HW119076   5.155   5.054   4.730
 6059SOL    HW219077   5.023   5.088   4.639
 6060SOL     OW19078   3.259   4.275   6.214
 6060SOL    HW119079   3.170   4.248   6.250
 6060SOL    HW219080   3.312   4.193   6.192
 6061SOL     OW19081   4.030   2.108   1.574
 6061SOL    HW119082   4.061   2.199   1.603
 6061SOL    HW219083   4.094   2.039   1.606
 6062SOL     OW19084   1.956   1.750   4.814
 6062SOL    HW119085   1.960   1.839   4.859
 6062SOL    HW219086   1.862   1.729   4.789
 6063SOL     OW19087   3.449   1.364   6.692
 6063SOL    HW119088   3.419   1.429   6.623
 6063SOL    HW219089   3.396   1.377   6.776
 6064SOL     OW19090   2.596   6.309   1.238
 6064SOL    HW119091   2.620   6.289   1.332
 6064SOL    HW219092   2.622   6.232   1.179
 6065SOL     OW19093   5.847   6.686   2.306
 6065SOL    HW119094   5.916   6.694   2.234
 6065SOL    HW219095   5.798   6.599   2.297
 6066SOL     OW19096   4.781   2.153   6.710
 6066SOL    HW119097   4.802   2.109   6.623
 6066SOL    HW219098   4.684   2.180   6.711
 6067SOL     OW19099   5.567   1.555   5.945
 6067SOL    HW119100   5.643   1.617   5.928
 6067SOL    HW219101   5.587   1.466   5.904
 6068SOL     OW19102   5.548   2.915   4.810
 6068SOL    HW119103   5.507   3.002   4.781
 6068SOL    HW219104   5.609   2.932   4.888
 6069SOL     OW19105   6.712   3.061   5.007
 6069SOL    HW119106   6.787   3.063   5.074
 6069SOL    HW219107   6.743   3.104   4.922
 6070SOL     OW19108   2.169   2.614   0.288
 6070SOL    HW119109   2.165   2.699   0.340
 6070SOL    HW219110   2.222   2.628   0.204
 6071SOL     OW19111   5.683   4.794   4.744
 6071SOL    HW119112   5.584   4.791   4.735
 6071SOL    HW219113   5.716   4.709   4.784
 6072SOL     OW19114   0.317   6.753   1.943
 6072SOL    HW119115   0.302   6.756   1.844
 6072SOL    HW219116   0.329   6.658   1.972
 6073SOL     OW19117   6.331   4.349   0.733
 6073SOL    HW119118   6.404   4.416   0.722
 6073SOL    HW219119   6.243   4.392   0.715
 6074SOL     OW19120   1.261   6.183   4.538
 6074SOL    HW119121   1.279   6.280   4.553
 6074SOL    HW219122   1.178   6.156   4.586
 6075SOL     OW19123   7.014   2.142   6.935
 6075SOL    HW119124   0.084   2.134   6.985
 6075SOL    HW219125   6.970   2.053   6.929
 6076SOL     OW19126   2.094   6.041   4.416
 6076SOL    HW119127   2.143   6.047   4.503
 6076SOL    HW219128   2.109   5.951   4.375
 6077SOL     OW19129   5.082   5.991   1.778
 6077SOL    HW119130   5.017   6.026   1.710
 6077SOL    HW219131   5.066   6.035   1.866
 6078SOL     OW19132   3.803   5.069   1.350
 6078SOL    HW119133   3.877   5.129   1.380
 6078SOL    HW219134   3.732   5.065   1.420
 6079SOL     OW19135   2.898   3.148   6.445
 6079SOL    HW119136   2.995   3.130   6.426
 6079SOL    HW219137   2.887   3.245   6.469
 6080SOL     OW19138   6.952   0.648   1.732
 6080SOL    HW119139   6.994   0.673   1.645
 6080SOL    HW219140   6.853   0.640   1.721
 6081SOL     OW19141   6.058   3.081   4.849
 6081SOL    HW119142   6.089   3.018   4.777
 6081SOL    HW219143   6.123   3.078   4.925
 6082SOL     OW19144   2.389   1.992   3.594
 6082SOL    HW119145   2.476   2.041   3.585
 6082SOL    HW219146   2.406   1.901   3.632
 6083SOL     OW19147   0.151   4.989   6.878
 6083SOL    HW119148   0.128   5.057   6.947
 6083SOL    HW219149   0.244   4.956   6.892
 6084SOL     OW19150   0.191   5.446   3.589
 6084SOL    HW119151   0.180   5.536   3.631
 6084SOL    HW219152   0.282   5.410   3.613
 6085SOL     OW19153   0.311   4.336   0.083
 6085SOL    HW119154   0.252   4.267   0.126
 6085SOL    HW219155   0.316   4.417   0.141
 6086SOL     OW19156   3.165   1.475   5.357
 6086SOL    HW119157   3.158   1.452   5.260
 6086SOL    HW219158   3.261   1.494   5.380
 6087SOL     OW19159   4.448   5.910   0.506
 6087SOL    HW119160   4.356   5.947   0.489
 6087SOL    HW219161   4.487   5.879   0.420
 6088SOL     OW19162   5.880   6.659   4.380
 6088SOL    HW119163   5.902   6.563   4.366
 6088SOL    HW219164   5.784   6.675   4.358
 6089SOL     OW19165   6.625   3.148   1.345
 6089SOL    HW119166   6.562   3.095   1.288
 6089SOL    HW219167   6.717   3.112   1.335
 6090SOL     OW19168   2.296   6.366   5.312
 6090SOL    HW119169   2.366   6.376   5.241
 6090SOL    HW219170   2.332   6.307   5.385
 6091SOL     OW19171   2.261   1.783   2.241
 6091SOL    HW119172   2.212   1.868   2.257
 6091SOL    HW219173   2.324   1.795   2.164
 6092SOL     OW19174   3.478   0.225   3.259
 6092SOL    HW119175   3.535   0.175   3.324
 6092SOL    HW219176   3.500   0.322   3.263
 6093SOL     OW19177   1.095   3.390   2.931
 6093SOL    HW119178   1.080   3.464   2.996
 6093SOL    HW219179   1.100   3.428   2.838
 6094SOL     OW19180   4.053   1.093   1.257
 6094SOL    HW119181   4.100   1.039   1.186
 6094SOL    HW219182   3.960   1.113   1.228
 6095SOL     OW19183   4.005   3.579   6.801
 6095SOL    HW119184   4.103   3.599   6.800
 6095SOL    HW219185   3.975   3.557   6.708
 6096SOL     OW19186   5.728   0.575   4.146
 6096SOL    HW119187   5.642   0.562   4.096
 6096SOL    HW219188   5.751   0.492   4.196
 6097SOL     OW19189   1.620   0.102   2.193
 6097SOL    HW119190   1.526   0.090   2.160
 6097SOL    HW219191   1.638   0.199   2.209
 6098SOL     OW19192   1.305   2.692   6.542
 6098SOL    HW119193   1.236   2.641   6.594
 6098SOL    HW219194   1.395   2.679   6.584
 6099SOL     OW19195   0.174   6.239   0.302
 6099SOL    HW119196   0.079   6.247   0.334
 6099SOL    HW219197   0.225   6.321   0.328
 6100SOL     OW19198   4.853   3.894   6.932
 6100SOL    HW119199   4.915   3.914   7.008
 6100SOL    HW219200   4.903   3.851   6.857
 6101SOL     OW19201   6.025   1.848   4.790
 6101SOL    HW119202   6.022   1.813   4.696
 6101SOL    HW219203   6.108   1.815   4.835
 6102SOL     OW19204   3.244   0.081   3.254
 6102SOL    HW119205   3.324   0.141   3.252
 6102SOL    HW219206   3.258   0.009   3.322
 6103SOL     OW19207   0.504   2.456   2.309
 6103SOL    HW119208   0.554   2.384   2.261
 6103SOL    HW219209   0.427   2.417   2.358
 6104SOL     OW19210   5.816   1.214   5.398
 6104SOL    HW119211   5.849   1.190   5.307
 6104SOL    HW219212   5.720   1.189   5.407
 6105SOL     OW19213   1.623   0.790   5.568
 6105SOL    HW119214   1.702   0.758   5.621
 6105SOL    HW219215   1.650   0.870   5.513
 6106SOL     OW19216   1.666   3.851   5.429
 6106SOL    HW119217   1.617   3.788   5.489
 6106SOL    HW219218   1.710   3.922   5.484
 6107SOL     OW19219   2.442   4.766   4.119
 6107SOL    HW119220   2.389   4.805   4.043
 6107SOL    HW219221   2.380   4.730   4.188
 6108SOL     OW19222   1.042   2.691   1.977
 6108SOL    HW119223   0.955   2.645   1.996
 6108SOL    HW219224   1.108   2.625   1.942
 6109SOL     OW19225   4.845   3.228   6.698
 6109SOL    HW119226   4.866   3.266   6.608
 6109SOL    HW219227   4.808   3.136   6.688
 6110SOL     OW19228   3.566   2.817   6.857
 6110SOL    HW119229   3.602   2.829   6.764
 6110SOL    HW219230   3.510   2.734   6.859
 6111SOL     OW19231   2.341   4.332   2.336
 6111SOL    HW119232   2.349   4.320   2.435
 6111SOL    HW219233   2.329   4.242   2.293
 6112SOL     OW19234   3.113   0.228   3.463
 6112SOL    HW119235   3.048   0.151   3.464
 6112SOL    HW219236   3.177   0.217   3.387
 6113SOL     OW19237   1.206   0.975   5.964
 6113SOL    HW119238   1.182   1.027   6.046
 6113SOL    HW219239   1.247   1.036   5.896
 6114SOL     OW19240   4.694   5.139   0.882
 6114SOL    HW119241   4.720   5.126   0.978
 6114SOL    HW219242   4.620   5.206   0.876
 6115SOL     OW19243   5.140   0.003   3.686
 6115SOL    HW119244   5.061   6.997   3.629
 6115SOL    HW219245   5.180   0.089   3.654
 6116SOL     OW19246   3.112   0.702   0.382
 6116SOL    HW119247   3.024   0.747   0.394
 6116SOL    HW219248   3.134   0.696   0.285
 6117SOL     OW19249   0.138   0.710   5.668
 6117SOL    HW119250   0.068   0.758   5.720
 6117SOL    HW219251   0.098   0.672   5.585
 6118SOL     OW19252   6.153   0.628   1.851
 6118SOL    HW119253   6.086   0.593   1.917
 6118SOL    HW219254   6.118   0.614   1.759
 6119SOL     OW19255   0.672   3.433   5.424
 6119SOL    HW119256   0.585   3.454   5.469
 6119SOL    HW219257   0.739   3.505   5.446
 6120SOL     OW19258   4.261   6.944   4.064
 6120SOL    HW119259   4.308   6.932   4.152
 6120SOL    HW219260   4.296   0.010   4.019
 6121SOL     OW19261   0.605   3.405   5.116
 6121SOL    HW119262   0.651   3.486   5.080
 6121SOL    HW219263   0.640   3.384   5.207
 6122SOL     OW19264   4.040   7.006   1.486
 6122SOL    HW119265   3.983   6.991   1.567
 6122SOL    HW219266   4.064   0.087   1.479
 6123SOL     OW19267   6.823   0.408   6.650
 6123SOL    HW119268   6.898   0.344   6.638
 6123SOL    HW219269   6.859   0.502   6.652
 6124SOL     OW19270   2.052   1.315   0.199
 6124SOL    HW119271   2.009   1.280   0.283
 6124SOL    HW219272   1.991   1.379   0.154
 6125SOL     OW19273   2.243   5.893   0.190
 6125SOL    HW119274   2.314   5.844   0.140
 6125SOL    HW219275   2.153   5.865   0.156
 6126SOL     OW19276   7.005   6.604   4.244
 6126SOL    HW119277   6.916   6.560   4.236
 6126SOL    HW219278   7.012   6.678   4.177
 6127SOL     OW19279   2.741   0.285   2.309
 6127SOL    HW119280   2.823   0.236   2.282
 6127SOL    HW219281   2.767   0.367   2.361
 6128SOL     OW19282   6.153   3.358   0.687
 6128SOL    HW119283   6.203   3.417   0.624
 6128SOL    HW219284   6.218   3.301   0.737
 6129SOL     OW19285   6.469   3.708   3.022
 6129SOL    HW119286   6.530   3.632   3.043
 6129SOL    HW219287   6.388   3.674   2.974
 6130SOL     OW19288   6.271   2.080   4.120
 6130SOL    HW119289   6.229   2.147   4.058
 6130SOL    HW219290   6.366   2.106   4.137
 6131SOL     OW19291   6.863   1.612   5.210
 6131SOL    HW119292   6.892   1.706   5.226
 6131SOL    HW219293   6.900   1.554   5.283
 6132SOL     OW19294   5.156   1.106   0.384
 6132SOL    HW119295   5.162   1.136   0.479
 6132SOL    HW219296   5.066   1.127   0.347
 6133SOL     OW19297   1.093   2.482   2.473
 6133SOL    HW119298   1.121   2.468   2.378
 6133SOL    HW219299   1.048   2.400   2.507
 6134SOL     OW19300   3.998   4.328   6.503
 6134SOL    HW119301   3.945   4.300   6.423
 6134SOL    HW219302   3.949   4.302   6.586
 6135SOL     OW19303   0.272   0.370   1.570
 6135SOL    HW119304   0.334   0.404   1.500
 6135SOL    HW219305   0.309   0.390   1.661
 6136SOL     OW19306   1.106   2.848   2.253
 6136SOL    HW119307   1.108   2.763   2.200
 6136SOL    HW219308   1.045   2.914   2.208
 6137SOL     OW19309   5.688   2.329   3.920
 6137SOL    HW119310   5.766   2.390   3.936
 6137SOL    HW219311   5.721   2.235   3.912
 6138SOL     OW19312   4.352   6.161   1.856
 6138SOL    HW119313   4.409   6.234   1.893
 6138SOL    HW219314   4.258   6.171   1.890
 6139SOL     OW19315   1.954   1.787   5.577
 6139SOL    HW119316   2.046   1.815   5.549
 6139SOL    HW219317   1.903   1.867   5.607
 6140SOL     OW19318   0.769   6.174   1.696
 6140SOL    HW119319   0.734   6.081   1.682
 6140SOL    HW219320   0.818   6.204   1.614
 6141SOL     OW19321   5.770   6.051   6.045
 6141SOL    HW119322   5.841   5.988   6.073
 6141SOL    HW219323   5.761   6.124   6.112
 6142SOL     OW19324   6.760   5.055   0.866
 6142SOL    HW119325   6.765   4.990   0.942
 6142SOL    HW219326   6.665   5.066   0.838
 6143SOL     OW19327   6.255   4.752   0.519
 6143SOL    HW119328   6.310   4.771   0.438
 6143SOL    HW219329   6.217   4.838   0.555
 6144SOL     OW19330   6.290   4.775   2.862
 6144SOL    HW119331   6.208   4.778   2.805
 6144SOL    HW219332   6.356   4.711   2.822
 6145SOL     OW19333   4.638   5.473   4.344
 6145SOL    HW119334   4.710   5.488   4.411
 6145SOL    HW219335   4.678   5.462   4.253
 6146SOL     OW19336   3.803   0.401   3.854
 6146SOL    HW119337   3.856   0.475   3.896
 6146SOL    HW219338   3.716   0.437   3.821
 6147SOL     OW19339   1.437   3.830   4.543
 6147SOL    HW119340   1.496   3.876   4.477
 6147SOL    HW219341   1.493   3.782   4.610
 6148SOL     OW19342   0.200   6.901   4.858
 6148SOL    HW119343   0.122   6.924   4.800
 6148SOL    HW219344   0.276   6.963   4.837
 6149SOL     OW19345   3.721   5.208   1.763
 6149SOL    HW119346   3.806   5.161   1.737
 6149SOL    HW219347   3.727   5.234   1.860
 6150SOL     OW19348   4.149   4.638   6.902
 6150SOL    HW119349   4.211   4.572   6.945
 6150SOL    HW219350   4.061   4.594   6.886
 6151SOL     OW19351   6.247   3.778   5.606
 6151SOL    HW119352   6.189   3.852   5.641
 6151SOL    HW219353   6.208   3.742   5.522
 6152SOL     OW19354   5.575   5.663   5.258
 6152SOL    HW119355   5.562   5.641   5.355
 6152SOL    HW219356   5.629   5.747   5.250
 6153SOL     OW19357   4.820   3.847   2.077
 6153SOL    HW119358   4.883   3.790   2.024
 6153SOL    HW219359   4.737   3.797   2.097
 6154SOL     OW19360   5.745   1.616   2.849
 6154SOL    HW119361   5.838   1.581   2.856
 6154SOL    HW219362   5.746   1.707   2.808
 6155SOL     OW19363   1.814   2.357   4.269
 6155SOL    HW119364   1.788   2.453   4.259
 6155SOL    HW219365   1.869   2.347   4.352
 6156SOL     OW19366   4.578   4.942   2.079
 6156SOL    HW119367   4.484   4.926   2.050
 6156SOL    HW219368   4.593   4.903   2.170
 6157SOL     OW19369   1.354   1.457   4.203
 6157SOL    HW119370   1.364   1.425   4.108
 6157SOL    HW219371   1.386   1.386   4.265
 6158SOL     OW19372   4.423   0.927   5.703
 6158SOL    HW119373   4.445   0.838   5.663
 6158SOL    HW219374   4.470   0.936   5.791
 6159SOL     OW19375   4.820   2.163   1.450
 6159SOL    HW119376   4.793   2.067   1.441
 6159SOL    HW219377   4.919   2.169   1.461
 6160SOL     OW19378   4.476   6.668   6.355
 6160SOL    HW119379   4.511   6.700   6.444
 6160SOL    HW219380   4.484   6.742   6.289
 6161SOL     OW19381   6.139   1.058   5.103
 6161SOL    HW119382   6.068   1.127   5.122
 6161SOL    HW219383   6.206   1.058   5.178
 6162SOL     OW19384   1.509   6.361   3.560
 6162SOL    HW119385   1.477   6.321   3.474
 6162SOL    HW219386   1.440   6.348   3.631
 6163SOL     OW19387   5.596   6.003   1.535
 6163SOL    HW119388   5.633   6.064   1.464
 6163SOL    HW219389   5.636   6.027   1.623
 6164SOL     OW19390   3.008   2.728   1.762
 6164SOL    HW119391   2.996   2.696   1.668
 6164SOL    HW219392   2.982   2.656   1.826
 6165SOL     OW19393   4.920   0.269   6.475
 6165SOL    HW119394   4.871   0.243   6.391
 6165SOL    HW219395   4.855   0.273   6.551
 6166SOL     OW19396   3.950   0.804   6.379
 6166SOL    HW119397   3.956   0.903   6.388
 6166SOL    HW219398   3.883   0.768   6.444
 6167SOL     OW19399   1.097   3.920   3.284
 6167SOL    HW119400   1.162   3.996   3.279
 6167SOL    HW219401   1.064   3.911   3.378
 6168SOL     OW19402   0.452   3.565   1.315
 6168SOL    HW119403   0.502   3.553   1.228
 6168SOL    HW219404   0.518   3.569   1.390
 6169SOL     OW19405   1.421   3.005   1.345
 6169SOL    HW119406   1.460   2.915   1.364
 6169SOL    HW219407   1.434   3.064   1.425
 6170SOL     OW19408   1.129   3.755   5.413
 6170SOL    HW119409   1.104   3.814   5.336
 6170SOL    HW219410   1.137   3.810   5.496
 6171SOL     OW19411   0.687   2.645   0.451
 6171SOL    HW119412   0.786   2.645   0.440
 6171SOL    HW219413   0.661   2.578   0.521
 6172SOL     OW19414   1.254   3.064   2.349
 6172SOL    HW119415   1.229   3.089   2.442
 6172SOL    HW219416   1.203   2.982   2.321
 6173SOL     OW19417   6.522   4.864   2.967
 6173SOL    HW119418   6.424   4.856   2.950
 6173SOL    HW219419   6.558   4.777   3.000
 6174SOL     OW19420   5.313   6.104   3.917
 6174SOL    HW119421   5.362   6.166   3.978
 6174SOL    HW219422   5.287   6.021   3.968
 6175SOL     OW19423   4.129   0.591   3.835
 6175SOL    HW119424   4.172   0.598   3.745
 6175SOL    HW219425   4.120   0.494   3.860
 6176SOL     OW19426   5.647   4.264   5.579
 6176SOL    HW119427   5.599   4.351   5.592
 6176SOL    HW219428   5.593   4.205   5.520
 6177SOL     OW19429   5.427   1.639   1.928
 6177SOL    HW119430   5.474   1.568   1.981
 6177SOL    HW219431   5.475   1.654   1.842
 6178SOL     OW19432   5.411   5.126   2.021
 6178SOL    HW119433   5.496   5.173   2.044
 6178SOL    HW219434   5.429   5.028   2.011
 6179SOL     OW19435   6.895   4.273   2.971
 6179SOL    HW119436   6.891   4.232   3.062
 6179SOL    HW219437   6.975   4.239   2.923
 6180SOL     OW19438   2.628   4.573   0.936
 6180SOL    HW119439   2.718   4.614   0.923
 6180SOL    HW219440   2.557   4.642   0.920
 6181SOL     OW19441   4.717   6.245   5.937
 6181SOL    HW119442   4.721   6.305   5.858
 6181SOL    HW219443   4.641   6.180   5.926
 6182SOL     OW19444   4.365   3.048   6.170
 6182SOL    HW119445   4.308   3.067   6.090
 6182SOL    HW219446   4.341   2.958   6.208
 6183SOL     OW19447   1.797   2.219   3.636
 6183SOL    HW119448   1.853   2.159   3.693
 6183SOL    HW219449   1.853   2.294   3.601
 6184SOL     OW19450   3.099   6.522   6.324
 6184SOL    HW119451   3.050   6.608   6.336
 6184SOL    HW219452   3.076   6.482   6.235
 6185SOL     OW19453   0.453   3.794   6.619
 6185SOL    HW119454   0.488   3.775   6.711
 6185SOL    HW219455   0.459   3.892   6.600
 6186SOL     OW19456   5.871   1.296   0.671
 6186SOL    HW119457   5.851   1.291   0.574
 6186SOL    HW219458   5.786   1.285   0.723
 6187SOL     OW19459   5.074   2.989   3.913
 6187SOL    HW119460   5.111   2.990   4.006
 6187SOL    HW219461   5.049   2.896   3.888
 6188SOL     OW19462   1.903   1.424   6.024
 6188SOL    HW119463   1.947   1.393   6.109
 6188SOL    HW219464   1.817   1.470   6.047
 6189SOL     OW19465   4.059   5.105   2.943
 6189SOL    HW119466   4.015   5.019   2.968
 6189SOL    HW219467   4.134   5.124   3.007
 6190SOL     OW19468   0.163   3.988   4.732
 6190SOL    HW119469   0.257   4.006   4.706
 6190SOL    HW219470   0.117   3.934   4.661
 6191SOL     OW19471   2.799   2.894   6.454
 6191SOL    HW119472   2.845   2.982   6.458
 6191SOL    HW219473   2.787   2.866   6.359
 6192SOL     OW19474   2.444   1.960   6.623
 6192SOL    HW119475   2.530   1.939   6.577
 6192SOL    HW219476   2.371   1.963   6.554
 6193SOL     OW19477   4.657   6.012   1.368
 6193SOL    HW119478   4.592   6.043   1.299
 6193SOL    HW219479   4.618   6.024   1.459
 6194SOL     OW19480   0.155   0.477   6.303
 6194SOL    HW119481   0.185   0.390   6.264
 6194SOL    HW219482   0.056   0.487   6.291
 6195SOL     OW19483   5.036   5.693   4.179
 6195SOL    HW119484   5.073   5.640   4.255
 6195SOL    HW219485   4.939   5.710   4.195
 6196SOL     OW19486   5.126   4.080   2.360
 6196SOL    HW119487   5.072   4.025   2.424
 6196SOL    HW219488   5.100   4.056   2.266
 6197SOL     OW19489   2.106   5.702   1.588
 6197SOL    HW119490   2.164   5.740   1.516
 6197SOL    HW219491   2.106   5.602   1.582
 6198SOL     OW19492   4.701   0.231   0.938
 6198SOL    HW119493   4.640   0.283   0.999
 6198SOL    HW219494   4.735   0.150   0.987
 6199SOL     OW19495   0.368   0.820   0.465
 6199SOL    HW119496   0.438   0.857   0.527
 6199SOL    HW219497   0.354   0.884   0.390
 6200SOL     OW19498   0.862   1.597   5.456
 6200SOL    HW119499   0.768   1.565   5.469
 6200SOL    HW219500   0.925   1.519   5.461
 6201SOL     OW19501   0.631   3.128   5.446
 6201SOL    HW119502   0.608   3.225   5.442
 6201SOL    HW219503   0.552   3.076   5.481
 6202SOL     OW19504   4.944   0.883   2.147
 6202SOL    HW119505   5.009   0.909   2.075
 6202SOL    HW219506   4.991   0.827   2.215
 6203SOL     OW19507   6.010   5.824   2.143
 6203SOL    HW119508   5.991   5.897   2.208
 6203SOL    HW219509   6.109   5.807   2.139
 6204SOL     OW19510   1.142   5.816   4.778
 6204SOL    HW119511   1.201   5.895   4.762
 6204SOL    HW219512   1.126   5.806   4.876
 6205SOL     OW19513   6.286   4.910   1.280
 6205SOL    HW119514   6.256   4.853   1.356
 6205SOL    HW219515   6.383   4.896   1.263
 6206SOL     OW19516   6.378   1.519   2.373
 6206SOL    HW119517   6.343   1.486   2.285
 6206SOL    HW219518   6.302   1.555   2.427
 6207SOL     OW19519   2.530   6.083   5.524
 6207SOL    HW119520   2.437   6.090   5.488
 6207SOL    HW219521   2.545   5.990   5.557
 6208SOL     OW19522   3.715   2.360   5.371
 6208SOL    HW119523   3.721   2.326   5.465
 6208SOL    HW219524   3.708   2.282   5.308
 6209SOL     OW19525   2.975   5.901   6.779
 6209SOL    HW119526   3.004   5.889   6.685
 6209SOL    HW219527   3.028   5.841   6.839
 6210SOL     OW19528   4.844   3.860   2.779
 6210SOL    HW119529   4.843   3.918   2.861
 6210SOL    HW219530   4.830   3.765   2.805
 6211SOL     OW19531   2.867   6.672   5.361
 6211SOL    HW119532   2.815   6.587   5.373
 6211SOL    HW219533   2.965   6.651   5.359
 6212SOL     OW19534   2.534   4.870   4.370
 6212SOL    HW119535   2.631   4.874   4.393
 6212SOL    HW219536   2.524   4.854   4.272
 6213SOL     OW19537   4.586   6.937   0.100
 6213SOL    HW119538   4.643   6.856   0.088
 6213SOL    HW219539   4.491   6.914   0.081
 6214SOL     OW19540   5.563   6.012   5.589
 6214SOL    HW119541   5.598   6.068   5.665
 6214SOL    HW219542   5.474   5.975   5.614
 6215SOL     OW19543   3.497   3.049   6.631
 6215SOL    HW119544   3.496   3.025   6.534
 6215SOL    HW219545   3.584   3.092   6.653
 6216SOL     OW19546   6.030   2.058   2.165
 6216SOL    HW119547   6.101   2.004   2.210
 6216SOL    HW219548   5.947   2.004   2.156
 6217SOL     OW19549   1.064   4.510   3.211
 6217SOL    HW119550   1.076   4.414   3.237
 6217SOL    HW219551   1.140   4.564   3.245
 6218SOL     OW19552   3.579   0.116   6.847
 6218SOL    HW119553   3.563   0.033   6.793
 6218SOL    HW219554   3.600   0.091   6.941
 6219SOL     OW19555   1.310   1.227   4.564
 6219SOL    HW119556   1.223   1.237   4.515
 6219SOL    HW219557   1.328   1.130   4.580
 6220SOL     OW19558   3.036   1.032   5.350
 6220SOL    HW119559   3.103   1.063   5.283
 6220SOL    HW219560   2.968   0.975   5.305
 6221SOL     OW19561   5.876   0.172   0.073
 6221SOL    HW119562   5.930   0.157   7.006
 6221SOL    HW219563   5.934   0.208   0.145
 6222SOL     OW19564   0.757   0.768   2.428
 6222SOL    HW119565   0.701   0.777   2.346
 6222SOL    HW219566   0.809   0.683   2.424
 6223SOL     OW19567   1.601   5.051   3.066
 6223SOL    HW119568   1.567   4.989   2.996
 6223SOL    HW219569   1.529   5.113   3.095
 6224SOL     OW19570   3.650   0.869   5.768
 6224SOL    HW119571   3.611   0.857   5.677
 6224SOL    HW219572   3.738   0.916   5.761
 6225SOL     OW19573   3.611   2.526   6.722
 6225SOL    HW119574   3.546   2.525   6.797
 6225SOL    HW219575   3.579   2.588   6.650
 6226SOL     OW19576   1.267   1.675   4.020
 6226SOL    HW119577   1.300   1.765   4.050
 6226SOL    HW219578   1.276   1.610   4.095
 6227SOL     OW19579   3.675   5.354   5.380
 6227SOL    HW119580   3.644   5.260   5.370
 6227SOL    HW219581   3.764   5.364   5.335
 6228SOL     OW19582   0.909   2.669   2.556
 6228SOL    HW119583   0.970   2.596   2.527
 6228SOL    HW219584   0.956   2.727   2.623
 6229SOL     OW19585   0.735   3.252   4.901
 6229SOL    HW119586   0.768   3.158   4.913
 6229SOL    HW219587   0.684   3.280   4.983
 6230SOL     OW19588   1.032   2.266   3.384
 6230SOL    HW119589   1.044   2.201   3.459
 6230SOL    HW219590   1.119   2.277   3.336
 6231SOL     OW19591   5.592   4.962   0.286
 6231SOL    HW119592   5.573   4.964   0.385
 6231SOL    HW219593   5.691   4.968   0.272
 6232SOL     OW19594   6.492   1.524   0.385
 6232SOL    HW119595   6.447   1.506   0.298
 6232SOL    HW219596   6.425   1.518   0.459
 6233SOL     OW19597   6.008   2.526   1.783
 6233SOL    HW119598   5.972   2.575   1.704
 6233SOL    HW219599   6.107   2.539   1.789
 6234SOL     OW19600   0.243   6.986   5.520
 6234SOL    HW119601   0.210   0.052   5.567
 6234SOL    HW219602   0.182   6.909   5.539
 6235SOL     OW19603   0.061   0.691   1.472
 6235SOL    HW119604   0.131   0.653   1.411
 6235SOL    HW219605   0.074   0.790   1.480
 6236SOL     OW19606   0.178   4.750   0.680
 6236SOL    HW119607   0.116   4.757   0.601
 6236SOL    HW219608   0.162   4.663   0.727
 6237SOL     OW19609   3.811   0.259   6.913
 6237SOL    HW119610   3.796   0.343   6.964
 6237SOL    HW219611   3.726   0.231   6.868
 6238SOL     OW19612   4.723   6.303   3.170
 6238SOL    HW119613   4.650   6.360   3.132
 6238SOL    HW219614   4.791   6.361   3.214
 6239SOL     OW19615   4.067   0.854   1.030
 6239SOL    HW119616   4.014   0.776   0.998
 6239SOL    HW219617   4.098   0.908   0.951
 6240SOL     OW19618   3.136   3.502   5.422
 6240SOL    HW119619   3.114   3.598   5.441
 6240SOL    HW219620   3.207   3.472   5.486
 6241SOL     OW19621   3.822   0.606   3.278
 6241SOL    HW119622   3.803   0.701   3.304
 6241SOL    HW219623   3.833   0.600   3.179
 6242SOL     OW19624   3.518   0.227   2.938
 6242SOL    HW119625   3.516   0.149   3.001
 6242SOL    HW219626   3.524   0.193   2.844
 6243SOL     OW19627   6.755   0.192   6.182
 6243SOL    HW119628   6.770   0.169   6.086
 6243SOL    HW219629   6.665   0.234   6.193
 6244SOL     OW19630   5.250   3.533   3.406
 6244SOL    HW119631   5.193   3.454   3.383
 6244SOL    HW219632   5.308   3.511   3.485
 6245SOL     OW19633   1.171   4.215   1.810
 6245SOL    HW119634   1.087   4.162   1.820
 6245SOL    HW219635   1.218   4.219   1.898
 6246SOL     OW19636   1.082   1.068   4.876
 6246SOL    HW119637   1.134   1.146   4.912
 6246SOL    HW219638   1.136   1.023   4.805
 6247SOL     OW19639   1.913   6.372   3.500
 6247SOL    HW119640   1.905   6.388   3.599
 6247SOL    HW219641   1.905   6.274   3.482
 6248SOL     OW19642   3.587   3.789   0.226
 6248SOL    HW119643   3.529   3.708   0.234
 6248SOL    HW219644   3.569   3.850   0.303
 6249SOL     OW19645   6.779   3.004   0.955
 6249SOL    HW119646   6.829   2.981   0.871
 6249SOL    HW219647   6.690   3.043   0.932
 6250SOL     OW19648   6.609   6.816   0.806
 6250SOL    HW119649   6.553   6.882   0.757
 6250SOL    HW219650   6.705   6.828   0.781
 6251SOL     OW19651   4.237   6.032   4.822
 6251SOL    HW119652   4.140   6.009   4.814
 6251SOL    HW219653   4.259   6.109   4.762
 6252SOL     OW19654   2.682   4.494   6.771
 6252SOL    HW119655   2.705   4.470   6.676
 6252SOL    HW219656   2.680   4.412   6.827
 6253SOL     OW19657   2.256   4.898   4.400
 6253SOL    HW119658   2.221   4.909   4.493
 6253SOL    HW219659   2.354   4.918   4.398
 6254SOL     OW19660   6.457   0.009   0.723
 6254SOL    HW119661   6.361   7.012   0.699
 6254SOL    HW219662   6.467   0.093   0.776
 6255SOL     OW19663   2.110   1.789   0.538
 6255SOL    HW119664   2.050   1.856   0.581
 6255SOL    HW219665   2.094   1.699   0.578
 6256SOL     OW19666   4.358   5.356   2.575
 6256SOL    HW119667   4.286   5.302   2.619
 6256SOL    HW219668   4.406   5.299   2.508
 6257SOL     OW19669   3.962   2.909   0.065
 6257SOL    HW119670   4.026   2.849   0.111
 6257SOL    HW219671   3.927   2.977   0.130
 6258SOL     OW19672   3.436   6.773   4.818
 6258SOL    HW119673   3.479   6.855   4.854
 6258SOL    HW219674   3.358   6.748   4.876
 6259SOL     OW19675   2.186   1.003   6.213
 6259SOL    HW119676   2.220   0.980   6.122
 6259SOL    HW219677   2.114   0.938   6.239
 6260SOL     OW19678   3.458   0.140   0.197
 6260SOL    HW119679   3.510   0.080   0.137
 6260SOL    HW219680   3.501   0.142   0.287
 6261SOL     OW19681   4.579   6.840   0.656
 6261SOL    HW119682   4.568   6.772   0.728
 6261SOL    HW219683   4.676   6.855   0.638
 6262SOL     OW19684   1.574   6.086   2.531
 6262SOL    HW119685   1.607   6.005   2.580
 6262SOL    HW219686   1.648   6.153   2.523
 6263SOL     OW19687   0.954   6.701   5.266
 6263SOL    HW119688   0.946   6.693   5.167
 6263SOL    HW219689   0.863   6.716   5.306
 6264SOL     OW19690   2.038   0.265   1.656
 6264SOL    HW119691   2.121   0.212   1.674
 6264SOL    HW219692   2.049   0.318   1.572
 6265SOL     OW19693   4.427   3.392   0.662
 6265SOL    HW119694   4.438   3.423   0.568
 6265SOL    HW219695   4.448   3.294   0.668
 6266SOL     OW19696   4.487   6.473   3.109
 6266SOL    HW119697   4.477   6.480   3.208
 6266SOL    HW219698   4.414   6.525   3.064
 6267SOL     OW19699   2.080   0.073   4.678
 6267SOL    HW119700   2.112   0.067   4.772
 6267SOL    HW219701   2.004   0.138   4.673
 6268SOL     OW19702   2.981   0.748   1.765
 6268SOL    HW119703   3.052   0.782   1.827
 6268SOL    HW219704   2.967   0.651   1.781
 6269SOL     OW19705   6.325   6.901   2.306
 6269SOL    HW119706   6.412   6.948   2.294
 6269SOL    HW219707   6.252   6.955   2.266
 6270SOL     OW19708   0.445   0.159   6.955
 6270SOL    HW119709   0.481   0.095   6.887
 6270SOL    HW219710   0.347   0.145   6.966
 6271SOL     OW19711   6.241   2.364   6.356
 6271SOL    HW119712   6.239   2.398   6.262
 6271SOL    HW219713   6.336   2.354   6.386
 6272SOL     OW19714   0.657   1.672   0.303
 6272SOL    HW119715   0.748   1.648   0.334
 6272SOL    HW219716   0.634   1.618   0.221
 6273SOL     OW19717   0.140   5.547   2.996
 6273SOL    HW119718   0.094   5.467   3.034
 6273SOL    HW219719   0.217   5.572   3.053
 6274SOL     OW19720   3.152   6.969   4.615
 6274SOL    HW119721   3.149   6.936   4.709
 6274SOL    HW219722   3.168   6.893   4.553
 6275SOL     OW19723   2.105   6.041   0.679
 6275SOL    HW119724   2.111   6.118   0.743
 6275SOL    HW219725   2.198   6.007   0.661
 6276SOL     OW19726   3.216   5.506   3.566
 6276SOL    HW119727   3.252   5.597   3.586
 6276SOL    HW219728   3.124   5.497   3.605
 6277SOL     OW19729   4.904   2.326   1.065
 6277SOL    HW119730   4.898   2.341   1.164
 6277SOL    HW219731   4.864   2.237   1.043
 6278SOL     OW19732   4.126   0.720   4.786
 6278SOL    HW119733   4.165   0.734   4.694
 6278SOL    HW219734   4.177   0.648   4.832
 6279SOL     OW19735   4.166   6.027   0.867
 6279SOL    HW119736   4.100   6.023   0.792
 6279SOL    HW219737   4.241   5.964   0.849
 6280SOL     OW19738   0.253   1.607   6.581
 6280SOL    HW119739   0.170   1.607   6.526
 6280SOL    HW219740   0.249   1.533   6.649
 6281SOL     OW19741   6.420   4.642   4.023
 6281SOL    HW119742   6.410   4.610   3.928
 6281SOL    HW219743   6.358   4.719   4.038
 6282SOL     OW19744   5.797   3.096   4.847
 6282SOL    HW119745   5.887   3.053   4.840
 6282SOL    HW219746   5.807   3.186   4.889
 6283SOL     OW19747   1.008   4.390   4.212
 6283SOL    HW119748   0.911   4.389   4.236
 6283SOL    HW219749   1.028   4.472   4.159
 6284SOL     OW19750   1.466   5.393   6.656
 6284SOL    HW119751   1.404   5.333   6.605
 6284SOL    HW219752   1.462   5.370   6.753
 6285SOL     OW19753   0.789   3.055   3.360
 6285SOL    HW119754   0.831   3.053   3.450
 6285SOL    HW219755   0.802   2.966   3.315
 6286SOL     OW19756   0.756   3.351   4.312
 6286SOL    HW119757   0.837   3.377   4.259
 6286SOL    HW219758   0.674   3.380   4.264
 6287SOL     OW19759   3.567   5.105   5.320
 6287SOL    HW119760   3.564   5.038   5.394
 6287SOL    HW219761   3.474   5.126   5.290
 6288SOL     OW19762   5.270   4.465   1.591
 6288SOL    HW119763   5.280   4.379   1.540
 6288SOL    HW219764   5.173   4.483   1.607
 6289SOL     OW19765   2.394   4.811   6.611
 6289SOL    HW119766   2.358   4.892   6.657
 6289SOL    HW219767   2.414   4.740   6.679
 6290SOL     OW19768   6.074   5.535   6.266
 6290SOL    HW119769   6.011   5.548   6.189
 6290SOL    HW219770   6.027   5.485   6.339
 6291SOL     OW19771   3.419   3.707   3.518
 6291SOL    HW119772   3.436   3.697   3.616
 6291SOL    HW219773   3.342   3.649   3.492
 6292SOL     OW19774   2.518   2.079   5.458
 6292SOL    HW119775   2.536   2.177   5.451
 6292SOL    HW219776   2.510   2.040   5.367
 6293SOL     OW19777   4.539   1.785   0.705
 6293SOL    HW119778   4.612   1.718   0.695
 6293SOL    HW219779   4.478   1.782   0.625
 6294SOL     OW19780   4.460   0.362   3.543
 6294SOL    HW119781   4.396   0.344   3.619
 6294SOL    HW219782   4.544   0.402   3.580
 6295SOL     OW19783   5.439   5.072   4.686
 6295SOL    HW119784   5.459   5.104   4.779
 6295SOL    HW219785   5.452   4.973   4.682
 6296SOL     OW19786   0.435   4.415   5.200
 6296SOL    HW119787   0.444   4.510   5.169
 6296SOL    HW219788   0.511   4.393   5.261
 6297SOL     OW19789   6.287   0.295   5.504
 6297SOL    HW119790   6.268   0.242   5.422
 6297SOL    HW219791   6.213   0.360   5.519
 6298SOL     OW19792   0.019   3.842   6.287
 6298SOL    HW119793   0.029   3.749   6.251
 6298SOL    HW219794   6.970   3.892   6.230
 6299SOL     OW19795   5.691   2.722   1.665
 6299SOL    HW119796   5.759   2.675   1.607
 6299SOL    HW219797   5.673   2.812   1.627
 6300SOL     OW19798   6.232   0.627   6.549
 6300SOL    HW119799   6.234   0.527   6.544
 6300SOL    HW219800   6.190   0.655   6.636
 6301SOL     OW19801   2.796   6.028   6.468
 6301SOL    HW119802   2.836   6.106   6.421
 6301SOL    HW219803   2.782   6.050   6.564
 6302SOL     OW19804   1.981   1.333   5.484
 6302SOL    HW119805   1.964   1.431   5.492
 6302SOL    HW219806   2.065   1.310   5.532
 6303SOL     OW19807   0.695   6.309   6.153
 6303SOL    HW119808   0.793   6.303   6.175
 6303SOL    HW219809   0.657   6.393   6.191
 6304SOL     OW19810   3.545   1.301   3.405
 6304SOL    HW119811   3.501   1.258   3.484
 6304SOL    HW219812   3.490   1.379   3.375
 6305SOL     OW19813   6.151   6.163   0.654
 6305SOL    HW119814   6.108   6.165   0.564
 6305SOL    HW219815   6.249   6.183   0.644
 6306SOL     OW19816   0.528   3.697   4.090
 6306SOL    HW119817   0.460   3.729   4.024
 6306SOL    HW219818   0.504   3.731   4.181
 6307SOL     OW19819   3.368   2.932   3.618
 6307SOL    HW119820   3.283   2.936   3.669
 6307SOL    HW219821   3.445   2.918   3.681
 6308SOL     OW19822   1.205   1.940   5.662
 6308SOL    HW119823   1.300   1.971   5.662
 6308SOL    HW219824   1.169   1.941   5.569
 6309SOL     OW19825   0.107   6.998   3.767
 6309SOL    HW119826   0.091   7.004   3.865
 6309SOL    HW219827   0.185   0.039   3.742
 6310SOL     OW19828   2.210   6.768   2.610
 6310SOL    HW119829   2.118   6.744   2.581
 6310SOL    HW219830   2.208   6.803   2.704
 6311SOL     OW19831   4.966   2.135   6.126
 6311SOL    HW119832   4.895   2.196   6.163
 6311SOL    HW219833   4.961   2.047   6.174
 6312SOL     OW19834   0.981   6.385   6.278
 6312SOL    HW119835   1.067   6.435   6.295
 6312SOL    HW219836   1.003   6.291   6.252
 6313SOL     OW19837   6.185   6.966   2.832
 6313SOL    HW119838   6.203   0.007   2.751
 6313SOL    HW219839   6.266   6.967   2.891
 6314SOL     OW19840   3.147   7.008   2.006
 6314SOL    HW119841   3.131   7.005   1.908
 6314SOL    HW219842   3.241   0.021   2.024
 6315SOL     OW19843   2.716   1.848   4.747
 6315SOL    HW119844   2.783   1.795   4.695
 6315SOL    HW219845   2.625   1.807   4.736
 6316SOL     OW19846   4.616   2.087   5.253
 6316SOL    HW119847   4.652   2.009   5.304
 6316SOL    HW219848   4.640   2.172   5.301
 6317SOL     OW19849   4.999   3.696   2.470
 6317SOL    HW119850   4.939   3.775   2.460
 6317SOL    HW219851   5.045   3.678   2.383
 6318SOL     OW19852   4.402   6.913   6.196
 6318SOL    HW119853   4.423   6.997   6.147
 6318SOL    HW219854   4.307   6.886   6.177
 6319SOL     OW19855   6.752   2.065   5.187
 6319SOL    HW119856   6.689   2.060   5.265
 6319SOL    HW219857   6.830   2.122   5.211
 6320SOL     OW19858   6.950   6.369   4.802
 6320SOL    HW119859   6.984   6.343   4.892
 6320SOL    HW219860   7.012   6.437   4.761
 6321SOL     OW19861   4.786   3.280   0.448
 6321SOL    HW119862   4.811   3.183   0.445
 6321SOL    HW219863   4.759   3.310   0.357
 6322SOL     OW19864   2.807   2.661   0.510
 6322SOL    HW119865   2.855   2.652   0.598
 6322SOL    HW219866   2.869   2.636   0.436
 6323SOL     OW19867   1.173   2.060   1.435
 6323SOL    HW119868   1.257   2.017   1.402
 6323SOL    HW219869   1.162   2.150   1.392
 6324SOL     OW19870   4.097   1.848   0.429
 6324SOL    HW119871   4.044   1.820   0.350
 6324SOL    HW219872   4.084   1.782   0.503
 6325SOL     OW19873   2.086   3.006   2.945
 6325SOL    HW119874   2.070   2.926   2.887
 6325SOL    HW219875   2.120   3.082   2.890
 6326SOL     OW19876   5.680   5.201   6.741
 6326SOL    HW119877   5.726   5.282   6.778
 6326SOL    HW219878   5.696   5.195   6.643
 6327SOL     OW19879   0.187   1.794   4.145
 6327SOL    HW119880   0.158   1.730   4.073
 6327SOL    HW219881   0.286   1.807   4.139
 6328SOL     OW19882   4.154   3.185   6.793
 6328SOL    HW119883   4.150   3.087   6.810
 6328SOL    HW219884   4.085   3.231   6.850
 6329SOL     OW19885   1.139   3.060   5.181
 6329SOL    HW119886   1.180   3.151   5.168
 6329SOL    HW219887   1.095   3.057   5.271
 6330SOL     OW19888   5.960   6.771   1.638
 6330SOL    HW119889   6.012   6.843   1.593
 6330SOL    HW219890   5.864   6.777   1.610
 6331SOL     OW19891   6.592   3.568   4.981
 6331SOL    HW119892   6.530   3.629   5.030
 6331SOL    HW219893   6.548   3.538   4.896
 6332SOL     OW19894   0.923   3.134   1.068
 6332SOL    HW119895   0.949   3.103   1.159
 6332SOL    HW219896   0.970   3.220   1.047
 6333SOL     OW19897   4.469   0.302   5.727
 6333SOL    HW119898   4.392   0.306   5.791
 6333SOL    HW219899   4.500   0.207   5.718
 6334SOL     OW19900   3.144   1.200   2.214
 6334SOL    HW119901   3.121   1.295   2.195
 6334SOL    HW219902   3.120   1.143   2.135
 6335SOL     OW19903   4.148   0.886   0.111
 6335SOL    HW119904   4.113   0.855   0.200
 6335SOL    HW219905   4.073   0.889   0.045
 6336SOL     OW19906   0.621   3.097   6.448
 6336SOL    HW119907   0.689   3.121   6.379
 6336SOL    HW219908   0.610   3.173   6.512
 6337SOL     OW19909   3.880   5.442   4.871
 6337SOL    HW119910   3.924   5.491   4.796
 6337SOL    HW219911   3.912   5.480   4.958
 6338SOL     OW19912   2.966   2.228   4.305
 6338SOL    HW119913   2.869   2.215   4.323
 6338SOL    HW219914   3.015   2.238   4.391
 6339SOL     OW19915   0.896   3.628   4.006
 6339SOL    HW119916   0.851   3.654   4.091
 6339SOL    HW219917   0.856   3.543   3.972
 6340SOL     OW19918   2.380   4.155   1.326
 6340SOL    HW119919   2.286   4.166   1.358
 6340SOL    HW219920   2.383   4.170   1.227
 6341SOL     OW19921   6.971   3.874   4.292
 6341SOL    HW119922   6.939   3.846   4.201
 6341SOL    HW219923   0.039   3.926   4.284
 6342SOL     OW19924   3.513   1.597   0.795
 6342SOL    HW119925   3.492   1.500   0.797
 6342SOL    HW219926   3.450   1.644   0.734
 6343SOL     OW19927   4.009   6.937   6.628
 6343SOL    HW119928   4.091   6.921   6.574
 6343SOL    HW219929   3.928   6.935   6.569
 6344SOL     OW19930   5.715   1.968   4.222
 6344SOL    HW119931   5.699   2.067   4.230
 6344SOL    HW219932   5.680   1.936   4.134
 6345SOL     OW19933   4.633   2.779   1.761
 6345SOL    HW119934   4.561   2.735   1.708
 6345SOL    HW219935   4.606   2.874   1.782
 6346SOL     OW19936   0.043   4.975   4.753
 6346SOL    HW119937   0.098   5.054   4.779
 6346SOL    HW219938   7.002   4.998   4.674
 6347SOL     OW19939   1.932   1.493   1.178
 6347SOL    HW119940   1.835   1.499   1.155
 6347SOL    HW219941   1.944   1.507   1.276
 6348SOL     OW19942   1.023   3.192   5.895
 6348SOL    HW119943   0.980   3.267   5.945
 6348SOL    HW219944   0.989   3.105   5.931
 6349SOL     OW19945   1.673   0.656   0.575
 6349SOL    HW119946   1.754   0.667   0.632
 6349SOL    HW219947   1.592   0.645   0.633
 6350SOL     OW19948   0.867   4.948   3.615
 6350SOL    HW119949   0.821   4.866   3.582
 6350SOL    HW219950   0.816   5.029   3.586
 6351SOL     OW19951   6.336   3.659   3.507
 6351SOL    HW119952   6.431   3.656   3.539
 6351SOL    HW219953   6.331   3.616   3.417
 6352SOL     OW19954   2.414   0.530   4.710
 6352SOL    HW119955   2.487   0.562   4.650
 6352SOL    HW219956   2.335   0.502   4.654
 6353SOL     OW19957   2.152   6.579   6.918
 6353SOL    HW119958   2.251   6.577   6.904
 6353SOL    HW219959   2.110   6.500   6.873
 6354SOL     OW19960   3.705   5.970   3.039
 6354SOL    HW119961   3.662   5.969   3.129
 6354SOL    HW219962   3.794   6.016   3.046
 6355SOL     OW19963   2.766   5.624   0.197
 6355SOL    HW119964   2.692   5.667   0.145
 6355SOL    HW219965   2.738   5.614   0.293
 6356SOL     OW19966   5.392   4.916   0.490
 6356SOL    HW119967   5.296   4.940   0.476
 6356SOL    HW219968   5.406   4.818   0.470
 6357SOL     OW19969   6.376   2.600   2.367
 6357SOL    HW119970   6.393   2.692   2.333
 6357SOL    HW219971   6.340   2.543   2.293
 6358SOL     OW19972   0.003   1.777   6.514
 6358SOL    HW119973   6.978   1.730   6.592
 6358SOL    HW219974   6.993   1.874   6.517
 6359SOL     OW19975   6.331   6.599   0.833
 6359SOL    HW119976   6.304   6.694   0.845
 6359SOL    HW219977   6.271   6.540   0.886
 6360SOL     OW19978   1.039   3.397   4.516
 6360SOL    HW119979   1.039   3.472   4.582
 6360SOL    HW219980   1.048   3.310   4.563
 6361SOL     OW19981   1.321   0.954   0.998
 6361SOL    HW119982   1.253   0.930   1.067
 6361SOL    HW219983   1.307   1.049   0.968
 6362SOL     OW19984   1.318   5.959   6.585
 6362SOL    HW119985   1.369   5.916   6.659
 6362SOL    HW219986   1.367   5.946   6.499
 6363SOL     OW19987   2.961   5.282   4.164
 6363SOL    HW119988   2.980   5.362   4.220
 6363SOL    HW219989   2.891   5.225   4.208
 6364SOL     OW19990   2.852   2.705   5.456
 6364SOL    HW119991   2.848   2.620   5.402
 6364SOL    HW219992   2.759   2.734   5.478
 6365SOL     OW19993   5.556   6.543   4.219
 6365SOL    HW119994   5.469   6.588   4.198
 6365SOL    HW219995   5.595   6.507   4.135
 6366SOL     OW19996   0.379   5.857   5.288
 6366SOL    HW119997   0.352   5.764   5.262
 6366SOL    HW219998   0.408   5.858   5.384
 6367SOL     OW19999   3.280   2.116   2.722
 6367SOL    HW120000   3.218   2.145   2.649
 6367SOL    HW220001   3.374   2.120   2.690
 6368SOL     OW20002   4.245   4.719   4.489
 6368SOL    HW120003   4.285   4.721   4.581
 6368SOL    HW220004   4.164   4.777   4.486
 6369SOL     OW20005   1.887   0.450   4.578
 6369SOL    HW120006   1.834   0.529   4.610
 6369SOL    HW220007   1.931   0.406   4.656
 6370SOL     OW20008   5.335   4.242   3.454
 6370SOL    HW120009   5.425   4.211   3.482
 6370SOL    HW220010   5.301   4.185   3.379
 6371SOL     OW20011   5.391   4.119   2.364
 6371SOL    HW120012   5.295   4.144   2.375
 6371SOL    HW220013   5.423   4.149   2.274
 6372SOL     OW20014   1.149   1.500   2.369
 6372SOL    HW120015   1.108   1.410   2.386
 6372SOL    HW220016   1.092   1.571   2.412
 6373SOL     OW20017   5.660   4.353   2.717
 6373SOL    HW120018   5.717   4.318   2.792
 6373SOL    HW220019   5.692   4.316   2.630
 6374SOL     OW20020   4.569   3.565   1.256
 6374SOL    HW120021   4.521   3.614   1.183
 6374SOL    HW220022   4.563   3.466   1.240
 6375SOL     OW20023   0.428   2.053   1.983
 6375SOL    HW120024   0.416   1.958   1.956
 6375SOL    HW220025   0.504   2.093   1.933
 6376SOL     OW20026   3.704   1.566   5.947
 6376SOL    HW120027   3.736   1.646   5.896
 6376SOL    HW220028   3.780   1.529   6.001
 6377SOL     OW20029   0.017   1.886   5.722
 6377SOL    HW120030   0.106   1.917   5.754
 6377SOL    HW220031   7.010   1.931   5.636
 6378SOL     OW20032   5.531   5.355   3.571
 6378SOL    HW120033   5.475   5.325   3.648
 6378SOL    HW220034   5.607   5.291   3.557
 6379SOL     OW20035   0.655   4.792   5.993
 6379SOL    HW120036   0.569   4.752   6.024
 6379SOL    HW220037   0.687   4.743   5.912
 6380SOL     OW20038   6.727   2.334   4.604
 6380SOL    HW120039   6.686   2.425   4.603
 6380SOL    HW220040   6.816   2.338   4.650
 6381SOL     OW20041   4.159   2.713   0.447
 6381SOL    HW120042   4.070   2.668   0.440
 6381SOL    HW220043   4.222   2.655   0.499
 6382SOL     OW20044   3.481   1.767   1.128
 6382SOL    HW120045   3.392   1.749   1.086
 6382SOL    HW220046   3.518   1.852   1.090
 6383SOL     OW20047   1.880   3.105   2.310
 6383SOL    HW120048   1.789   3.095   2.270
 6383SOL    HW220049   1.949   3.093   2.238
 6384SOL     OW20050   5.792   3.217   2.300
 6384SOL    HW120051   5.797   3.197   2.398
 6384SOL    HW220052   5.765   3.312   2.286
 6385SOL     OW20053   6.466   4.253   2.251
 6385SOL    HW120054   6.530   4.309   2.199
 6385SOL    HW220055   6.502   4.160   2.259
 6386SOL     OW20056   1.682   3.407   6.771
 6386SOL    HW120057   1.702   3.324   6.718
 6386SOL    HW220058   1.713   3.487   6.719
 6387SOL     OW20059   6.100   1.586   0.195
 6387SOL    HW120060   6.110   1.572   0.293
 6387SOL    HW220061   6.147   1.513   0.146
 6388SOL     OW20062   5.956   5.452   1.606
 6388SOL    HW120063   5.987   5.357   1.596
 6388SOL    HW220064   6.009   5.511   1.546
 6389SOL     OW20065   0.941   0.164   1.116
 6389SOL    HW120066   1.032   0.150   1.077
 6389SOL    HW220067   0.879   0.095   1.079
 6390SOL     OW20068   6.571   0.261   5.716
 6390SOL    HW120069   6.491   0.306   5.756
 6390SOL    HW220070   6.542   0.204   5.639
 6391SOL     OW20071   1.654   1.056   6.014
 6391SOL    HW120072   1.740   1.099   6.042
 6391SOL    HW220073   1.592   1.052   6.092
 6392SOL     OW20074   3.253   6.068   3.434
 6392SOL    HW120075   3.263   6.040   3.338
 6392SOL    HW220076   3.155   6.072   3.457
 6393SOL     OW20077   5.889   5.782   1.696
 6393SOL    HW120078   5.898   5.853   1.626
 6393SOL    HW220079   5.979   5.742   1.715
 6394SOL     OW20080   2.414   5.262   0.618
 6394SOL    HW120081   2.370   5.348   0.594
 6394SOL    HW220082   2.496   5.280   0.673
 6395SOL     OW20083   6.861   3.533   2.035
 6395SOL    HW120084   6.845   3.499   2.128
 6395SOL    HW220085   6.934   3.602   2.037
 6396SOL     OW20086   6.584   3.907   6.316
 6396SOL    HW120087   6.578   3.984   6.252
 6396SOL    HW220088   6.495   3.895   6.361
 6397SOL     OW20089   6.331   1.250   2.519
 6397SOL    HW120090   6.327   1.342   2.479
 6397SOL    HW220091   6.291   1.184   2.456
 6398SOL     OW20092   1.904   6.695   2.023
 6398SOL    HW120093   1.830   6.627   2.019
 6398SOL    HW220094   1.865   6.785   2.041
 6399SOL     OW20095   1.141   0.241   6.569
 6399SOL    HW120096   1.074   0.187   6.518
 6399SOL    HW220097   1.160   0.326   6.520
 6400SOL     OW20098   2.157   4.786   2.497
 6400SOL    HW120099   2.196   4.878   2.501
 6400SOL    HW220100   2.057   4.793   2.493
 6401SOL     OW20101   5.914   5.143   2.879
 6401SOL    HW120102   5.963   5.200   2.945
 6401SOL    HW220103   5.835   5.101   2.923
 6402SOL     OW20104   2.239   2.847   4.060
 6402SOL    HW120105   2.302   2.788   4.010
 6402SOL    HW220106   2.180   2.791   4.119
 6403SOL     OW20107   6.175   5.993   5.997
 6403SOL    HW120108   6.224   6.080   5.991
 6403SOL    HW220109   6.222   5.924   5.942
 6404SOL     OW20110   4.564   1.382   2.515
 6404SOL    HW120111   4.655   1.419   2.496
 6404SOL    HW220112   4.495   1.455   2.504
 6405SOL     OW20113   4.720   0.947   4.452
 6405SOL    HW120114   4.730   1.044   4.429
 6405SOL    HW220115   4.629   0.915   4.423
 6406SOL     OW20116   1.239   3.125   1.684
 6406SOL    HW120117   1.201   3.054   1.744
 6406SOL    HW220118   1.268   3.203   1.739
 6407SOL     OW20119   2.185   6.803   4.375
 6407SOL    HW120120   2.272   6.824   4.328
 6407SOL    HW220121   2.204   6.762   4.464
 6408SOL     OW20122   5.900   0.688   0.973
 6408SOL    HW120123   5.959   0.608   0.989
 6408SOL    HW220124   5.956   0.770   0.965
 6409SOL     OW20125   6.946   4.901   2.740
 6409SOL    HW120126   0.027   4.883   2.727
 6409SOL    HW220127   6.903   4.922   2.652
 6410SOL     OW20128   1.917   1.094   6.090
 6410SOL    HW120129   1.955   1.003   6.109
 6410SOL    HW220130   1.973   1.164   6.134
 6411SOL     OW20131   1.314   2.735   2.435
 6411SOL    HW120132   1.371   2.702   2.360
 6411SOL    HW220133   1.267   2.819   2.408
 6412SOL     OW20134   2.145   0.513   6.366
 6412SOL    HW120135   2.202   0.585   6.404
 6412SOL    HW220136   2.189   0.424   6.380
 6413SOL     OW20137   3.460   4.942   4.331
 6413SOL    HW120138   3.465   5.024   4.274
 6413SOL    HW220139   3.381   4.886   4.303
 6414SOL     OW20140   6.059   0.390   6.851
 6414SOL    HW120141   5.980   0.332   6.828
 6414SOL    HW220142   6.141   0.355   6.806
 6415SOL     OW20143   1.253   3.549   4.111
 6415SOL    HW120144   1.219   3.636   4.147
 6415SOL    HW220145   1.320   3.511   4.175
 6416SOL     OW20146   2.290   6.608   6.086
 6416SOL    HW120147   2.289   6.579   6.182
 6416SOL    HW220148   2.292   6.527   6.027
 6417SOL     OW20149   5.003   3.072   0.782
 6417SOL    HW120150   5.027   3.035   0.872
 6417SOL    HW220151   4.917   3.121   0.788
 6418SOL     OW20152   5.224   4.029   2.895
 6418SOL    HW120153   5.321   4.015   2.875
 6418SOL    HW220154   5.208   4.122   2.926
 6419SOL     OW20155   1.517   5.426   3.545
 6419SOL    HW120156   1.463   5.446   3.463
 6419SOL    HW220157   1.462   5.371   3.608
 6420SOL     OW20158   2.117   1.466   3.855
 6420SOL    HW120159   2.032   1.517   3.867
 6420SOL    HW220160   2.150   1.432   3.943
 6421SOL     OW20161   3.997   0.393   0.839
 6421SOL    HW120162   3.938   0.347   0.773
 6421SOL    HW220163   4.087   0.349   0.839
 6422SOL     OW20164   6.549   1.679   5.204
 6422SOL    HW120165   6.578   1.607   5.141
 6422SOL    HW220166   6.535   1.764   5.153
 6423SOL     OW20167   4.738   5.587   4.734
 6423SOL    HW120168   4.718   5.507   4.678
 6423SOL    HW220169   4.836   5.601   4.740
 6424SOL     OW20170   1.402   4.179   5.006
 6424SOL    HW120171   1.498   4.153   5.016
 6424SOL    HW220172   1.357   4.117   4.941
 6425SOL     OW20173   6.707   5.772   3.237
 6425SOL    HW120174   6.727   5.708   3.163
 6425SOL    HW220175   6.722   5.866   3.206
 6426SOL     OW20176   5.877   5.359   3.735
 6426SOL    HW120177   5.850   5.315   3.820
 6426SOL    HW220178   5.817   5.328   3.661
 6427SOL     OW20179   2.937   3.783   3.275
 6427SOL    HW120180   2.934   3.717   3.350
 6427SOL    HW220181   2.925   3.736   3.188
 6428SOL     OW20182   5.411   3.192   0.223
 6428SOL    HW120183   5.363   3.261   0.276
 6428SOL    HW220184   5.505   3.222   0.208
 6429SOL     OW20185   0.602   1.176   5.730
 6429SOL    HW120186   0.623   1.168   5.633
 6429SOL    HW220187   0.511   1.139   5.748
 6430SOL     OW20188   6.687   0.693   4.275
 6430SOL    HW120189   6.694   0.735   4.365
 6430SOL    HW220190   6.676   0.764   4.205
 6431SOL     OW20191   4.543   5.898   3.141
 6431SOL    HW120192   4.623   5.838   3.134
 6431SOL    HW220193   4.464   5.845   3.172
 6432SOL     OW20194   4.046   4.267   5.990
 6432SOL    HW120195   4.079   4.215   6.069
 6432SOL    HW220196   4.092   4.234   5.908
 6433SOL     OW20197   3.462   4.981   0.316
 6433SOL    HW120198   3.472   4.882   0.308
 6433SOL    HW220199   3.372   5.008   0.281
 6434SOL     OW20200   2.669   0.477   6.363
 6434SOL    HW120201   2.648   0.442   6.272
 6434SOL    HW220202   2.760   0.517   6.363
 6435SOL     OW20203   5.647   6.853   1.002
 6435SOL    HW120204   5.685   6.779   0.946
 6435SOL    HW220205   5.552   6.830   1.025
 6436SOL     OW20206   1.201   3.570   3.114
 6436SOL    HW120207   1.186   3.569   3.213
 6436SOL    HW220208   1.279   3.512   3.092
 6437SOL     OW20209   1.559   2.570   6.921
 6437SOL    HW120210   1.505   2.488   6.903
 6437SOL    HW220211   1.530   2.643   6.859
 6438SOL     OW20212   0.506   5.030   6.175
 6438SOL    HW120213   0.530   5.055   6.081
 6438SOL    HW220214   0.407   5.042   6.188
 6439SOL     OW20215   5.242   0.650   2.190
 6439SOL    HW120216   5.277   0.615   2.277
 6439SOL    HW220217   5.148   0.618   2.177
 6440SOL     OW20218   2.924   0.964   6.046
 6440SOL    HW120219   2.995   0.902   6.080
 6440SOL    HW220220   2.835   0.920   6.056
 6441SOL     OW20221   1.112   0.860   1.558
 6441SOL    HW120222   1.185   0.815   1.507
 6441SOL    HW220223   1.132   0.858   1.655
 6442SOL     OW20224   2.904   1.641   4.674
 6442SOL    HW120225   2.969   1.671   4.605
 6442SOL    HW220226   2.946   1.571   4.732
 6443SOL     OW20227   3.327   2.795   5.609
 6443SOL    HW120228   3.368   2.770   5.697
 6443SOL    HW220229   3.227   2.794   5.617
 6444SOL     OW20230   6.021   2.076   4.576
 6444SOL    HW120231   6.073   1.995   4.603
 6444SOL    HW220232   5.925   2.051   4.562
 6445SOL     OW20233   3.877   3.296   3.319
 6445SOL    HW120234   3.824   3.354   3.380
 6445SOL    HW220235   3.926   3.227   3.373
 6446SOL     OW20236   0.277   2.385   0.556
 6446SOL    HW120237   0.317   2.378   0.464
 6446SOL    HW220238   0.177   2.392   0.549
 6447SOL     OW20239   6.486   4.479   1.866
 6447SOL    HW120240   6.452   4.505   1.775
 6447SOL    HW220241   6.458   4.385   1.886
 6448SOL     OW20242   5.198   4.780   1.522
 6448SOL    HW120243   5.129   4.711   1.545
 6448SOL    HW220244   5.220   4.834   1.603
 6449SOL     OW20245   3.063   5.651   1.979
 6449SOL    HW120246   3.160   5.634   1.999
 6449SOL    HW220247   3.046   5.634   1.881
 6450SOL     OW20248   0.683   4.177   0.382
 6450SOL    HW120249   0.658   4.081   0.394
 6450SOL    HW220250   0.610   4.235   0.418
 6451SOL     OW20251   2.438   1.035   5.675
 6451SOL    HW120252   2.447   1.114   5.735
 6451SOL    HW220253   2.344   1.000   5.680
 6452SOL     OW20254   4.832   4.055   2.338
 6452SOL    HW120255   4.773   4.131   2.311
 6452SOL    HW220256   4.864   4.006   2.256
 6453SOL     OW20257   2.724   0.134   1.637
 6453SOL    HW120258   2.695   0.223   1.673
 6453SOL    HW220259   2.649   0.093   1.585
 6454SOL     OW20260   0.677   1.340   2.823
 6454SOL    HW120261   0.600   1.312   2.765
 6454SOL    HW220262   0.682   1.280   2.903
 6455SOL     OW20263   6.383   2.767   3.716
 6455SOL    HW120264   6.311   2.707   3.750
 6455SOL    HW220265   6.396   2.843   3.780
 6456SOL     OW20266   1.297   0.620   2.681
 6456SOL    HW120267   1.246   0.583   2.758
 6456SOL    HW220268   1.381   0.567   2.669
 6457SOL     OW20269   5.309   0.319   1.378
 6457SOL    HW120270   5.347   0.411   1.381
 6457SOL    HW220271   5.215   0.320   1.412
 6458SOL     OW20272   1.416   5.479   4.736
 6458SOL    HW120273   1.317   5.492   4.735
 6458SOL    HW220274   1.459   5.545   4.674
 6459SOL     OW20275   6.243   2.815   2.473
 6459SOL    HW120276   6.281   2.723   2.467
 6459SOL    HW220277   6.178   2.829   2.398
 6460SOL     OW20278   5.945   5.484   5.699
 6460SOL    HW120279   5.901   5.397   5.720
 6460SOL    HW220280   5.886   5.560   5.727
 6461SOL     OW20281   2.974   4.402   6.799
 6461SOL    HW120282   3.006   4.308   6.791
 6461SOL    HW220283   2.984   4.448   6.711
 6462SOL     OW20284   1.229   3.130   4.462
 6462SOL    HW120285   1.200   3.086   4.377
 6462SOL    HW220286   1.150   3.144   4.521
 6463SOL     OW20287   5.523   6.862   0.267
 6463SOL    HW120288   5.533   6.919   0.349
 6463SOL    HW220289   5.480   6.775   0.292
 6464SOL     OW20290   1.746   5.941   5.191
 6464SOL    HW120291   1.727   6.030   5.232
 6464SOL    HW220292   1.759   5.952   5.092
 6465SOL     OW20293   0.162   2.959   2.677
 6465SOL    HW120294   0.211   3.011   2.607
 6465SOL    HW220295   0.093   3.017   2.721
 6466SOL     OW20296   6.523   1.104   6.464
 6466SOL    HW120297   6.434   1.112   6.418
 6466SOL    HW220298   6.563   1.195   6.474
 6467SOL     OW20299   3.780   0.352   0.985
 6467SOL    HW120300   3.863   0.377   0.935
 6467SOL    HW220301   3.740   0.269   0.946
 6468SOL     OW20302   3.501   6.771   1.955
 6468SOL    HW120303   3.487   6.734   1.863
 6468SOL    HW220304   3.490   6.698   2.022
 6469SOL     OW20305   3.791   2.143   3.676
 6469SOL    HW120306   3.817   2.145   3.580
 6469SOL    HW220307   3.870   2.119   3.732
 6470SOL     OW20308   5.764   2.618   1.067
 6470SOL    HW120309   5.843   2.576   1.023
 6470SOL    HW220310   5.684   2.559   1.053
 6471SOL     OW20311   0.895   6.195   5.924
 6471SOL    HW120312   0.864   6.167   6.015
 6471SOL    HW220313   0.975   6.141   5.898
 6472SOL     OW20314   6.446   5.473   2.893
 6472SOL    HW120315   6.462   5.481   2.795
 6472SOL    HW220316   6.380   5.542   2.922
 6473SOL     OW20317   1.867   1.601   5.130
 6473SOL    HW120318   1.773   1.625   5.107
 6473SOL    HW220319   1.924   1.606   5.048
 6474SOL     OW20320   4.268   5.641   5.798
 6474SOL    HW120321   4.276   5.688   5.886
 6474SOL    HW220322   4.182   5.669   5.753
 6475SOL     OW20323   5.966   4.104   3.674
 6475SOL    HW120324   5.965   4.203   3.690
 6475SOL    HW220325   6.013   4.085   3.587
 6476SOL     OW20326   4.859   3.190   0.007
 6476SOL    HW120327   4.893   3.168   6.931
 6476SOL    HW220328   4.937   3.204   0.068
 6477SOL     OW20329   6.215   5.418   1.093
 6477SOL    HW120330   6.141   5.453   1.035
 6477SOL    HW220331   6.176   5.377   1.175
 6478SOL     OW20332   3.079   6.419   2.697
 6478SOL    HW120333   3.097   6.486   2.769
 6478SOL    HW220334   3.133   6.440   2.616
 6479SOL     OW20335   3.601   5.641   4.380
 6479SOL    HW120336   3.632   5.733   4.354
 6479SOL    HW220337   3.585   5.638   4.479
 6480SOL     OW20338   2.343   1.147   6.898
 6480SOL    HW120339   2.390   1.090   6.831
 6480SOL    HW220340   2.288   1.216   6.850
 6481SOL     OW20341   3.452   2.354   1.665
 6481SOL    HW120342   3.395   2.275   1.689
 6481SOL    HW220343   3.541   2.346   1.710
 6482SOL     OW20344   6.427   2.428   6.670
 6482SOL    HW120345   6.525   2.432   6.691
 6482SOL    HW220346   6.399   2.512   6.624
 6483SOL     OW20347   0.179   6.319   3.097
 6483SOL    HW120348   0.266   6.329   3.146
 6483SOL    HW220349   0.163   6.222   3.078
 6484SOL     OW20350   3.003   1.301   2.898
 6484SOL    HW120351   3.103   1.292   2.892
 6484SOL    HW220352   2.963   1.290   2.807
 6485SOL     OW20353   2.143   5.452   4.074
 6485SOL    HW120354   2.146   5.359   4.037
 6485SOL    HW220355   2.236   5.486   4.084
 6486SOL     OW20356   1.444   5.310   2.179
 6486SOL    HW120357   1.501   5.260   2.114
 6486SOL    HW220358   1.349   5.312   2.146
 6487SOL     OW20359   1.372   6.571   5.703
 6487SOL    HW120360   1.358   6.668   5.682
 6487SOL    HW220361   1.345   6.553   5.798
 6488SOL     OW20362   3.608   5.587   4.676
 6488SOL    HW120363   3.588   5.561   4.771
 6488SOL    HW220364   3.703   5.563   4.655
 6489SOL     OW20365   3.266   3.428   6.290
 6489SOL    HW120366   3.242   3.389   6.201
 6489SOL    HW220367   3.257   3.527   6.286
 6490SOL     OW20368   3.101   0.754   6.422
 6490SOL    HW120369   3.021   0.812   6.409
 6490SOL    HW220370   3.178   0.810   6.451
 6491SOL     OW20371   3.463   0.771   1.354
 6491SOL    HW120372   3.417   0.694   1.397
 6491SOL    HW220373   3.486   0.748   1.259
 6492SOL     OW20374   3.769   3.497   4.943
 6492SOL    HW120375   3.861   3.479   4.910
 6492SOL    HW220376   3.706   3.505   4.866
 6493SOL     OW20377   1.319   4.372   6.499
 6493SOL    HW120378   1.365   4.375   6.410
 6493SOL    HW220379   1.273   4.459   6.515
 6494SOL     OW20380   6.967   6.935   2.729
 6494SOL    HW120381   6.875   6.922   2.692
 6494SOL    HW220382   0.017   6.888   2.670
 6495SOL     OW20383   0.058   0.870   4.469
 6495SOL    HW120384   0.111   0.937   4.417
 6495SOL    HW220385   0.049   0.786   4.416
 6496SOL     OW20386   5.794   0.499   2.266
 6496SOL    HW120387   5.701   0.511   2.299
 6496SOL    HW220388   5.838   0.424   2.315
 6497SOL     OW20389   0.757   0.531   1.385
 6497SOL    HW120390   0.803   0.588   1.453
 6497SOL    HW220391   0.700   0.463   1.431
 6498SOL     OW20392   0.808   3.591   4.463
 6498SOL    HW120393   0.863   3.610   4.545
 6498SOL    HW220394   0.803   3.492   4.448
 6499SOL     OW20395   5.301   3.446   5.190
 6499SOL    HW120396   5.336   3.378   5.255
 6499SOL    HW220397   5.201   3.440   5.186
 6500SOL     OW20398   0.033   3.890   2.861
 6500SOL    HW120399   6.977   3.868   2.794
 6500SOL    HW220400   0.047   3.988   2.863
 6501SOL     OW20401   6.793   1.093   0.785
 6501SOL    HW120402   6.782   1.163   0.715
 6501SOL    HW220403   6.890   1.080   0.804
 6502SOL     OW20404   6.841   3.944   1.592
 6502SOL    HW120405   6.793   3.867   1.635
 6502SOL    HW220406   6.891   3.995   1.662
 6503SOL     OW20407   5.802   0.811   3.722
 6503SOL    HW120408   5.723   0.871   3.710
 6503SOL    HW220409   5.834   0.817   3.816
 6504SOL     OW20410   3.312   6.277   6.276
 6504SOL    HW120411   3.272   6.332   6.350
 6504SOL    HW220412   3.288   6.181   6.289
 6505SOL     OW20413   4.989   6.025   6.078
 6505SOL    HW120414   5.024   6.112   6.046
 6505SOL    HW220415   4.922   5.990   6.013
 6506SOL     OW20416   6.979   2.728   3.505
 6506SOL    HW120417   6.934   2.747   3.418
 6506SOL    HW220418   0.062   2.720   3.490
 6507SOL     OW20419   2.643   6.116   6.116
 6507SOL    HW120420   2.742   6.107   6.118
 6507SOL    HW220421   2.601   6.027   6.096
 6508SOL     OW20422   1.737   0.525   3.113
 6508SOL    HW120423   1.834   0.501   3.115
 6508SOL    HW220424   1.686   0.457   3.060
 6509SOL     OW20425   4.840   2.053   4.801
 6509SOL    HW120426   4.930   2.016   4.778
 6509SOL    HW220427   4.797   1.995   4.871
 6510SOL     OW20428   5.143   5.362   6.941
 6510SOL    HW120429   5.144   5.381   0.023
 6510SOL    HW220430   5.213   5.295   6.918
 6511SOL     OW20431   4.567   1.264   5.054
 6511SOL    HW120432   4.599   1.174   5.023
 6511SOL    HW220433   4.633   1.334   5.028
 6512SOL     OW20434   3.426   6.747   2.388
 6512SOL    HW120435   3.503   6.812   2.391
 6512SOL    HW220436   3.340   6.798   2.395
 6513SOL     OW20437   1.875   5.647   3.806
 6513SOL    HW120438   1.775   5.642   3.803
 6513SOL    HW220439   1.906   5.722   3.748
 6514SOL     OW20440   5.850   0.807   4.261
 6514SOL    HW120441   5.796   0.749   4.200
 6514SOL    HW220442   5.924   0.754   4.301
 6515SOL     OW20443   1.489   3.414   3.570
 6515SOL    HW120444   1.559   3.416   3.499
 6515SOL    HW220445   1.413   3.355   3.541
 6516SOL     OW20446   0.214   3.190   1.262
 6516SOL    HW120447   0.184   3.111   1.315
 6516SOL    HW220448   0.195   3.173   1.165
 6517SOL     OW20449   6.796   2.165   1.358
 6517SOL    HW120450   6.790   2.092   1.290
 6517SOL    HW220451   6.751   2.136   1.443
 6518SOL     OW20452   0.435   0.401   1.778
 6518SOL    HW120453   0.523   0.413   1.731
 6518SOL    HW220454   0.416   0.482   1.833
 6519SOL     OW20455   0.317   1.449   2.895
 6519SOL    HW120456   0.375   1.390   2.839
 6519SOL    HW220457   0.263   1.394   2.958
 6520SOL     OW20458   6.872   5.075   0.008
 6520SOL    HW120459   6.964   5.089   0.045
 6520SOL    HW220460   6.806   5.069   0.082
 6521SOL     OW20461   2.307   2.862   4.386
 6521SOL    HW120462   2.284   2.936   4.449
 6521SOL    HW220463   2.290   2.892   4.292
 6522SOL     OW20464   2.595   4.534   5.204
 6522SOL    HW120465   2.527   4.469   5.171
 6522SOL    HW220466   2.684   4.513   5.162
 6523SOL     OW20467   3.877   0.605   6.580
 6523SOL    HW120468   3.806   0.617   6.649
 6523SOL    HW220469   3.840   0.556   6.501
 6524SOL     OW20470   2.708   3.061   1.431
 6524SOL    HW120471   2.756   2.990   1.380
 6524SOL    HW220472   2.768   3.095   1.504
 6525SOL     OW20473   1.856   4.976   2.900
 6525SOL    HW120474   1.785   5.043   2.880
 6525SOL    HW220475   1.848   4.947   2.996
 6526SOL     OW20476   0.686   0.404   1.689
 6526SOL    HW120477   0.722   0.334   1.627
 6526SOL    HW220478   0.760   0.443   1.743
 6527SOL     OW20479   6.488   2.062   6.780
 6527SOL    HW120480   6.467   2.077   6.684
 6527SOL    HW220481   6.411   2.094   6.837
 6528SOL     OW20482   6.316   1.065   5.425
 6528SOL    HW120483   6.296   1.020   5.513
 6528SOL    HW220484   6.367   1.149   5.442
 6529SOL     OW20485   1.933   0.368   2.739
 6529SOL    HW120486   2.031   0.354   2.726
 6529SOL    HW220487   1.906   0.334   2.830
 6530SOL     OW20488   6.952   1.863   1.158
 6530SOL    HW120489   0.032   1.877   1.182
 6530SOL    HW220490   6.905   1.952   1.155
 6531SOL     OW20491   4.929   3.368   4.703
 6531SOL    HW120492   5.013   3.418   4.722
 6531SOL    HW220493   4.850   3.429   4.714
 6532SOL     OW20494   1.217   1.548   1.350
 6532SOL    HW120495   1.316   1.559   1.351
 6532SOL    HW220496   1.193   1.464   1.302
 6533SOL     OW20497   4.182   6.004   0.374
 6533SOL    HW120498   4.189   6.100   0.401
 6533SOL    HW220499   4.241   5.987   0.296
 6534SOL     OW20500   4.622   5.028   1.600
 6534SOL    HW120501   4.556   5.043   1.527
 6534SOL    HW220502   4.616   4.933   1.631
 6535SOL     OW20503   6.532   4.300   4.293
 6535SOL    HW120504   6.512   4.212   4.337
 6535SOL    HW220505   6.456   4.324   4.232
 6536SOL     OW20506   0.382   1.888   5.463
 6536SOL    HW120507   0.318   1.848   5.529
 6536SOL    HW220508   0.331   1.938   5.394
 6537SOL     OW20509   6.463   4.757   5.997
 6537SOL    HW120510   6.370   4.722   6.014
 6537SOL    HW220511   6.529   4.683   6.011
 6538SOL     OW20512   1.710   3.480   5.823
 6538SOL    HW120513   1.798   3.438   5.800
 6538SOL    HW220514   1.694   3.558   5.762
 6539SOL     OW20515   5.283   0.508   6.976
 6539SOL    HW120516   5.349   0.538   0.030
 6539SOL    HW220517   5.249   0.587   6.926
 6540SOL     OW20518   3.780   2.807   6.152
 6540SOL    HW120519   3.749   2.899   6.124
 6540SOL    HW220520   3.700   2.748   6.163
 6541SOL     OW20521   5.185   1.744   5.363
 6541SOL    HW120522   5.093   1.708   5.345
 6541SOL    HW220523   5.247   1.670   5.386
 6542SOL     OW20524   1.139   3.098   3.733
 6542SOL    HW120525   1.184   3.049   3.808
 6542SOL    HW220526   1.063   3.152   3.769
 6543SOL     OW20527   4.620   2.901   5.814
 6543SOL    HW120528   4.712   2.926   5.847
 6543SOL    HW220529   4.619   2.804   5.790
 6544SOL     OW20530   1.369   6.621   3.595
 6544SOL    HW120531   1.356   6.534   3.548
 6544SOL    HW220532   1.375   6.605   3.694
 6545SOL     OW20533   4.107   0.718   0.350
 6545SOL    HW120534   4.104   0.622   0.375
 6545SOL    HW220535   4.158   0.769   0.419
 6546SOL     OW20536   2.720   4.064   5.768
 6546SOL    HW120537   2.764   4.134   5.713
 6546SOL    HW220538   2.693   3.987   5.710
 6547SOL     OW20539   4.823   0.687   6.356
 6547SOL    HW120540   4.837   0.689   6.256
 6547SOL    HW220541   4.874   0.610   6.395
 6548SOL     OW20542   1.375   3.940   0.954
 6548SOL    HW120543   1.359   3.908   0.860
 6548SOL    HW220544   1.470   3.967   0.964
 6549SOL     OW20545   4.578   0.684   2.283
 6549SOL    HW120546   4.663   0.692   2.334
 6549SOL    HW220547   4.538   0.594   2.298
 6550SOL     OW20548   0.154   6.732   4.430
 6550SOL    HW120549   0.112   6.822   4.424
 6550SOL    HW220550   0.105   6.668   4.371
 6551SOL     OW20551   2.137   3.563   1.762
 6551SOL    HW120552   2.067   3.509   1.715
 6551SOL    HW220553   2.182   3.506   1.831
 6552SOL     OW20554   1.876   6.795   0.188
 6552SOL    HW120555   1.808   6.736   0.230
 6552SOL    HW220556   1.843   6.828   0.100
 6553SOL     OW20557   0.429   2.492   3.121
 6553SOL    HW120558   0.496   2.501   3.195
 6553SOL    HW220559   0.461   2.422   3.057
 6554SOL     OW20560   1.492   0.379   4.346
 6554SOL    HW120561   1.521   0.420   4.260
 6554SOL    HW220562   1.408   0.423   4.378
 6555SOL     OW20563   5.438   2.049   2.766
 6555SOL    HW120564   5.360   2.066   2.827
 6555SOL    HW220565   5.412   1.981   2.697
 6556SOL     OW20566   5.932   4.486   3.336
 6556SOL    HW120567   5.997   4.534   3.394
 6556SOL    HW220568   5.873   4.552   3.290
 6557SOL     OW20569   2.682   0.601   3.144
 6557SOL    HW120570   2.645   0.610   3.052
 6557SOL    HW220571   2.648   0.676   3.202
 6558SOL     OW20572   6.311   5.071   0.200
 6558SOL    HW120573   6.369   5.060   0.119
 6558SOL    HW220574   6.278   4.981   0.229
 6559SOL     OW20575   0.217   4.366   6.853
 6559SOL    HW120576   0.128   4.402   6.881
 6559SOL    HW220577   0.274   4.350   6.933
 6560SOL     OW20578   3.988   4.653   1.784
 6560SOL    HW120579   3.904   4.689   1.743
 6560SOL    HW220580   4.020   4.575   1.731
 6561SOL     OW20581   3.392   4.156   1.232
 6561SOL    HW120582   3.334   4.120   1.160
 6561SOL    HW220583   3.482   4.179   1.194
 6562SOL     OW20584   5.920   1.898   1.417
 6562SOL    HW120585   5.899   1.860   1.507
 6562SOL    HW220586   5.985   1.974   1.427
 6563SOL     OW20587   5.416   5.582   5.805
 6563SOL    HW120588   5.416   5.668   5.855
 6563SOL    HW220589   5.449   5.509   5.864
 6564SOL     OW20590   6.491   3.869   2.036
 6564SOL    HW120591   6.573   3.811   2.036
 6564SOL    HW220592   6.479   3.910   2.126
 6565SOL     OW20593   6.168   1.093   3.162
 6565SOL    HW120594   6.103   1.131   3.096
 6565SOL    HW220595   6.260   1.125   3.140
 6566SOL     OW20596   3.819   6.524   2.654
 6566SOL    HW120597   3.726   6.487   2.652
 6566SOL    HW220598   3.855   6.529   2.561
 6567SOL     OW20599   4.951   0.529   2.220
 6567SOL    HW120600   4.867   0.508   2.269
 6567SOL    HW220601   4.959   0.470   2.140
 6568SOL     OW20602   3.378   1.557   3.621
 6568SOL    HW120603   3.318   1.618   3.673
 6568SOL    HW220604   3.458   1.607   3.589
 6569SOL     OW20605   2.942   2.951   0.242
 6569SOL    HW120606   2.949   3.050   0.233
 6569SOL    HW220607   2.846   2.924   0.246
 6570SOL     OW20608   3.218   0.701   2.288
 6570SOL    HW120609   3.273   0.626   2.327
 6570SOL    HW220610   3.277   0.779   2.269
 6571SOL     OW20611   2.893   4.920   2.407
 6571SOL    HW120612   2.828   4.872   2.348
 6571SOL    HW220613   2.855   4.929   2.499
 6572SOL     OW20614   0.196   3.982   4.284
 6572SOL    HW120615   0.214   4.074   4.320
 6572SOL    HW220616   0.219   3.979   4.187
 6573SOL     OW20617   0.543   1.921   2.416
 6573SOL    HW120618   0.634   1.928   2.376
 6573SOL    HW220619   0.544   1.853   2.490
 6574SOL     OW20620   2.691   5.801   2.799
 6574SOL    HW120621   2.714   5.836   2.708
 6574SOL    HW220622   2.601   5.836   2.826
 6575SOL     OW20623   0.651   6.991   4.008
 6575SOL    HW120624   0.724   7.012   4.074
 6575SOL    HW220625   0.685   6.930   3.938
 6576SOL     OW20626   3.098   6.087   0.419
 6576SOL    HW120627   3.093   6.010   0.355
 6576SOL    HW220628   3.052   6.166   0.379
 6577SOL     OW20629   1.244   1.969   3.336
 6577SOL    HW120630   1.265   2.037   3.405
 6577SOL    HW220631   1.291   1.992   3.251
 6578SOL     OW20632   0.531   6.060   2.684
 6578SOL    HW120633   0.570   6.117   2.611
 6578SOL    HW220634   0.592   5.983   2.701
 6579SOL     OW20635   6.791   2.958   3.659
 6579SOL    HW120636   6.861   2.908   3.608
 6579SOL    HW220637   6.827   2.983   3.749
 6580SOL     OW20638   0.458   1.966   0.621
 6580SOL    HW120639   0.376   2.023   0.613
 6580SOL    HW220640   0.454   1.892   0.554
 6581SOL     OW20641   2.464   0.860   0.489
 6581SOL    HW120642   2.488   0.956   0.495
 6581SOL    HW220643   2.414   0.832   0.570
 6582SOL     OW20644   0.085   1.233   3.354
 6582SOL    HW120645   0.081   1.332   3.365
 6582SOL    HW220646   0.093   1.190   3.444
 6583SOL     OW20647   4.813   6.609   6.271
 6583SOL    HW120648   4.748   6.679   6.243
 6583SOL    HW220649   4.777   6.519   6.247
 6584SOL     OW20650   4.657   2.084   0.184
 6584SOL    HW120651   4.657   2.139   0.268
 6584SOL    HW220652   4.672   2.143   0.105
 6585SOL     OW20653   6.090   5.945   0.174
 6585SOL    HW120654   6.107   5.897   0.088
 6585SOL    HW220655   6.003   5.913   0.213
 6586SOL     OW20656   5.923   1.322   5.867
 6586SOL    HW120657   6.001   1.259   5.872
 6586SOL    HW220658   5.880   1.329   5.957
 6587SOL     OW20659   1.218   4.924   5.932
 6587SOL    HW120660   1.262   4.983   6.000
 6587SOL    HW220661   1.242   4.956   5.840
 6588SOL     OW20662   0.516   2.782   1.520
 6588SOL    HW120663   0.496   2.868   1.567
 6588SOL    HW220664   0.541   2.801   1.425
 6589SOL     OW20665   4.520   0.209   2.052
 6589SOL    HW120666   4.599   0.212   1.991
 6589SOL    HW220667   4.546   0.241   2.143
 6590SOL     OW20668   0.175   1.398   6.753
 6590SOL    HW120669   0.258   1.342   6.752
 6590SOL    HW220670   0.099   1.346   6.716
 6591SOL     OW20671   5.553   5.826   3.408
 6591SOL    HW120672   5.481   5.823   3.478
 6591SOL    HW220673   5.585   5.733   3.390
 6592SOL     OW20674   5.582   6.716   2.952
 6592SOL    HW120675   5.541   6.695   2.863
 6592SOL    HW220676   5.521   6.684   3.025
 6593SOL     OW20677   2.701   2.373   2.364
 6593SOL    HW120678   2.725   2.312   2.289
 6593SOL    HW220679   2.772   2.368   2.435
 6594SOL     OW20680   3.162   1.068   5.632
 6594SOL    HW120681   3.228   1.142   5.644
 6594SOL    HW220682   3.071   1.106   5.617
 6595SOL     OW20683   1.737   4.344   6.881
 6595SOL    HW120684   1.790   4.318   6.962
 6595SOL    HW220685   1.693   4.262   6.843
 6596SOL     OW20686   3.485   6.902   4.196
 6596SOL    HW120687   3.549   6.978   4.206
 6596SOL    HW220688   3.502   6.854   4.110
 6597SOL     OW20689   1.518   5.245   1.068
 6597SOL    HW120690   1.559   5.336   1.061
 6597SOL    HW220691   1.419   5.254   1.081
 6598SOL     OW20692   1.796   4.714   3.852
 6598SOL    HW120693   1.808   4.709   3.951
 6598SOL    HW220694   1.802   4.809   3.823
 6599SOL     OW20695   4.195   6.591   6.339
 6599SOL    HW120696   4.184   6.605   6.240
 6599SOL    HW220697   4.292   6.595   6.363
 6600SOL     OW20698   3.576   6.504   5.355
 6600SOL    HW120699   3.551   6.410   5.331
 6600SOL    HW220700   3.544   6.524   5.448
 6601SOL     OW20701   0.965   2.493   4.508
 6601SOL    HW120702   0.865   2.492   4.508
 6601SOL    HW220703   1.000   2.399   4.505
 6602SOL     OW20704   1.590   0.476   1.231
 6602SOL    HW120705   1.536   0.408   1.180
 6602SOL    HW220706   1.596   0.449   1.327
 6603SOL     OW20707   0.526   2.986   3.297
 6603SOL    HW120708   0.535   2.892   3.330
 6603SOL    HW220709   0.608   3.038   3.321
 6604SOL     OW20710   1.704   0.011   1.519
 6604SOL    HW120711   1.656   0.061   1.591
 6604SOL    HW220712   1.797   7.006   1.550
 6605SOL     OW20713   5.400   5.470   2.131
 6605SOL    HW120714   5.394   5.516   2.043
 6605SOL    HW220715   5.439   5.379   2.119
 6606SOL     OW20716   6.588   5.200   2.320
 6606SOL    HW120717   6.675   5.166   2.285
 6606SOL    HW220718   6.588   5.300   2.319
 6607SOL     OW20719   1.124   4.948   3.363
 6607SOL    HW120720   1.039   4.911   3.327
 6607SOL    HW220721   1.191   4.957   3.289
 6608SOL     OW20722   6.940   0.008   6.798
 6608SOL    HW120723   6.918   6.959   6.724
 6608SOL    HW220724   6.895   6.995   6.882
 6609SOL     OW20725   5.661   0.449   6.975
 6609SOL    HW120726   5.647   0.457   6.876
 6609SOL    HW220727   5.662   0.352   7.000
 6610SOL     OW20728   2.194   6.754   6.548
 6610SOL    HW120729   2.165   6.806   6.468
 6610SOL    HW220730   2.213   6.816   6.624
 6611SOL     OW20731   4.716   2.840   3.418
 6611SOL    HW120732   4.814   2.837   3.396
 6611SOL    HW220733   4.704   2.836   3.517
 6612SOL     OW20734   6.337   1.939   6.254
 6612SOL    HW120735   6.332   1.985   6.343
 6612SOL    HW220736   6.321   2.005   6.181
 6613SOL     OW20737   6.749   6.198   5.631
 6613SOL    HW120738   6.783   6.124   5.689
 6613SOL    HW220739   6.816   6.273   5.629
 6614SOL     OW20740   4.418   5.512   6.792
 6614SOL    HW120741   4.444   5.460   6.711
 6614SOL    HW220742   4.347   5.462   6.842
 6615SOL     OW20743   1.612   5.819   1.183
 6615SOL    HW120744   1.654   5.870   1.258
 6615SOL    HW220745   1.531   5.868   1.151
 6616SOL     OW20746   4.216   0.223   6.714
 6616SOL    HW120747   4.281   0.295   6.688
 6616SOL    HW220748   4.124   0.250   6.685
 6617SOL     OW20749   4.634   5.572   3.579
 6617SOL    HW120750   4.603   5.643   3.642
 6617SOL    HW220751   4.702   5.514   3.623
 6618SOL     OW20752   1.825   2.175   2.183
 6618SOL    HW120753   1.807   2.104   2.252
 6618SOL    HW220754   1.767   2.159   2.103
 6619SOL     OW20755   5.419   6.828   3.911
 6619SOL    HW120756   5.483   6.896   3.875
 6619SOL    HW220757   5.422   6.830   4.010
 6620SOL     OW20758   1.994   2.599   5.427
 6620SOL    HW120759   2.023   2.660   5.501
 6620SOL    HW220760   1.899   2.571   5.442
 6621SOL     OW20761   3.647   3.303   5.481
 6621SOL    HW120762   3.638   3.324   5.384
 6621SOL    HW220763   3.740   3.323   5.511
 6622SOL     OW20764   5.800   5.681   2.106
 6622SOL    HW120765   5.886   5.724   2.134
 6622SOL    HW220766   5.725   5.718   2.161
 6623SOL     OW20767   3.923   2.866   5.213
 6623SOL    HW120768   3.921   2.907   5.122
 6623SOL    HW220769   3.961   2.774   5.208
 6624SOL     OW20770   0.173   4.791   5.266
 6624SOL    HW120771   0.137   4.718   5.325
 6624SOL    HW220772   0.116   4.799   5.185
 6625SOL     OW20773   5.155   2.276   5.120
 6625SOL    HW120774   5.169   2.183   5.086
 6625SOL    HW220775   5.243   2.315   5.145
 6626SOL     OW20776   2.969   6.964   5.417
 6626SOL    HW120777   2.923   7.010   5.493
 6626SOL    HW220778   3.067   6.985   5.420
 6627SOL     OW20779   1.668   6.801   4.386
 6627SOL    HW120780   1.723   6.849   4.454
 6627SOL    HW220781   1.611   6.732   4.431
 6628SOL     OW20782   5.824   4.895   4.967
 6628SOL    HW120783   5.784   4.857   4.883
 6628SOL    HW220784   5.841   4.992   4.954
 6629SOL     OW20785   4.465   6.175   6.540
 6629SOL    HW120786   4.381   6.222   6.515
 6629SOL    HW220787   4.543   6.222   6.499
 6630SOL     OW20788   3.746   1.584   1.371
 6630SOL    HW120789   3.686   1.510   1.340
 6630SOL    HW220790   3.691   1.661   1.404
 6631SOL     OW20791   2.126   5.978   3.960
 6631SOL    HW120792   2.205   5.964   4.020
 6631SOL    HW220793   2.134   5.917   3.881
 6632SOL     OW20794   0.932   0.722   0.821
 6632SOL    HW120795   1.010   0.674   0.781
 6632SOL    HW220796   0.912   0.683   0.911
 6633SOL     OW20797   2.216   5.194   6.174
 6633SOL    HW120798   2.121   5.216   6.196
 6633SOL    HW220799   2.221   5.098   6.146
 6634SOL     OW20800   5.693   0.991   5.111
 6634SOL    HW120801   5.735   0.939   5.186
 6634SOL    HW220802   5.594   0.993   5.125
 6635SOL     OW20803   4.833   4.223   3.247
 6635SOL    HW120804   4.892   4.248   3.324
 6635SOL    HW220805   4.808   4.127   3.254
 6636SOL     OW20806   4.814   1.465   6.960
 6636SOL    HW120807   4.866   1.405   6.900
 6636SOL    HW220808   4.826   1.560   6.931
 6637SOL     OW20809   1.040   0.019   6.445
 6637SOL    HW120810   0.951   6.989   6.448
 6637SOL    HW220811   1.102   6.983   6.386
 6638SOL     OW20812   2.858   3.471   3.212
 6638SOL    HW120813   2.869   3.532   3.291
 6638SOL    HW220814   2.871   3.524   3.128
 6639SOL     OW20815   4.704   4.954   6.732
 6639SOL    HW120816   4.798   4.985   6.741
 6639SOL    HW220817   4.682   4.940   6.636
 6640SOL     OW20818   6.215   1.415   5.353
 6640SOL    HW120819   6.279   1.483   5.390
 6640SOL    HW220820   6.207   1.339   5.417
 6641SOL     OW20821   2.815   1.533   6.761
 6641SOL    HW120822   2.879   1.457   6.765
 6641SOL    HW220823   2.762   1.537   6.845
 6642SOL     OW20824   2.567   5.988   6.716
 6642SOL    HW120825   2.584   5.943   6.629
 6642SOL    HW220826   2.520   6.075   6.701
 6643SOL     OW20827   4.993   6.241   6.634
 6643SOL    HW120828   4.932   6.194   6.697
 6643SOL    HW220829   5.063   6.290   6.685
 6644SOL     OW20830   2.526   5.999   1.483
 6644SOL    HW120831   2.482   6.055   1.553
 6644SOL    HW220832   2.532   5.904   1.515
 6645SOL     OW20833   5.451   3.895   1.097
 6645SOL    HW120834   5.400   3.858   1.019
 6645SOL    HW220835   5.453   3.827   1.171
 6646SOL     OW20836   4.690   1.517   4.976
 6646SOL    HW120837   4.700   1.548   5.070
 6646SOL    HW220838   4.741   1.578   4.915
 6647SOL     OW20839   4.556   0.247   0.716
 6647SOL    HW120840   4.460   0.257   0.743
 6647SOL    HW220841   4.612   0.235   0.797
 6648SOL     OW20842   3.540   6.809   3.957
 6648SOL    HW120843   3.605   6.841   3.889
 6648SOL    HW220844   3.562   6.714   3.982
 6649SOL     OW20845   6.014   1.661   6.373
 6649SOL    HW120846   5.972   1.687   6.460
 6649SOL    HW220847   5.947   1.614   6.316
 6650SOL     OW20848   3.816   1.202   5.597
 6650SOL    HW120849   3.795   1.220   5.501
 6650SOL    HW220850   3.757   1.259   5.655
 6651SOL     OW20851   1.710   0.803   5.972
 6651SOL    HW120852   1.803   0.805   5.936
 6651SOL    HW220853   1.678   0.897   5.988
 6652SOL     OW20854   0.235   4.846   6.664
 6652SOL    HW120855   0.293   4.781   6.712
 6652SOL    HW220856   0.154   4.866   6.719
 6653SOL     OW20857   3.838   3.317   1.319
 6653SOL    HW120858   3.854   3.364   1.406
 6653SOL    HW220859   3.799   3.226   1.338
 6654SOL     OW20860   1.598   5.385   1.414
 6654SOL    HW120861   1.569   5.341   1.329
 6654SOL    HW220862   1.675   5.447   1.395
 6655SOL     OW20863   0.316   6.613   3.445
 6655SOL    HW120864   0.249   6.588   3.515
 6655SOL    HW220865   0.274   6.679   3.382
 6656SOL     OW20866   5.960   2.360   2.553
 6656SOL    HW120867   5.990   2.433   2.614
 6656SOL    HW220868   5.921   2.401   2.470
 6657SOL     OW20869   5.891   4.082   5.087
 6657SOL    HW120870   5.908   4.179   5.101
 6657SOL    HW220871   5.802   4.069   5.044
 6658SOL     OW20872   5.024   1.280   5.264
 6658SOL    HW120873   5.098   1.291   5.331
 6658SOL    HW220874   4.947   1.338   5.291
 6659SOL     OW20875   2.241   2.921   1.157
 6659SOL    HW120876   2.184   2.973   1.093
 6659SOL    HW220877   2.328   2.968   1.169
 6660SOL     OW20878   1.845   5.106   1.025
 6660SOL    HW120879   1.814   5.141   1.114
 6660SOL    HW220880   1.928   5.052   1.039
 6661SOL     OW20881   2.162   0.348   5.188
 6661SOL    HW120882   2.070   0.365   5.223
 6661SOL    HW220883   2.157   0.288   5.108
 6662SOL     OW20884   1.494   0.655   0.347
 6662SOL    HW120885   1.422   0.705   0.395
 6662SOL    HW220886   1.581   0.667   0.394
 6663SOL     OW20887   6.585   6.381   4.977
 6663SOL    HW120888   6.631   6.313   5.035
 6663SOL    HW220889   6.627   6.380   4.886
 6664SOL     OW20890   2.075   0.063   0.189
 6664SOL    HW120891   2.060   0.157   0.158
 6664SOL    HW220892   2.134   0.063   0.270
 6665SOL     OW20893   1.501   6.151   4.682
 6665SOL    HW120894   1.549   6.224   4.732
 6665SOL    HW220895   1.457   6.190   4.601
 6666SOL     OW20896   6.544   6.467   5.751
 6666SOL    HW120897   6.633   6.479   5.707
 6666SOL    HW220898   6.537   6.375   5.788
 6667SOL     OW20899   0.119   6.383   5.797
 6667SOL    HW120900   0.201   6.398   5.741
 6667SOL    HW220901   0.126   6.437   5.882
 6668SOL     OW20902   0.216   5.829   1.019
 6668SOL    HW120903   0.204   5.730   1.027
 6668SOL    HW220904   0.162   5.875   1.090
 6669SOL     OW20905   2.754   2.160   1.825
 6669SOL    HW120906   2.671   2.214   1.837
 6669SOL    HW220907   2.826   2.194   1.886
 6670SOL     OW20908   2.826   1.284   5.336
 6670SOL    HW120909   2.875   1.198   5.320
 6670SOL    HW220910   2.728   1.267   5.343
 6671SOL     OW20911   4.058   6.828   0.647
 6671SOL    HW120912   4.145   6.870   0.623
 6671SOL    HW220913   4.030   6.765   0.574
 6672SOL     OW20914   6.538   2.418   0.292
 6672SOL    HW120915   6.558   2.356   0.368
 6672SOL    HW220916   6.573   2.509   0.313
 6673SOL     OW20917   4.768   4.171   3.660
 6673SOL    HW120918   4.755   4.189   3.758
 6673SOL    HW220919   4.802   4.077   3.648
 6674SOL     OW20920   0.167   3.904   0.582
 6674SOL    HW120921   0.112   3.964   0.640
 6674SOL    HW220922   0.261   3.939   0.576
 6675SOL     OW20923   6.238   2.665   0.936
 6675SOL    HW120924   6.191   2.737   0.886
 6675SOL    HW220925   6.259   2.697   1.029
 6676SOL     OW20926   0.355   3.524   4.939
 6676SOL    HW120927   0.344   3.483   5.029
 6676SOL    HW220928   0.427   3.476   4.889
 6677SOL     OW20929   1.156   1.517   6.193
 6677SOL    HW120930   1.133   1.613   6.177
 6677SOL    HW220931   1.208   1.509   6.278
 6678SOL     OW20932   3.285   3.756   0.362
 6678SOL    HW120933   3.348   3.758   0.440
 6678SOL    HW220934   3.257   3.662   0.343
 6679SOL     OW20935   3.468   0.594   4.221
 6679SOL    HW120936   3.513   0.622   4.136
 6679SOL    HW220937   3.537   0.571   4.289
 6680SOL     OW20938   4.202   6.890   6.421
 6680SOL    HW120939   4.253   6.807   6.399
 6680SOL    HW220940   4.266   6.960   6.455
 6681SOL     OW20941   4.686   5.891   0.655
 6681SOL    HW120942   4.756   5.877   0.585
 6681SOL    HW220943   4.596   5.896   0.611
 6682SOL     OW20944   2.201   4.857   0.405
 6682SOL    HW120945   2.240   4.891   0.320
 6682SOL    HW220946   2.173   4.934   0.462
 6683SOL     OW20947   6.076   3.323   5.277
 6683SOL    HW120948   6.041   3.310   5.369
 6683SOL    HW220949   6.006   3.297   5.211
 6684SOL     OW20950   3.454   6.420   1.759
 6684SOL    HW120951   3.548   6.455   1.757
 6684SOL    HW220952   3.395   6.487   1.804
 6685SOL     OW20953   4.763   2.948   6.555
 6685SOL    HW120954   4.664   2.937   6.561
 6685SOL    HW220955   4.786   3.007   6.477
 6686SOL     OW20956   5.209   5.388   4.003
 6686SOL    HW120957   5.113   5.397   4.031
 6686SOL    HW220958   5.265   5.368   4.083
 6687SOL     OW20959   0.570   3.521   1.900
 6687SOL    HW120960   0.528   3.523   1.809
 6687SOL    HW220961   0.667   3.500   1.891
 6688SOL     OW20962   5.336   4.214   1.408
 6688SOL    HW120963   5.386   4.131   1.433
 6688SOL    HW220964   5.238   4.197   1.414
 6689SOL     OW20965   4.349   3.927   5.720
 6689SOL    HW120966   4.388   3.984   5.647
 6689SOL    HW220967   4.304   3.848   5.679
 6690SOL     OW20968   0.481   0.222   0.708
 6690SOL    HW120969   0.516   0.184   0.794
 6690SOL    HW220970   0.382   0.210   0.704
 6691SOL     OW20971   2.334   0.447   2.654
 6691SOL    HW120972   2.307   0.391   2.732
 6691SOL    HW220973   2.301   0.541   2.667
 6692SOL     OW20974   3.902   3.931   3.580
 6692SOL    HW120975   3.950   3.903   3.663
 6692SOL    HW220976   3.803   3.923   3.595
 6693SOL     OW20977   4.125   2.200   5.372
 6693SOL    HW120978   4.150   2.241   5.460
 6693SOL    HW220979   4.042   2.144   5.384
 6694SOL     OW20980   3.682   5.719   1.202
 6694SOL    HW120981   3.738   5.692   1.124
 6694SOL    HW220982   3.610   5.651   1.216
 6695SOL     OW20983   2.578   2.203   6.688
 6695SOL    HW120984   2.655   2.177   6.747
 6695SOL    HW220985   2.526   2.121   6.663
 6696SOL     OW20986   3.658   2.868   4.029
 6696SOL    HW120987   3.621   2.874   4.121
 6696SOL    HW220988   3.617   2.791   3.981
 6697SOL     OW20989   5.105   1.380   3.090
 6697SOL    HW120990   5.163   1.338   3.021
 6697SOL    HW220991   5.150   1.377   3.179
 6698SOL     OW20992   3.411   2.432   0.786
 6698SOL    HW120993   3.505   2.427   0.821
 6698SOL    HW220994   3.348   2.402   0.858
 6699SOL     OW20995   2.395   6.123   5.847
 6699SOL    HW120996   2.456   6.057   5.803
 6699SOL    HW220997   2.362   6.086   5.934
 6700SOL     OW20998   0.146   1.578   1.443
 6700SOL    HW120999   0.152   1.483   1.474
 6700SOL    HW221000   0.069   1.588   1.380
 6701SOL     OW21001   5.663   5.427   1.783
 6701SOL    HW121002   5.643   5.470   1.695
 6701SOL    HW221003   5.762   5.426   1.797
 6702SOL     OW21004   2.197   2.476   1.308
 6702SOL    HW121005   2.151   2.563   1.330
 6702SOL    HW221006   2.128   2.405   1.292
 6703SOL     OW21007   6.507   6.861   1.128
 6703SOL    HW121008   6.522   6.781   1.070
 6703SOL    HW221009   6.580   6.928   1.113
 6704SOL     OW21010   3.940   2.152   2.832
 6704SOL    HW121011   3.868   2.177   2.897
 6704SOL    HW221012   3.921   2.061   2.794
 6705SOL     OW21013   6.188   3.277   1.291
 6705SOL    HW121014   6.191   3.259   1.389
 6705SOL    HW221015   6.221   3.196   1.241
 6706SOL     OW21016   0.954   5.508   1.575
 6706SOL    HW121017   0.936   5.415   1.606
 6706SOL    HW221018   1.020   5.507   1.500
 6707SOL     OW21019   5.850   6.903   3.356
 6707SOL    HW121020   5.782   6.830   3.351
 6707SOL    HW221021   5.920   6.880   3.423
 6708SOL     OW21022   5.735   5.596   0.478
 6708SOL    HW121023   5.672   5.672   0.461
 6708SOL    HW221024   5.683   5.512   0.496
 6709SOL     OW21025   1.644   6.330   2.836
 6709SOL    HW121026   1.719   6.265   2.822
 6709SOL    HW221027   1.634   6.388   2.756
 6710SOL     OW21028   3.698   1.011   6.106
 6710SOL    HW121029   3.678   1.011   6.008
 6710SOL    HW221030   3.654   0.932   6.149
 6711SOL     OW21031   5.108   6.424   5.327
 6711SOL    HW121032   5.082   6.465   5.239
 6711SOL    HW221033   5.081   6.328   5.328
 6712SOL     OW21034   5.840   3.726   0.684
 6712SOL    HW121035   5.742   3.727   0.705
 6712SOL    HW221036   5.884   3.653   0.736
 6713SOL     OW21037   1.962   0.711   2.659
 6713SOL    HW121038   1.892   0.707   2.587
 6713SOL    HW221039   1.937   0.650   2.734
 6714SOL     OW21040   6.278   1.147   6.351
 6714SOL    HW121041   6.223   1.230   6.341
 6714SOL    HW221042   6.226   1.068   6.320
 6715SOL     OW21043   1.028   0.303   0.742
 6715SOL    HW121044   1.020   0.265   0.650
 6715SOL    HW221045   1.052   0.400   0.736
 6716SOL     OW21046   0.469   5.762   1.987
 6716SOL    HW121047   0.399   5.740   1.919
 6716SOL    HW221048   0.500   5.677   2.031
 6717SOL     OW21049   3.285   3.013   6.815
 6717SOL    HW121050   3.268   2.914   6.820
 6717SOL    HW221051   3.372   3.029   6.769
 6718SOL     OW21052   5.086   0.166   0.518
 6718SOL    HW121053   5.064   0.159   0.615
 6718SOL    HW221054   5.140   0.249   0.502
 6719SOL     OW21055   2.965   6.482   0.095
 6719SOL    HW121056   2.883   6.512   0.046
 6719SOL    HW221057   3.001   6.557   0.151
 6720SOL     OW21058   1.978   6.884   4.088
 6720SOL    HW121059   2.031   6.825   4.149
 6720SOL    HW221060   1.927   6.950   4.143
 6721SOL     OW21061   6.576   6.490   0.400
 6721SOL    HW121062   6.674   6.510   0.393
 6721SOL    HW221063   6.549   6.492   0.497
 6722SOL     OW21064   6.531   2.816   1.063
 6722SOL    HW121065   6.478   2.740   1.101
 6722SOL    HW221066   6.611   2.834   1.120
 6723SOL     OW21067   1.434   0.071   4.637
 6723SOL    HW121068   1.492   0.120   4.571
 6723SOL    HW221069   1.445   0.113   4.727
 6724SOL     OW21070   2.483   3.651   6.108
 6724SOL    HW121071   2.416   3.584   6.139
 6724SOL    HW221072   2.569   3.604   6.086
 6725SOL     OW21073   6.617   2.845   1.790
 6725SOL    HW121074   6.605   2.943   1.776
 6725SOL    HW221075   6.668   2.807   1.713
 6726SOL     OW21076   1.250   2.863   4.556
 6726SOL    HW121077   1.265   2.952   4.514
 6726SOL    HW221078   1.185   2.810   4.500
 6727SOL     OW21079   0.027   4.821   5.881
 6727SOL    HW121080   0.083   4.816   5.964
 6727SOL    HW221081   0.051   4.903   5.829
 6728SOL     OW21082   4.104   2.187   2.536
 6728SOL    HW121083   4.083   2.092   2.510
 6728SOL    HW221084   4.048   2.213   2.615
 6729SOL     OW21085   6.229   0.560   0.923
 6729SOL    HW121086   6.295   0.632   0.946
 6729SOL    HW221087   6.245   0.480   0.981
 6730SOL     OW21088   2.074   6.846   1.815
 6730SOL    HW121089   2.159   6.890   1.845
 6730SOL    HW221090   2.046   6.778   1.883
 6731SOL     OW21091   1.571   6.985   1.044
 6731SOL    HW121092   1.657   6.935   1.050
 6731SOL    HW221093   1.508   6.952   1.115
 6732SOL     OW21094   5.952   4.124   4.687
 6732SOL    HW121095   6.004   4.110   4.602
 6732SOL    HW221096   5.855   4.106   4.671
 6733SOL     OW21097   3.474   5.659   6.269
 6733SOL    HW121098   3.501   5.567   6.299
 6733SOL    HW221099   3.400   5.651   6.202
 6734SOL     OW21100   6.050   1.766   4.539
 6734SOL    HW121101   6.077   1.784   4.445
 6734SOL    HW221102   6.052   1.667   4.556
 6735SOL     OW21103   6.227   3.732   4.693
 6735SOL    HW121104   6.205   3.647   4.742
 6735SOL    HW221105   6.161   3.745   4.619
 6736SOL     OW21106   2.697   3.393   7.000
 6736SOL    HW121107   2.715   3.490   7.014
 6736SOL    HW221108   2.632   3.381   6.925
 6737SOL     OW21109   1.413   3.143   0.870
 6737SOL    HW121110   1.315   3.128   0.857
 6737SOL    HW221111   1.435   3.134   0.967
 6738SOL     OW21112   1.973   5.719   3.411
 6738SOL    HW121113   2.061   5.689   3.374
 6738SOL    HW221114   1.908   5.643   3.407
 6739SOL     OW21115   5.024   5.693   4.506
 6739SOL    HW121116   5.115   5.703   4.464
 6739SOL    HW221117   5.007   5.771   4.567
 6740SOL     OW21118   6.996   0.108   5.154
 6740SOL    HW121119   6.898   0.103   5.173
 6740SOL    HW221120   0.018   0.016   5.152
 6741SOL     OW21121   4.202   2.319   5.604
 6741SOL    HW121122   4.141   2.398   5.605
 6741SOL    HW221123   4.292   2.346   5.638
 6742SOL     OW21124   5.971   5.776   3.297
 6742SOL    HW121125   5.910   5.750   3.372
 6742SOL    HW221126   5.984   5.876   3.297
 6743SOL     OW21127   4.486   4.595   6.339
 6743SOL    HW121128   4.403   4.539   6.350
 6743SOL    HW221129   4.565   4.534   6.329
 6744SOL     OW21130   6.284   4.277   5.937
 6744SOL    HW121131   6.372   4.322   5.918
 6744SOL    HW221132   6.258   4.296   6.032
 6745SOL     OW21133   0.515   6.930   3.692
 6745SOL    HW121134   0.609   6.965   3.700
 6745SOL    HW221135   0.453   7.006   3.672
 6746SOL     OW21136   0.996   1.112   4.009
 6746SOL    HW121137   1.024   1.094   3.914
 6746SOL    HW221138   0.896   1.118   4.014
 6747SOL     OW21139   5.548   1.066   5.894
 6747SOL    HW121140   5.582   1.017   5.974
 6747SOL    HW221141   5.472   1.125   5.920
 6748SOL     OW21142   3.218   1.981   3.246
 6748SOL    HW121143   3.219   2.046   3.170
 6748SOL    HW221144   3.261   2.022   3.327
 6749SOL     OW21145   3.869   4.057   0.746
 6749SOL    HW121146   3.815   4.015   0.818
 6749SOL    HW221147   3.821   4.138   0.711
 6750SOL     OW21148   3.523   2.012   4.437
 6750SOL    HW121149   3.436   2.045   4.400
 6750SOL    HW221150   3.509   1.971   4.527
 6751SOL     OW21151   5.538   6.957   2.714
 6751SOL    HW121152   5.515   6.884   2.650
 6751SOL    HW221153   5.622   7.003   2.684
 6752SOL     OW21154   1.678   6.956   3.429
 6752SOL    HW121155   1.717   6.974   3.339
 6752SOL    HW221156   1.647   6.861   3.434
 6753SOL     OW21157   3.206   1.227   6.029
 6753SOL    HW121158   3.124   1.228   6.085
 6753SOL    HW221159   3.188   1.271   5.941
 6754SOL     OW21160   0.162   1.409   1.103
 6754SOL    HW121161   0.082   1.376   1.052
 6754SOL    HW221162   0.153   1.508   1.118
 6755SOL     OW21163   4.288   1.159   1.975
 6755SOL    HW121164   4.223   1.091   2.011
 6755SOL    HW221165   4.371   1.113   1.947
 6756SOL     OW21166   3.795   6.003   5.113
 6756SOL    HW121167   3.785   6.034   5.208
 6756SOL    HW221168   3.720   5.940   5.091
 6757SOL     OW21169   3.697   2.176   0.583
 6757SOL    HW121170   3.641   2.129   0.515
 6757SOL    HW221171   3.641   2.196   0.663
 6758SOL     OW21172   6.237   2.364   1.921
 6758SOL    HW121173   6.173   2.357   1.998
 6758SOL    HW221174   6.194   2.330   1.838
 6759SOL     OW21175   1.830   4.144   4.367
 6759SOL    HW121176   1.763   4.073   4.343
 6759SOL    HW221177   1.800   4.192   4.449
 6760SOL     OW21178   6.756   3.787   1.985
 6760SOL    HW121179   6.724   3.694   2.004
 6760SOL    HW221180   6.847   3.800   2.025
 6761SOL     OW21181   0.128   2.208   5.753
 6761SOL    HW121182   0.035   2.184   5.726
 6761SOL    HW221183   0.183   2.125   5.763
 6762SOL     OW21184   0.758   4.710   4.665
 6762SOL    HW121185   0.672   4.701   4.716
 6762SOL    HW221186   0.789   4.805   4.669
 6763SOL     OW21187   6.403   5.637   3.592
 6763SOL    HW121188   6.470   5.623   3.519
 6763SOL    HW221189   6.313   5.607   3.560
 6764SOL     OW21190   1.953   5.693   1.126
 6764SOL    HW121191   1.891   5.753   1.075
 6764SOL    HW221192   1.955   5.603   1.081
 6765SOL     OW21193   5.618   4.665   3.763
 6765SOL    HW121194   5.686   4.716   3.816
 6765SOL    HW221195   5.664   4.619   3.687
 6766SOL     OW21196   5.328   6.347   5.741
 6766SOL    HW121197   5.349   6.420   5.676
 6766SOL    HW221198   5.412   6.301   5.768
 6767SOL     OW21199   2.219   1.583   1.278
 6767SOL    HW121200   2.183   1.605   1.187
 6767SOL    HW221201   2.306   1.534   1.269
 6768SOL     OW21202   1.105   6.467   4.826
 6768SOL    HW121203   1.177   6.502   4.886
 6768SOL    HW221204   1.094   6.369   4.842
 6769SOL     OW21205   2.556   0.731   6.346
 6769SOL    HW121206   2.602   0.643   6.348
 6769SOL    HW221207   2.570   0.774   6.257
 6770SOL     OW21208   5.938   1.503   3.098
 6770SOL    HW121209   5.947   1.423   3.158
 6770SOL    HW221210   5.927   1.472   3.003
 6771SOL     OW21211   4.247   1.674   3.352
 6771SOL    HW121212   4.251   1.680   3.252
 6771SOL    HW221213   4.185   1.600   3.378
 6772SOL     OW21214   4.465   2.168   3.035
 6772SOL    HW121215   4.428   2.088   2.986
 6772SOL    HW221216   4.393   2.236   3.046
 6773SOL     OW21217   6.912   5.955   1.800
 6773SOL    HW121218   6.990   5.901   1.768
 6773SOL    HW221219   6.934   6.052   1.795
 6774SOL     OW21220   0.790   3.860   4.859
 6774SOL    HW121221   0.816   3.764   4.872
 6774SOL    HW221222   0.853   3.919   4.910
 6775SOL     OW21223   2.723   2.248   2.134
 6775SOL    HW121224   2.655   2.219   2.066
 6775SOL    HW221225   2.806   2.280   2.087
 6776SOL     OW21226   4.975   3.943   0.176
 6776SOL    HW121227   4.927   3.990   0.251
 6776SOL    HW221228   5.066   3.983   0.165
 6777SOL     OW21229   4.989   4.489   0.656
 6777SOL    HW121230   5.027   4.483   0.748
 6777SOL    HW221231   4.890   4.475   0.659
 6778SOL     OW21232   6.030   5.277   2.007
 6778SOL    HW121233   6.020   5.280   2.106
 6778SOL    HW221234   5.991   5.360   1.967
 6779SOL     OW21235   5.553   5.794   5.929
 6779SOL    HW121236   5.599   5.765   6.012
 6779SOL    HW221237   5.520   5.888   5.940
 6780SOL     OW21238   1.989   2.889   2.498
 6780SOL    HW121239   1.957   2.954   2.429
 6780SOL    HW221240   2.080   2.916   2.529
 6781SOL     OW21241   6.856   2.279   4.351
 6781SOL    HW121242   6.888   2.202   4.296
 6781SOL    HW221243   6.803   2.245   4.429
 6782SOL     OW21244   0.815   1.076   2.648
 6782SOL    HW121245   0.735   1.016   2.637
 6782SOL    HW221246   0.851   1.067   2.740
 6783SOL     OW21247   6.484   1.222   5.684
 6783SOL    HW121248   6.510   1.248   5.591
 6783SOL    HW221249   6.391   1.253   5.702
 6784SOL     OW21250   1.234   3.546   0.755
 6784SOL    HW121251   1.166   3.516   0.687
 6784SOL    HW221252   1.306   3.597   0.710
 6785SOL     OW21253   5.792   5.759   4.475
 6785SOL    HW121254   5.867   5.778   4.411
 6785SOL    HW221255   5.705   5.773   4.429
 6786SOL     OW21256   1.731   2.576   0.595
 6786SOL    HW121257   1.632   2.563   0.581
 6786SOL    HW221258   1.773   2.488   0.617
 6787SOL     OW21259   2.446   2.999   0.009
 6787SOL    HW121260   2.396   3.059   0.071
 6787SOL    HW221261   2.386   2.927   6.991
 6788SOL     OW21262   1.118   4.278   1.328
 6788SOL    HW121263   1.066   4.202   1.289
 6788SOL    HW221264   1.057   4.355   1.346
 6789SOL     OW21265   0.533   5.323   2.952
 6789SOL    HW121266   0.521   5.269   3.035
 6789SOL    HW221267   0.512   5.267   2.872
 6790SOL     OW21268   0.041   3.654   0.631
 6790SOL    HW121269   0.027   3.639   0.729
 6790SOL    HW221270   0.077   3.746   0.616
 6791SOL     OW21271   3.960   1.624   2.384
 6791SOL    HW121272   3.984   1.605   2.288
 6791SOL    HW221273   4.030   1.682   2.424
 6792SOL     OW21274   6.094   0.098   4.728
 6792SOL    HW121275   6.012   0.084   4.784
 6792SOL    HW221276   6.092   0.034   4.651
 6793SOL     OW21277   2.073   1.648   1.000
 6793SOL    HW121278   2.029   1.728   0.960
 6793SOL    HW221279   2.008   1.599   1.057
 6794SOL     OW21280   4.998   0.861   5.621
 6794SOL    HW121281   4.995   0.939   5.558
 6794SOL    HW221282   4.918   0.803   5.605
 6795SOL     OW21283   2.291   6.458   0.503
 6795SOL    HW121284   2.292   6.539   0.445
 6795SOL    HW221285   2.311   6.484   0.598
 6796SOL     OW21286   6.195   0.794   2.813
 6796SOL    HW121287   6.097   0.791   2.836
 6796SOL    HW221288   6.248   0.807   2.896
 6797SOL     OW21289   6.912   2.590   1.904
 6797SOL    HW121290   6.912   2.499   1.862
 6797SOL    HW221291   6.996   2.638   1.879
 6798SOL     OW21292   5.699   6.713   1.930
 6798SOL    HW121293   5.783   6.706   1.877
 6798SOL    HW221294   5.683   6.809   1.955
 6799SOL     OW21295   0.264   0.230   1.946
 6799SOL    HW121296   0.319   0.307   1.911
 6799SOL    HW221297   0.264   0.232   2.046
 6800SOL     OW21298   2.175   3.151   2.398
 6800SOL    HW121299   2.171   3.217   2.323
 6800SOL    HW221300   2.193   3.060   2.361
 6801SOL     OW21301   0.637   6.947   2.915
 6801SOL    HW121302   0.636   6.900   3.004
 6801SOL    HW221303   0.697   6.897   2.852
 6802SOL     OW21304   3.118   5.845   1.669
 6802SOL    HW121305   3.073   5.919   1.618
 6802SOL    HW221306   3.081   5.757   1.640
 6803SOL     OW21307   4.479   3.169   5.499
 6803SOL    HW121308   4.540   3.166   5.420
 6803SOL    HW221309   4.394   3.119   5.478
 6804SOL     OW21310   3.429   4.970   3.984
 6804SOL    HW121311   3.524   4.952   3.957
 6804SOL    HW221312   3.424   5.058   4.032
 6805SOL     OW21313   0.506   4.853   6.574
 6805SOL    HW121314   0.507   4.826   6.478
 6805SOL    HW221315   0.414   4.885   6.599
 6806SOL     OW21316   6.704   0.717   3.271
 6806SOL    HW121317   6.628   0.775   3.241
 6806SOL    HW221318   6.669   0.628   3.299
 6807SOL     OW21319   3.298   3.793   1.403
 6807SOL    HW121320   3.239   3.860   1.449
 6807SOL    HW221321   3.386   3.835   1.382
 6808SOL     OW21322   0.329   2.328   6.011
 6808SOL    HW121323   0.306   2.239   6.049
 6808SOL    HW221324   0.344   2.320   5.912
 6809SOL     OW21325   0.838   3.539   1.290
 6809SOL    HW121326   0.887   3.458   1.324
 6809SOL    HW221327   0.750   3.547   1.338
 6810SOL     OW21328   1.495   0.766   2.480
 6810SOL    HW121329   1.482   0.673   2.513
 6810SOL    HW221330   1.411   0.819   2.492
 6811SOL     OW21331   5.410   3.525   1.790
 6811SOL    HW121332   5.370   3.469   1.718
 6811SOL    HW221333   5.508   3.536   1.775
 6812SOL     OW21334   3.169   3.525   4.629
 6812SOL    HW121335   3.099   3.510   4.560
 6812SOL    HW221336   3.143   3.602   4.687
 6813SOL     OW21337   4.983   2.868   3.397
 6813SOL    HW121338   5.015   2.794   3.337
 6813SOL    HW221339   4.971   2.951   3.343
 6814SOL     OW21340   3.448   1.620   6.003
 6814SOL    HW121341   3.543   1.593   5.990
 6814SOL    HW221342   3.390   1.575   5.934
 6815SOL     OW21343   3.659   6.241   0.749
 6815SOL    HW121344   3.639   6.206   0.657
 6815SOL    HW221345   3.575   6.274   0.792
 6816SOL     OW21346   6.937   0.644   6.546
 6816SOL    HW121347   6.876   0.723   6.549
 6816SOL    HW221348   6.932   0.601   6.456
 6817SOL     OW21349   2.321   2.652   2.721
 6817SOL    HW121350   2.239   2.635   2.667
 6817SOL    HW221351   2.401   2.614   2.674
 6818SOL     OW21352   2.508   6.494   1.726
 6818SOL    HW121353   2.568   6.552   1.781
 6818SOL    HW221354   2.537   6.399   1.735
 6819SOL     OW21355   4.285   1.724   3.100
 6819SOL    HW121356   4.267   1.660   3.024
 6819SOL    HW221357   4.368   1.775   3.081
 6820SOL     OW21358   1.892   5.819   1.697
 6820SOL    HW121359   1.970   5.767   1.662
 6820SOL    HW221360   1.807   5.775   1.667
 6821SOL     OW21361   4.120   2.019   5.052
 6821SOL    HW121362   4.130   2.083   4.975
 6821SOL    HW221363   4.031   2.032   5.095
 6822SOL     OW21364   5.600   2.438   5.985
 6822SOL    HW121365   5.671   2.480   6.040
 6822SOL    HW221366   5.555   2.365   6.038
 6823SOL     OW21367   4.949   3.747   5.988
 6823SOL    HW121368   4.884   3.735   6.063
 6823SOL    HW221369   4.902   3.734   5.901
 6824SOL     OW21370   1.157   2.253   0.454
 6824SOL    HW121371   1.110   2.265   0.367
 6824SOL    HW221372   1.211   2.168   0.451
 6825SOL     OW21373   5.203   6.868   0.958
 6825SOL    HW121374   5.201   6.962   0.992
 6825SOL    HW221375   5.110   6.838   0.938
 6826SOL     OW21376   1.734   3.119   3.297
 6826SOL    HW121377   1.778   3.073   3.374
 6826SOL    HW221378   1.802   3.137   3.225
 6827SOL     OW21379   4.428   5.201   6.280
 6827SOL    HW121380   4.483   5.279   6.311
 6827SOL    HW221381   4.344   5.196   6.334
 6828SOL     OW21382   3.091   1.241   1.653
 6828SOL    HW121383   3.131   1.288   1.574
 6828SOL    HW221384   2.992   1.257   1.653
 6829SOL     OW21385   5.219   6.173   5.054
 6829SOL    HW121386   5.207   6.262   5.008
 6829SOL    HW221387   5.309   6.136   5.031
 6830SOL     OW21388   5.192   0.776   3.521
 6830SOL    HW121389   5.279   0.759   3.476
 6830SOL    HW221390   5.208   0.813   3.612
 6831SOL     OW21391   1.199   0.015   0.006
 6831SOL    HW121392   1.177   7.012   6.925
 6831SOL    HW221393   1.282   0.070   0.011
 6832SOL     OW21394   2.735   4.192   0.738
 6832SOL    HW121395   2.693   4.214   0.825
 6832SOL    HW221396   2.714   4.097   0.713
 6833SOL     OW21397   3.489   4.334   6.429
 6833SOL    HW121398   3.517   4.302   6.339
 6833SOL    HW221399   3.413   4.277   6.463
 6834SOL     OW21400   4.883   6.841   0.600
 6834SOL    HW121401   4.911   6.751   0.635
 6834SOL    HW221402   4.934   6.912   0.649
 6835SOL     OW21403   4.467   0.837   4.382
 6835SOL    HW121404   4.414   0.909   4.338
 6835SOL    HW221405   4.493   0.768   4.314
 6836SOL     OW21406   2.512   4.561   0.356
 6836SOL    HW121407   2.522   4.626   0.281
 6836SOL    HW221408   2.503   4.468   0.319
 6837SOL     OW21409   0.688   2.255   2.161
 6837SOL    HW121410   0.722   2.168   2.126
 6837SOL    HW221411   0.751   2.328   2.135
 6838SOL     OW21412   3.659   6.349   6.946
 6838SOL    HW121413   3.653   6.305   0.020
 6838SOL    HW221414   3.603   6.431   6.945
 6839SOL     OW21415   5.707   0.928   6.431
 6839SOL    HW121416   5.792   0.980   6.425
 6839SOL    HW221417   5.690   0.903   6.527
 6840SOL     OW21418   3.714   0.721   4.768
 6840SOL    HW121419   3.620   0.735   4.736
 6840SOL    HW221420   3.777   0.752   4.697
 6841SOL     OW21421   4.572   4.406   6.881
 6841SOL    HW121422   4.618   4.482   6.836
 6841SOL    HW221423   4.622   4.321   6.861
 6842SOL     OW21424   3.075   3.667   0.533
 6842SOL    HW121425   3.119   3.671   0.622
 6842SOL    HW221426   3.118   3.732   0.470
 6843SOL     OW21427   6.063   6.349   1.352
 6843SOL    HW121428   5.990   6.408   1.318
 6843SOL    HW221429   6.078   6.274   1.288
 6844SOL     OW21430   5.193   0.418   3.920
 6844SOL    HW121431   5.266   0.473   3.879
 6844SOL    HW221432   5.176   0.450   4.013
 6845SOL     OW21433   6.589   4.192   3.565
 6845SOL    HW121434   6.601   4.261   3.637
 6845SOL    HW221435   6.498   4.152   3.573
 6846SOL     OW21436   3.454   3.151   0.374
 6846SOL    HW121437   3.463   3.171   0.276
 6846SOL    HW221438   3.398   3.069   0.386
 6847SOL     OW21439   0.541   3.437   4.153
 6847SOL    HW121440   0.542   3.537   4.145
 6847SOL    HW221441   0.478   3.410   4.226
 6848SOL     OW21442   4.705   6.390   3.514
 6848SOL    HW121443   4.668   6.302   3.482
 6848SOL    HW221444   4.641   6.431   3.579
 6849SOL     OW21445   4.024   4.918   5.129
 6849SOL    HW121446   3.982   4.847   5.185
 6849SOL    HW221447   3.975   5.004   5.141
 6850SOL     OW21448   5.682   4.080   2.081
 6850SOL    HW121449   5.691   3.997   2.136
 6850SOL    HW221450   5.752   4.146   2.110
 6851SOL     OW21451   0.516   2.034   2.983
 6851SOL    HW121452   0.540   2.026   2.886
 6851SOL    HW221453   0.596   2.011   3.039
 6852SOL     OW21454   2.796   4.662   0.549
 6852SOL    HW121455   2.896   4.656   0.547
 6852SOL    HW221456   2.757   4.572   0.532
 6853SOL     OW21457   5.868   4.502   0.229
 6853SOL    HW121458   5.951   4.449   0.245
 6853SOL    HW221459   5.891   4.585   0.177
 6854SOL     OW21460   4.737   1.613   6.510
 6854SOL    HW121461   4.708   1.519   6.524
 6854SOL    HW221462   4.669   1.660   6.453
 6855SOL     OW21463   4.242   5.471   3.879
 6855SOL    HW121464   4.307   5.453   3.953
 6855SOL    HW221465   4.149   5.459   3.913
 6856SOL     OW21466   5.832   3.116   5.215
 6856SOL    HW121467   5.829   3.169   5.130
 6856SOL    HW221468   5.739   3.104   5.250
 6857SOL     OW21469   3.034   2.796   6.641
 6857SOL    HW121470   2.991   2.772   6.554
 6857SOL    HW221471   3.037   2.716   6.701
 6858SOL     OW21472   4.013   3.671   3.149
 6858SOL    HW121473   4.043   3.594   3.205
 6858SOL    HW221474   4.010   3.754   3.205
 6859SOL     OW21475   0.354   1.661   1.203
 6859SOL    HW121476   0.339   1.729   1.275
 6859SOL    HW221477   0.377   1.708   1.118
 6860SOL     OW21478   6.740   4.871   1.054
 6860SOL    HW121479   6.675   4.797   1.037
 6860SOL    HW221480   6.813   4.838   1.114
 6861SOL     OW21481   4.218   5.439   0.336
 6861SOL    HW121482   4.209   5.534   0.367
 6861SOL    HW221483   4.205   5.377   0.413
 6862SOL     OW21484   1.249   5.330   6.347
 6862SOL    HW121485   1.187   5.338   6.426
 6862SOL    HW221486   1.214   5.385   6.272
 6863SOL     OW21487   5.914   6.692   5.771
 6863SOL    HW121488   5.927   6.759   5.698
 6863SOL    HW221489   5.929   6.600   5.735
 6864SOL     OW21490   2.763   5.166   4.279
 6864SOL    HW121491   2.779   5.070   4.302
 6864SOL    HW221492   2.687   5.201   4.333
 6865SOL     OW21493   1.259   6.136   3.888
 6865SOL    HW121494   1.169   6.102   3.860
 6865SOL    HW221495   1.321   6.058   3.902
 6866SOL     OW21496   5.973   4.978   3.999
 6866SOL    HW121497   6.032   5.058   3.996
 6866SOL    HW221498   6.026   4.898   4.029
 6867SOL     OW21499   2.394   4.470   1.606
 6867SOL    HW121500   2.452   4.542   1.645
 6867SOL    HW221501   2.440   4.431   1.526
 6868SOL     OW21502   1.687   5.559   6.603
 6868SOL    HW121503   1.772   5.507   6.594
 6868SOL    HW221504   1.623   5.508   6.661
 6869SOL     OW21505   5.472   0.757   6.295
 6869SOL    HW121506   5.545   0.791   6.354
 6869SOL    HW221507   5.507   0.681   6.239
 6870SOL     OW21508   0.446   5.283   1.753
 6870SOL    HW121509   0.366   5.233   1.719
 6870SOL    HW221510   0.458   5.367   1.700
 6871SOL     OW21511   5.973   4.247   3.208
 6871SOL    HW121512   5.965   4.328   3.265
 6871SOL    HW221513   5.883   4.203   3.200
 6872SOL     OW21514   0.414   2.514   1.263
 6872SOL    HW121515   0.395   2.591   1.323
 6872SOL    HW221516   0.503   2.474   1.287
 6873SOL     OW21517   6.654   3.413   4.379
 6873SOL    HW121518   6.625   3.379   4.289
 6873SOL    HW221519   6.713   3.492   4.368
 6874SOL     OW21520   6.839   5.618   2.982
 6874SOL    HW121521   6.938   5.606   2.997
 6874SOL    HW221522   6.824   5.660   2.893
 6875SOL     OW21523   2.462   2.464   2.217
 6875SOL    HW121524   2.483   2.454   2.120
 6875SOL    HW221525   2.540   2.435   2.272
 6876SOL     OW21526   3.886   0.145   3.664
 6876SOL    HW121527   3.901   0.123   3.760
 6876SOL    HW221528   3.865   0.242   3.655
 6877SOL     OW21529   2.449   3.625   0.916
 6877SOL    HW121530   2.450   3.559   0.991
 6877SOL    HW221531   2.543   3.654   0.896
 6878SOL     OW21532   3.840   1.219   4.516
 6878SOL    HW121533   3.907   1.218   4.442
 6878SOL    HW221534   3.794   1.130   4.521
 6879SOL     OW21535   0.711   2.866   0.644
 6879SOL    HW121536   0.703   2.778   0.599
 6879SOL    HW221537   0.801   2.875   0.686
 6880SOL     OW21538   2.662   5.677   5.171
 6880SOL    HW121539   2.761   5.677   5.163
 6880SOL    HW221540   2.625   5.596   5.125
 6881SOL     OW21541   1.492   4.889   0.812
 6881SOL    HW121542   1.551   4.832   0.755
 6881SOL    HW221543   1.500   4.860   0.907
 6882SOL     OW21544   2.711   0.561   0.068
 6882SOL    HW121545   2.657   0.559   6.999
 6882SOL    HW221546   2.682   0.637   0.125
 6883SOL     OW21547   5.252   1.633   6.787
 6883SOL    HW121548   5.260   1.551   6.845
 6883SOL    HW221549   5.233   1.605   6.693
 6884SOL     OW21550   1.753   4.421   3.884
 6884SOL    HW121551   1.757   4.514   3.847
 6884SOL    HW221552   1.845   4.390   3.906
 6885SOL     OW21553   4.049   4.930   4.093
 6885SOL    HW121554   4.005   4.843   4.117
 6885SOL    HW221555   4.049   4.941   3.994
 6886SOL     OW21556   0.208   0.665   4.175
 6886SOL    HW121557   0.271   0.738   4.150
 6886SOL    HW221558   0.123   0.704   4.211
 6887SOL     OW21559   5.270   5.560   6.257
 6887SOL    HW121560   5.348   5.499   6.246
 6887SOL    HW221561   5.277   5.608   6.344
 6888SOL     OW21562   5.573   5.704   6.567
 6888SOL    HW121563   5.604   5.799   6.575
 6888SOL    HW221564   5.615   5.662   6.486
 6889SOL     OW21565   1.744   2.497   5.422
 6889SOL    HW121566   1.717   2.502   5.326
 6889SOL    HW221567   1.701   2.573   5.472
 6890SOL     OW21568   4.268   6.597   1.866
 6890SOL    HW121569   4.324   6.554   1.794
 6890SOL    HW221570   4.327   6.629   1.939
 6891SOL     OW21571   2.193   4.104   3.321
 6891SOL    HW121572   2.103   4.144   3.307
 6891SOL    HW221573   2.261   4.155   3.267
 6892SOL     OW21574   3.332   1.966   3.654
 6892SOL    HW121575   3.263   1.903   3.619
 6892SOL    HW221576   3.373   1.928   3.737
 6893SOL     OW21577   4.689   4.878   0.267
 6893SOL    HW121578   4.699   4.879   0.168
 6893SOL    HW221579   4.779   4.884   0.310
 6894SOL     OW21580   6.085   5.283   0.597
 6894SOL    HW121581   6.064   5.301   0.500
 6894SOL    HW221582   6.115   5.188   0.606
 6895SOL     OW21583   3.329   4.858   0.839
 6895SOL    HW121584   3.404   4.834   0.900
 6895SOL    HW221585   3.351   4.941   0.788
 6896SOL     OW21586   2.457   0.211   3.845
 6896SOL    HW121587   2.414   0.235   3.758
 6896SOL    HW221588   2.452   0.112   3.858
 6897SOL     OW21589   4.694   3.503   5.426
 6897SOL    HW121590   4.605   3.514   5.470
 6897SOL    HW221591   4.690   3.540   5.333
 6898SOL     OW21592   4.350   1.731   2.119
 6898SOL    HW121593   4.433   1.699   2.073
 6898SOL    HW221594   4.271   1.683   2.082
 6899SOL     OW21595   5.088   6.082   1.403
 6899SOL    HW121596   5.113   6.174   1.434
 6899SOL    HW221597   5.007   6.051   1.453
 6900SOL     OW21598   6.080   5.770   5.252
 6900SOL    HW121599   6.146   5.736   5.185
 6900SOL    HW221600   6.054   5.696   5.313
 6901SOL     OW21601   6.678   6.092   6.043
 6901SOL    HW121602   6.620   6.127   5.969
 6901SOL    HW221603   6.668   6.150   6.123
 6902SOL     OW21604   5.751   6.110   0.006
 6902SOL    HW121605   5.801   6.151   0.081
 6902SOL    HW221606   5.757   6.011   0.011
 6903SOL     OW21607   2.856   5.026   5.318
 6903SOL    HW121608   2.865   5.013   5.219
 6903SOL    HW221609   2.819   4.943   5.360
 6904SOL     OW21610   6.678   0.843   4.502
 6904SOL    HW121611   6.675   0.929   4.452
 6904SOL    HW221612   6.757   0.843   4.563
 6905SOL     OW21613   5.648   6.579   6.332
 6905SOL    HW121614   5.670   6.509   6.265
 6905SOL    HW221615   5.682   6.551   6.422
 6906SOL     OW21616   4.469   1.411   4.385
 6906SOL    HW121617   4.563   1.442   4.368
 6906SOL    HW221618   4.468   1.311   4.390
 6907SOL     OW21619   5.309   3.173   1.701
 6907SOL    HW121620   5.388   3.227   1.672
 6907SOL    HW221621   5.334   3.118   1.781
 6908SOL     OW21622   0.708   5.131   6.571
 6908SOL    HW121623   0.772   5.169   6.637
 6908SOL    HW221624   0.615   5.136   6.607
 6909SOL     OW21625   4.798   4.434   1.508
 6909SOL    HW121626   4.706   4.454   1.542
 6909SOL    HW221627   4.793   4.400   1.414
 6910SOL     OW21628   0.736   2.773   3.643
 6910SOL    HW121629   0.774   2.865   3.655
 6910SOL    HW221630   0.784   2.727   3.568
 6911SOL     OW21631   4.346   6.206   4.052
 6911SOL    HW121632   4.346   6.109   4.027
 6911SOL    HW221633   4.441   6.238   4.060
 6912SOL     OW21634   3.786   3.815   6.128
 6912SOL    HW121635   3.862   3.764   6.167
 6912SOL    HW221636   3.818   3.865   6.047
 6913SOL     OW21637   5.414   6.080   3.642
 6913SOL    HW121638   5.389   6.086   3.738
 6913SOL    HW221639   5.355   6.013   3.596
 6914SOL     OW21640   6.125   4.078   3.410
 6914SOL    HW121641   6.099   3.994   3.364
 6914SOL    HW221642   6.113   4.155   3.348
 6915SOL     OW21643   6.128   2.845   1.906
 6915SOL    HW121644   6.030   2.849   1.885
 6915SOL    HW221645   6.165   2.756   1.878
 6916SOL     OW21646   5.850   1.741   6.882
 6916SOL    HW121647   5.811   1.697   6.963
 6916SOL    HW221648   5.931   1.795   6.909
 6917SOL     OW21649   3.509   0.051   1.656
 6917SOL    HW121650   3.484   6.970   1.652
 6917SOL    HW221651   3.557   0.076   1.572
 6918SOL     OW21652   0.296   2.675   4.570
 6918SOL    HW121653   0.331   2.637   4.655
 6918SOL    HW221654   0.365   2.735   4.529
 6919SOL     OW21655   6.274   5.920   3.774
 6919SOL    HW121656   6.315   5.862   3.704
 6919SOL    HW221657   6.312   6.012   3.768
 6920SOL     OW21658   3.841   6.041   5.428
 6920SOL    HW121659   3.770   6.012   5.492
 6920SOL    HW221660   3.905   6.102   5.474
 6921SOL     OW21661   5.068   5.649   3.917
 6921SOL    HW121662   5.155   5.605   3.895
 6921SOL    HW221663   5.053   5.644   4.016
 6922SOL     OW21664   1.665   6.302   4.863
 6922SOL    HW121665   1.748   6.357   4.858
 6922SOL    HW221666   1.612   6.329   4.943
 6923SOL     OW21667   5.043   5.595   3.339
 6923SOL    HW121668   4.962   5.653   3.343
 6923SOL    HW221669   5.088   5.606   3.250
 6924SOL     OW21670   2.325   4.304   6.531
 6924SOL    HW121671   2.283   4.394   6.543
 6924SOL    HW221672   2.346   4.290   6.434
 6925SOL     OW21673   4.826   6.113   3.989
 6925SOL    HW121674   4.884   6.041   3.953
 6925SOL    HW221675   4.733   6.104   3.952
 6926SOL     OW21676   3.017   1.990   0.931
 6926SOL    HW121677   3.013   1.980   1.030
 6926SOL    HW221678   2.945   2.051   0.900
 6927SOL     OW21679   4.155   3.214   6.077
 6927SOL    HW121680   4.106   3.250   6.157
 6927SOL    HW221681   4.090   3.196   6.004
 6928SOL     OW21682   5.659   6.047   1.065
 6928SOL    HW121683   5.737   6.018   1.008
 6928SOL    HW221684   5.583   5.983   1.051
 6929SOL     OW21685   5.459   5.432   1.547
 6929SOL    HW121686   5.426   5.509   1.601
 6929SOL    HW221687   5.385   5.366   1.533
 6930SOL     OW21688   0.829   0.473   2.430
 6930SOL    HW121689   0.758   0.422   2.480
 6930SOL    HW221690   0.808   0.472   2.333
 6931SOL     OW21691   1.755   0.683   2.480
 6931SOL    HW121692   1.660   0.716   2.471
 6931SOL    HW221693   1.754   0.585   2.501
 6932SOL     OW21694   4.443   6.441   0.337
 6932SOL    HW121695   4.541   6.441   0.314
 6932SOL    HW221696   4.413   6.535   0.353
 6933SOL     OW21697   3.181   6.099   5.542
 6933SOL    HW121698   3.146   6.185   5.504
 6933SOL    HW221699   3.281   6.102   5.546
 6934SOL     OW21700   4.653   3.759   6.394
 6934SOL    HW121701   4.663   3.798   6.303
 6934SOL    HW221702   4.561   3.777   6.429
 6935SOL     OW21703   4.567   5.605   2.469
 6935SOL    HW121704   4.551   5.651   2.382
 6935SOL    HW221705   4.504   5.641   2.538
 6936SOL     OW21706   6.251   1.793   3.196
 6936SOL    HW121707   6.307   1.737   3.135
 6936SOL    HW221708   6.212   1.869   3.144
 6937SOL     OW21709   6.339   6.184   0.344
 6937SOL    HW121710   6.380   6.251   0.282
 6937SOL    HW221711   6.351   6.215   0.438
 6938SOL     OW21712   5.943   2.626   5.177
 6938SOL    HW121713   6.008   2.551   5.163
 6938SOL    HW221714   5.857   2.604   5.130
 6939SOL     OW21715   1.144   5.069   1.841
 6939SOL    HW121716   1.104   4.987   1.801
 6939SOL    HW221717   1.202   5.114   1.773
 6940SOL     OW21718   3.822   0.454   6.375
 6940SOL    HW121719   3.737   0.405   6.393
 6940SOL    HW221720   3.882   0.397   6.319
 6941SOL     OW21721   3.304   4.098   1.903
 6941SOL    HW121722   3.211   4.107   1.866
 6941SOL    HW221723   3.299   4.078   2.000
 6942SOL     OW21724   6.295   6.587   1.694
 6942SOL    HW121725   6.375   6.643   1.672
 6942SOL    HW221726   6.263   6.541   1.611
 6943SOL     OW21727   3.073   5.916   0.072
 6943SOL    HW121728   3.134   5.988   0.040
 6943SOL    HW221729   3.085   5.834   0.016
 6944SOL     OW21730   0.441   4.137   6.770
 6944SOL    HW121731   0.344   4.158   6.761
 6944SOL    HW221732   0.477   4.106   6.682
 6945SOL     OW21733   6.098   1.086   6.670
 6945SOL    HW121734   6.067   1.177   6.643
 6945SOL    HW221735   6.162   1.051   6.601
 6946SOL     OW21736   4.342   6.893   0.875
 6946SOL    HW121737   4.419   6.848   0.920
 6946SOL    HW221738   4.353   6.886   0.775
 6947SOL     OW21739   3.359   5.556   6.558
 6947SOL    HW121740   3.361   5.654   6.543
 6947SOL    HW221741   3.363   5.508   6.470
 6948SOL     OW21742   0.820   0.574   0.303
 6948SOL    HW121743   0.748   0.641   0.282
 6948SOL    HW221744   0.780   0.497   0.354
 6949SOL     OW21745   4.134   0.114   3.533
 6949SOL    HW121746   4.047   0.116   3.582
 6949SOL    HW221747   4.117   0.095   3.436
 6950SOL     OW21748   1.477   2.025   4.532
 6950SOL    HW121749   1.501   1.954   4.465
 6950SOL    HW221750   1.423   2.096   4.486
 6951SOL     OW21751   6.389   5.398   5.744
 6951SOL    HW121752   6.445   5.316   5.731
 6951SOL    HW221753   6.304   5.373   5.790
 6952SOL     OW21754   0.486   5.863   3.181
 6952SOL    HW121755   0.525   5.842   3.271
 6952SOL    HW221756   0.547   5.924   3.132
 6953SOL     OW21757   4.394   6.582   1.314
 6953SOL    HW121758   4.344   6.598   1.229
 6953SOL    HW221759   4.416   6.670   1.357
 6954SOL     OW21760   6.779   4.072   2.455
 6954SOL    HW121761   6.826   3.984   2.465
 6954SOL    HW221762   6.702   4.076   2.518
 6955SOL     OW21763   6.093   6.999   2.207
 6955SOL    HW121764   6.033   0.024   2.276
 6955SOL    HW221765   6.084   0.034   2.121
 6956SOL     OW21766   6.019   6.072   3.722
 6956SOL    HW121767   5.935   6.029   3.689
 6956SOL    HW221768   6.093   6.005   3.724
 6957SOL     OW21769   6.334   5.468   0.524
 6957SOL    HW121770   6.266   5.410   0.480
 6957SOL    HW221771   6.384   5.519   0.455
 6958SOL     OW21772   4.036   3.203   4.349
 6958SOL    HW121773   3.994   3.126   4.302
 6958SOL    HW221774   4.072   3.268   4.282
 6959SOL     OW21775   2.136   3.220   3.824
 6959SOL    HW121776   2.068   3.287   3.795
 6959SOL    HW221777   2.221   3.233   3.772
 6960SOL     OW21778   1.758   4.761   1.260
 6960SOL    HW121779   1.752   4.708   1.345
 6960SOL    HW221780   1.840   4.734   1.210
 6961SOL     OW21781   5.944   1.017   4.080
 6961SOL    HW121782   5.987   0.951   4.019
 6961SOL    HW221783   5.849   0.991   4.097
 6962SOL     OW21784   4.917   6.374   1.736
 6962SOL    HW121785   5.015   6.368   1.755
 6962SOL    HW221786   4.902   6.390   1.639
 6963SOL     OW21787   5.320   5.912   0.819
 6963SOL    HW121788   5.226   5.879   0.829
 6963SOL    HW221789   5.382   5.849   0.865
 6964SOL     OW21790   3.251   0.880   5.477
 6964SOL    HW121791   3.211   0.952   5.534
 6964SOL    HW221792   3.225   0.895   5.382
 6965SOL     OW21793   0.978   1.134   0.483
 6965SOL    HW121794   0.979   1.060   0.415
 6965SOL    HW221795   0.939   1.101   0.568
 6966SOL     OW21796   1.164   2.283   2.789
 6966SOL    HW121797   1.251   2.283   2.839
 6966SOL    HW221798   1.117   2.196   2.806
 6967SOL     OW21799   2.870   1.062   5.592
 6967SOL    HW121800   2.811   0.993   5.634
 6967SOL    HW221801   2.869   1.049   5.493
 6968SOL     OW21802   3.757   6.837   2.895
 6968SOL    HW121803   3.769   6.780   2.814
 6968SOL    HW221804   3.660   6.846   2.917
 6969SOL     OW21805   3.016   2.363   1.640
 6969SOL    HW121806   2.972   2.371   1.730
 6969SOL    HW221807   3.109   2.400   1.645
 6970SOL     OW21808   4.536   4.697   5.354
 6970SOL    HW121809   4.619   4.750   5.372
 6970SOL    HW221810   4.516   4.640   5.434
 6971SOL     OW21811   6.720   4.528   1.174
 6971SOL    HW121812   6.726   4.433   1.206
 6971SOL    HW221813   6.720   4.590   1.252
 6972SOL     OW21814   5.333   4.834   3.068
 6972SOL    HW121815   5.377   4.887   2.995
 6972SOL    HW221816   5.333   4.737   3.043
 6973SOL     OW21817   0.893   3.005   3.605
 6973SOL    HW121818   0.928   2.930   3.550
 6973SOL    HW221819   0.968   3.050   3.653
 6974SOL     OW21820   2.942   3.651   3.021
 6974SOL    HW121821   2.902   3.696   2.941
 6974SOL    HW221822   3.041   3.643   3.009
 6975SOL     OW21823   1.701   6.359   6.675
 6975SOL    HW121824   1.673   6.335   6.582
 6975SOL    HW221825   1.711   6.458   6.682
 6976SOL     OW21826   5.643   5.223   5.172
 6976SOL    HW121827   5.576   5.288   5.136
 6976SOL    HW221828   5.727   5.271   5.196
 6977SOL     OW21829   3.873   2.734   1.730
 6977SOL    HW121830   3.857   2.635   1.732
 6977SOL    HW221831   3.846   2.774   1.817
 6978SOL     OW21832   5.985   1.480   2.138
 6978SOL    HW121833   6.026   1.562   2.177
 6978SOL    HW221834   5.966   1.495   2.041
 6979SOL     OW21835   0.856   4.206   1.554
 6979SOL    HW121836   0.938   4.179   1.605
 6979SOL    HW221837   0.872   4.193   1.456
 6980SOL     OW21838   2.125   0.953   3.958
 6980SOL    HW121839   2.040   0.920   3.918
 6980SOL    HW221840   2.105   1.026   4.024
 6981SOL     OW21841   4.020   2.717   6.040
 6981SOL    HW121842   3.946   2.755   6.096
 6981SOL    HW221843   3.982   2.650   5.976
 6982SOL     OW21844   1.497   1.013   4.814
 6982SOL    HW121845   1.521   1.108   4.833
 6982SOL    HW221846   1.515   0.957   4.895
 6983SOL     OW21847   3.585   1.720   3.527
 6983SOL    HW121848   3.664   1.660   3.536
 6983SOL    HW221849   3.592   1.770   3.440
 6984SOL     OW21850   1.626   1.591   3.529
 6984SOL    HW121851   1.703   1.601   3.467
 6984SOL    HW221852   1.650   1.527   3.602
 6985SOL     OW21853   5.851   4.963   1.196
 6985SOL    HW121854   5.774   5.024   1.217
 6985SOL    HW221855   5.929   5.018   1.165
 6986SOL     OW21856   2.624   0.329   6.130
 6986SOL    HW121857   2.699   0.285   6.082
 6986SOL    HW221858   2.548   0.345   6.067
 6987SOL     OW21859   5.810   1.356   6.128
 6987SOL    HW121860   5.733   1.301   6.160
 6987SOL    HW221861   5.789   1.453   6.142
 6988SOL     OW21862   0.528   6.825   6.115
 6988SOL    HW121863   0.625   6.809   6.096
 6988SOL    HW221864   0.491   6.750   6.169
 6989SOL     OW21865   0.969   3.801   3.074
 6989SOL    HW121866   1.025   3.820   3.154
 6989SOL    HW221867   0.876   3.779   3.103
 6990SOL     OW21868   5.068   2.572   1.480
 6990SOL    HW121869   5.069   2.502   1.409
 6990SOL    HW221870   5.156   2.619   1.483
 6991SOL     OW21871   4.318   4.697   3.323
 6991SOL    HW121872   4.379   4.622   3.301
 6991SOL    HW221873   4.286   4.688   3.418
 6992SOL     OW21874   5.197   6.956   6.571
 6992SOL    HW121875   5.276   6.897   6.586
 6992SOL    HW221876   5.148   6.924   6.489
 6993SOL     OW21877   6.100   0.533   2.991
 6993SOL    HW121878   6.144   0.560   3.076
 6993SOL    HW221879   6.160   0.471   2.940
 6994SOL     OW21880   0.145   2.624   4.248
 6994SOL    HW121881   0.130   2.682   4.328
 6994SOL    HW221882   0.195   2.542   4.275
 6995SOL     OW21883   0.184   5.137   6.151
 6995SOL    HW121884   0.172   5.063   6.218
 6995SOL    HW221885   0.216   5.099   6.065
 6996SOL     OW21886   1.707   0.219   6.554
 6996SOL    HW121887   1.736   0.315   6.545
 6996SOL    HW221888   1.691   0.181   6.462
 6997SOL     OW21889   6.944   5.590   5.347
 6997SOL    HW121890   6.887   5.639   5.413
 6997SOL    HW221891   6.959   5.497   5.379
 6998SOL     OW21892   2.107   0.417   1.412
 6998SOL    HW121893   2.022   0.441   1.365
 6998SOL    HW221894   2.172   0.493   1.406
 6999SOL     OW21895   2.094   2.161   0.140
 6999SOL    HW121896   2.162   2.179   0.212
 6999SOL    HW221897   2.120   2.211   0.057
 7000SOL     OW21898   5.155   6.964   1.369
 7000SOL    HW121899   5.202   6.876   1.365
 7000SOL    HW221900   5.174   7.008   1.457
 7001SOL     OW21901   2.006   3.208   6.289
 7001SOL    HW121902   1.942   3.160   6.229
 7001SOL    HW221903   2.038   3.291   6.244
 7002SOL     OW21904   1.667   5.387   3.768
 7002SOL    HW121905   1.617   5.390   3.682
 7002SOL    HW221906   1.660   5.476   3.813
 7003SOL     OW21907   4.356   5.616   0.649
 7003SOL    HW121908   4.405   5.542   0.604
 7003SOL    HW221909   4.278   5.644   0.592
 7004SOL     OW21910   0.768   5.500   2.200
 7004SOL    HW121911   0.772   5.440   2.279
 7004SOL    HW221912   0.823   5.461   2.126
 7005SOL     OW21913   0.828   6.929   0.683
 7005SOL    HW121914   0.903   6.944   0.748
 7005SOL    HW221915   0.854   6.856   0.619
 7006SOL     OW21916   5.087   5.141   3.899
 7006SOL    HW121917   5.067   5.233   3.931
 7006SOL    HW221918   5.110   5.144   3.802
 7007SOL     OW21919   4.343   0.551   4.132
 7007SOL    HW121920   4.439   0.573   4.148
 7007SOL    HW221921   4.294   0.633   4.102
 7008SOL     OW21922   6.926   4.216   4.416
 7008SOL    HW121923   6.857   4.181   4.353
 7008SOL    HW221924   6.894   4.208   4.510
 7009SOL     OW21925   4.874   6.172   2.315
 7009SOL    HW121926   4.903   6.205   2.405
 7009SOL    HW221927   4.828   6.084   2.324
 7010SOL     OW21928   5.445   3.953   3.731
 7010SOL    HW121929   5.446   3.915   3.823
 7010SOL    HW221930   5.381   3.902   3.674
 7011SOL     OW21931   3.041   6.443   6.829
 7011SOL    HW121932   3.013   6.467   6.922
 7011SOL    HW221933   3.138   6.465   6.817
 7012SOL     OW21934   0.304   1.863   1.399
 7012SOL    HW121935   0.381   1.923   1.417
 7012SOL    HW221936   0.244   1.860   1.480
 7013SOL     OW21937   0.960   6.916   0.336
 7013SOL    HW121938   0.992   7.000   0.380
 7013SOL    HW221939   1.020   6.895   0.258
 7014SOL     OW21940   4.257   3.513   0.845
 7014SOL    HW121941   4.313   3.471   0.774
 7014SOL    HW221942   4.284   3.478   0.934
 7015SOL     OW21943   6.398   4.382   1.534
 7015SOL    HW121944   6.497   4.393   1.543
 7015SOL    HW221945   6.380   4.314   1.463
 7016SOL     OW21946   3.239   4.837   1.254
 7016SOL    HW121947   3.303   4.768   1.219
 7016SOL    HW221948   3.184   4.797   1.327
 7017SOL     OW21949   2.590   5.025   3.346
 7017SOL    HW121950   2.545   5.025   3.256
 7017SOL    HW221951   2.687   5.045   3.335
 7018SOL     OW21952   5.524   3.358   4.400
 7018SOL    HW121953   5.566   3.318   4.480
 7018SOL    HW221954   5.595   3.385   4.334
 7019SOL     OW21955   3.995   4.391   0.555
 7019SOL    HW121956   3.964   4.352   0.468
 7019SOL    HW221957   4.026   4.485   0.540
 7020SOL     OW21958   6.587   4.361   5.854
 7020SOL    HW121959   6.646   4.440   5.870
 7020SOL    HW221960   6.640   4.277   5.865
 7021SOL     OW21961   1.482   2.094   5.640
 7021SOL    HW121962   1.502   1.999   5.662
 7021SOL    HW221963   1.451   2.101   5.545
 7022SOL     OW21964   4.637   6.558   5.993
 7022SOL    HW121965   4.589   6.499   6.058
 7022SOL    HW221966   4.707   6.506   5.945
 7023SOL     OW21967   0.819   2.480   3.484
 7023SOL    HW121968   0.914   2.512   3.485
 7023SOL    HW221969   0.818   2.382   3.460
 7024SOL     OW21970   2.767   3.685   5.313
 7024SOL    HW121971   2.749   3.619   5.240
 7024SOL    HW221972   2.849   3.737   5.292
 7025SOL     OW21973   3.582   0.529   0.646
 7025SOL    HW121974   3.531   0.561   0.726
 7025SOL    HW221975   3.547   0.575   0.564
 7026SOL     OW21976   3.222   1.984   2.114
 7026SOL    HW121977   3.219   1.890   2.149
 7026SOL    HW221978   3.314   2.005   2.082
 7027SOL     OW21979   2.168   5.011   4.176
 7027SOL    HW121980   2.097   5.074   4.208
 7027SOL    HW221981   2.201   4.956   4.253
 7028SOL     OW21982   3.371   1.498   3.342
 7028SOL    HW121983   3.328   1.573   3.293
 7028SOL    HW221984   3.363   1.514   3.441
 7029SOL     OW21985   4.774   4.660   4.836
 7029SOL    HW121986   4.704   4.600   4.876
 7029SOL    HW221987   4.732   4.718   4.766
 7030SOL     OW21988   1.212   0.802   5.116
 7030SOL    HW121989   1.248   0.723   5.165
 7030SOL    HW221990   1.128   0.776   5.068
 7031SOL     OW21991   3.997   5.754   6.097
 7031SOL    HW121992   4.057   5.676   6.079
 7031SOL    HW221993   3.902   5.727   6.079
 7032SOL     OW21994   4.253   1.332   3.910
 7032SOL    HW121995   4.254   1.315   3.811
 7032SOL    HW221996   4.337   1.379   3.936
 7033SOL     OW21997   1.693   2.356   3.286
 7033SOL    HW121998   1.624   2.415   3.329
 7033SOL    HW221999   1.648   2.277   3.244
 7034SOL     OW22000   0.082   0.820   3.253
 7034SOL    HW122001   0.038   0.816   3.343
 7034SOL    HW222002   0.128   0.733   3.235
 7035SOL     OW22003   1.684   0.185   0.926
 7035SOL    HW122004   1.775   0.143   0.922
 7035SOL    HW222005   1.621   0.124   0.974
 7036SOL     OW22006   0.293   0.380   3.047
 7036SOL    HW122007   0.349   0.463   3.047
 7036SOL    HW222008   0.230   0.382   3.124
 7037SOL     OW22009   1.677   1.356   6.610
 7037SOL    HW122010   1.633   1.303   6.683
 7037SOL    HW222011   1.729   1.431   6.650
 7038SOL     OW22012   2.115   3.565   5.173
 7038SOL    HW122013   2.127   3.647   5.116
 7038SOL    HW222014   2.028   3.522   5.150
 7039SOL     OW22015   1.510   5.432   2.453
 7039SOL    HW122016   1.455   5.351   2.473
 7039SOL    HW222017   1.494   5.460   2.358
 7040SOL     OW22018   5.437   2.495   5.768
 7040SOL    HW122019   5.506   2.494   5.840
 7040SOL    HW222020   5.481   2.478   5.680
 7041SOL     OW22021   6.611   1.717   2.065
 7041SOL    HW122022   6.568   1.654   2.000
 7041SOL    HW222023   6.540   1.769   2.113
 7042SOL     OW22024   4.497   5.733   5.207
 7042SOL    HW122025   4.592   5.707   5.219
 7042SOL    HW222026   4.458   5.684   5.129
 7043SOL     OW22027   2.338   4.950   2.791
 7043SOL    HW122028   2.369   4.867   2.837
 7043SOL    HW222029   2.307   5.017   2.858
 7044SOL     OW22030   5.787   4.878   4.507
 7044SOL    HW122031   5.737   4.848   4.588
 7044SOL    HW222032   5.845   4.955   4.531
 7045SOL     OW22033   4.778   5.154   2.814
 7045SOL    HW122034   4.695   5.204   2.790
 7045SOL    HW222035   4.829   5.134   2.730
 7046SOL     OW22036   2.786   1.309   3.642
 7046SOL    HW122037   2.709   1.351   3.594
 7046SOL    HW222038   2.869   1.320   3.589
 7047SOL     OW22039   6.481   0.904   2.397
 7047SOL    HW122040   6.490   0.921   2.495
 7047SOL    HW222041   6.408   0.961   2.359
 7048SOL     OW22042   5.692   6.791   3.692
 7048SOL    HW122043   5.686   6.774   3.790
 7048SOL    HW222044   5.664   6.709   3.641
 7049SOL     OW22045   3.576   1.890   0.714
 7049SOL    HW122046   3.599   1.928   0.803
 7049SOL    HW222047   3.564   1.791   0.721
 7050SOL     OW22048   4.143   3.887   1.815
 7050SOL    HW122049   4.190   3.798   1.814
 7050SOL    HW222050   4.045   3.872   1.829
 7051SOL     OW22051   6.668   6.409   1.181
 7051SOL    HW122052   6.732   6.342   1.144
 7051SOL    HW222053   6.684   6.498   1.138
 7052SOL     OW22054   5.950   1.867   3.446
 7052SOL    HW122055   5.907   1.939   3.391
 7052SOL    HW222056   5.989   1.798   3.385
 7053SOL     OW22057   1.958   2.887   4.980
 7053SOL    HW122058   2.026   2.956   4.956
 7053SOL    HW222059   1.880   2.931   5.024
 7054SOL     OW22060   6.885   6.877   0.501
 7054SOL    HW122061   6.844   6.846   0.415
 7054SOL    HW222062   6.951   6.949   0.482
 7055SOL     OW22063   2.709   6.986   6.341
 7055SOL    HW122064   2.641   6.918   6.310
 7055SOL    HW222065   2.674   0.062   6.324
 7056SOL     OW22066   6.669   5.278   1.632
 7056SOL    HW122067   6.683   5.207   1.700
 7056SOL    HW222068   6.696   5.367   1.670
 7057SOL     OW22069   2.751   4.711   3.805
 7057SOL    HW122070   2.717   4.803   3.781
 7057SOL    HW222071   2.707   4.643   3.746
 7058SOL     OW22072   5.774   3.532   5.221
 7058SOL    HW122073   5.735   3.468   5.288
 7058SOL    HW222074   5.759   3.626   5.254
 7059SOL     OW22075   0.590   1.829   3.950
 7059SOL    HW122076   0.658   1.893   3.914
 7059SOL    HW222077   0.527   1.803   3.877
 7060SOL     OW22078   3.399   0.004   1.916
 7060SOL    HW122079   3.431   6.931   1.948
 7060SOL    HW222080   3.447   0.029   1.832
 7061SOL     OW22081   6.980   3.117   3.781
 7061SOL    HW122082   0.051   3.113   3.732
 7061SOL    HW222083   6.985   3.060   3.863
 7062SOL     OW22084   3.387   2.432   5.346
 7062SOL    HW122085   3.441   2.362   5.299
 7062SOL    HW222086   3.297   2.439   5.304
 7063SOL     OW22087   1.873   6.308   1.949
 7063SOL    HW122088   1.919   6.290   2.036
 7063SOL    HW222089   1.882   6.229   1.889
 7064SOL     OW22090   3.726   2.055   6.769
 7064SOL    HW122091   3.669   2.114   6.826
 7064SOL    HW222092   3.817   2.047   6.810
 7065SOL     OW22093   4.617   3.899   6.163
 7065SOL    HW122094   4.566   3.841   6.100
 7065SOL    HW222095   4.653   3.978   6.113
 7066SOL     OW22096   3.996   0.010   6.279
 7066SOL    HW122097   3.938   0.050   6.350
 7066SOL    HW222098   4.083   6.999   6.319
 7067SOL     OW22099   1.287   3.271   5.134
 7067SOL    HW122100   1.319   3.303   5.223
 7067SOL    HW222101   1.360   3.284   5.066
 7068SOL     OW22102   6.347   4.237   4.678
 7068SOL    HW122103   6.328   4.217   4.774
 7068SOL    HW222104   6.316   4.330   4.657
 7069SOL     OW22105   5.142   2.296   4.553
 7069SOL    HW122106   5.181   2.241   4.627
 7069SOL    HW222107   5.179   2.389   4.557
 7070SOL     OW22108   0.403   6.815   4.491
 7070SOL    HW122109   0.442   6.796   4.401
 7070SOL    HW222110   0.304   6.801   4.488
 7071SOL     OW22111   3.722   6.296   5.841
 7071SOL    HW122112   3.661   6.375   5.846
 7071SOL    HW222113   3.811   6.325   5.805
 7072SOL     OW22114   1.555   5.932   0.237
 7072SOL    HW122115   1.569   5.838   0.266
 7072SOL    HW222116   1.610   5.951   0.156
 7073SOL     OW22117   5.748   0.298   3.740
 7073SOL    HW122118   5.739   0.224   3.674
 7073SOL    HW222119   5.688   0.281   3.818
 7074SOL     OW22120   6.277   2.633   1.779
 7074SOL    HW122121   6.351   2.690   1.816
 7074SOL    HW222122   6.297   2.611   1.683
 7075SOL     OW22123   1.673   4.167   5.017
 7075SOL    HW122124   1.678   4.254   4.967
 7075SOL    HW222125   1.761   4.120   5.009
 7076SOL     OW22126   5.355   2.920   0.169
 7076SOL    HW122127   5.363   3.008   0.215
 7076SOL    HW222128   5.427   2.911   0.100
 7077SOL     OW22129   2.026   4.416   3.930
 7077SOL    HW122130   2.116   4.397   3.892
 7077SOL    HW222131   2.032   4.494   3.993
 7078SOL     OW22132   6.871   6.200   2.057
 7078SOL    HW122133   6.954   6.153   2.087
 7078SOL    HW222134   6.793   6.170   2.112
 7079SOL     OW22135   0.861   0.299   4.306
 7079SOL    HW122136   0.813   0.234   4.365
 7079SOL    HW222137   0.953   0.266   4.288
 7080SOL     OW22138   3.603   1.461   5.090
 7080SOL    HW122139   3.539   1.429   5.021
 7080SOL    HW222140   3.683   1.400   5.092
 7081SOL     OW22141   1.937   5.937   6.973
 7081SOL    HW122142   1.964   5.863   0.019
 7081SOL    HW222143   1.863   5.990   7.015
 7082SOL     OW22144   6.595   4.657   0.112
 7082SOL    HW122145   6.589   4.752   0.079
 7082SOL    HW222146   6.686   4.621   0.093
 7083SOL     OW22147   1.578   0.939   1.844
 7083SOL    HW122148   1.670   0.976   1.827
 7083SOL    HW222149   1.540   0.981   1.926
 7084SOL     OW22150   0.602   5.420   5.365
 7084SOL    HW122151   0.563   5.432   5.273
 7084SOL    HW222152   0.698   5.447   5.364
 7085SOL     OW22153   0.139   1.600   2.334
 7085SOL    HW122154   0.188   1.651   2.264
 7085SOL    HW222155   0.115   1.661   2.410
 7086SOL     OW22156   6.069   0.578   5.855
 7086SOL    HW122157   6.015   0.613   5.931
 7086SOL    HW222158   6.163   0.610   5.862
 7087SOL     OW22159   5.936   3.878   3.057
 7087SOL    HW122160   5.870   3.916   3.122
 7087SOL    HW222161   5.917   3.916   2.966
 7088SOL     OW22162   4.835   2.302   3.993
 7088SOL    HW122163   4.882   2.215   3.977
 7088SOL    HW222164   4.803   2.305   4.088
 7089SOL     OW22165   2.444   2.108   4.811
 7089SOL    HW122166   2.445   2.099   4.911
 7089SOL    HW222167   2.500   2.187   4.785
 7090SOL     OW22168   1.687   0.936   0.539
 7090SOL    HW122169   1.612   0.989   0.498
 7090SOL    HW222170   1.695   0.848   0.492
 7091SOL     OW22171   0.077   1.836   0.764
 7091SOL    HW122172   0.067   1.923   0.812
 7091SOL    HW222173   0.035   1.763   0.818
 7092SOL     OW22174   4.313   2.866   5.409
 7092SOL    HW122175   4.300   2.766   5.411
 7092SOL    HW222176   4.408   2.888   5.427
 7093SOL     OW22177   3.375   3.987   2.172
 7093SOL    HW122178   3.297   3.932   2.141
 7093SOL    HW222179   3.353   4.029   2.261
 7094SOL     OW22180   0.201   6.078   6.008
 7094SOL    HW122181   0.177   6.018   6.084
 7094SOL    HW222182   0.294   6.111   6.019
 7095SOL     OW22183   3.080   4.487   5.972
 7095SOL    HW122184   3.062   4.572   6.022
 7095SOL    HW222185   3.080   4.505   5.874
 7096SOL     OW22186   6.745   0.673   2.331
 7096SOL    HW122187   6.784   0.717   2.411
 7096SOL    HW222188   6.701   0.587   2.357
 7097SOL     OW22189   4.905   0.658   1.708
 7097SOL    HW122190   4.834   0.726   1.694
 7097SOL    HW222191   4.871   0.567   1.681
 7098SOL     OW22192   2.341   5.562   5.506
 7098SOL    HW122193   2.332   5.473   5.462
 7098SOL    HW222194   2.299   5.559   5.596
 7099SOL     OW22195   3.556   1.720   5.184
 7099SOL    HW122196   3.628   1.784   5.211
 7099SOL    HW222197   3.596   1.630   5.166
 7100SOL     OW22198   6.763   3.613   6.954
 7100SOL    HW122199   6.769   3.613   0.038
 7100SOL    HW222200   6.671   3.641   6.927
 7101SOL     OW22201   2.468   1.640   5.675
 7101SOL    HW122202   2.443   1.737   5.674
 7101SOL    HW222203   2.431   1.596   5.593
 7102SOL     OW22204   5.319   0.423   1.037
 7102SOL    HW122205   5.389   0.389   1.100
 7102SOL    HW222206   5.355   0.420   0.944
 7103SOL     OW22207   5.909   5.500   1.900
 7103SOL    HW122208   5.949   5.546   1.820
 7103SOL    HW222209   5.863   5.567   1.957
 7104SOL     OW22210   6.506   3.890   2.803
 7104SOL    HW122211   6.575   3.955   2.835
 7104SOL    HW222212   6.464   3.844   2.881
 7105SOL     OW22213   2.719   3.406   5.218
 7105SOL    HW122214   2.778   3.327   5.198
 7105SOL    HW222215   2.641   3.375   5.273
 7106SOL     OW22216   3.375   3.064   2.201
 7106SOL    HW122217   3.350   3.117   2.120
 7106SOL    HW222218   3.451   3.109   2.248
 7107SOL     OW22219   4.831   0.333   0.691
 7107SOL    HW122220   4.754   0.321   0.628
 7107SOL    HW222221   4.797   0.351   0.783
 7108SOL     OW22222   3.093   6.013   2.647
 7108SOL    HW122223   3.044   6.080   2.592
 7108SOL    HW222224   3.183   6.050   2.672
 7109SOL     OW22225   1.855   7.007   5.609
 7109SOL    HW122226   1.929   6.994   5.543
 7109SOL    HW222227   1.812   6.919   5.629
 7110SOL     OW22228   2.834   5.415   4.453
 7110SOL    HW122229   2.899   5.344   4.482
 7110SOL    HW222230   2.806   5.469   4.532
 7111SOL     OW22231   0.907   2.318   5.190
 7111SOL    HW122232   0.873   2.265   5.112
 7111SOL    HW222233   1.007   2.318   5.189
 7112SOL     OW22234   1.544   5.229   4.445
 7112SOL    HW122235   1.629   5.186   4.414
 7112SOL    HW222236   1.500   5.274   4.368
 7113SOL     OW22237   3.227   3.829   4.881
 7113SOL    HW122238   3.250   3.766   4.955
 7113SOL    HW222239   3.206   3.919   4.919
 7114SOL     OW22240   5.186   5.581   0.903
 7114SOL    HW122241   5.285   5.579   0.905
 7114SOL    HW222242   5.155   5.676   0.912
 7115SOL     OW22243   4.331   2.976   0.178
 7115SOL    HW122244   4.381   3.041   0.236
 7115SOL    HW222245   4.396   2.926   0.121
 7116SOL     OW22246   5.452   4.297   2.899
 7116SOL    HW122247   5.521   4.316   2.829
 7116SOL    HW222248   5.451   4.199   2.919
 7117SOL     OW22249   0.688   6.248   5.182
 7117SOL    HW122250   0.648   6.169   5.227
 7117SOL    HW222251   0.698   6.230   5.084
 7118SOL     OW22252   3.463   4.570   6.268
 7118SOL    HW122253   3.482   4.511   6.346
 7118SOL    HW222254   3.540   4.566   6.204
 7119SOL     OW22255   5.472   0.918   4.202
 7119SOL    HW122256   5.555   0.973   4.193
 7119SOL    HW222257   5.403   0.969   4.254
 7120SOL     OW22258   3.470   2.026   1.997
 7120SOL    HW122259   3.462   2.002   1.900
 7120SOL    HW222260   3.541   2.096   2.008
 7121SOL     OW22261   0.742   6.590   3.734
 7121SOL    HW122262   0.734   6.491   3.729
 7121SOL    HW222263   0.670   6.632   3.679
 7122SOL     OW22264   1.172   0.805   5.700
 7122SOL    HW122265   1.241   0.785   5.631
 7122SOL    HW222266   1.207   0.875   5.763
 7123SOL     OW22267   1.396   5.087   3.808
 7123SOL    HW122268   1.363   5.161   3.867
 7123SOL    HW222269   1.320   5.052   3.754
 7124SOL     OW22270   0.133   2.696   1.848
 7124SOL    HW122271   0.185   2.614   1.870
 7124SOL    HW222272   0.180   2.776   1.885
 7125SOL     OW22273   0.685   0.325   0.362
 7125SOL    HW122274   0.665   0.289   0.272
 7125SOL    HW222275   0.675   0.252   0.430
 7126SOL     OW22276   3.409   5.306   0.734
 7126SOL    HW122277   3.359   5.355   0.805
 7126SOL    HW222278   3.507   5.312   0.753
 7127SOL     OW22279   2.427   6.180   6.948
 7127SOL    HW122280   2.422   6.081   6.955
 7127SOL    HW222281   2.337   6.220   6.965
 7128SOL     OW22282   3.350   3.936   6.485
 7128SOL    HW122283   3.298   3.936   6.570
 7128SOL    HW222284   3.292   3.967   6.410
 7129SOL     OW22285   2.305   1.221   0.323
 7129SOL    HW122286   2.267   1.300   0.371
 7129SOL    HW222287   2.240   1.191   0.253
 7130SOL     OW22288   3.249   5.748   4.107
 7130SOL    HW122289   3.227   5.735   4.203
 7130SOL    HW222290   3.347   5.731   4.093
 7131SOL     OW22291   2.752   0.924   1.487
 7131SOL    HW122292   2.770   0.852   1.419
 7131SOL    HW222293   2.834   0.941   1.540
 7132SOL     OW22294   3.866   4.238   0.372
 7132SOL    HW122295   3.900   4.155   0.327
 7132SOL    HW222296   3.771   4.225   0.400
 7133SOL     OW22297   4.263   4.802   5.284
 7133SOL    HW122298   4.212   4.865   5.225
 7133SOL    HW222299   4.219   4.797   5.374
 7134SOL     OW22300   4.639   6.704   1.789
 7134SOL    HW122301   4.684   6.628   1.836
 7134SOL    HW222302   4.606   6.770   1.857
 7135SOL     OW22303   1.822   2.446   3.501
 7135SOL    HW122304   1.918   2.426   3.482
 7135SOL    HW222305   1.768   2.431   3.419
 7136SOL     OW22306   2.960   1.696   0.409
 7136SOL    HW122307   3.050   1.653   0.402
 7136SOL    HW222308   2.938   1.743   0.324
 7137SOL     OW22309   2.693   1.767   0.443
 7137SOL    HW122310   2.784   1.725   0.448
 7137SOL    HW222311   2.644   1.751   0.529
 7138SOL     OW22312   1.851   2.332   0.656
 7138SOL    HW122313   1.887   2.272   0.727
 7138SOL    HW222314   1.922   2.397   0.628
 7139SOL     OW22315   5.208   5.054   1.659
 7139SOL    HW122316   5.295   5.102   1.678
 7139SOL    HW222317   5.132   5.112   1.688
 7140SOL     OW22318   6.163   4.202   1.111
 7140SOL    HW122319   6.089   4.136   1.112
 7140SOL    HW222320   6.137   4.282   1.057
 7141SOL     OW22321   3.433   6.360   0.847
 7141SOL    HW122322   3.441   6.418   0.928
 7141SOL    HW222323   3.356   6.392   0.791
 7142SOL     OW22324   4.136   6.458   3.546
 7142SOL    HW122325   4.198   6.402   3.490
 7142SOL    HW222326   4.189   6.532   3.588
 7143SOL     OW22327   2.072   3.578   0.262
 7143SOL    HW122328   2.070   3.609   0.357
 7143SOL    HW222329   2.128   3.496   0.255
 7144SOL     OW22330   1.749   1.514   3.024
 7144SOL    HW122331   1.680   1.455   3.065
 7144SOL    HW222332   1.839   1.487   3.056
 7145SOL     OW22333   3.638   0.832   6.615
 7145SOL    HW122334   3.615   0.758   6.552
 7145SOL    HW222335   3.684   0.905   6.566
 7146SOL     OW22336   1.537   0.475   6.484
 7146SOL    HW122337   1.480   0.532   6.424
 7146SOL    HW222338   1.534   0.513   6.577
 7147SOL     OW22339   0.240   6.031   3.029
 7147SOL    HW122340   0.281   5.967   3.095
 7147SOL    HW222341   0.300   6.038   2.950
 7148SOL     OW22342   6.777   6.307   1.513
 7148SOL    HW122343   6.830   6.340   1.434
 7148SOL    HW222344   6.737   6.385   1.560
 7149SOL     OW22345   0.471   6.009   4.211
 7149SOL    HW122346   0.512   6.087   4.162
 7149SOL    HW222347   0.534   5.931   4.206
 7150SOL     OW22348   3.414   2.817   0.818
 7150SOL    HW122349   3.357   2.751   0.769
 7150SOL    HW222350   3.419   2.902   0.765
 7151SOL     OW22351   3.387   6.542   1.062
 7151SOL    HW122352   3.293   6.557   1.093
 7151SOL    HW222353   3.429   6.630   1.040
 7152SOL     OW22354   0.072   0.617   5.424
 7152SOL    HW122355   0.101   0.552   5.354
 7152SOL    HW222356   6.993   0.599   5.450
 7153SOL     OW22357   3.959   5.148   1.648
 7153SOL    HW122358   4.009   5.204   1.714
 7153SOL    HW222359   3.994   5.164   1.556
 7154SOL     OW22360   5.045   6.274   2.926
 7154SOL    HW122361   5.012   6.183   2.950
 7154SOL    HW222362   5.090   6.272   2.837
 7155SOL     OW22363   2.927   3.395   1.409
 7155SOL    HW122364   2.939   3.313   1.466
 7155SOL    HW222365   3.014   3.441   1.398
 7156SOL     OW22366   6.442   3.802   2.553
 7156SOL    HW122367   6.342   3.791   2.560
 7156SOL    HW222368   6.477   3.839   2.639
 7157SOL     OW22369   0.226   4.836   1.608
 7157SOL    HW122370   0.146   4.832   1.668
 7157SOL    HW222371   0.272   4.924   1.619
 7158SOL     OW22372   0.938   0.218   3.813
 7158SOL    HW122373   0.907   0.292   3.872
 7158SOL    HW222374   1.030   0.238   3.779
 7159SOL     OW22375   0.868   4.931   3.887
 7159SOL    HW122376   0.866   4.937   3.787
 7159SOL    HW222377   0.838   4.840   3.915
 7160SOL     OW22378   6.472   6.967   2.941
 7160SOL    HW122379   6.492   6.940   3.035
 7160SOL    HW222380   6.554   7.007   2.899
 7161SOL     OW22381   3.236   3.908   2.970
 7161SOL    HW122382   3.256   3.810   2.976
 7161SOL    HW222383   3.198   3.929   2.880
 7162SOL     OW22384   1.318   5.180   6.072
 7162SOL    HW122385   1.223   5.202   6.093
 7162SOL    HW222386   1.344   5.224   5.986
 7163SOL     OW22387   2.705   0.593   2.622
 7163SOL    HW122388   2.767   0.545   2.561
 7163SOL    HW222389   2.635   0.640   2.569
 7164SOL     OW22390   3.211   0.761   4.858
 7164SOL    HW122391   3.130   0.748   4.916
 7164SOL    HW222392   3.206   0.852   4.816
 7165SOL     OW22393   5.746   6.530   1.649
 7165SOL    HW122394   5.840   6.556   1.669
 7165SOL    HW222395   5.740   6.495   1.555
 7166SOL     OW22396   5.087   1.877   0.337
 7166SOL    HW122397   4.990   1.889   0.361
 7166SOL    HW222398   5.099   1.899   0.240
 7167SOL     OW22399   5.019   3.456   4.393
 7167SOL    HW122400   4.957   3.380   4.412
 7167SOL    HW222401   4.988   3.506   4.313
 7168SOL     OW22402   2.125   2.069   3.517
 7168SOL    HW122403   2.216   2.043   3.550
 7168SOL    HW222404   2.124   2.168   3.499
 7169SOL     OW22405   6.680   4.089   5.702
 7169SOL    HW122406   6.684   4.024   5.626
 7169SOL    HW222407   6.584   4.114   5.719
 7170SOL     OW22408   4.634   0.130   2.688
 7170SOL    HW122409   4.697   0.169   2.755
 7170SOL    HW222410   4.588   0.050   2.728
 7171SOL     OW22411   5.996   4.303   0.579
 7171SOL    HW122412   6.042   4.381   0.535
 7171SOL    HW222413   5.946   4.252   0.509
 7172SOL     OW22414   1.644   0.258   4.532
 7172SOL    HW122415   1.724   0.312   4.556
 7172SOL    HW222416   1.606   0.290   4.446
 7173SOL     OW22417   6.305   4.488   0.134
 7173SOL    HW122418   6.301   4.588   0.130
 7173SOL    HW222419   6.371   4.454   0.067
 7174SOL     OW22420   0.451   4.144   0.927
 7174SOL    HW122421   0.520   4.161   0.998
 7174SOL    HW222422   0.436   4.046   0.918
 7175SOL     OW22423   6.079   3.021   5.330
 7175SOL    HW122424   6.120   2.946   5.278
 7175SOL    HW222425   5.991   3.046   5.289
 7176SOL     OW22426   6.941   1.680   3.215
 7176SOL    HW122427   6.927   1.765   3.267
 7176SOL    HW222428   6.878   1.679   3.137
 7177SOL     OW22429   1.254   4.813   5.273
 7177SOL    HW122430   1.331   4.814   5.209
 7177SOL    HW222431   1.202   4.729   5.261
 7178SOL     OW22432   6.980   1.723   5.924
 7178SOL    HW122433   6.991   1.775   5.839
 7178SOL    HW222434   0.043   1.738   5.983
 7179SOL     OW22435   1.659   3.661   4.619
 7179SOL    HW122436   1.705   3.663   4.530
 7179SOL    HW222437   1.719   3.619   4.686
 7180SOL     OW22438   2.253   4.146   0.241
 7180SOL    HW122439   2.243   4.246   0.245
 7180SOL    HW222440   2.180   4.104   0.295
 7181SOL     OW22441   2.560   0.375   0.310
 7181SOL    HW122442   2.554   0.442   0.384
 7181SOL    HW222443   2.475   0.375   0.258
 7182SOL     OW22444   0.329   3.885   4.010
 7182SOL    HW122445   0.379   3.946   3.948
 7182SOL    HW222446   0.272   3.823   3.956
 7183SOL     OW22447   1.679   5.669   1.621
 7183SOL    HW122448   1.711   5.633   1.534
 7183SOL    HW222449   1.630   5.597   1.671
 7184SOL     OW22450   6.957   1.416   4.243
 7184SOL    HW122451   6.922   1.342   4.185
 7184SOL    HW222452   0.027   1.386   4.285
 7185SOL     OW22453   5.372   1.310   5.651
 7185SOL    HW122454   5.453   1.346   5.698
 7185SOL    HW222455   5.382   1.211   5.640
 7186SOL     OW22456   6.626   1.854   1.774
 7186SOL    HW122457   6.616   1.902   1.860
 7186SOL    HW222458   6.641   1.756   1.792
 7187SOL     OW22459   2.908   3.968   5.213
 7187SOL    HW122460   2.895   3.903   5.138
 7187SOL    HW222461   2.819   4.005   5.240
 7188SOL     OW22462   4.564   6.305   6.818
 7188SOL    HW122463   4.514   6.316   6.903
 7188SOL    HW222464   4.507   6.259   6.750
 7189SOL     OW22465   6.680   1.739   5.943
 7189SOL    HW122466   6.614   1.711   6.012
 7189SOL    HW222467   6.769   1.699   5.964
 7190SOL     OW22468   6.480   5.400   1.449
 7190SOL    HW122469   6.417   5.327   1.476
 7190SOL    HW222470   6.574   5.370   1.465
 7191SOL     OW22471   1.503   4.959   2.677
 7191SOL    HW122472   1.561   4.878   2.683
 7191SOL    HW222473   1.469   4.969   2.583
 7192SOL     OW22474   1.585   4.277   5.825
 7192SOL    HW122475   1.679   4.283   5.793
 7192SOL    HW222476   1.562   4.181   5.844
 7193SOL     OW22477   1.448   2.475   1.942
 7193SOL    HW122478   1.447   2.382   1.907
 7193SOL    HW222479   1.528   2.524   1.906
 7194SOL     OW22480   1.827   2.628   6.982
 7194SOL    HW122481   1.881   2.550   7.015
 7194SOL    HW222482   1.732   2.598   6.967
 7195SOL     OW22483   0.004   4.059   0.741
 7195SOL    HW122484   0.040   4.152   0.743
 7195SOL    HW222485   6.920   4.063   0.743
 7196SOL     OW22486   2.494   3.628   1.673
 7196SOL    HW122487   2.477   3.718   1.715
 7196SOL    HW222488   2.470   3.556   1.739
 7197SOL     OW22489   0.862   3.073   5.583
 7197SOL    HW122490   0.766   3.091   5.559
 7197SOL    HW222491   0.867   3.037   5.676
 7198SOL     OW22492   0.133   1.428   0.414
 7198SOL    HW122493   0.148   1.386   0.324
 7198SOL    HW222494   0.222   1.444   0.457
 7199SOL     OW22495   0.649   0.203   2.419
 7199SOL    HW122496   0.585   0.181   2.492
 7199SOL    HW222497   0.610   0.176   2.331
 7200SOL     OW22498   2.085   2.709   6.646
 7200SOL    HW122499   2.183   2.705   6.626
 7200SOL    HW222500   2.033   2.696   6.562
 7201SOL     OW22501   1.079   5.796   3.861
 7201SOL    HW122502   1.117   5.769   3.949
 7201SOL    HW222503   1.038   5.886   3.869
 7202SOL     OW22504   4.194   0.070   6.943
 7202SOL    HW122505   4.115   0.102   6.995
 7202SOL    HW222506   4.192   0.110   6.851
 7203SOL     OW22507   6.789   0.865   1.421
 7203SOL    HW122508   6.755   0.830   1.509
 7203SOL    HW222509   6.726   0.839   1.348
 7204SOL     OW22510   0.029   1.224   5.666
 7204SOL    HW122511   7.012   1.258   5.754
 7204SOL    HW222512   6.970   1.227   5.599
 7205SOL     OW22513   1.279   4.111   5.243
 7205SOL    HW122514   1.343   4.129   5.168
 7205SOL    HW222515   1.322   4.136   5.330
 7206SOL     OW22516   1.142   0.413   2.180
 7206SOL    HW122517   1.124   0.504   2.143
 7206SOL    HW222518   1.214   0.419   2.250
 7207SOL     OW22519   3.636   0.114   3.865
 7207SOL    HW122520   3.661   0.021   3.840
 7207SOL    HW222521   3.718   0.164   3.894
 7208SOL     OW22522   4.850   0.106   3.949
 7208SOL    HW122523   4.776   0.146   4.003
 7208SOL    HW222524   4.928   0.087   4.009
 7209SOL     OW22525   2.564   2.988   1.725
 7209SOL    HW122526   2.510   3.069   1.701
 7209SOL    HW222527   2.612   2.955   1.644
 7210SOL     OW22528   3.601   1.556   2.933
 7210SOL    HW122529   3.625   1.478   2.991
 7210SOL    HW222530   3.681   1.583   2.880
 7211SOL     OW22531   1.782   6.054   4.945
 7211SOL    HW122532   1.732   6.127   4.899
 7211SOL    HW222533   1.877   6.081   4.957
 7212SOL     OW22534   0.605   6.806   4.896
 7212SOL    HW122535   0.693   6.799   4.944
 7212SOL    HW222536   0.564   6.715   4.890
 7213SOL     OW22537   3.835   6.677   6.804
 7213SOL    HW122538   3.883   6.597   6.839
 7213SOL    HW222539   3.854   6.756   6.863
 7214SOL     OW22540   0.048   0.176   4.555
 7214SOL    HW122541   6.964   0.181   4.552
 7214SOL    HW222542   0.078   0.161   4.649
 7215SOL     OW22543   6.371   3.002   3.918
 7215SOL    HW122544   6.464   3.029   3.941
 7215SOL    HW222545   6.334   2.944   3.991
 7216SOL     OW22546   3.150   0.194   1.256
 7216SOL    HW122547   3.083   0.212   1.328
 7216SOL    HW222548   3.121   0.238   1.172
 7217SOL     OW22549   1.960   3.920   3.707
 7217SOL    HW122550   2.035   3.915   3.641
 7217SOL    HW222551   1.935   4.015   3.722
 7218SOL     OW22552   6.234   2.616   3.923
 7218SOL    HW122553   6.159   2.682   3.928
 7218SOL    HW222554   6.243   2.568   4.010
 7219SOL     OW22555   3.613   0.449   3.052
 7219SOL    HW122556   3.590   0.361   3.011
 7219SOL    HW222557   3.618   0.440   3.151
 7220SOL     OW22558   6.545   3.752   4.556
 7220SOL    HW122559   6.554   3.702   4.470
 7220SOL    HW222560   6.461   3.723   4.602
 7221SOL     OW22561   3.621   5.803   5.032
 7221SOL    HW122562   3.616   5.715   5.078
 7221SOL    HW222563   3.536   5.853   5.047
 7222SOL     OW22564   6.261   6.404   3.499
 7222SOL    HW122565   6.261   6.501   3.472
 7222SOL    HW222566   6.243   6.348   3.418
 7223SOL     OW22567   3.277   1.627   1.340
 7223SOL    HW122568   3.271   1.572   1.256
 7223SOL    HW222569   3.292   1.723   1.316
 7224SOL     OW22570   5.232   2.043   3.829
 7224SOL    HW122571   5.224   2.114   3.899
 7224SOL    HW222572   5.156   2.051   3.765
 7225SOL     OW22573   1.456   6.137   0.551
 7225SOL    HW122574   1.410   6.053   0.581
 7225SOL    HW222575   1.503   6.119   0.464
 7226SOL     OW22576   6.159   0.081   1.960
 7226SOL    HW122577   6.223   0.146   1.920
 7226SOL    HW222578   6.176   7.006   1.924
 7227SOL     OW22579   2.567   1.970   1.236
 7227SOL    HW122580   2.469   1.989   1.229
 7227SOL    HW222581   2.619   2.040   1.187
 7228SOL     OW22582   1.125   1.815   2.941
 7228SOL    HW122583   1.204   1.779   2.990
 7228SOL    HW222584   1.100   1.752   2.867
 7229SOL     OW22585   1.257   5.846   5.945
 7229SOL    HW122586   1.281   5.938   5.975
 7229SOL    HW222587   1.313   5.779   5.994
 7230SOL     OW22588   3.623   5.486   4.932
 7230SOL    HW122589   3.588   5.409   4.985
 7230SOL    HW222590   3.716   5.467   4.902
 7231SOL     OW22591   3.917   0.269   6.198
 7231SOL    HW122592   3.873   0.274   6.108
 7231SOL    HW222593   3.936   0.173   6.221
 7232SOL     OW22594   4.996   6.135   1.996
 7232SOL    HW122595   4.904   6.170   1.977
 7232SOL    HW222596   5.040   6.194   2.064
 7233SOL     OW22597   1.759   1.627   4.202
 7233SOL    HW122598   1.678   1.683   4.220
 7233SOL    HW222599   1.751   1.586   4.111
 7234SOL     OW22600   5.922   2.790   2.970
 7234SOL    HW122601   5.875   2.721   3.023
 7234SOL    HW222602   5.886   2.792   2.876
 7235SOL     OW22603   6.990   4.553   2.690
 7235SOL    HW122604   6.963   4.592   2.779
 7235SOL    HW222605   0.024   4.621   2.637
 7236SOL     OW22606   2.725   1.800   1.998
 7236SOL    HW122607   2.777   1.842   2.072
 7236SOL    HW222608   2.761   1.709   1.979
 7237SOL     OW22609   4.327   0.550   4.583
 7237SOL    HW122610   4.326   0.650   4.575
 7237SOL    HW222611   4.420   0.516   4.567
 7238SOL     OW22612   4.394   1.883   6.701
 7238SOL    HW122613   4.401   1.799   6.754
 7238SOL    HW222614   4.473   1.942   6.722
 7239SOL     OW22615   0.624   2.033   1.778
 7239SOL    HW122616   0.637   2.105   1.709
 7239SOL    HW222617   0.574   1.957   1.738
 7240SOL     OW22618   0.963   1.251   6.001
 7240SOL    HW122619   1.048   1.208   6.033
 7240SOL    HW222620   0.980   1.348   5.984
 7241SOL     OW22621   2.345   0.444   1.063
 7241SOL    HW122622   2.326   0.531   1.108
 7241SOL    HW222623   2.346   0.457   0.964
 7242SOL     OW22624   6.410   5.663   6.873
 7242SOL    HW122625   6.406   5.705   6.782
 7242SOL    HW222626   6.386   5.567   6.866
 7243SOL     OW22627   6.800   4.345   6.793
 7243SOL    HW122628   6.701   4.361   6.789
 7243SOL    HW222629   6.818   4.248   6.773
 7244SOL     OW22630   6.680   0.796   1.667
 7244SOL    HW122631   6.611   0.741   1.620
 7244SOL    HW222632   6.638   0.846   1.743
 7245SOL     OW22633   1.774   2.980   5.157
 7245SOL    HW122634   1.799   3.072   5.189
 7245SOL    HW222635   1.677   2.978   5.132
 7246SOL     OW22636   0.819   0.542   3.689
 7246SOL    HW122637   0.835   0.614   3.756
 7246SOL    HW222638   0.747   0.481   3.722
 7247SOL     OW22639   2.303   1.830   4.401
 7247SOL    HW122640   2.263   1.739   4.407
 7247SOL    HW222641   2.310   1.870   4.492
 7248SOL     OW22642   2.816   1.351   3.093
 7248SOL    HW122643   2.727   1.350   3.047
 7248SOL    HW222644   2.887   1.321   3.029
 7249SOL     OW22645   5.683   5.103   2.234
 7249SOL    HW122646   5.713   5.130   2.143
 7249SOL    HW222647   5.740   5.148   2.303
 7250SOL     OW22648   5.721   6.372   5.860
 7250SOL    HW122649   5.796   6.393   5.797
 7250SOL    HW222650   5.661   6.451   5.869
 7251SOL     OW22651   0.610   6.560   5.188
 7251SOL    HW122652   0.655   6.646   5.211
 7251SOL    HW222653   0.673   6.484   5.207
 7252SOL     OW22654   3.878   3.074   2.250
 7252SOL    HW122655   3.843   3.048   2.340
 7252SOL    HW222656   3.975   3.097   2.258
 7253SOL     OW22657   1.605   6.206   0.280
 7253SOL    HW122658   1.661   6.233   0.202
 7253SOL    HW222659   1.624   6.111   0.304
 7254SOL     OW22660   4.839   5.066   4.688
 7254SOL    HW122661   4.779   5.022   4.621
 7254SOL    HW222662   4.820   5.030   4.779
 7255SOL     OW22663   3.762   3.476   0.413
 7255SOL    HW122664   3.712   3.410   0.469
 7255SOL    HW222665   3.780   3.558   0.467
 7256SOL     OW22666   3.011   5.822   4.847
 7256SOL    HW122667   2.973   5.779   4.766
 7256SOL    HW222668   3.033   5.918   4.827
 7257SOL     OW22669   6.348   1.575   3.469
 7257SOL    HW122670   6.260   1.551   3.510
 7257SOL    HW222671   6.356   1.675   3.466
 7258SOL     OW22672   5.044   1.414   2.791
 7258SOL    HW122673   5.015   1.375   2.879
 7258SOL    HW222674   5.123   1.474   2.806
 7259SOL     OW22675   2.464   3.852   1.245
 7259SOL    HW122676   2.420   3.933   1.285
 7259SOL    HW222677   2.395   3.795   1.201
 7260SOL     OW22678   4.610   1.436   1.360
 7260SOL    HW122679   4.549   1.359   1.380
 7260SOL    HW222680   4.612   1.498   1.439
 7261SOL     OW22681   1.499   3.754   2.007
 7261SOL    HW122682   1.586   3.744   1.960
 7261SOL    HW222683   1.463   3.664   2.031
 7262SOL     OW22684   5.546   2.581   6.305
 7262SOL    HW122685   5.477   2.611   6.240
 7262SOL    HW222686   5.627   2.550   6.255
 7263SOL     OW22687   0.948   6.562   6.840
 7263SOL    HW122688   0.892   6.515   6.772
 7263SOL    HW222689   0.928   6.525   6.931
 7264SOL     OW22690   5.038   1.970   6.551
 7264SOL    HW122691   5.052   2.014   6.639
 7264SOL    HW222692   5.025   2.039   6.480
 7265SOL     OW22693   5.925   4.989   5.657
 7265SOL    HW122694   5.967   4.946   5.737
 7265SOL    HW222695   5.874   4.920   5.606
 7266SOL     OW22696   5.429   6.868   2.457
 7266SOL    HW122697   5.415   6.966   2.439
 7266SOL    HW222698   5.340   6.823   2.464
 7267SOL     OW22699   6.378   6.298   5.345
 7267SOL    HW122700   6.462   6.248   5.367
 7267SOL    HW222701   6.315   6.293   5.423
 7268SOL     OW22702   6.238   5.056   3.790
 7268SOL    HW122703   6.205   5.112   3.866
 7268SOL    HW222704   6.334   5.034   3.803
 7269SOL     OW22705   0.213   5.729   6.482
 7269SOL    HW122706   0.311   5.749   6.483
 7269SOL    HW222707   0.192   5.670   6.404
 7270SOL     OW22708   0.885   3.271   5.269
 7270SOL    HW122709   0.945   3.341   5.308
 7270SOL    HW222710   0.806   3.257   5.329
 7271SOL     OW22711   0.391   5.731   4.059
 7271SOL    HW122712   0.322   5.726   4.131
 7271SOL    HW222713   0.351   5.767   3.975
 7272SOL     OW22714   6.073   5.277   2.283
 7272SOL    HW122715   6.009   5.236   2.348
 7272SOL    HW222716   6.148   5.213   2.265
 7273SOL     OW22717   5.903   4.632   1.408
 7273SOL    HW122718   5.814   4.646   1.365
 7273SOL    HW222719   5.904   4.676   1.497
 7274SOL     OW22720   0.019   5.502   5.995
 7274SOL    HW122721   0.080   5.568   6.038
 7274SOL    HW222722   6.970   5.467   6.062
 7275SOL     OW22723   0.255   6.320   2.728
 7275SOL    HW122724   0.183   6.255   2.748
 7275SOL    HW222725   0.216   6.412   2.720
 7276SOL     OW22726   4.378   1.150   3.102
 7276SOL    HW122727   4.342   1.217   3.168
 7276SOL    HW222728   4.322   1.067   3.105
 7277SOL     OW22729   4.621   0.856   3.920
 7277SOL    HW122730   4.661   0.936   3.965
 7277SOL    HW222731   4.575   0.884   3.835
 7278SOL     OW22732   3.672   2.396   1.481
 7278SOL    HW122733   3.585   2.395   1.531
 7278SOL    HW222734   3.658   2.360   1.389
 7279SOL     OW22735   4.719   4.457   6.011
 7279SOL    HW122736   4.678   4.465   5.920
 7279SOL    HW222737   4.764   4.368   6.018
 7280SOL     OW22738   0.434   1.811   3.586
 7280SOL    HW122739   0.506   1.748   3.617
 7280SOL    HW222740   0.399   1.780   3.497
 7281SOL     OW22741   1.938   1.361   0.732
 7281SOL    HW122742   1.907   1.325   0.644
 7281SOL    HW222743   1.883   1.321   0.806
 7282SOL     OW22744   5.761   5.417   2.244
 7282SOL    HW122745   5.793   5.500   2.198
 7282SOL    HW222746   5.761   5.430   2.343
 7283SOL     OW22747   4.888   0.238   2.773
 7283SOL    HW122748   4.932   0.307   2.831
 7283SOL    HW222749   4.946   0.157   2.769
 7284SOL     OW22750   0.375   2.598   5.783
 7284SOL    HW122751   0.437   2.520   5.791
 7284SOL    HW222752   0.281   2.564   5.772
 7285SOL     OW22753   5.605   2.984   2.433
 7285SOL    HW122754   5.575   3.034   2.351
 7285SOL    HW222755   5.644   3.048   2.499
 7286SOL     OW22756   2.143   1.015   0.806
 7286SOL    HW122757   2.209   1.033   0.879
 7286SOL    HW222758   2.107   1.101   0.771
 7287SOL     OW22759   0.874   2.306   5.913
 7287SOL    HW122760   0.941   2.235   5.936
 7287SOL    HW222761   0.896   2.345   5.824
 7288SOL     OW22762   1.893   0.991   1.912
 7288SOL    HW122763   1.925   1.047   1.988
 7288SOL    HW222764   1.910   0.895   1.932
 7289SOL     OW22765   5.576   1.926   3.985
 7289SOL    HW122766   5.525   1.971   3.913
 7289SOL    HW222767   5.541   1.832   3.997
 7290SOL     OW22768   3.775   1.392   5.399
 7290SOL    HW122769   3.789   1.481   5.444
 7290SOL    HW222770   3.796   1.400   5.302
 7291SOL     OW22771   1.110   6.811   0.130
 7291SOL    HW122772   1.163   6.891   0.104
 7291SOL    HW222773   1.146   6.730   0.083
 7292SOL     OW22774   3.430   0.762   3.296
 7292SOL    HW122775   3.330   0.762   3.304
 7292SOL    HW222776   3.467   0.842   3.343
 7293SOL     OW22777   1.421   2.291   4.717
 7293SOL    HW122778   1.395   2.242   4.634
 7293SOL    HW222779   1.394   2.238   4.797
 7294SOL     OW22780   2.655   4.874   6.553
 7294SOL    HW122781   2.679   4.968   6.532
 7294SOL    HW222782   2.556   4.863   6.549
 7295SOL     OW22783   5.484   3.315   1.277
 7295SOL    HW122784   5.569   3.314   1.225
 7295SOL    HW222785   5.436   3.401   1.261
 7296SOL     OW22786   3.397   6.143   2.227
 7296SOL    HW122787   3.474   6.097   2.272
 7296SOL    HW222788   3.426   6.181   2.140
 7297SOL     OW22789   4.466   0.358   1.474
 7297SOL    HW122790   4.461   0.433   1.541
 7297SOL    HW222791   4.398   0.373   1.402
 7298SOL     OW22792   5.024   5.503   6.183
 7298SOL    HW122793   5.115   5.541   6.195
 7298SOL    HW222794   5.006   5.487   6.086
 7299SOL     OW22795   0.838   2.676   1.152
 7299SOL    HW122796   0.834   2.636   1.060
 7299SOL    HW222797   0.790   2.618   1.216
 7300SOL     OW22798   0.569   6.789   2.286
 7300SOL    HW122799   0.481   6.785   2.240
 7300SOL    HW222800   0.567   6.733   2.369
 7301SOL     OW22801   5.889   1.539   4.195
 7301SOL    HW122802   5.801   1.587   4.197
 7301SOL    HW222803   5.963   1.604   4.213
 7302SOL     OW22804   1.073   2.219   5.455
 7302SOL    HW122805   1.082   2.124   5.426
 7302SOL    HW222806   1.108   2.279   5.383
 7303SOL     OW22807   3.778   1.049   6.874
 7303SOL    HW122808   3.746   1.118   6.809
 7303SOL    HW222809   3.867   1.014   6.844
 7304SOL     OW22810   3.042   5.945   2.026
 7304SOL    HW122811   3.027   5.846   2.018
 7304SOL    HW222812   3.032   5.971   2.122
 7305SOL     OW22813   5.143   0.629   0.382
 7305SOL    HW122814   5.182   0.537   0.385
 7305SOL    HW222815   5.211   0.694   0.415
 7306SOL     OW22816   4.467   1.808   1.104
 7306SOL    HW122817   4.540   1.739   1.100
 7306SOL    HW222818   4.479   1.873   1.029
 7307SOL     OW22819   2.680   6.565   2.596
 7307SOL    HW122820   2.629   6.612   2.524
 7307SOL    HW222821   2.698   6.630   2.671
 7308SOL     OW22822   6.722   2.794   5.227
 7308SOL    HW122823   6.793   2.808   5.295
 7308SOL    HW222824   6.708   2.879   5.175
 7309SOL     OW22825   4.136   5.035   0.688
 7309SOL    HW122826   4.219   4.982   0.671
 7309SOL    HW222827   4.060   4.997   0.634
 7310SOL     OW22828   2.579   4.045   0.318
 7310SOL    HW122829   2.503   3.986   0.292
 7310SOL    HW222830   2.589   4.045   0.417
 7311SOL     OW22831   1.661   2.319   1.484
 7311SOL    HW122832   1.614   2.284   1.404
 7311SOL    HW222833   1.760   2.314   1.469
 7312SOL     OW22834   1.165   3.600   5.120
 7312SOL    HW122835   1.102   3.675   5.142
 7312SOL    HW222836   1.114   3.517   5.103
 7313SOL     OW22837   1.901   0.837   0.873
 7313SOL    HW122838   1.960   0.910   0.839
 7313SOL    HW222839   1.824   0.877   0.922
 7314SOL     OW22840   6.878   5.290   6.213
 7314SOL    HW122841   6.827   5.362   6.261
 7314SOL    HW222842   6.955   5.262   6.269
 7315SOL     OW22843   6.350   6.037   2.018
 7315SOL    HW122844   6.434   6.090   2.012
 7315SOL    HW222845   6.294   6.054   1.937
 7316SOL     OW22846   3.802   3.506   6.271
 7316SOL    HW122847   3.781   3.516   6.369
 7316SOL    HW222848   3.866   3.577   6.243
 7317SOL     OW22849   4.809   1.562   2.149
 7317SOL    HW122850   4.901   1.535   2.175
 7317SOL    HW222851   4.750   1.481   2.146
 7318SOL     OW22852   3.126   0.355   2.159
 7318SOL    HW122853   3.075   0.441   2.156
 7318SOL    HW222854   3.224   0.375   2.159
 7319SOL     OW22855   6.791   3.391   6.769
 7319SOL    HW122856   6.741   3.452   6.829
 7319SOL    HW222857   6.854   3.335   6.823
 7320SOL     OW22858   0.760   3.725   2.321
 7320SOL    HW122859   0.746   3.626   2.327
 7320SOL    HW222860   0.695   3.772   2.381
 7321SOL     OW22861   1.669   0.101   6.260
 7321SOL    HW122862   1.723   0.146   6.188
 7321SOL    HW222863   1.588   0.059   6.220
 7322SOL     OW22864   0.254   2.853   2.907
 7322SOL    HW122865   0.229   2.880   2.814
 7322SOL    HW222866   0.176   2.866   2.968
 7323SOL     OW22867   2.089   2.754   1.300
 7323SOL    HW122868   2.130   2.818   1.235
 7323SOL    HW222869   2.082   2.798   1.390
 7324SOL     OW22870   5.406   5.646   1.723
 7324SOL    HW122871   5.326   5.699   1.694
 7324SOL    HW222872   5.435   5.677   1.814
 7325SOL     OW22873   2.632   0.931   6.550
 7325SOL    HW122874   2.595   0.931   6.643
 7325SOL    HW222875   2.579   0.868   6.493
 7326SOL     OW22876   2.671   6.412   6.369
 7326SOL    HW122877   2.647   6.466   6.289
 7326SOL    HW222878   2.725   6.333   6.342
 7327SOL     OW22879   6.126   1.885   5.872
 7327SOL    HW122880   6.082   1.962   5.919
 7327SOL    HW222881   6.225   1.891   5.882
 7328SOL     OW22882   3.597   0.478   5.900
 7328SOL    HW122883   3.612   0.558   5.842
 7328SOL    HW222884   3.664   0.478   5.975
 7329SOL     OW22885   0.394   3.868   0.967
 7329SOL    HW122886   0.376   3.771   0.951
 7329SOL    HW222887   0.311   3.911   1.002
 7330SOL     OW22888   1.900   2.505   6.708
 7330SOL    HW122889   1.984   2.558   6.695
 7330SOL    HW222890   1.854   2.536   6.791
 7331SOL     OW22891   5.341   5.956   1.441
 7331SOL    HW122892   5.279   6.025   1.479
 7331SOL    HW222893   5.433   5.970   1.477
 7332SOL     OW22894   3.382   6.233   6.849
 7332SOL    HW122895   3.442   6.303   6.811
 7332SOL    HW222896   3.331   6.270   6.926
 7333SOL     OW22897   6.787   3.491   2.288
 7333SOL    HW122898   6.847   3.428   2.337
 7333SOL    HW222899   6.710   3.517   2.345
 7334SOL     OW22900   2.316   6.018   6.544
 7334SOL    HW122901   2.384   5.953   6.509
 7334SOL    HW222902   2.225   5.978   6.535
 7335SOL     OW22903   1.004   2.795   3.464
 7335SOL    HW122904   1.092   2.832   3.434
 7335SOL    HW222905   1.017   2.701   3.497
 7336SOL     OW22906   1.638   6.486   2.612
 7336SOL    HW122907   1.572   6.488   2.537
 7336SOL    HW222908   1.636   6.574   2.660
 7337SOL     OW22909   0.993   3.403   1.096
 7337SOL    HW122910   0.938   3.465   1.152
 7337SOL    HW222911   1.090   3.422   1.111
 7338SOL     OW22912   5.038   1.479   2.244
 7338SOL    HW122913   5.133   1.462   2.218
 7338SOL    HW222914   5.021   1.439   2.334
 7339SOL     OW22915   6.344   0.437   4.346
 7339SOL    HW122916   6.406   0.449   4.423
 7339SOL    HW222917   6.307   0.344   4.347
 7340SOL     OW22918   3.104   1.104   0.465
 7340SOL    HW122919   3.172   1.032   0.450
 7340SOL    HW222920   3.034   1.071   0.528
 7341SOL     OW22921   0.574   4.412   5.724
 7341SOL    HW122922   0.560   4.364   5.637
 7341SOL    HW222923   0.654   4.374   5.770
 7342SOL     OW22924   6.924   1.140   0.013
 7342SOL    HW122925   6.980   1.105   6.953
 7342SOL    HW222926   6.953   1.097   0.098
 7343SOL     OW22927   6.001   4.243   1.648
 7343SOL    HW122928   5.924   4.273   1.592
 7343SOL    HW222929   5.998   4.144   1.659
 7344SOL     OW22930   0.790   1.071   5.920
 7344SOL    HW122931   0.722   1.109   5.858
 7344SOL    HW222932   0.854   1.142   5.949
 7345SOL     OW22933   4.775   5.029   5.201
 7345SOL    HW122934   4.836   4.976   5.260
 7345SOL    HW222935   4.680   5.004   5.220
 7346SOL     OW22936   4.377   5.099   1.830
 7346SOL    HW122937   4.330   5.160   1.767
 7346SOL    HW222938   4.408   5.017   1.780
 7347SOL     OW22939   6.860   2.597   0.485
 7347SOL    HW122940   6.896   2.681   0.525
 7347SOL    HW222941   6.890   2.519   0.539
 7348SOL     OW22942   1.713   4.116   4.618
 7348SOL    HW122943   1.691   4.027   4.657
 7348SOL    HW222944   1.812   4.128   4.618
 7349SOL     OW22945   5.098   1.356   1.155
 7349SOL    HW122946   5.104   1.422   1.081
 7349SOL    HW222947   5.005   1.356   1.192
 7350SOL     OW22948   2.074   2.744   5.635
 7350SOL    HW122949   2.136   2.815   5.602
 7350SOL    HW222950   2.075   2.743   5.735
 7351SOL     OW22951   5.341   6.689   5.118
 7351SOL    HW122952   5.249   6.705   5.081
 7351SOL    HW222953   5.394   6.633   5.054
 7352SOL     OW22954   2.276   1.656   3.217
 7352SOL    HW122955   2.296   1.580   3.278
 7352SOL    HW222956   2.221   1.724   3.266
 7353SOL     OW22957   1.111   0.500   6.851
 7353SOL    HW122958   1.116   0.557   6.769
 7353SOL    HW222959   1.188   0.436   6.851
 7354SOL     OW22960   0.629   1.999   5.464
 7354SOL    HW122961   0.612   2.060   5.387
 7354SOL    HW222962   0.548   1.944   5.482
 7355SOL     OW22963   1.999   0.596   0.736
 7355SOL    HW122964   1.938   0.520   0.758
 7355SOL    HW222965   1.976   0.675   0.793
 7356SOL     OW22966   4.184   4.143   5.804
 7356SOL    HW122967   4.264   4.083   5.800
 7356SOL    HW222968   4.101   4.088   5.793
 7357SOL     OW22969   3.912   6.646   1.597
 7357SOL    HW122970   4.004   6.612   1.619
 7357SOL    HW222971   3.904   6.662   1.499
 7358SOL     OW22972   6.156   3.382   3.004
 7358SOL    HW122973   6.173   3.478   2.981
 7358SOL    HW222974   6.224   3.325   2.959
 7359SOL     OW22975   3.151   1.587   6.244
 7359SOL    HW122976   3.086   1.555   6.313
 7359SOL    HW222977   3.184   1.678   6.269
 7360SOL     OW22978   3.003   3.656   5.741
 7360SOL    HW122979   3.058   3.734   5.712
 7360SOL    HW222980   2.930   3.640   5.674
 7361SOL     OW22981   4.344   0.011   2.216
 7361SOL    HW122982   4.413   6.969   2.260
 7361SOL    HW222983   4.388   0.073   2.151
 7362SOL     OW22984   1.709   4.409   4.914
 7362SOL    HW122985   1.690   4.450   4.825
 7362SOL    HW222986   1.807   4.410   4.931
 7363SOL     OW22987   4.387   1.970   1.683
 7363SOL    HW122988   4.308   1.909   1.676
 7363SOL    HW222989   4.464   1.920   1.723
 7364SOL     OW22990   4.621   0.726   1.425
 7364SOL    HW122991   4.702   0.782   1.443
 7364SOL    HW222992   4.648   0.646   1.372
 7365SOL     OW22993   0.734   5.640   1.654
 7365SOL    HW122994   0.831   5.617   1.647
 7365SOL    HW222995   0.724   5.734   1.687
 7366SOL     OW22996   2.642   6.287   6.819
 7366SOL    HW122997   2.729   6.237   6.819
 7366SOL    HW222998   2.576   6.239   6.878
 7367SOL     OW22999   4.565   2.607   0.974
 7367SOL    HW123000   4.599   2.514   0.958
 7367SOL    HW223001   4.507   2.607   1.055
 7368SOL     OW23002   3.740   2.883   2.760
 7368SOL    HW123003   3.643   2.900   2.777
 7368SOL    HW223004   3.793   2.909   2.841
 7369SOL     OW23005   3.741   2.746   0.271
 7369SOL    HW123006   3.719   2.804   0.193
 7369SOL    HW223007   3.744   2.650   0.242
 7370SOL     OW23008   2.556   0.514   4.154
 7370SOL    HW123009   2.634   0.546   4.100
 7370SOL    HW223010   2.504   0.593   4.188
 7371SOL     OW23011   2.126   6.828   3.614
 7371SOL    HW123012   2.043   6.882   3.601
 7371SOL    HW223013   2.137   6.807   3.711
 7372SOL     OW23014   4.101   0.971   4.637
 7372SOL    HW123015   4.056   1.003   4.721
 7372SOL    HW223016   4.187   0.926   4.660
 7373SOL     OW23017   5.881   1.461   3.878
 7373SOL    HW123018   5.939   1.440   3.957
 7373SOL    HW223019   5.919   1.539   3.828
 7374SOL     OW23020   2.185   1.883   5.231
 7374SOL    HW123021   2.193   1.784   5.220
 7374SOL    HW223022   2.163   1.905   5.326
 7375SOL     OW23023   2.411   2.323   2.839
 7375SOL    HW123024   2.442   2.337   2.933
 7375SOL    HW223025   2.450   2.395   2.780
 7376SOL     OW23026   2.508   1.660   0.649
 7376SOL    HW123027   2.458   1.704   0.724
 7376SOL    HW223028   2.468   1.570   0.631
 7377SOL     OW23029   5.427   4.206   0.640
 7377SOL    HW123030   5.484   4.193   0.721
 7377SOL    HW223031   5.409   4.304   0.628
 7378SOL     OW23032   0.639   0.869   6.072
 7378SOL    HW123033   0.672   0.963   6.069
 7378SOL    HW223034   0.595   0.852   6.160
 7379SOL     OW23035   2.767   1.607   3.254
 7379SOL    HW123036   2.751   1.679   3.186
 7379SOL    HW223037   2.799   1.524   3.208
 7380SOL     OW23038   6.715   4.464   4.761
 7380SOL    HW123039   6.770   4.383   4.741
 7380SOL    HW223040   6.676   4.500   4.676
 7381SOL     OW23041   3.935   3.547   1.214
 7381SOL    HW123042   3.909   3.450   1.216
 7381SOL    HW223043   3.890   3.592   1.137
 7382SOL     OW23044   0.665   6.437   5.652
 7382SOL    HW123045   0.668   6.340   5.678
 7382SOL    HW223046   0.580   6.456   5.603
 7383SOL     OW23047   1.831   0.413   0.840
 7383SOL    HW123048   1.787   0.491   0.885
 7383SOL    HW223049   1.784   0.329   0.865
 7384SOL     OW23050   6.444   6.495   2.336
 7384SOL    HW123051   6.472   6.420   2.396
 7384SOL    HW223052   6.524   6.547   2.307
 7385SOL     OW23053   3.746   6.233   2.010
 7385SOL    HW123054   3.731   6.144   2.051
 7385SOL    HW223055   3.776   6.222   1.915
 7386SOL     OW23056   0.178   2.166   6.382
 7386SOL    HW123057   0.081   2.171   6.357
 7386SOL    HW223058   0.189   2.195   6.477
 7387SOL     OW23059   5.843   6.735   4.700
 7387SOL    HW123060   5.928   6.682   4.694
 7387SOL    HW223061   5.811   6.756   4.608
 7388SOL     OW23062   1.052   5.496   2.323
 7388SOL    HW123063   0.963   5.452   2.337
 7388SOL    HW223064   1.083   5.479   2.230
 7389SOL     OW23065   6.165   3.815   6.601
 7389SOL    HW123066   6.250   3.775   6.634
 7389SOL    HW223067   6.092   3.800   6.668
 7390SOL     OW23068   0.915   2.090   0.708
 7390SOL    HW123069   0.927   2.138   0.794
 7390SOL    HW223070   0.953   1.998   0.715
 7391SOL     OW23071   3.976   3.744   3.790
 7391SOL    HW123072   4.056   3.708   3.838
 7391SOL    HW223073   3.947   3.679   3.720
 7392SOL     OW23074   2.775   6.762   6.554
 7392SOL    HW123075   2.692   6.803   6.516
 7392SOL    HW223076   2.846   6.757   6.484
 7393SOL     OW23077   5.847   4.255   2.889
 7393SOL    HW123078   5.939   4.278   2.857
 7393SOL    HW223079   5.834   4.156   2.885
 7394SOL     OW23080   2.180   2.401   5.807
 7394SOL    HW123081   2.181   2.462   5.728
 7394SOL    HW223082   2.272   2.395   5.846
 7395SOL     OW23083   1.274   3.259   1.297
 7395SOL    HW123084   1.254   3.231   1.203
 7395SOL    HW223085   1.299   3.356   1.299
 7396SOL     OW23086   1.593   6.644   1.126
 7396SOL    HW123087   1.554   6.645   1.034
 7396SOL    HW223088   1.686   6.680   1.123
 7397SOL     OW23089   3.966   5.176   5.062
 7397SOL    HW123090   3.871   5.146   5.073
 7397SOL    HW223091   4.002   5.138   4.977
 7398SOL     OW23092   2.451   4.702   4.559
 7398SOL    HW123093   2.494   4.769   4.498
 7398SOL    HW223094   2.380   4.747   4.613
 7399SOL     OW23095   0.976   2.959   4.826
 7399SOL    HW123096   1.059   2.904   4.812
 7399SOL    HW223097   0.958   2.969   4.924
 7400SOL     OW23098   4.168   2.447   5.984
 7400SOL    HW123099   4.075   2.449   6.021
 7400SOL    HW223100   4.165   2.457   5.884
 7401SOL     OW23101   1.691   2.092   4.240
 7401SOL    HW123102   1.738   2.115   4.154
 7401SOL    HW223103   1.731   2.145   4.314
 7402SOL     OW23104   2.888   5.648   6.298
 7402SOL    HW123105   2.910   5.595   6.216
 7402SOL    HW223106   2.904   5.592   6.379
 7403SOL     OW23107   1.568   3.567   2.529
 7403SOL    HW123108   1.541   3.487   2.475
 7403SOL    HW223109   1.655   3.603   2.495
 7404SOL     OW23110   2.618   5.296   1.796
 7404SOL    HW123111   2.691   5.270   1.733
 7404SOL    HW223112   2.646   5.277   1.890
 7405SOL     OW23113   3.336   5.048   4.850
 7405SOL    HW123114   3.343   4.990   4.769
 7405SOL    HW223115   3.281   5.002   4.920
 7406SOL     OW23116   0.257   2.615   3.728
 7406SOL    HW123117   0.230   2.619   3.824
 7406SOL    HW223118   0.317   2.536   3.714
 7407SOL     OW23119   0.762   0.040   5.252
 7407SOL    HW123120   0.777   0.075   5.345
 7407SOL    HW223121   0.834   0.074   5.191
 7408SOL     OW23122   3.188   3.762   6.996
 7408SOL    HW123123   3.130   3.744   0.060
 7408SOL    HW223124   3.174   3.690   6.928
 7409SOL     OW23125   5.160   2.722   0.285
 7409SOL    HW123126   5.181   2.710   0.188
 7409SOL    HW223127   5.235   2.771   0.329
 7410SOL     OW23128   0.414   6.947   0.259
 7410SOL    HW123129   0.507   6.955   0.223
 7410SOL    HW223130   0.397   0.006   0.323
 7411SOL     OW23131   2.093   0.195   6.015
 7411SOL    HW123132   2.111   0.265   6.084
 7411SOL    HW223133   2.021   0.226   5.954
 7412SOL     OW23134   5.371   0.349   2.239
 7412SOL    HW123135   5.303   0.388   2.301
 7412SOL    HW223136   5.337   0.354   2.145
 7413SOL     OW23137   4.948   5.398   4.072
 7413SOL    HW123138   4.889   5.319   4.089
 7413SOL    HW223139   4.892   5.479   4.054
 7414SOL     OW23140   0.863   1.069   3.570
 7414SOL    HW123141   0.767   1.044   3.567
 7414SOL    HW223142   0.899   1.077   3.477
 7415SOL     OW23143   1.261   5.093   4.137
 7415SOL    HW123144   1.210   5.108   4.222
 7415SOL    HW223145   1.206   5.123   4.059
 7416SOL     OW23146   1.991   1.058   2.403
 7416SOL    HW123147   2.012   1.010   2.488
 7416SOL    HW223148   1.913   1.120   2.418
 7417SOL     OW23149   1.687   2.106   0.616
 7417SOL    HW123150   1.640   2.085   0.702
 7417SOL    HW223151   1.713   2.202   0.615
 7418SOL     OW23152   2.606   5.734   0.811
 7418SOL    HW123153   2.530   5.794   0.787
 7418SOL    HW223154   2.574   5.640   0.815
 7419SOL     OW23155   6.495   2.703   4.201
 7419SOL    HW123156   6.589   2.676   4.221
 7419SOL    HW223157   6.466   2.772   4.267
 7420SOL     OW23158   0.636   6.876   1.418
 7420SOL    HW123159   0.671   6.937   1.489
 7420SOL    HW223160   0.569   6.813   1.458
 7421SOL     OW23161   3.908   4.594   0.951
 7421SOL    HW123162   3.881   4.639   0.866
 7421SOL    HW223163   3.883   4.653   1.028
 7422SOL     OW23164   0.419   4.209   2.500
 7422SOL    HW123165   0.352   4.281   2.482
 7422SOL    HW223166   0.460   4.180   2.414
 7423SOL     OW23167   6.323   2.309   5.322
 7423SOL    HW123168   6.415   2.338   5.349
 7423SOL    HW223169   6.300   2.224   5.369
 7424SOL     OW23170   6.921   0.092   5.480
 7424SOL    HW123171   6.850   0.154   5.446
 7424SOL    HW223172   6.965   0.047   5.402
 7425SOL     OW23173   4.016   6.509   0.055
 7425SOL    HW123174   3.990   6.436   7.007
 7425SOL    HW223175   4.109   6.540   0.035
 7426SOL     OW23176   2.770   1.557   5.642
 7426SOL    HW123177   2.670   1.550   5.648
 7426SOL    HW223178   2.810   1.466   5.631
 7427SOL     OW23179   4.607   0.786   3.560
 7427SOL    HW123180   4.662   0.810   3.480
 7427SOL    HW223181   4.596   0.867   3.619
 7428SOL     OW23182   4.834   1.915   5.405
 7428SOL    HW123183   4.779   1.909   5.488
 7428SOL    HW223184   4.894   1.995   5.410
 7429SOL     OW23185   0.355   6.398   4.194
 7429SOL    HW123186   0.259   6.370   4.200
 7429SOL    HW223187   0.388   6.422   4.285
 7430SOL     OW23188   1.377   3.684   0.510
 7430SOL    HW123189   1.309   3.621   0.474
 7430SOL    HW223190   1.460   3.634   0.533
 7431SOL     OW23191   1.509   2.953   3.354
 7431SOL    HW123192   1.535   2.893   3.429
 7431SOL    HW223193   1.583   3.016   3.333
 7432SOL     OW23194   0.926   1.086   2.932
 7432SOL    HW123195   0.977   1.003   2.907
 7432SOL    HW223196   0.974   1.135   3.004
 7433SOL     OW23197   4.341   5.850   6.007
 7433SOL    HW123198   4.293   5.908   5.942
 7433SOL    HW223199   4.331   5.887   6.099
 7434SOL     OW23200   4.795   5.864   5.187
 7434SOL    HW123201   4.888   5.854   5.153
 7434SOL    HW223202   4.730   5.856   5.112
 7435SOL     OW23203   3.615   5.539   0.978
 7435SOL    HW123204   3.676   5.504   1.048
 7435SOL    HW223205   3.537   5.477   0.967
 7436SOL     OW23206   4.362   4.046   6.176
 7436SOL    HW123207   4.387   3.949   6.173
 7436SOL    HW223208   4.422   4.098   6.116
 7437SOL     OW23209   1.969   5.647   0.016
 7437SOL    HW123210   2.040   5.627   6.964
 7437SOL    HW223211   1.972   5.579   0.089
 7438SOL     OW23212   1.033   5.922   0.239
 7438SOL    HW123213   1.127   5.916   0.273
 7438SOL    HW223214   1.017   6.013   0.202
 7439SOL     OW23215   2.027   6.500   5.395
 7439SOL    HW123216   1.968   6.425   5.366
 7439SOL    HW223217   2.122   6.471   5.391
 7440SOL     OW23218   0.081   2.787   4.451
 7440SOL    HW123219   0.147   2.743   4.513
 7440SOL    HW223220   7.010   2.797   4.498
 7441SOL     OW23221   5.016   6.531   4.427
 7441SOL    HW123222   5.072   6.586   4.487
 7441SOL    HW223223   5.072   6.459   4.385
 7442SOL     OW23224   6.440   1.276   6.057
 7442SOL    HW123225   6.523   1.316   6.018
 7442SOL    HW223226   6.371   1.348   6.070
 7443SOL     OW23227   6.906   6.238   1.775
 7443SOL    HW123228   6.864   6.262   1.863
 7443SOL    HW223229   6.836   6.239   1.704
 7444SOL     OW23230   5.810   2.269   5.788
 7444SOL    HW123231   5.817   2.344   5.723
 7444SOL    HW223232   5.752   2.297   5.865
 7445SOL     OW23233   3.905   0.665   0.928
 7445SOL    HW123234   3.872   0.634   1.017
 7445SOL    HW223235   3.959   0.593   0.885
 7446SOL     OW23236   6.051   2.853   0.857
 7446SOL    HW123237   5.981   2.825   0.923
 7446SOL    HW223238   6.008   2.868   0.767
 7447SOL     OW23239   6.228   3.023   6.782
 7447SOL    HW123240   6.275   2.944   6.743
 7447SOL    HW223241   6.240   3.023   6.882
 7448SOL     OW23242   6.295   6.672   5.413
 7448SOL    HW123243   6.368   6.620   5.369
 7448SOL    HW223244   6.334   6.730   5.485
 7449SOL     OW23245   0.783   4.405   2.063
 7449SOL    HW123246   0.726   4.323   2.061
 7449SOL    HW223247   0.824   4.415   2.154
 7450SOL     OW23248   5.508   2.648   5.383
 7450SOL    HW123249   5.441   2.699   5.328
 7450SOL    HW223250   5.570   2.713   5.427
 7451SOL     OW23251   6.358   5.981   2.976
 7451SOL    HW123252   6.421   5.917   2.932
 7451SOL    HW223253   6.303   6.026   2.906
 7452SOL     OW23254   5.809   6.799   4.015
 7452SOL    HW123255   5.785   6.867   4.085
 7452SOL    HW223256   5.742   6.724   4.016
 7453SOL     OW23257   4.909   5.991   5.683
 7453SOL    HW123258   4.939   5.938   5.763
 7453SOL    HW223259   4.823   5.954   5.649
 7454SOL     OW23260   1.039   2.271   1.841
 7454SOL    HW123261   1.002   2.316   1.760
 7454SOL    HW223262   1.031   2.172   1.831
 7455SOL     OW23263   6.818   2.851   2.009
 7455SOL    HW123264   6.726   2.891   2.003
 7455SOL    HW223265   6.832   2.790   1.932
 7456SOL     OW23266   1.729   1.073   4.215
 7456SOL    HW123267   1.805   1.060   4.278
 7456SOL    HW223268   1.647   1.029   4.253
 7457SOL     OW23269   3.531   0.748   5.544
 7457SOL    HW123270   3.468   0.717   5.615
 7457SOL    HW223271   3.591   0.673   5.518
 7458SOL     OW23272   1.717   6.579   5.419
 7458SOL    HW123273   1.743   6.484   5.439
 7458SOL    HW223274   1.745   6.638   5.495
 7459SOL     OW23275   5.257   0.383   2.011
 7459SOL    HW123276   5.235   0.417   1.920
 7459SOL    HW223277   5.194   0.310   2.036
 7460SOL     OW23278   0.843   4.983   0.309
 7460SOL    HW123279   0.850   5.077   0.276
 7460SOL    HW223280   0.817   4.984   0.406
 7461SOL     OW23281   6.327   0.376   6.733
 7461SOL    HW123282   6.405   0.368   6.671
 7461SOL    HW223283   6.360   0.380   6.828
 7462SOL     OW23284   1.634   4.068   2.523
 7462SOL    HW123285   1.690   4.089   2.604
 7462SOL    HW223286   1.571   3.994   2.545
 7463SOL     OW23287   3.152   4.931   0.483
 7463SOL    HW123288   3.070   4.986   0.499
 7463SOL    HW223289   3.192   4.954   0.394
 7464SOL     OW23290   5.331   6.876   6.147
 7464SOL    HW123291   5.375   6.839   6.229
 7464SOL    HW223292   5.233   6.859   6.152
 7465SOL     OW23293   2.412   5.459   6.686
 7465SOL    HW123294   2.391   5.556   6.700
 7465SOL    HW223295   2.455   5.447   6.597
 7466SOL     OW23296   0.318   0.574   4.409
 7466SOL    HW123297   0.308   0.670   4.436
 7466SOL    HW223298   0.325   0.568   4.310
 7467SOL     OW23299   0.640   1.783   0.772
 7467SOL    HW123300   0.584   1.855   0.730
 7467SOL    HW223301   0.600   1.694   0.751
 7468SOL     OW23302   5.708   2.641   3.827
 7468SOL    HW123303   5.728   2.738   3.834
 7468SOL    HW223304   5.793   2.589   3.835
 7469SOL     OW23305   6.429   0.393   0.501
 7469SOL    HW123306   6.352   0.393   0.437
 7469SOL    HW223307   6.509   0.351   0.457
 7470SOL     OW23308   6.199   4.094   3.077
 7470SOL    HW123309   6.121   4.133   3.126
 7470SOL    HW223310   6.217   4.002   3.111
 7471SOL     OW23311   5.608   6.797   5.666
 7471SOL    HW123312   5.555   6.882   5.676
 7471SOL    HW223313   5.639   6.767   5.756
 7472SOL     OW23314   6.472   0.543   5.821
 7472SOL    HW123315   6.401   0.474   5.815
 7472SOL    HW223316   6.434   0.627   5.859
 7473SOL     OW23317   5.933   5.727   3.954
 7473SOL    HW123318   5.839   5.739   3.923
 7473SOL    HW223319   5.993   5.712   3.876
 7474SOL     OW23320   0.735   1.365   6.218
 7474SOL    HW123321   0.800   1.391   6.147
 7474SOL    HW223322   0.654   1.423   6.212
 7475SOL     OW23323   4.636   2.588   2.389
 7475SOL    HW123324   4.556   2.555   2.440
 7475SOL    HW223325   4.620   2.578   2.291
 7476SOL     OW23326   3.597   0.708   4.007
 7476SOL    HW123327   3.686   0.744   4.035
 7476SOL    HW223328   3.531   0.783   3.999
 7477SOL     OW23329   0.389   1.622   5.951
 7477SOL    HW123330   0.313   1.564   5.919
 7477SOL    HW223331   0.441   1.572   6.020
 7478SOL     OW23332   5.752   3.821   5.287
 7478SOL    HW123333   5.822   3.888   5.311
 7478SOL    HW223334   5.686   3.863   5.224
 7479SOL     OW23335   4.383   2.214   2.397
 7479SOL    HW123336   4.323   2.170   2.464
 7479SOL    HW223337   4.478   2.188   2.414
 7480SOL     OW23338   1.597   4.455   2.553
 7480SOL    HW123339   1.601   4.407   2.641
 7480SOL    HW223340   1.589   4.388   2.479
 7481SOL     OW23341   5.767   5.656   0.840
 7481SOL    HW123342   5.687   5.659   0.780
 7481SOL    HW223343   5.845   5.618   0.790
 7482SOL     OW23344   4.447   2.531   3.082
 7482SOL    HW123345   4.455   2.535   2.982
 7482SOL    HW223346   4.433   2.624   3.118
 7483SOL     OW23347   4.891   3.613   4.567
 7483SOL    HW123348   4.952   3.542   4.531
 7483SOL    HW223349   4.903   3.697   4.513
 7484SOL     OW23350   1.155   6.744   4.713
 7484SOL    HW123351   1.226   6.774   4.649
 7484SOL    HW223352   1.194   6.734   4.805
 7485SOL     OW23353   3.702   6.878   4.504
 7485SOL    HW123354   3.733   6.834   4.420
 7485SOL    HW223355   3.608   6.851   4.524
 7486SOL     OW23356   1.994   6.077   0.213
 7486SOL    HW123357   2.064   6.061   0.143
 7486SOL    HW223358   2.019   6.157   0.268
 7487SOL     OW23359   1.931   0.091   3.226
 7487SOL    HW123360   2.016   0.041   3.209
 7487SOL    HW223361   1.925   0.114   3.323
 7488SOL     OW23362   2.500   6.039   4.329
 7488SOL    HW123363   2.523   6.136   4.320
 7488SOL    HW223364   2.463   6.023   4.420
 7489SOL     OW23365   6.022   2.775   5.922
 7489SOL    HW123366   5.927   2.795   5.948
 7489SOL    HW223367   6.078   2.856   5.934
 7490SOL     OW23368   1.165   0.148   3.152
 7490SOL    HW123369   1.142   0.239   3.184
 7490SOL    HW223370   1.156   0.082   3.227
 7491SOL     OW23371   4.908   2.716   6.596
 7491SOL    HW123372   4.875   2.804   6.562
 7491SOL    HW223373   4.915   2.719   6.695
 7492SOL     OW23374   1.406   0.276   3.046
 7492SOL    HW123375   1.313   0.248   3.070
 7492SOL    HW223376   1.469   0.246   3.118
 7493SOL     OW23377   0.601   3.344   6.608
 7493SOL    HW123378   0.512   3.331   6.650
 7493SOL    HW223379   0.593   3.408   6.532
 7494SOL     OW23380   5.571   1.896   2.512
 7494SOL    HW123381   5.488   1.848   2.539
 7494SOL    HW223382   5.566   1.992   2.542
 7495SOL     OW23383   1.222   1.938   6.538
 7495SOL    HW123384   1.300   2.000   6.539
 7495SOL    HW223385   1.165   1.954   6.618
 7496SOL     OW23386   6.579   3.017   4.297
 7496SOL    HW123387   6.511   3.086   4.319
 7496SOL    HW223388   6.670   3.050   4.323
 7497SOL     OW23389   2.909   4.495   0.205
 7497SOL    HW123390   2.868   4.406   0.185
 7497SOL    HW223391   2.873   4.563   0.141
 7498SOL     OW23392   3.427   0.648   5.248
 7498SOL    HW123393   3.423   0.554   5.282
 7498SOL    HW223394   3.446   0.648   5.150
 7499SOL     OW23395   4.280   1.381   3.243
 7499SOL    HW123396   4.190   1.408   3.279
 7499SOL    HW223397   4.290   1.417   3.150
 7500SOL     OW23398   3.346   5.772   3.296
 7500SOL    HW123399   3.314   5.850   3.242
 7500SOL    HW223400   3.346   5.690   3.239
 7501SOL     OW23401   5.105   3.789   4.657
 7501SOL    HW123402   5.132   3.884   4.673
 7501SOL    HW223403   5.042   3.760   4.728
 7502SOL     OW23404   3.487   0.775   4.639
 7502SOL    HW123405   3.491   0.677   4.619
 7502SOL    HW223406   3.403   0.795   4.689
 7503SOL     OW23407   1.603   0.162   1.329
 7503SOL    HW123408   1.667   0.144   1.255
 7503SOL    HW223409   1.624   0.102   1.407
 7504SOL     OW23410   0.834   6.146   3.565
 7504SOL    HW123411   0.925   6.160   3.603
 7504SOL    HW223412   0.826   6.192   3.476
 7505SOL     OW23413   1.967   3.041   5.832
 7505SOL    HW123414   1.899   3.106   5.866
 7505SOL    HW223415   1.929   2.991   5.754
 7506SOL     OW23416   5.524   1.479   3.013
 7506SOL    HW123417   5.569   1.420   3.080
 7506SOL    HW223418   5.592   1.536   2.967
 7507SOL     OW23419   0.247   1.653   2.716
 7507SOL    HW123420   0.156   1.632   2.680
 7507SOL    HW223421   0.266   1.596   2.796
 7508SOL     OW23422   1.518   6.724   1.782
 7508SOL    HW123423   1.513   6.820   1.809
 7508SOL    HW223424   1.593   6.679   1.830
 7509SOL     OW23425   5.940   3.576   0.414
 7509SOL    HW123426   6.032   3.605   0.390
 7509SOL    HW223427   5.909   3.625   0.495
 7510SOL     OW23428   3.593   3.519   4.743
 7510SOL    HW123429   3.569   3.603   4.694
 7510SOL    HW223430   3.514   3.486   4.794
 7511SOL     OW23431   2.724   5.792   3.910
 7511SOL    HW123432   2.626   5.787   3.929
 7511SOL    HW223433   2.764   5.869   3.960
 7512SOL     OW23434   2.486   6.833   6.228
 7512SOL    HW123435   2.499   6.762   6.297
 7512SOL    HW223436   2.395   6.872   6.237
 7513SOL     OW23437   1.628   1.082   1.420
 7513SOL    HW123438   1.685   1.106   1.499
 7513SOL    HW223439   1.535   1.114   1.435
 7514SOL     OW23440   2.542   5.397   2.245
 7514SOL    HW123441   2.628   5.410   2.196
 7514SOL    HW223442   2.525   5.476   2.304
 7515SOL     OW23443   6.910   5.636   4.470
 7515SOL    HW123444   6.993   5.691   4.467
 7515SOL    HW223445   6.885   5.618   4.565
 7516SOL     OW23446   6.515   5.672   5.761
 7516SOL    HW123447   6.498   5.706   5.854
 7516SOL    HW223448   6.462   5.589   5.746
 7517SOL     OW23449   6.993   2.343   0.533
 7517SOL    HW123450   6.931   2.269   0.559
 7517SOL    HW223451   0.001   2.335   0.437
 7518SOL     OW23452   4.627   4.303   4.382
 7518SOL    HW123453   4.606   4.348   4.469
 7518SOL    HW223454   4.571   4.342   4.309
 7519SOL     OW23455   0.339   6.590   3.913
 7519SOL    HW123456   0.417   6.558   3.859
 7519SOL    HW223457   0.335   6.539   3.999
 7520SOL     OW23458   2.308   0.011   2.389
 7520SOL    HW123459   2.332   0.094   2.339
 7520SOL    HW223460   2.334   0.021   2.485
 7521SOL     OW23461   4.771   2.628   5.674
 7521SOL    HW123462   4.839   2.684   5.627
 7521SOL    HW223463   4.814   2.542   5.702
 7522SOL     OW23464   1.486   1.458   6.072
 7522SOL    HW123465   1.449   1.383   6.126
 7522SOL    HW223466   1.575   1.486   6.109
 7523SOL     OW23467   5.642   0.385   6.442
 7523SOL    HW123468   5.600   0.415   6.527
 7523SOL    HW223469   5.600   0.298   6.413
 7524SOL     OW23470   1.062   2.728   5.172
 7524SOL    HW123471   1.101   2.678   5.095
 7524SOL    HW223472   1.085   2.825   5.165
 7525SOL     OW23473   3.562   0.604   6.469
 7525SOL    HW123474   3.532   0.531   6.531
 7525SOL    HW223475   3.493   0.618   6.398
 7526SOL     OW23476   3.304   3.517   1.455
 7526SOL    HW123477   3.243   3.483   1.527
 7526SOL    HW223478   3.292   3.615   1.444
 7527SOL     OW23479   2.936   5.651   3.509
 7527SOL    HW123480   2.907   5.735   3.463
 7527SOL    HW223481   2.976   5.674   3.598
 7528SOL     OW23482   6.173   2.337   0.561
 7528SOL    HW123483   6.124   2.260   0.521
 7528SOL    HW223484   6.109   2.393   0.614
 7529SOL     OW23485   5.625   1.676   4.358
 7529SOL    HW123486   5.626   1.764   4.312
 7529SOL    HW223487   5.568   1.612   4.307
 7530SOL     OW23488   0.178   3.046   2.303
 7530SOL    HW123489   0.224   3.074   2.388
 7530SOL    HW223490   0.124   2.964   2.320
 7531SOL     OW23491   5.840   3.020   4.545
 7531SOL    HW123492   5.825   3.107   4.592
 7531SOL    HW223493   5.792   2.947   4.594
 7532SOL     OW23494   4.135   6.225   7.006
 7532SOL    HW123495   4.140   6.233   6.906
 7532SOL    HW223496   4.139   6.129   0.016
 7533SOL     OW23497   3.479   1.341   1.635
 7533SOL    HW123498   3.419   1.274   1.591
 7533SOL    HW223499   3.474   1.331   1.734
 7534SOL     OW23500   4.360   6.340   5.267
 7534SOL    HW123501   4.276   6.367   5.314
 7534SOL    HW223502   4.364   6.241   5.260
 7535SOL     OW23503   1.867   0.227   4.779
 7535SOL    HW123504   1.912   0.276   4.855
 7535SOL    HW223505   1.815   0.151   4.816
 7536SOL     OW23506   5.337   4.209   4.561
 7536SOL    HW123507   5.324   4.125   4.508
 7536SOL    HW223508   5.297   4.197   4.652
 7537SOL     OW23509   2.285   5.536   1.988
 7537SOL    HW123510   2.233   5.618   2.009
 7537SOL    HW223511   2.382   5.554   2.004
 7538SOL     OW23512   2.027   2.238   1.223
 7538SOL    HW123513   1.975   2.214   1.142
 7538SOL    HW223514   2.013   2.169   1.294
 7539SOL     OW23515   1.720   3.474   4.205
 7539SOL    HW123516   1.739   3.418   4.124
 7539SOL    HW223517   1.622   3.468   4.227
 7540SOL     OW23518   4.342   0.834   4.613
 7540SOL    HW123519   4.387   0.856   4.526
 7540SOL    HW223520   4.403   0.858   4.689
 7541SOL     OW23521   0.052   4.207   5.070
 7541SOL    HW123522   0.149   4.193   5.088
 7541SOL    HW223523   0.029   4.303   5.086
 7542SOL     OW23524   0.996   5.441   0.005
 7542SOL    HW123525   1.007   5.383   6.940
 7542SOL    HW223526   1.085   5.453   0.050
 7543SOL     OW23527   4.096   1.195   5.614
 7543SOL    HW123528   4.130   1.283   5.580
 7543SOL    HW223529   4.003   1.180   5.578
 7544SOL     OW23530   6.608   2.262   3.389
 7544SOL    HW123531   6.703   2.283   3.365
 7544SOL    HW223532   6.583   2.310   3.474
 7545SOL     OW23533   0.542   5.632   6.823
 7545SOL    HW123534   0.605   5.563   6.788
 7545SOL    HW223535   0.466   5.643   6.759
 7546SOL     OW23536   4.283   1.917   1.409
 7546SOL    HW123537   4.312   1.844   1.347
 7546SOL    HW223538   4.247   1.876   1.493
 7547SOL     OW23539   5.284   1.644   0.312
 7547SOL    HW123540   5.222   1.723   0.314
 7547SOL    HW223541   5.358   1.662   0.248
 7548SOL     OW23542   4.129   2.223   0.202
 7548SOL    HW123543   4.055   2.179   0.252
 7548SOL    HW223544   4.207   2.160   0.196
 7549SOL     OW23545   3.054   2.582   6.854
 7549SOL    HW123546   3.025   2.618   6.942
 7549SOL    HW223547   2.986   2.517   6.820
 7550SOL     OW23548   2.001   4.914   3.902
 7550SOL    HW123549   1.938   4.926   3.826
 7550SOL    HW223550   2.029   4.818   3.908
 7551SOL     OW23551   5.568   3.054   5.295
 7551SOL    HW123552   5.612   2.988   5.356
 7551SOL    HW223553   5.521   3.005   5.221
 7552SOL     OW23554   1.373   6.260   2.809
 7552SOL    HW123555   1.469   6.261   2.837
 7552SOL    HW223556   1.324   6.191   2.862
 7553SOL     OW23557   3.865   6.801   5.507
 7553SOL    HW123558   3.855   6.753   5.420
 7553SOL    HW223559   3.924   6.748   5.568
 7554SOL     OW23560   5.223   0.695   6.583
 7554SOL    HW123561   5.249   0.710   6.678
 7554SOL    HW223562   5.147   0.755   6.559
 7555SOL     OW23563   2.739   5.135   6.515
 7555SOL    HW123564   2.815   5.132   6.580
 7555SOL    HW223565   2.731   5.227   6.477
 7556SOL     OW23566   2.561   2.658   0.791
 7556SOL    HW123567   2.533   2.582   0.850
 7556SOL    HW223568   2.540   2.635   0.696
 7557SOL     OW23569   5.721   0.375   6.089
 7557SOL    HW123570   5.733   0.344   6.183
 7557SOL    HW223571   5.717   0.297   6.027
 7558SOL     OW23572   1.852   2.637   5.068
 7558SOL    HW123573   1.914   2.570   5.028
 7558SOL    HW223574   1.884   2.729   5.046
 7559SOL     OW23575   4.202   3.633   0.458
 7559SOL    HW123576   4.284   3.575   0.460
 7559SOL    HW223577   4.149   3.619   0.542
 7560SOL     OW23578   4.685   6.735   1.023
 7560SOL    HW123579   4.634   6.809   1.067
 7560SOL    HW223580   4.625   6.686   0.959
 7561SOL     OW23581   0.976   3.065   6.354
 7561SOL    HW123582   1.059   3.104   6.313
 7561SOL    HW223583   0.908   3.137   6.365
 7562SOL     OW23584   0.778   5.821   5.247
 7562SOL    HW123585   0.704   5.885   5.265
 7562SOL    HW223586   0.848   5.866   5.191
 7563SOL     OW23587   3.148   6.961   1.343
 7563SOL    HW123588   3.054   6.927   1.333
 7563SOL    HW223589   3.167   0.012   1.271
 7564SOL     OW23590   3.996   0.134   3.924
 7564SOL    HW123591   4.012   0.141   4.022
 7564SOL    HW223592   4.022   0.219   3.879
 7565SOL     OW23593   5.650   3.314   6.462
 7565SOL    HW123594   5.574   3.378   6.447
 7565SOL    HW223595   5.677   3.275   6.374
 7566SOL     OW23596   6.481   4.603   2.739
 7566SOL    HW123597   6.522   4.629   2.652
 7566SOL    HW223598   6.409   4.535   2.724
 7567SOL     OW23599   1.837   1.331   5.231
 7567SOL    HW123600   1.886   1.413   5.202
 7567SOL    HW223601   1.858   1.312   5.327
 7568SOL     OW23602   5.383   5.173   2.676
 7568SOL    HW123603   5.397   5.256   2.729
 7568SOL    HW223604   5.465   5.116   2.680
 7569SOL     OW23605   3.625   4.570   5.988
 7569SOL    HW123606   3.672   4.594   6.073
 7569SOL    HW223607   3.672   4.611   5.910
 7570SOL     OW23608   5.033   4.302   5.057
 7570SOL    HW123609   5.006   4.398   5.050
 7570SOL    HW223610   4.988   4.249   4.985
 7571SOL     OW23611   4.481   4.488   3.315
 7571SOL    HW123612   4.542   4.466   3.238
 7571SOL    HW223613   4.530   4.471   3.401
 7572SOL     OW23614   4.477   0.988   1.875
 7572SOL    HW123615   4.461   0.951   1.783
 7572SOL    HW223616   4.438   0.926   1.943
 7573SOL     OW23617   0.312   6.909   5.257
 7573SOL    HW123618   0.384   6.967   5.218
 7573SOL    HW223619   0.284   6.946   5.345
 7574SOL     OW23620   4.957   0.527   5.396
 7574SOL    HW123621   5.007   0.590   5.336
 7574SOL    HW223622   5.016   0.449   5.418
 7575SOL     OW23623   5.561   0.376   6.709
 7575SOL    HW123624   5.624   0.299   6.718
 7575SOL    HW223625   5.468   0.342   6.700
 7576SOL     OW23626   5.325   3.347   0.442
 7576SOL    HW123627   5.384   3.281   0.490
 7576SOL    HW223628   5.230   3.322   0.457
 7577SOL     OW23629   0.590   6.578   6.555
 7577SOL    HW123630   0.669   6.528   6.591
 7577SOL    HW223631   0.526   6.596   6.630
 7578SOL     OW23632   3.215   5.364   2.209
 7578SOL    HW123633   3.219   5.372   2.309
 7578SOL    HW223634   3.304   5.336   2.174
 7579SOL     OW23635   0.087   0.811   2.295
 7579SOL    HW123636   0.133   0.900   2.293
 7579SOL    HW223637   0.143   0.746   2.346
 7580SOL     OW23638   0.726   4.083   4.181
 7580SOL    HW123639   0.732   4.064   4.279
 7580SOL    HW223640   0.818   4.086   4.142
 7581SOL     OW23641   0.022   2.078   1.610
 7581SOL    HW123642   0.057   2.115   1.696
 7581SOL    HW223643   0.061   1.988   1.594
 7582SOL     OW23644   3.561   0.940   2.706
 7582SOL    HW123645   3.510   1.019   2.671
 7582SOL    HW223646   3.581   0.953   2.803
 7583SOL     OW23647   5.274   2.771   2.274
 7583SOL    HW123648   5.291   2.681   2.234
 7583SOL    HW223649   5.242   2.833   2.203
 7584SOL     OW23650   3.248   0.653   3.054
 7584SOL    HW123651   3.293   0.712   2.986
 7584SOL    HW223652   3.230   0.706   3.137
 7585SOL     OW23653   1.733   2.652   6.553
 7585SOL    HW123654   1.815   2.702   6.526
 7585SOL    HW223655   1.759   2.565   6.594
 7586SOL     OW23656   2.556   6.918   3.958
 7586SOL    HW123657   2.459   6.944   3.963
 7586SOL    HW223658   2.569   6.855   3.882
 7587SOL     OW23659   2.174   1.945   6.869
 7587SOL    HW123660   2.104   1.940   6.797
 7587SOL    HW223661   2.173   2.037   6.909
 7588SOL     OW23662   1.671   2.501   3.990
 7588SOL    HW123663   1.763   2.463   3.977
 7588SOL    HW223664   1.633   2.469   4.076
 7589SOL     OW23665   0.288   0.212   2.221
 7589SOL    HW123666   0.380   0.174   2.225
 7589SOL    HW223667   0.234   0.179   2.299
 7590SOL     OW23668   4.203   2.143   6.564
 7590SOL    HW123669   4.223   2.047   6.580
 7590SOL    HW223670   4.165   2.155   6.472
 7591SOL     OW23671   5.748   4.376   0.706
 7591SOL    HW123672   5.843   4.367   0.677
 7591SOL    HW223673   5.690   4.395   0.627
 7592SOL     OW23674   6.176   5.963   5.066
 7592SOL    HW123675   6.134   5.902   5.134
 7592SOL    HW223676   6.113   5.975   4.990
 7593SOL     OW23677   6.731   2.975   0.184
 7593SOL    HW123678   6.736   3.051   0.249
 7593SOL    HW223679   6.822   2.957   0.146
 7594SOL     OW23680   1.821   4.464   2.317
 7594SOL    HW123681   1.900   4.401   2.318
 7594SOL    HW223682   1.737   4.410   2.309
 7595SOL     OW23683   6.170   2.994   5.955
 7595SOL    HW123684   6.091   3.048   5.986
 7595SOL    HW223685   6.236   2.985   6.030
 7596SOL     OW23686   3.722   5.996   3.870
 7596SOL    HW123687   3.643   5.937   3.885
 7596SOL    HW223688   3.803   5.955   3.912
 7597SOL     OW23689   1.427   6.556   3.197
 7597SOL    HW123690   1.512   6.523   3.238
 7597SOL    HW223691   1.351   6.501   3.232
 7598SOL     OW23692   6.295   0.820   3.062
 7598SOL    HW123693   6.355   0.812   3.141
 7598SOL    HW223694   6.202   0.844   3.092
 7599SOL     OW23695   5.134   2.165   2.507
 7599SOL    HW123696   5.118   2.136   2.413
 7599SOL    HW223697   5.110   2.262   2.517
 7600SOL     OW23698   1.211   1.719   3.411
 7600SOL    HW123699   1.183   1.808   3.375
 7600SOL    HW223700   1.282   1.732   3.481
 7601SOL     OW23701   2.357   4.757   2.158
 7601SOL    HW123702   2.360   4.838   2.217
 7601SOL    HW223703   2.359   4.785   2.062
 7602SOL     OW23704   2.202   3.739   0.064
 7602SOL    HW123705   2.145   3.817   0.040
 7602SOL    HW223706   2.147   3.671   0.114
 7603SOL     OW23707   1.763   5.806   6.434
 7603SOL    HW123708   1.781   5.902   6.456
 7603SOL    HW223709   1.753   5.754   6.519
 7604SOL     OW23710   1.935   3.225   4.142
 7604SOL    HW123711   1.884   3.277   4.074
 7604SOL    HW223712   2.032   3.222   4.116
 7605SOL     OW23713   0.758   1.052   1.116
 7605SOL    HW123714   0.659   1.061   1.123
 7605SOL    HW223715   0.802   1.133   1.156
 7606SOL     OW23716   6.045   3.342   4.751
 7606SOL    HW123717   6.024   3.261   4.805
 7606SOL    HW223718   5.976   3.412   4.768
 7607SOL     OW23719   3.408   5.045   0.645
 7607SOL    HW123720   3.412   5.134   0.689
 7607SOL    HW223721   3.333   5.044   0.578
 7608SOL     OW23722   4.044   3.788   1.293
 7608SOL    HW123723   4.000   3.698   1.286
 7608SOL    HW223724   4.101   3.790   1.375
 7609SOL     OW23725   1.789   3.116   4.620
 7609SOL    HW123726   1.805   3.165   4.533
 7609SOL    HW223727   1.859   3.142   4.686
 7610SOL     OW23728   4.263   4.277   6.571
 7610SOL    HW123729   4.171   4.313   6.557
 7610SOL    HW223730   4.328   4.330   6.518
 7611SOL     OW23731   5.426   3.807   1.898
 7611SOL    HW123732   5.502   3.863   1.931
 7611SOL    HW223733   5.462   3.717   1.869
 7612SOL     OW23734   4.897   3.152   2.452
 7612SOL    HW123735   4.872   3.090   2.526
 7612SOL    HW223736   4.883   3.106   2.364
 7613SOL     OW23737   0.384   2.270   0.789
 7613SOL    HW123738   0.340   2.328   0.720
 7613SOL    HW223739   0.470   2.234   0.752
 7614SOL     OW23740   5.434   2.935   0.822
 7614SOL    HW123741   5.367   2.870   0.786
 7614SOL    HW223742   5.396   3.027   0.823
 7615SOL     OW23743   4.295   4.419   0.034
 7615SOL    HW123744   4.393   4.438   0.039
 7615SOL    HW223745   4.277   4.354   6.976
 7616SOL     OW23746   6.109   6.628   4.692
 7616SOL    HW123747   6.100   6.585   4.782
 7616SOL    HW223748   6.202   6.663   4.680
 7617SOL     OW23749   3.262   6.337   3.712
 7617SOL    HW123750   3.238   6.243   3.736
 7617SOL    HW223751   3.206   6.400   3.767
 7618SOL     OW23752   0.059   2.425   6.040
 7618SOL    HW123753   0.007   2.459   5.961
 7618SOL    HW223754   0.151   2.400   6.011
 7619SOL     OW23755   6.419   3.038   4.644
 7619SOL    HW123756   6.345   3.102   4.622
 7619SOL    HW223757   6.440   3.044   4.741
 7620SOL     OW23758   3.948   5.595   1.603
 7620SOL    HW123759   3.853   5.592   1.635
 7620SOL    HW223760   3.978   5.690   1.596
 7621SOL     OW23761   6.657   0.875   0.687
 7621SOL    HW123762   6.682   0.967   0.718
 7621SOL    HW223763   6.736   0.833   0.643
 7622SOL     OW23764   4.152   5.136   6.793
 7622SOL    HW123765   4.090   5.183   6.729
 7622SOL    HW223766   4.203   5.066   6.744
 7623SOL     OW23767   4.692   4.116   6.903
 7623SOL    HW123768   4.754   4.038   6.910
 7623SOL    HW223769   4.655   4.121   6.810
 7624SOL     OW23770   6.439   3.866   4.829
 7624SOL    HW123771   6.451   3.817   4.915
 7624SOL    HW223772   6.384   3.811   4.767
 7625SOL     OW23773   5.214   0.751   6.879
 7625SOL    HW123774   5.257   0.841   6.880
 7625SOL    HW223775   5.116   0.759   6.895
 7626SOL     OW23776   6.636   0.128   5.102
 7626SOL    HW123777   6.638   0.194   5.028
 7626SOL    HW223778   6.578   0.051   5.076
 7627SOL     OW23779   4.065   3.197   0.533
 7627SOL    HW123780   4.116   3.111   0.538
 7627SOL    HW223781   4.057   3.225   0.437
 7628SOL     OW23782   3.362   2.793   1.818
 7628SOL    HW123783   3.460   2.772   1.829
 7628SOL    HW223784   3.322   2.812   1.907
 7629SOL     OW23785   0.089   4.668   3.733
 7629SOL    HW123786   0.121   4.702   3.644
 7629SOL    HW223787   0.001   4.622   3.721
 7630SOL     OW23788   0.830   0.370   0.915
 7630SOL    HW123789   0.906   0.349   0.854
 7630SOL    HW223790   0.859   0.436   0.984
 7631SOL     OW23791   0.797   1.997   6.414
 7631SOL    HW123792   0.765   2.090   6.393
 7631SOL    HW223793   0.892   1.987   6.384
 7632SOL     OW23794   4.957   3.946   0.970
 7632SOL    HW123795   4.996   4.004   1.041
 7632SOL    HW223796   4.941   4.001   0.888
 7633SOL     OW23797   5.571   0.460   2.016
 7633SOL    HW123798   5.550   0.557   2.007
 7633SOL    HW223799   5.505   0.417   2.078
 7634SOL     OW23800   2.054   1.423   2.194
 7634SOL    HW123801   2.123   1.458   2.258
 7634SOL    HW223802   1.963   1.447   2.228
 7635SOL     OW23803   3.222   4.882   5.050
 7635SOL    HW123804   3.199   4.797   5.002
 7635SOL    HW223805   3.243   4.862   5.146
 7636SOL     OW23806   1.867   2.981   4.211
 7636SOL    HW123807   1.892   3.075   4.189
 7636SOL    HW223808   1.906   2.956   4.299
 7637SOL     OW23809   2.793   6.178   2.462
 7637SOL    HW123810   2.696   6.179   2.437
 7637SOL    HW223811   2.806   6.229   2.547
 7638SOL     OW23812   2.176   5.752   1.256
 7638SOL    HW123813   2.093   5.731   1.206
 7638SOL    HW223814   2.195   5.850   1.252
 7639SOL     OW23815   0.327   1.175   0.704
 7639SOL    HW123816   0.245   1.119   0.696
 7639SOL    HW223817   0.394   1.147   0.636
 7640SOL     OW23818   2.950   1.143   5.848
 7640SOL    HW123819   2.912   1.117   5.759
 7640SOL    HW223820   2.941   1.066   5.912
 7641SOL     OW23821   1.210   3.444   2.541
 7641SOL    HW123822   1.204   3.390   2.457
 7641SOL    HW223823   1.143   3.410   2.607
 7642SOL     OW23824   3.198   1.725   2.929
 7642SOL    HW123825   3.283   1.762   2.965
 7642SOL    HW223826   3.161   1.786   2.859
 7643SOL     OW23827   4.929   2.173   3.128
 7643SOL    HW123828   4.847   2.222   3.160
 7643SOL    HW223829   5.011   2.221   3.159
 7644SOL     OW23830   4.564   2.415   2.003
 7644SOL    HW123831   4.527   2.398   2.095
 7644SOL    HW223832   4.581   2.513   1.992
 7645SOL     OW23833   5.204   3.956   5.672
 7645SOL    HW123834   5.139   3.917   5.607
 7645SOL    HW223835   5.168   3.945   5.765
 7646SOL     OW23836   1.540   2.701   4.461
 7646SOL    HW123837   1.527   2.653   4.548
 7646SOL    HW223838   1.503   2.794   4.468
 7647SOL     OW23839   0.102   2.620   3.976
 7647SOL    HW123840   0.091   2.626   4.075
 7647SOL    HW223841   0.014   2.637   3.932
 7648SOL     OW23842   2.483   1.623   2.564
 7648SOL    HW123843   2.526   1.649   2.477
 7648SOL    HW223844   2.428   1.699   2.598
 7649SOL     OW23845   1.242   0.895   3.372
 7649SOL    HW123846   1.294   0.957   3.430
 7649SOL    HW223847   1.260   0.801   3.398
 7650SOL     OW23848   5.631   0.527   0.387
 7650SOL    HW123849   5.625   0.615   0.434
 7650SOL    HW223850   5.724   0.515   0.350
 7651SOL     OW23851   2.098   0.612   4.437
 7651SOL    HW123852   2.042   0.533   4.463
 7651SOL    HW223853   2.144   0.593   4.350
 7652SOL     OW23854   5.678   2.803   4.588
 7652SOL    HW123855   5.616   2.830   4.661
 7652SOL    HW223856   5.626   2.768   4.510
 7653SOL     OW23857   0.623   1.952   0.230
 7653SOL    HW123858   0.666   1.868   0.263
 7653SOL    HW223859   0.526   1.951   0.255
 7654SOL     OW23860   4.891   3.173   4.450
 7654SOL    HW123861   4.829   3.196   4.525
 7654SOL    HW223862   4.976   3.135   4.488
 7655SOL     OW23863   4.288   6.331   3.390
 7655SOL    HW123864   4.250   6.367   3.305
 7655SOL    HW223865   4.266   6.233   3.398
 7656SOL     OW23866   3.856   3.846   0.134
 7656SOL    HW123867   3.827   3.863   0.040
 7656SOL    HW223868   3.776   3.829   0.191
 7657SOL     OW23869   1.383   2.100   3.589
 7657SOL    HW123870   1.431   2.187   3.601
 7657SOL    HW223871   1.441   2.025   3.620
 7658SOL     OW23872   2.891   0.375   6.969
 7658SOL    HW123873   2.867   0.463   7.009
 7658SOL    HW223874   2.845   0.364   6.881
 7659SOL     OW23875   5.602   4.864   6.537
 7659SOL    HW123876   5.555   4.779   6.515
 7659SOL    HW223877   5.666   4.887   6.463
 7660SOL     OW23878   6.952   5.531   3.581
 7660SOL    HW123879   6.877   5.485   3.533
 7660SOL    HW223880   0.022   5.485   3.559
 7661SOL     OW23881   5.625   2.243   5.168
 7661SOL    HW123882   5.724   2.231   5.166
 7661SOL    HW223883   5.582   2.158   5.201
 7662SOL     OW23884   1.578   3.262   4.682
 7662SOL    HW123885   1.647   3.194   4.656
 7662SOL    HW223886   1.541   3.304   4.599
 7663SOL     OW23887   6.318   4.500   6.522
 7663SOL    HW123888   6.340   4.527   6.616
 7663SOL    HW223889   6.219   4.504   6.508
 7664SOL     OW23890   4.328   0.809   1.666
 7664SOL    HW123891   4.236   0.796   1.702
 7664SOL    HW223892   4.326   0.879   1.594
 7665SOL     OW23893   6.159   0.679   5.088
 7665SOL    HW123894   6.175   0.733   5.005
 7665SOL    HW223895   6.247   0.657   5.130
 7666SOL     OW23896   0.595   4.847   2.651
 7666SOL    HW123897   0.667   4.818   2.714
 7666SOL    HW223898   0.580   4.775   2.583
 7667SOL     OW23899   4.307   0.224   2.667
 7667SOL    HW123900   4.259   0.302   2.626
 7667SOL    HW223901   4.240   0.167   2.715
 7668SOL     OW23902   2.972   5.147   0.557
 7668SOL    HW123903   2.900   5.176   0.494
 7668SOL    HW223904   2.996   5.222   0.618
 7669SOL     OW23905   4.677   1.203   5.364
 7669SOL    HW123906   4.674   1.120   5.307
 7669SOL    HW223907   4.708   1.280   5.309
 7670SOL     OW23908   0.308   4.977   0.751
 7670SOL    HW123909   0.309   5.033   0.668
 7670SOL    HW223910   0.257   4.893   0.733
 7671SOL     OW23911   3.762   1.222   2.480
 7671SOL    HW123912   3.698   1.297   2.461
 7671SOL    HW223913   3.712   1.143   2.516
 7672SOL     OW23914   6.794   5.954   2.968
 7672SOL    HW123915   6.752   6.018   3.032
 7672SOL    HW223916   6.788   5.991   2.875
 7673SOL     OW23917   1.885   6.136   1.480
 7673SOL    HW123918   1.925   6.213   1.430
 7673SOL    HW223919   1.948   6.106   1.551
 7674SOL     OW23920   5.195   1.341   3.871
 7674SOL    HW123921   5.238   1.289   3.798
 7674SOL    HW223922   5.216   1.438   3.859
 7675SOL     OW23923   6.268   6.686   2.771
 7675SOL    HW123924   6.335   6.672   2.844
 7675SOL    HW223925   6.199   6.751   2.801
 7676SOL     OW23926   2.054   2.101   0.467
 7676SOL    HW123927   2.019   2.063   0.553
 7676SOL    HW223928   2.080   2.197   0.482
 7677SOL     OW23929   0.606   4.249   1.746
 7677SOL    HW123930   0.692   4.240   1.696
 7677SOL    HW223931   0.556   4.329   1.714
 7678SOL     OW23932   2.474   2.791   5.279
 7678SOL    HW123933   2.401   2.777   5.213
 7678SOL    HW223934   2.510   2.884   5.271
 7679SOL     OW23935   3.066   6.795   5.977
 7679SOL    HW123936   3.081   6.703   5.941
 7679SOL    HW223937   2.974   6.801   6.016
 7680SOL     OW23938   1.382   0.664   1.075
 7680SOL    HW123939   1.388   0.720   0.992
 7680SOL    HW223940   1.369   0.568   1.049
 7681SOL     OW23941   3.197   0.346   0.929
 7681SOL    HW123942   3.119   0.304   0.975
 7681SOL    HW223943   3.215   0.436   0.968
 7682SOL     OW23944   4.066   6.892   2.478
 7682SOL    HW123945   4.126   6.813   2.489
 7682SOL    HW223946   4.121   6.974   2.467
 7683SOL     OW23947   6.994   1.832   5.382
 7683SOL    HW123948   7.014   1.905   5.447
 7683SOL    HW223949   0.041   1.840   5.304
 7684SOL     OW23950   4.148   1.648   0.953
 7684SOL    HW123951   4.074   1.581   0.946
 7684SOL    HW223952   4.136   1.702   1.037
 7685SOL     OW23953   2.689   1.255   5.634
 7685SOL    HW123954   2.625   1.259   5.557
 7685SOL    HW223955   2.752   1.178   5.622
 7686SOL     OW23956   6.825   6.594   3.422
 7686SOL    HW123957   6.811   6.529   3.497
 7686SOL    HW223958   6.902   6.564   3.366
 7687SOL     OW23959   6.175   5.621   4.752
 7687SOL    HW123960   6.173   5.709   4.706
 7687SOL    HW223961   6.267   5.604   4.787
 7688SOL     OW23962   0.813   5.811   5.807
 7688SOL    HW123963   0.742   5.875   5.835
 7688SOL    HW223964   0.775   5.746   5.741
 7689SOL     OW23965   6.003   6.661   2.528
 7689SOL    HW123966   6.081   6.599   2.515
 7689SOL    HW223967   5.941   6.654   2.450
 7690SOL     OW23968   5.817   5.216   0.078
 7690SOL    HW123969   5.827   5.267   0.163
 7690SOL    HW223970   5.733   5.245   0.032
 7691SOL     OW23971   5.179   3.827   3.123
 7691SOL    HW123972   5.203   3.740   3.079
 7691SOL    HW223973   5.175   3.899   3.055
 7692SOL     OW23974   0.832   6.393   1.824
 7692SOL    HW123975   0.799   6.307   1.785
 7692SOL    HW223976   0.843   6.461   1.751
 7693SOL     OW23977   3.283   0.523   1.748
 7693SOL    HW123978   3.287   0.586   1.825
 7693SOL    HW223979   3.361   0.460   1.751
 7694SOL     OW23980   5.310   3.759   3.583
 7694SOL    HW123981   5.239   3.775   3.514
 7694SOL    HW223982   5.324   3.661   3.594
 7695SOL     OW23983   4.638   0.142   1.312
 7695SOL    HW123984   4.723   0.101   1.346
 7695SOL    HW223985   4.590   0.186   1.388
 7696SOL     OW23986   0.476   1.496   6.193
 7696SOL    HW123987   0.414   1.419   6.208
 7696SOL    HW223988   0.440   1.577   6.238
 7697SOL     OW23989   3.000   6.754   3.589
 7697SOL    HW123990   3.024   6.673   3.642
 7697SOL    HW223991   2.954   6.820   3.649
 7698SOL     OW23992   5.406   1.556   3.810
 7698SOL    HW123993   5.471   1.514   3.873
 7698SOL    HW223994   5.455   1.620   3.751
 7699SOL     OW23995   3.152   6.284   5.794
 7699SOL    HW123996   3.065   6.268   5.749
 7699SOL    HW223997   3.178   6.202   5.846
 7700SOL     OW23998   4.327   5.787   3.207
 7700SOL    HW123999   4.239   5.817   3.172
 7700SOL    HW224000   4.314   5.740   3.294
 7701SOL     OW24001   6.513   2.398   6.380
 7701SOL    HW124002   6.534   2.479   6.434
 7701SOL    HW224003   6.564   2.401   6.294
 7702SOL     OW24004   4.384   6.126   5.043
 7702SOL    HW124005   4.353   6.079   4.960
 7702SOL    HW224006   4.446   6.200   5.017
 7703SOL     OW24007   5.682   6.238   6.437
 7703SOL    HW124008   5.626   6.252   6.355
 7703SOL    HW224009   5.775   6.213   6.409
 7704SOL     OW24010   5.954   0.605   3.605
 7704SOL    HW124011   5.921   0.672   3.671
 7704SOL    HW224012   5.902   0.614   3.520
 7705SOL     OW24013   2.384   6.011   0.655
 7705SOL    HW124014   2.419   6.044   0.743
 7705SOL    HW224015   2.387   6.085   0.588
 7706SOL     OW24016   3.402   3.295   4.532
 7706SOL    HW124017   3.415   3.329   4.439
 7706SOL    HW224018   3.380   3.371   4.592
 7707SOL     OW24019   0.265   3.818   5.997
 7707SOL    HW124020   0.276   3.917   5.986
 7707SOL    HW224021   0.272   3.794   6.094
 7708SOL     OW24022   0.982   6.431   5.837
 7708SOL    HW124023   0.936   6.350   5.871
 7708SOL    HW224024   0.984   6.501   5.908
 7709SOL     OW24025   6.720   4.771   1.857
 7709SOL    HW124026   6.702   4.731   1.947
 7709SOL    HW224027   6.749   4.699   1.793
 7710SOL     OW24028   2.837   2.241   0.194
 7710SOL    HW124029   2.900   2.278   0.125
 7710SOL    HW224030   2.809   2.149   0.167
 7711SOL     OW24031   5.938   5.957   5.813
 7711SOL    HW124032   5.873   6.012   5.866
 7711SOL    HW224033   6.017   5.934   5.870
 7712SOL     OW24034   6.094   5.065   1.157
 7712SOL    HW124035   6.168   5.007   1.191
 7712SOL    HW224036   6.117   5.099   1.066
 7713SOL     OW24037   1.665   4.480   0.745
 7713SOL    HW124038   1.744   4.536   0.772
 7713SOL    HW224039   1.664   4.470   0.646
 7714SOL     OW24040   0.054   4.504   5.846
 7714SOL    HW124041   0.096   4.595   5.843
 7714SOL    HW224042   0.028   4.476   5.754
 7715SOL     OW24043   2.499   2.186   0.064
 7715SOL    HW124044   2.524   2.275   0.026
 7715SOL    HW224045   2.429   2.198   0.134
 7716SOL     OW24046   6.917   4.427   0.966
 7716SOL    HW124047   6.866   4.394   1.046
 7716SOL    HW224048   6.859   4.419   0.884
 7717SOL     OW24049   1.189   1.092   5.564
 7717SOL    HW124050   1.195   1.165   5.632
 7717SOL    HW224051   1.218   1.006   5.606
 7718SOL     OW24052   6.680   3.974   3.364
 7718SOL    HW124053   6.737   3.896   3.388
 7718SOL    HW224054   6.660   4.027   3.446
 7719SOL     OW24055   6.962   4.060   4.888
 7719SOL    HW124056   6.995   4.113   4.966
 7719SOL    HW224057   0.023   4.013   4.845
 7720SOL     OW24058   6.013   2.766   6.596
 7720SOL    HW124059   5.974   2.689   6.645
 7720SOL    HW224060   5.959   2.848   6.613
 7721SOL     OW24061   0.465   5.145   2.418
 7721SOL    HW124062   0.494   5.051   2.437
 7721SOL    HW224063   0.471   5.163   2.320
 7722SOL     OW24064   1.055   4.356   3.599
 7722SOL    HW124065   1.053   4.456   3.596
 7722SOL    HW224066   1.010   4.320   3.517
 7723SOL     OW24067   4.117   2.924   6.828
 7723SOL    HW124068   4.074   2.901   6.916
 7723SOL    HW224069   4.125   2.841   6.773
 7724SOL     OW24070   2.681   3.861   1.066
 7724SOL    HW124071   2.608   3.854   1.134
 7724SOL    HW224072   2.662   3.798   0.991
 7725SOL     OW24073   5.803   1.288   2.772
 7725SOL    HW124074   5.708   1.321   2.772
 7725SOL    HW224075   5.853   1.330   2.696
 7726SOL     OW24076   1.804   5.336   5.957
 7726SOL    HW124077   1.777   5.409   5.894
 7726SOL    HW224078   1.777   5.248   5.918
 7727SOL     OW24079   6.431   2.815   2.220
 7727SOL    HW124080   6.364   2.889   2.211
 7727SOL    HW224081   6.445   2.773   2.130
 7728SOL     OW24082   2.226   2.770   5.120
 7728SOL    HW124083   2.127   2.785   5.125
 7728SOL    HW224084   2.268   2.843   5.066
 7729SOL     OW24085   5.995   1.601   1.391
 7729SOL    HW124086   5.984   1.546   1.307
 7729SOL    HW224087   5.969   1.695   1.372
 7730SOL     OW24088   6.194   5.000   6.487
 7730SOL    HW124089   6.168   4.903   6.484
 7730SOL    HW224090   6.293   5.007   6.476
 7731SOL     OW24091   5.745   0.442   0.738
 7731SOL    HW124092   5.833   0.485   0.761
 7731SOL    HW224093   5.671   0.495   0.779
 7732SOL     OW24094   4.210   0.097   0.379
 7732SOL    HW124095   4.205   0.014   0.323
 7732SOL    HW224096   4.305   0.120   0.396
 7733SOL     OW24097   5.472   6.011   2.025
 7733SOL    HW124098   5.377   6.000   2.053
 7733SOL    HW224099   5.481   6.089   1.963
 7734SOL     OW24100   1.574   4.958   4.176
 7734SOL    HW124101   1.492   4.996   4.132
 7734SOL    HW224102   1.609   5.023   4.243
 7735SOL     OW24103   4.676   6.268   6.398
 7735SOL    HW124104   4.698   6.250   6.302
 7735SOL    HW224105   4.731   6.344   6.432
 7736SOL     OW24106   2.057   3.125   6.935
 7736SOL    HW124107   2.028   3.030   6.925
 7736SOL    HW224108   2.113   3.151   6.857
 7737SOL     OW24109   3.331   0.319   2.645
 7737SOL    HW124110   3.311   0.366   2.731
 7737SOL    HW224111   3.412   0.262   2.656
 7738SOL     OW24112   3.588   5.198   0.405
 7738SOL    HW124113   3.558   5.111   0.368
 7738SOL    HW224114   3.509   5.251   0.436
 7739SOL     OW24115   0.681   2.696   1.948
 7739SOL    HW124116   0.650   2.791   1.952
 7739SOL    HW224117   0.603   2.635   1.967
 7740SOL     OW24118   2.994   0.936   3.031
 7740SOL    HW124119   3.034   0.879   2.959
 7740SOL    HW224120   3.067   0.987   3.076
 7741SOL     OW24121   6.862   4.791   5.573
 7741SOL    HW124122   6.781   4.733   5.583
 7741SOL    HW224123   6.871   4.850   5.653
 7742SOL     OW24124   4.271   2.334   3.133
 7742SOL    HW124125   4.338   2.408   3.124
 7742SOL    HW224126   4.242   2.327   3.228
 7743SOL     OW24127   4.422   2.207   6.989
 7743SOL    HW124128   4.504   2.263   6.994
 7743SOL    HW224129   4.394   2.180   0.066
 7744SOL     OW24130   0.988   0.858   4.357
 7744SOL    HW124131   1.036   0.880   4.272
 7744SOL    HW224132   1.043   0.795   4.411
 7745SOL     OW24133   3.508   1.100   6.953
 7745SOL    HW124134   3.432   1.038   6.970
 7745SOL    HW224135   3.590   1.046   6.932
 7746SOL     OW24136   0.951   0.760   0.475
 7746SOL    HW124137   0.919   0.723   0.563
 7746SOL    HW224138   0.931   0.694   0.402
 7747SOL     OW24139   5.893   6.533   1.231
 7747SOL    HW124140   5.835   6.519   1.151
 7747SOL    HW224141   5.967   6.596   1.208
 7748SOL     OW24142   2.974   3.629   4.062
 7748SOL    HW124143   3.050   3.673   4.013
 7748SOL    HW224144   2.991   3.531   4.068
 7749SOL     OW24145   3.461   3.275   5.063
 7749SOL    HW124146   3.429   3.207   5.129
 7749SOL    HW224147   3.383   3.315   5.015
 7750SOL     OW24148   6.835   5.920   0.229
 7750SOL    HW124149   6.784   5.884   0.150
 7750SOL    HW224150   6.779   5.988   0.277
 7751SOL     OW24151   1.455   2.837   2.685
 7751SOL    HW124152   1.401   2.774   2.629
 7751SOL    HW224153   1.475   2.919   2.632
 7752SOL     OW24154   5.665   6.855   6.020
 7752SOL    HW124155   5.695   6.945   5.989
 7752SOL    HW224156   5.642   6.859   6.118
 7753SOL     OW24157   2.348   0.375   4.042
 7753SOL    HW124158   2.434   0.407   4.081
 7753SOL    HW224159   2.367   0.310   3.969
 7754SOL     OW24160   4.891   6.928   1.993
 7754SOL    HW124161   4.806   6.954   1.948
 7754SOL    HW224162   4.938   6.860   1.938
 7755SOL     OW24163   1.319   2.417   5.935
 7755SOL    HW124164   1.301   2.325   5.970
 7755SOL    HW224165   1.314   2.416   5.835
 7756SOL     OW24166   3.687   5.226   2.295
 7756SOL    HW124167   3.708   5.220   2.393
 7756SOL    HW224168   3.595   5.191   2.278
 7757SOL     OW24169   5.646   5.394   4.803
 7757SOL    HW124170   5.629   5.456   4.879
 7757SOL    HW224171   5.693   5.444   4.730
 7758SOL     OW24172   1.192   1.642   6.979
 7758SOL    HW124173   1.192   1.737   6.947
 7758SOL    HW224174   1.125   1.632   0.037
 7759SOL     OW24175   1.113   1.951   5.410
 7759SOL    HW124176   1.018   1.935   5.436
 7759SOL    HW224177   1.140   1.886   5.338
 7760SOL     OW24178   5.573   3.354   2.894
 7760SOL    HW124179   5.478   3.328   2.908
 7760SOL    HW224180   5.633   3.279   2.920
 7761SOL     OW24181   1.140   6.870   6.236
 7761SOL    HW124182   1.175   6.777   6.229
 7761SOL    HW224183   1.062   6.881   6.174
 7762SOL     OW24184   4.605   0.684   4.139
 7762SOL    HW124185   4.670   0.609   4.135
 7762SOL    HW224186   4.626   0.750   4.067
 7763SOL     OW24187   1.565   1.484   0.292
 7763SOL    HW124188   1.522   1.569   0.263
 7763SOL    HW224189   1.527   1.455   0.380
 7764SOL     OW24190   3.635   2.996   3.196
 7764SOL    HW124191   3.701   3.046   3.252
 7764SOL    HW224192   3.586   2.930   3.252
 7765SOL     OW24193   6.081   2.209   3.953
 7765SOL    HW124194   5.991   2.169   3.936
 7765SOL    HW224195   6.071   2.289   4.012
 7766SOL     OW24196   5.603   2.402   0.040
 7766SOL    HW124197   5.532   2.375   6.991
 7766SOL    HW224198   5.672   2.329   0.045
 7767SOL     OW24199   4.276   6.044   3.657
 7767SOL    HW124200   4.342   6.120   3.657
 7767SOL    HW224201   4.196   6.069   3.712
 7768SOL     OW24202   4.333   4.657   2.418
 7768SOL    HW124203   4.335   4.666   2.517
 7768SOL    HW224204   4.239   4.670   2.385
 7769SOL     OW24205   4.714   2.912   2.899
 7769SOL    HW124206   4.705   2.828   2.844
 7769SOL    HW224207   4.678   2.895   2.991
 7770SOL     OW24208   1.601   4.192   2.081
 7770SOL    HW124209   1.602   4.238   1.991
 7770SOL    HW224210   1.519   4.136   2.089
 7771SOL     OW24211   3.329   2.122   5.234
 7771SOL    HW124212   3.283   2.211   5.234
 7771SOL    HW224213   3.316   2.078   5.323
 7772SOL     OW24214   5.349   0.579   2.690
 7772SOL    HW124215   5.296   0.523   2.754
 7772SOL    HW224216   5.303   0.668   2.678
 7773SOL     OW24217   2.387   5.616   4.550
 7773SOL    HW124218   2.366   5.566   4.466
 7773SOL    HW224219   2.348   5.568   4.629
 7774SOL     OW24220   5.526   1.751   6.179
 7774SOL    HW124221   5.521   1.669   6.121
 7774SOL    HW224222   5.435   1.774   6.213
 7775SOL     OW24223   4.514   6.347   2.003
 7775SOL    HW124224   4.586   6.304   2.057
 7775SOL    HW224225   4.453   6.397   2.064
 7776SOL     OW24226   1.724   4.797   0.376
 7776SOL    HW124227   1.817   4.822   0.350
 7776SOL    HW224228   1.673   4.766   0.296
 7777SOL     OW24229   1.086   0.360   4.572
 7777SOL    HW124230   1.161   0.348   4.637
 7777SOL    HW224231   1.061   0.271   4.534
 7778SOL     OW24232   4.933   4.178   0.718
 7778SOL    HW124233   4.934   4.194   0.619
 7778SOL    HW224234   5.027   4.173   0.752
 7779SOL     OW24235   3.028   2.447   1.134
 7779SOL    HW124236   2.969   2.442   1.053
 7779SOL    HW224237   2.972   2.437   1.216
 7780SOL     OW24238   1.020   4.801   5.594
 7780SOL    HW124239   1.094   4.746   5.633
 7780SOL    HW224240   0.966   4.843   5.667
 7781SOL     OW24241   1.078   4.853   0.241
 7781SOL    HW124242   1.142   4.905   0.297
 7781SOL    HW224243   0.984   4.877   0.266
 7782SOL     OW24244   6.837   4.674   4.889
 7782SOL    HW124245   6.926   4.693   4.848
 7782SOL    HW224246   6.785   4.614   4.829
 7783SOL     OW24247   0.696   5.848   4.474
 7783SOL    HW124248   0.686   5.947   4.485
 7783SOL    HW224249   0.764   5.829   4.403
 7784SOL     OW24250   3.254   3.147   1.415
 7784SOL    HW124251   3.241   3.117   1.510
 7784SOL    HW224252   3.296   3.073   1.362
 7785SOL     OW24253   1.435   5.926   3.925
 7785SOL    HW124254   1.428   5.827   3.936
 7785SOL    HW224255   1.524   5.949   3.885
 7786SOL     OW24256   2.900   6.419   6.586
 7786SOL    HW124257   2.840   6.488   6.545
 7786SOL    HW224258   2.925   6.448   6.678
 7787SOL     OW24259   2.337   2.513   6.359
 7787SOL    HW124260   2.239   2.497   6.350
 7787SOL    HW224261   2.363   2.593   6.304
 7788SOL     OW24262   2.342   5.305   1.501
 7788SOL    HW124263   2.358   5.347   1.590
 7788SOL    HW224264   2.294   5.371   1.442
 7789SOL     OW24265   2.036   6.540   6.212
 7789SOL    HW124266   2.002   6.619   6.264
 7789SOL    HW224267   2.116   6.502   6.258
 7790SOL     OW24268   5.345   5.437   3.364
 7790SOL    HW124269   5.399   5.405   3.442
 7790SOL    HW224270   5.256   5.469   3.396
 7791SOL     OW24271   2.514   6.049   3.758
 7791SOL    HW124272   2.543   6.062   3.663
 7791SOL    HW224273   2.528   5.954   3.785
 7792SOL     OW24274   1.666   5.041   5.145
 7792SOL    HW124275   1.611   5.009   5.222
 7792SOL    HW224276   1.617   5.025   5.060
 7793SOL     OW24277   3.273   0.920   0.019
 7793SOL    HW124278   3.184   0.908   0.064
 7793SOL    HW224279   3.262   0.907   6.937
 7794SOL     OW24280   6.003   4.690   2.861
 7794SOL    HW124281   5.916   4.653   2.828
 7794SOL    HW224282   6.064   4.615   2.886
 7795SOL     OW24283   2.144   4.012   5.631
 7795SOL    HW124284   2.164   4.032   5.535
 7795SOL    HW224285   2.225   3.971   5.674
 7796SOL     OW24286   4.000   3.887   3.336
 7796SOL    HW124287   4.077   3.949   3.349
 7796SOL    HW224288   3.943   3.887   3.419
 7797SOL     OW24289   1.266   6.774   3.118
 7797SOL    HW124290   1.253   6.836   3.195
 7797SOL    HW224291   1.331   6.702   3.143
 7798SOL     OW24292   2.663   3.876   5.605
 7798SOL    HW124293   2.591   3.841   5.665
 7798SOL    HW224294   2.660   3.828   5.517
 7799SOL     OW24295   0.897   6.042   2.700
 7799SOL    HW124296   0.871   5.979   2.627
 7799SOL    HW224297   0.966   6.106   2.666
 7800SOL     OW24298   0.966   5.492   1.048
 7800SOL    HW124299   0.882   5.541   1.071
 7800SOL    HW224300   1.009   5.534   0.968
 7801SOL     OW24301   2.018   1.620   1.724
 7801SOL    HW124302   2.117   1.624   1.734
 7801SOL    HW224303   1.979   1.562   1.796
 7802SOL     OW24304   5.959   2.470   0.667
 7802SOL    HW124305   6.009   2.533   0.726
 7802SOL    HW224306   5.893   2.521   0.612
 7803SOL     OW24307   4.758   1.843   6.246
 7803SOL    HW124308   4.734   1.932   6.208
 7803SOL    HW224309   4.705   1.827   6.330
 7804SOL     OW24310   4.968   2.051   3.989
 7804SOL    HW124311   4.932   1.989   4.060
 7804SOL    HW224312   5.052   2.094   4.022
 7805SOL     OW24313   5.307   2.238   1.281
 7805SOL    HW124314   5.380   2.304   1.296
 7805SOL    HW224315   5.316   2.199   1.190
 7806SOL     OW24316   5.945   1.738   6.624
 7806SOL    HW124317   5.921   1.833   6.606
 7806SOL    HW224318   5.897   1.707   6.706
 7807SOL     OW24319   1.112   4.387   5.242
 7807SOL    HW124320   1.072   4.321   5.179
 7807SOL    HW224321   1.097   4.480   5.208
 7808SOL     OW24322   6.194   2.906   4.125
 7808SOL    HW124323   6.237   2.926   4.213
 7808SOL    HW224324   6.108   2.858   4.141
 7809SOL     OW24325   2.134   5.199   3.937
 7809SOL    HW124326   2.102   5.104   3.945
 7809SOL    HW224327   2.232   5.199   3.914
 7810SOL     OW24328   3.834   0.252   4.729
 7810SOL    HW124329   3.741   0.221   4.751
 7810SOL    HW224330   3.894   0.234   4.807
 7811SOL     OW24331   1.626   5.204   2.005
 7811SOL    HW124332   1.668   5.113   2.008
 7811SOL    HW224333   1.696   5.274   2.011
 7812SOL     OW24334   0.730   1.588   4.006
 7812SOL    HW124335   0.674   1.669   3.986
 7812SOL    HW224336   0.817   1.595   3.957
 7813SOL     OW24337   5.144   3.134   0.096
 7813SOL    HW124338   5.225   3.130   0.155
 7813SOL    HW224339   5.167   3.182   0.012
 7814SOL     OW24340   0.040   2.952   3.074
 7814SOL    HW124341   0.026   3.049   3.090
 7814SOL    HW224342   0.077   2.909   3.156
 7815SOL     OW24343   5.370   0.434   5.526
 7815SOL    HW124344   5.343   0.524   5.562
 7815SOL    HW224345   5.459   0.409   5.563
 7816SOL     OW24346   1.572   2.182   6.241
 7816SOL    HW124347   1.671   2.176   6.240
 7816SOL    HW224348   1.535   2.135   6.161
 7817SOL     OW24349   5.546   5.145   2.974
 7817SOL    HW124350   5.538   5.053   2.938
 7817SOL    HW224351   5.517   5.147   3.070
 7818SOL     OW24352   4.242   0.789   2.348
 7818SOL    HW124353   4.281   0.731   2.276
 7818SOL    HW224354   4.313   0.814   2.414
 7819SOL     OW24355   0.020   4.117   1.822
 7819SOL    HW124356   0.119   4.128   1.810
 7819SOL    HW224357   0.003   4.077   1.912
 7820SOL     OW24358   1.697   2.298   5.803
 7820SOL    HW124359   1.627   2.266   5.739
 7820SOL    HW224360   1.779   2.323   5.753
 7821SOL     OW24361   5.422   6.307   6.982
 7821SOL    HW124362   5.335   6.277   0.005
 7821SOL    HW224363   5.453   6.239   6.915
 7822SOL     OW24364   1.811   1.525   6.402
 7822SOL    HW124365   1.752   1.485   6.472
 7822SOL    HW224366   1.904   1.493   6.415
 7823SOL     OW24367   2.509   3.773   5.361
 7823SOL    HW124368   2.595   3.730   5.333
 7823SOL    HW224369   2.479   3.835   5.289
 7824SOL     OW24370   6.980   0.686   3.791
 7824SOL    HW124371   6.889   0.728   3.797
 7824SOL    HW224372   0.016   0.707   3.874
 7825SOL     OW24373   1.847   2.599   1.306
 7825SOL    HW124374   1.807   2.605   1.397
 7825SOL    HW224375   1.931   2.654   1.303
 7826SOL     OW24376   6.664   1.422   0.967
 7826SOL    HW124377   6.679   1.470   0.880
 7826SOL    HW224378   6.646   1.325   0.948
 7827SOL     OW24379   2.420   5.524   0.826
 7827SOL    HW124380   2.466   5.447   0.870
 7827SOL    HW224381   2.335   5.544   0.875
 7828SOL     OW24382   0.919   4.099   6.341
 7828SOL    HW124383   0.896   4.003   6.357
 7828SOL    HW224384   0.928   4.146   6.428
 7829SOL     OW24385   2.975   4.110   1.341
 7829SOL    HW124386   2.955   4.015   1.363
 7829SOL    HW224387   2.958   4.126   1.244
 7830SOL     OW24388   2.457   4.883   5.564
 7830SOL    HW124389   2.443   4.881   5.465
 7830SOL    HW224390   2.528   4.817   5.589
 7831SOL     OW24391   1.786   6.837   1.108
 7831SOL    HW124392   1.807   6.844   1.010
 7831SOL    HW224393   1.836   6.908   1.158
 7832SOL     OW24394   5.572   0.727   3.232
 7832SOL    HW124395   5.493   0.753   3.177
 7832SOL    HW224396   5.656   0.744   3.180
 7833SOL     OW24397   0.800   0.905   6.332
 7833SOL    HW124398   0.750   0.988   6.305
 7833SOL    HW224399   0.737   0.843   6.378
 7834SOL     OW24400   6.900   1.581   3.580
 7834SOL    HW124401   6.964   1.551   3.508
 7834SOL    HW224402   6.857   1.667   3.553
 7835SOL     OW24403   3.670   2.121   5.814
 7835SOL    HW124404   3.702   2.143   5.722
 7835SOL    HW224405   3.743   2.136   5.880
 7836SOL     OW24406   3.171   3.033   5.088
 7836SOL    HW124407   3.213   3.075   5.168
 7836SOL    HW224408   3.191   2.935   5.087
 7837SOL     OW24409   5.994   5.338   0.318
 7837SOL    HW124410   5.959   5.429   0.297
 7837SOL    HW224411   6.057   5.309   0.246
 7838SOL     OW24412   3.797   6.960   0.500
 7838SOL    HW124413   3.730   6.892   0.528
 7838SOL    HW224414   3.887   6.935   0.536
 7839SOL     OW24415   6.191   4.127   4.882
 7839SOL    HW124416   6.112   4.140   4.822
 7839SOL    HW224417   6.231   4.216   4.904
 7840SOL     OW24418   6.596   2.636   3.803
 7840SOL    HW124419   6.513   2.679   3.769
 7840SOL    HW224420   6.577   2.541   3.827
 7841SOL     OW24421   3.451   1.860   6.417
 7841SOL    HW124422   3.485   1.788   6.477
 7841SOL    HW224423   3.353   1.845   6.400
 7842SOL     OW24424   2.583   2.094   2.917
 7842SOL    HW124425   2.533   2.054   2.993
 7842SOL    HW224426   2.531   2.171   2.880
 7843SOL     OW24427   0.129   5.820   3.204
 7843SOL    HW124428   0.120   5.845   3.108
 7843SOL    HW224429   0.200   5.750   3.214
 7844SOL     OW24430   4.018   6.875   3.009
 7844SOL    HW124431   4.084   6.857   2.936
 7844SOL    HW224432   3.926   6.850   2.979
 7845SOL     OW24433   6.075   1.991   3.086
 7845SOL    HW124434   6.011   1.915   3.082
 7845SOL    HW224435   6.054   2.049   3.165
 7846SOL     OW24436   0.855   1.561   2.301
 7846SOL    HW124437   0.794   1.542   2.378
 7846SOL    HW224438   0.850   1.486   2.235
 7847SOL     OW24439   0.095   1.527   3.391
 7847SOL    HW124440   0.161   1.602   3.394
 7847SOL    HW224441   0.018   1.554   3.333
 7848SOL     OW24442   3.425   3.757   0.606
 7848SOL    HW124443   3.477   3.679   0.642
 7848SOL    HW224444   3.371   3.798   0.680
 7849SOL     OW24445   5.907   4.233   4.155
 7849SOL    HW124446   5.976   4.162   4.167
 7849SOL    HW224447   5.947   4.312   4.110
 7850SOL     OW24448   0.528   1.764   4.591
 7850SOL    HW124449   0.456   1.695   4.585
 7850SOL    HW224450   0.508   1.826   4.667
 7851SOL     OW24451   6.473   1.351   1.693
 7851SOL    HW124452   6.488   1.351   1.594
 7851SOL    HW224453   6.418   1.431   1.718
 7852SOL     OW24454   2.673   1.340   6.149
 7852SOL    HW124455   2.625   1.399   6.214
 7852SOL    HW224456   2.716   1.395   6.078
 7853SOL     OW24457   5.093   2.225   1.783
 7853SOL    HW124458   5.031   2.149   1.802
 7853SOL    HW224459   5.055   2.282   1.710
 7854SOL     OW24460   3.561   3.520   6.953
 7854SOL    HW124461   3.656   3.531   6.981
 7854SOL    HW224462   3.537   3.590   6.886
 7855SOL     OW24463   4.744   6.476   4.514
 7855SOL    HW124464   4.723   6.533   4.593
 7855SOL    HW224465   4.814   6.520   4.458
 7856SOL     OW24466   6.483   4.985   5.192
 7856SOL    HW124467   6.577   4.995   5.159
 7856SOL    HW224468   6.444   4.900   5.155
 7857SOL     OW24469   5.268   2.194   6.285
 7857SOL    HW124470   5.287   2.240   6.198
 7857SOL    HW224471   5.275   2.095   6.273
 7858SOL     OW24472   5.837   6.524   3.751
 7858SOL    HW124473   5.870   6.448   3.696
 7858SOL    HW224474   5.895   6.604   3.737
 7859SOL     OW24475   4.492   2.888   6.465
 7859SOL    HW124476   4.467   2.903   6.561
 7859SOL    HW224477   4.478   2.792   6.442
 7860SOL     OW24478   3.564   0.488   3.321
 7860SOL    HW124479   3.509   0.571   3.317
 7860SOL    HW224480   3.655   0.509   3.357
 7861SOL     OW24481   3.774   4.876   1.740
 7861SOL    HW124482   3.710   4.799   1.734
 7861SOL    HW224483   3.812   4.896   1.650
 7862SOL     OW24484   1.964   4.354   1.898
 7862SOL    HW124485   1.980   4.272   1.952
 7862SOL    HW224486   1.957   4.433   1.959
 7863SOL     OW24487   0.535   4.651   4.162
 7863SOL    HW124488   0.545   4.622   4.067
 7863SOL    HW224489   0.544   4.751   4.167
 7864SOL     OW24490   0.337   5.591   5.235
 7864SOL    HW124491   0.254   5.550   5.196
 7864SOL    HW224492   0.352   5.555   5.327
 7865SOL     OW24493   6.181   6.660   3.806
 7865SOL    HW124494   6.149   6.567   3.824
 7865SOL    HW224495   6.182   6.711   3.892
 7866SOL     OW24496   1.360   1.185   5.909
 7866SOL    HW124497   1.451   1.198   5.871
 7866SOL    HW224498   1.363   1.198   6.009
 7867SOL     OW24499   6.190   6.285   4.042
 7867SOL    HW124500   6.213   6.195   4.078
 7867SOL    HW224501   6.213   6.289   3.945
 7868SOL     OW24502   4.867   6.010   1.571
 7868SOL    HW124503   4.824   6.070   1.638
 7868SOL    HW224504   4.815   6.012   1.485
 7869SOL     OW24505   5.692   3.539   0.029
 7869SOL    HW124506   5.602   3.558   7.005
 7869SOL    HW224507   5.749   3.492   6.977
 7870SOL     OW24508   4.541   4.822   4.047
 7870SOL    HW124509   4.505   4.733   4.078
 7870SOL    HW224510   4.465   4.883   4.025
 7871SOL     OW24511   4.406   2.450   2.229
 7871SOL    HW124512   4.338   2.513   2.191
 7871SOL    HW224513   4.362   2.365   2.255
 7872SOL     OW24514   1.804   3.609   3.533
 7872SOL    HW124515   1.885   3.654   3.498
 7872SOL    HW224516   1.823   3.573   3.625
 7873SOL     OW24517   5.642   6.865   6.278
 7873SOL    HW124518   5.668   6.905   6.366
 7873SOL    HW224519   5.640   6.765   6.286
 7874SOL     OW24520   5.314   1.911   6.869
 7874SOL    HW124521   5.328   1.813   6.858
 7874SOL    HW224522   5.402   1.958   6.860
 7875SOL     OW24523   4.357   3.181   6.413
 7875SOL    HW124524   4.353   3.145   6.320
 7875SOL    HW224525   4.414   3.121   6.469
 7876SOL     OW24526   1.111   0.054   4.536
 7876SOL    HW124527   1.177   0.036   4.463
 7876SOL    HW224528   1.038   7.002   4.532
 7877SOL     OW24529   1.050   2.052   2.782
 7877SOL    HW124530   0.968   2.027   2.730
 7877SOL    HW224531   1.093   1.970   2.819
 7878SOL     OW24532   5.314   4.433   4.918
 7878SOL    HW124533   5.338   4.493   4.994
 7878SOL    HW224534   5.262   4.484   4.850
 7879SOL     OW24535   4.308   5.440   3.621
 7879SOL    HW124536   4.385   5.379   3.603
 7879SOL    HW224537   4.308   5.465   3.718
 7880SOL     OW24538   2.018   5.563   0.637
 7880SOL    HW124539   2.028   5.465   0.650
 7880SOL    HW224540   2.043   5.588   0.544
 7881SOL     OW24541   6.218   4.918   4.719
 7881SOL    HW124542   6.159   4.885   4.793
 7881SOL    HW224543   6.314   4.910   4.746
 7882SOL     OW24544   1.376   3.135   2.128
 7882SOL    HW124545   1.331   3.109   2.213
 7882SOL    HW224546   1.392   3.054   2.072
 7883SOL     OW24547   1.116   0.575   0.670
 7883SOL    HW124548   1.189   0.635   0.703
 7883SOL    HW224549   1.143   0.533   0.584
 7884SOL     OW24550   1.974   3.847   4.799
 7884SOL    HW124551   1.995   3.873   4.705
 7884SOL    HW224552   1.961   3.747   4.804
 7885SOL     OW24553   6.396   5.111   1.539
 7885SOL    HW124554   6.435   5.071   1.621
 7885SOL    HW224555   6.316   5.058   1.511
 7886SOL     OW24556   3.587   4.879   6.721
 7886SOL    HW124557   3.671   4.914   6.763
 7886SOL    HW224558   3.533   4.956   6.686
 7887SOL     OW24559   3.624   2.588   5.467
 7887SOL    HW124560   3.665   2.514   5.413
 7887SOL    HW224561   3.525   2.586   5.457
 7888SOL     OW24562   6.652   6.857   5.316
 7888SOL    HW124563   6.740   6.819   5.288
 7888SOL    HW224564   6.594   6.868   5.236
 7889SOL     OW24565   1.775   5.191   0.776
 7889SOL    HW124566   1.797   5.164   0.870
 7889SOL    HW224567   1.699   5.137   0.742
 7890SOL     OW24568   1.634   2.336   2.807
 7890SOL    HW124569   1.701   2.363   2.876
 7890SOL    HW224570   1.600   2.417   2.759
 7891SOL     OW24571   1.747   3.688   4.053
 7891SOL    HW124572   1.723   3.605   4.102
 7891SOL    HW224573   1.678   3.759   4.071
 7892SOL     OW24574   1.943   0.529   3.937
 7892SOL    HW124575   1.923   0.619   3.977
 7892SOL    HW224576   1.982   0.470   4.007
 7893SOL     OW24577   6.696   6.271   2.869
 7893SOL    HW124578   6.651   6.353   2.905
 7893SOL    HW224579   6.794   6.274   2.890
 7894SOL     OW24580   3.422   6.707   0.751
 7894SOL    HW124581   3.511   6.664   0.762
 7894SOL    HW224582   3.419   6.792   0.803
 7895SOL     OW24583   5.737   0.613   5.270
 7895SOL    HW124584   5.798   0.570   5.203
 7895SOL    HW224585   5.667   0.665   5.222
 7896SOL     OW24586   4.989   3.607   0.318
 7896SOL    HW124587   5.089   3.598   0.314
 7896SOL    HW224588   4.952   3.607   0.225
 7897SOL     OW24589   2.622   4.214   6.899
 7897SOL    HW124590   2.666   4.149   6.837
 7897SOL    HW224591   2.535   4.176   6.931
 7898SOL     OW24592   4.205   1.924   3.606
 7898SOL    HW124593   4.293   1.918   3.652
 7898SOL    HW224594   4.138   1.966   3.668
 7899SOL     OW24595   5.818   1.189   1.456
 7899SOL    HW124596   5.818   1.228   1.549
 7899SOL    HW224597   5.912   1.166   1.430
 7900SOL     OW24598   1.663   5.194   1.595
 7900SOL    HW124599   1.631   5.247   1.516
 7900SOL    HW224600   1.693   5.104   1.565
 7901SOL     OW24601   5.259   1.525   6.531
 7901SOL    HW124602   5.185   1.578   6.490
 7901SOL    HW224603   5.255   1.431   6.498
 7902SOL     OW24604   5.030   6.625   1.203
 7902SOL    HW124605   5.096   6.677   1.257
 7902SOL    HW224606   4.940   6.629   1.246
 7903SOL     OW24607   5.592   1.697   0.474
 7903SOL    HW124608   5.569   1.602   0.452
 7903SOL    HW224609   5.515   1.739   0.523
 7904SOL     OW24610   5.543   6.936   3.308
 7904SOL    HW124611   5.585   6.984   3.385
 7904SOL    HW224612   5.587   6.847   3.296
 7905SOL     OW24613   4.832   2.388   6.793
 7905SOL    HW124614   4.772   2.449   6.742
 7905SOL    HW224615   4.820   2.294   6.761
 7906SOL     OW24616   0.023   5.791   0.380
 7906SOL    HW124617   0.097   5.857   0.377
 7906SOL    HW224618   6.958   5.828   0.333
 7907SOL     OW24619   5.449   2.697   3.195
 7907SOL    HW124620   5.419   2.704   3.100
 7907SOL    HW224621   5.460   2.789   3.233
 7908SOL     OW24622   0.574   1.435   5.826
 7908SOL    HW124623   0.528   1.474   5.746
 7908SOL    HW224624   0.591   1.338   5.810
 7909SOL     OW24625   5.321   3.956   4.474
 7909SOL    HW124626   5.284   3.866   4.455
 7909SOL    HW224627   5.421   3.954   4.464
 7910SOL     OW24628   2.454   3.365   5.827
 7910SOL    HW124629   2.519   3.335   5.757
 7910SOL    HW224630   2.443   3.294   5.896
 7911SOL     OW24631   1.753   3.270   0.120
 7911SOL    HW124632   1.761   3.368   0.141
 7911SOL    HW224633   1.674   3.256   0.061
 7912SOL     OW24634   6.681   4.962   0.181
 7912SOL    HW124635   6.701   4.884   0.240
 7912SOL    HW224636   6.656   5.041   0.236
 7913SOL     OW24637   1.741   4.836   0.962
 7913SOL    HW124638   1.752   4.814   1.059
 7913SOL    HW224639   1.741   4.935   0.950
 7914SOL     OW24640   0.148   4.238   0.268
 7914SOL    HW124641   0.174   4.306   0.336
 7914SOL    HW224642   0.127   4.152   0.314
 7915SOL     OW24643   4.964   3.079   2.150
 7915SOL    HW124644   5.021   3.160   2.135
 7915SOL    HW224645   4.882   3.086   2.092
 7916SOL     OW24646   0.671   3.930   5.233
 7916SOL    HW124647   0.584   3.905   5.190
 7916SOL    HW224648   0.745   3.916   5.168
 7917SOL     OW24649   3.539   4.202   4.683
 7917SOL    HW124650   3.598   4.229   4.760
 7917SOL    HW224651   3.445   4.195   4.715
 7918SOL     OW24652   6.664   1.468   6.645
 7918SOL    HW124653   6.569   1.460   6.613
 7918SOL    HW224654   6.667   1.452   6.744
 7919SOL     OW24655   2.031   4.281   2.390
 7919SOL    HW124656   2.107   4.235   2.343
 7919SOL    HW224657   1.984   4.216   2.450
 7920SOL     OW24658   0.479   5.503   0.731
 7920SOL    HW124659   0.430   5.458   0.656
 7920SOL    HW224660   0.440   5.594   0.746
 7921SOL     OW24661   5.396   6.659   0.405
 7921SOL    HW124662   5.316   6.696   0.452
 7921SOL    HW224663   5.375   6.569   0.368
 7922SOL     OW24664   6.917   6.633   6.738
 7922SOL    HW124665   6.899   6.549   6.687
 7922SOL    HW224666   7.013   6.659   6.726
 7923SOL     OW24667   3.399   0.397   2.216
 7923SOL    HW124668   3.466   0.459   2.256
 7923SOL    HW224669   3.413   0.305   2.253
 7924SOL     OW24670   4.128   6.927   2.095
 7924SOL    HW124671   4.211   6.951   2.147
 7924SOL    HW224672   4.151   6.922   1.997
 7925SOL     OW24673   0.692   1.551   6.467
 7925SOL    HW124674   0.660   1.638   6.430
 7925SOL    HW224675   0.770   1.519   6.413
 7926SOL     OW24676   4.914   1.685   5.312
 7926SOL    HW124677   4.892   1.770   5.358
 7926SOL    HW224678   4.919   1.700   5.213
 7927SOL     OW24679   4.306   5.170   3.077
 7927SOL    HW124680   4.266   5.206   3.161
 7927SOL    HW224681   4.306   5.242   3.006
 7928SOL     OW24682   1.054   2.226   4.453
 7928SOL    HW124683   1.014   2.161   4.518
 7928SOL    HW224684   0.986   2.249   4.383
 7929SOL     OW24685   4.188   4.472   5.784
 7929SOL    HW124686   4.247   4.553   5.775
 7929SOL    HW224687   4.178   4.449   5.881
 7930SOL     OW24688   4.382   5.367   4.415
 7930SOL    HW124689   4.471   5.413   4.412
 7930SOL    HW224690   4.394   5.274   4.448
 7931SOL     OW24691   1.676   1.824   6.399
 7931SOL    HW124692   1.581   1.794   6.386
 7931SOL    HW224693   1.734   1.744   6.413
 7932SOL     OW24694   1.785   6.047   6.501
 7932SOL    HW124695   1.826   6.122   6.449
 7932SOL    HW224696   1.708   6.082   6.555
 7933SOL     OW24697   0.051   5.654   6.666
 7933SOL    HW124698   6.976   5.696   6.666
 7933SOL    HW224699   0.100   5.681   6.583
 7934SOL     OW24700   2.607   4.775   0.199
 7934SOL    HW124701   2.627   4.755   0.103
 7934SOL    HW224702   2.691   4.804   0.245
 7935SOL     OW24703   5.822   6.371   6.847
 7935SOL    HW124704   5.787   6.278   6.854
 7935SOL    HW224705   5.905   6.380   6.902
 7936SOL     OW24706   3.928   6.304   2.292
 7936SOL    HW124707   3.844   6.278   2.341
 7936SOL    HW224708   3.924   6.268   2.199
 7937SOL     OW24709   6.643   6.586   3.662
 7937SOL    HW124710   6.627   6.569   3.564
 7937SOL    HW224711   6.593   6.668   3.690
 7938SOL     OW24712   6.174   5.631   5.046
 7938SOL    HW124713   6.254   5.572   5.032
 7938SOL    HW224714   6.095   5.592   5.000
 7939SOL     OW24715   1.599   2.711   5.541
 7939SOL    HW124716   1.525   2.746   5.484
 7939SOL    HW224717   1.565   2.694   5.634
 7940SOL     OW24718   1.902   3.768   2.109
 7940SOL    HW124719   1.964   3.695   2.080
 7940SOL    HW224720   1.826   3.774   2.045
 7941SOL     OW24721   6.016   0.466   0.760
 7941SOL    HW124722   6.084   0.505   0.821
 7941SOL    HW224723   6.026   0.505   0.668
 7942SOL     OW24724   6.614   5.615   2.490
 7942SOL    HW124725   6.573   5.609   2.581
 7942SOL    HW224726   6.698   5.670   2.494
 7943SOL     OW24727   5.963   3.022   0.417
 7943SOL    HW124728   5.886   2.961   0.438
 7943SOL    HW224729   5.930   3.116   0.410
 7944SOL     OW24730   0.755   2.745   1.654
 7944SOL    HW124731   0.729   2.703   1.741
 7944SOL    HW224732   0.676   2.746   1.593
 7945SOL     OW24733   5.896   5.938   1.927
 7945SOL    HW124734   5.934   5.903   2.012
 7945SOL    HW224735   5.868   5.861   1.869
 7946SOL     OW24736   2.400   1.654   5.375
 7946SOL    HW124737   2.457   1.736   5.362
 7946SOL    HW224738   2.326   1.654   5.308
 7947SOL     OW24739   3.490   2.396   6.197
 7947SOL    HW124740   3.423   2.385   6.123
 7947SOL    HW224741   3.473   2.327   6.267
 7948SOL     OW24742   0.939   6.245   0.771
 7948SOL    HW124743   0.875   6.259   0.847
 7948SOL    HW224744   1.032   6.231   0.808
 7949SOL     OW24745   4.552   4.703   4.456
 7949SOL    HW124746   4.557   4.610   4.490
 7949SOL    HW224747   4.481   4.710   4.386
 7950SOL     OW24748   6.252   5.053   5.060
 7950SOL    HW124749   6.193   5.128   5.092
 7950SOL    HW224750   6.322   5.034   5.130
 7951SOL     OW24751   2.188   4.159   1.744
 7951SOL    HW124752   2.255   4.173   1.671
 7951SOL    HW224753   2.101   4.201   1.718
 7952SOL     OW24754   0.752   3.141   6.728
 7952SOL    HW124755   0.715   3.203   6.658
 7952SOL    HW224756   0.696   3.058   6.732
 7953SOL     OW24757   2.064   2.687   4.230
 7953SOL    HW124758   2.000   2.612   4.241
 7953SOL    HW224759   2.039   2.762   4.291
 7954SOL     OW24760   4.660   4.179   5.211
 7954SOL    HW124761   4.676   4.110   5.140
 7954SOL    HW224762   4.710   4.154   5.294
 7955SOL     OW24763   1.339   6.389   6.888
 7955SOL    HW124764   1.285   6.408   6.806
 7955SOL    HW224765   1.413   6.325   6.866
 7956SOL     OW24766   3.717   6.123   2.670
 7956SOL    HW124767   3.753   6.030   2.669
 7956SOL    HW224768   3.642   6.129   2.736
 7957SOL     OW24769   0.954   0.892   1.945
 7957SOL    HW124770   0.940   0.944   2.029
 7957SOL    HW224771   0.866   0.873   1.903
 7958SOL     OW24772   3.818   5.258   4.454
 7958SOL    HW124773   3.847   5.272   4.359
 7958SOL    HW224774   3.827   5.161   4.477
 7959SOL     OW24775   4.102   5.723   0.815
 7959SOL    HW124776   4.184   5.779   0.830
 7959SOL    HW224777   4.076   5.727   0.718
 7960SOL     OW24778   3.157   1.468   0.616
 7960SOL    HW124779   3.165   1.375   0.652
 7960SOL    HW224780   3.108   1.525   0.681
 7961SOL     OW24781   0.512   0.015   1.242
 7961SOL    HW124782   0.551   6.988   1.324
 7961SOL    HW224783   0.510   6.964   1.168
 7962SOL     OW24784   1.866   0.226   6.984
 7962SOL    HW124785   1.872   0.188   6.892
 7962SOL    HW224786   1.815   0.164   0.027
 7963SOL     OW24787   0.016   0.999   3.777
 7963SOL    HW124788   0.017   0.899   3.769
 7963SOL    HW224789   0.040   1.040   3.689
 7964SOL     OW24790   0.469   4.841   3.841
 7964SOL    HW124791   0.518   4.911   3.789
 7964SOL    HW224792   0.470   4.865   3.938
 7965SOL     OW24793   3.491   3.003   6.357
 7965SOL    HW124794   3.581   3.043   6.341
 7965SOL    HW224795   3.426   3.037   6.288
 7966SOL     OW24796   0.755   2.920   5.328
 7966SOL    HW124797   0.728   2.994   5.390
 7966SOL    HW224798   0.812   2.854   5.377
 7967SOL     OW24799   2.799   6.009   4.046
 7967SOL    HW124800   2.745   6.069   4.105
 7967SOL    HW224801   2.897   6.027   4.061
 7968SOL     OW24802   2.496   2.414   3.107
 7968SOL    HW124803   2.456   2.504   3.122
 7968SOL    HW224804   2.568   2.398   3.175
 7969SOL     OW24805   4.517   6.341   0.698
 7969SOL    HW124806   4.418   6.338   0.684
 7969SOL    HW224807   4.563   6.352   0.609
 7970SOL     OW24808   0.169   2.597   3.020
 7970SOL    HW124809   0.198   2.683   2.980
 7970SOL    HW224810   0.248   2.549   3.058
 7971SOL     OW24811   4.525   1.445   0.845
 7971SOL    HW124812   4.476   1.449   0.932
 7971SOL    HW224813   4.579   1.529   0.833
 7972SOL     OW24814   1.609   3.391   1.172
 7972SOL    HW124815   1.540   3.453   1.212
 7972SOL    HW224816   1.699   3.432   1.182
 7973SOL     OW24817   5.161   4.077   3.596
 7973SOL    HW124818   5.231   4.142   3.567
 7973SOL    HW224819   5.145   4.087   3.695
 7974SOL     OW24820   5.793   0.866   5.341
 7974SOL    HW124821   5.807   0.913   5.428
 7974SOL    HW224822   5.774   0.769   5.357
 7975SOL     OW24823   5.552   0.576   2.933
 7975SOL    HW124824   5.634   0.569   2.990
 7975SOL    HW224825   5.498   0.655   2.962
 7976SOL     OW24826   0.832   0.612   6.502
 7976SOL    HW124827   0.930   0.616   6.517
 7976SOL    HW224828   0.785   0.601   6.590
 7977SOL     OW24829   5.179   5.757   1.657
 7977SOL    HW124830   5.121   5.758   1.576
 7977SOL    HW224831   5.147   5.826   1.722
 7978SOL     OW24832   6.030   3.780   5.930
 7978SOL    HW124833   6.100   3.727   5.978
 7978SOL    HW224834   6.074   3.840   5.863
 7979SOL     OW24835   3.003   6.885   5.145
 7979SOL    HW124836   3.009   6.785   5.147
 7979SOL    HW224837   2.979   6.920   5.235
 7980SOL     OW24838   2.388   5.735   6.977
 7980SOL    HW124839   2.481   5.756   6.946
 7980SOL    HW224840   2.323   5.778   6.915
 7981SOL     OW24841   0.452   5.541   1.641
 7981SOL    HW124842   0.417   5.568   1.551
 7981SOL    HW224843   0.531   5.598   1.665
 7982SOL     OW24844   0.344   2.082   0.301
 7982SOL    HW124845   0.290   2.078   0.385
 7982SOL    HW224846   0.374   2.177   0.285
 7983SOL     OW24847   5.257   1.755   2.132
 7983SOL    HW124848   5.286   1.708   2.049
 7983SOL    HW224849   5.300   1.713   2.212
 7984SOL     OW24850   1.423   1.913   1.352
 7984SOL    HW124851   1.451   1.820   1.376
 7984SOL    HW224852   1.364   1.910   1.271
 7985SOL     OW24853   2.646   6.746   3.744
 7985SOL    HW124854   2.596   6.663   3.769
 7985SOL    HW224855   2.719   6.762   3.810
 7986SOL     OW24856   3.375   0.866   6.734
 7986SOL    HW124857   3.473   0.845   6.731
 7986SOL    HW224858   3.343   0.890   6.643
 7987SOL     OW24859   1.672   3.727   0.082
 7987SOL    HW124860   1.707   3.635   0.095
 7987SOL    HW224861   1.610   3.751   0.156
 7988SOL     OW24862   1.542   2.322   3.615
 7988SOL    HW124863   1.641   2.310   3.621
 7988SOL    HW224864   1.520   2.373   3.531
 7989SOL     OW24865   3.706   2.837   5.383
 7989SOL    HW124866   3.716   2.751   5.433
 7989SOL    HW224867   3.785   2.851   5.324
 7990SOL     OW24868   6.701   3.277   3.213
 7990SOL    HW124869   6.628   3.220   3.251
 7990SOL    HW224870   6.731   3.343   3.282
 7991SOL     OW24871   6.873   0.476   3.483
 7991SOL    HW124872   6.909   0.569   3.473
 7991SOL    HW224873   6.776   0.481   3.506
 7992SOL     OW24874   1.083   6.711   1.540
 7992SOL    HW124875   1.065   6.727   1.637
 7992SOL    HW224876   1.179   6.731   1.520
 7993SOL     OW24877   1.121   6.132   6.636
 7993SOL    HW124878   1.208   6.085   6.621
 7993SOL    HW224879   1.132   6.230   6.622
 7994SOL     OW24880   4.677   0.185   3.218
 7994SOL    HW124881   4.738   0.111   3.192
 7994SOL    HW224882   4.685   0.260   3.151
 7995SOL     OW24883   4.596   5.085   3.126
 7995SOL    HW124884   4.509   5.113   3.086
 7995SOL    HW224885   4.634   5.009   3.073
 7996SOL     OW24886   2.629   0.539   4.513
 7996SOL    HW124887   2.700   0.474   4.541
 7996SOL    HW224888   2.668   0.607   4.452
 7997SOL     OW24889   0.435   1.199   1.492
 7997SOL    HW124890   0.439   1.101   1.474
 7997SOL    HW224891   0.395   1.246   1.413
 7998SOL     OW24892   3.822   5.036   0.861
 7998SOL    HW124893   3.917   5.067   0.864
 7998SOL    HW224894   3.779   5.051   0.950
 7999SOL     OW24895   1.247   6.595   6.311
 7999SOL    HW124896   1.264   6.599   6.409
 7999SOL    HW224897   1.316   6.536   6.268
 8000SOL     OW24898   5.400   6.873   0.015
 8000SOL    HW124899   5.431   6.866   0.110
 8000SOL    HW224900   5.418   6.787   6.984
 8001SOL     OW24901   3.510   5.805   0.897
 8001SOL    HW124902   3.527   5.726   0.956
 8001SOL    HW224903   3.513   5.888   0.953
 8002SOL     OW24904   0.785   2.394   5.431
 8002SOL    HW124905   0.714   2.456   5.398
 8002SOL    HW224906   0.831   2.350   5.354
 8003SOL     OW24907   2.805   4.916   2.870
 8003SOL    HW124908   2.801   4.864   2.955
 8003SOL    HW224909   2.729   4.890   2.811
 8004SOL     OW24910   1.889   3.684   3.814
 8004SOL    HW124911   1.830   3.686   3.895
 8004SOL    HW224912   1.921   3.777   3.793
 8005SOL     OW24913   3.553   0.792   2.496
 8005SOL    HW124914   3.524   0.862   2.430
 8005SOL    HW224915   3.566   0.835   2.586
 8006SOL     OW24916   2.049   0.068   6.525
 8006SOL    HW124917   1.990   0.044   6.449
 8006SOL    HW224918   2.108   0.144   6.499
 8007SOL     OW24919   0.399   1.100   4.622
 8007SOL    HW124920   0.335   1.047   4.678
 8007SOL    HW224921   0.376   1.197   4.627
 8008SOL     OW24922   4.218   6.012   5.800
 8008SOL    HW124923   4.263   5.993   5.713
 8008SOL    HW224924   4.119   6.002   5.791
 8009SOL     OW24925   5.825   0.852   2.608
 8009SOL    HW124926   5.735   0.819   2.635
 8009SOL    HW224927   5.884   0.774   2.586
 8010SOL     OW24928   1.144   1.341   0.565
 8010SOL    HW124929   1.113   1.362   0.473
 8010SOL    HW224930   1.084   1.273   0.607
 8011SOL     OW24931   3.196   2.653   1.102
 8011SOL    HW124932   3.122   2.585   1.101
 8011SOL    HW224933   3.273   2.619   1.048
 8012SOL     OW24934   2.020   4.769   1.903
 8012SOL    HW124935   1.978   4.857   1.881
 8012SOL    HW224936   2.026   4.714   1.819
 8013SOL     OW24937   1.517   4.609   3.336
 8013SOL    HW124938   1.455   4.556   3.277
 8013SOL    HW224939   1.537   4.556   3.418
 8014SOL     OW24940   0.987   6.219   5.047
 8014SOL    HW124941   0.958   6.275   5.124
 8014SOL    HW224942   0.908   6.200   4.989
 8015SOL     OW24943   2.854   0.803   0.463
 8015SOL    HW124944   2.856   0.733   0.536
 8015SOL    HW224945   2.834   0.892   0.503
 8016SOL     OW24946   4.743   6.958   6.643
 8016SOL    HW124947   4.803   6.943   6.721
 8016SOL    HW224948   4.681   0.018   6.662
 8017SOL     OW24949   6.819   6.605   0.347
 8017SOL    HW124950   6.863   6.616   0.257
 8017SOL    HW224951   6.887   6.618   0.419
 8018SOL     OW24952   3.220   2.507   5.900
 8018SOL    HW124953   3.279   2.579   5.864
 8018SOL    HW224954   3.127   2.518   5.865
 8019SOL     OW24955   2.190   4.032   5.989
 8019SOL    HW124956   2.182   4.090   6.071
 8019SOL    HW224957   2.277   4.050   5.945
 8020SOL     OW24958   6.140   6.219   1.130
 8020SOL    HW124959   6.228   6.266   1.129
 8020SOL    HW224960   6.115   6.192   1.037
 8021SOL     OW24961   1.011   1.833   1.440
 8021SOL    HW124962   0.958   1.836   1.355
 8021SOL    HW224963   1.040   1.925   1.465
 8022SOL     OW24964   4.607   6.974   2.936
 8022SOL    HW124965   4.564   6.911   2.871
 8022SOL    HW224966   4.543   0.031   2.959
 8023SOL     OW24967   6.099   5.139   3.601
 8023SOL    HW124968   6.013   5.175   3.639
 8023SOL    HW224969   6.152   5.096   3.674
 8024SOL     OW24970   3.083   5.246   7.008
 8024SOL    HW124971   3.049   5.154   0.009
 8024SOL    HW224972   3.169   5.242   6.957
 8025SOL     OW24973   2.265   6.452   6.330
 8025SOL    HW124974   2.325   6.375   6.308
 8025SOL    HW224975   2.257   6.460   6.429
 8026SOL     OW24976   1.076   4.243   6.553
 8026SOL    HW124977   1.079   4.232   6.652
 8026SOL    HW224978   1.161   4.285   6.521
 8027SOL     OW24979   4.445   1.836   5.472
 8027SOL    HW124980   4.473   1.745   5.504
 8027SOL    HW224981   4.413   1.830   5.378
 8028SOL     OW24982   3.102   4.898   4.476
 8028SOL    HW124983   3.077   4.891   4.379
 8028SOL    HW224984   3.023   4.875   4.532
 8029SOL     OW24985   4.771   2.934   1.079
 8029SOL    HW124986   4.749   3.032   1.084
 8029SOL    HW224987   4.782   2.898   1.171
 8030SOL     OW24988   4.341   4.228   6.833
 8030SOL    HW124989   4.425   4.282   6.843
 8030SOL    HW224990   4.303   4.242   6.742
 8031SOL     OW24991   5.384   6.668   2.720
 8031SOL    HW124992   5.439   6.591   2.687
 8031SOL    HW224993   5.342   6.644   2.807
 8032SOL     OW24994   5.525   4.255   5.955
 8032SOL    HW124995   5.516   4.213   6.046
 8032SOL    HW224996   5.566   4.189   5.892
 8033SOL     OW24997   4.974   3.329   6.476
 8033SOL    HW124998   5.038   3.285   6.414
 8033SOL    HW224999   4.903   3.376   6.423
 8034SOL     OW25000   6.263   0.587   4.665
 8034SOL    HW125001   6.207   0.549   4.739
 8034SOL    HW225002   6.329   0.518   4.635
 8035SOL     OW25003   5.245   1.663   4.535
 8035SOL    HW125004   5.308   1.726   4.580
 8035SOL    HW225005   5.195   1.611   4.605
 8036SOL     OW25006   0.857   4.548   3.025
 8036SOL    HW125007   0.897   4.503   2.945
 8036SOL    HW225008   0.909   4.523   3.106
 8037SOL     OW25009   1.750   3.159   1.601
 8037SOL    HW125010   1.679   3.203   1.545
 8037SOL    HW225011   1.840   3.190   1.569
 8038SOL     OW25012   4.503   0.839   3.220
 8038SOL    HW125013   4.440   0.772   3.182
 8038SOL    HW225014   4.453   0.922   3.245
 8039SOL     OW25015   0.599   1.292   4.273
 8039SOL    HW125016   0.646   1.378   4.294
 8039SOL    HW225017   0.635   1.254   4.188
 8040SOL     OW25018   1.609   6.204   0.772
 8040SOL    HW125019   1.684   6.259   0.736
 8040SOL    HW225020   1.526   6.221   0.720
 8041SOL     OW25021   2.849   1.564   1.908
 8041SOL    HW125022   2.944   1.538   1.925
 8041SOL    HW225023   2.841   1.607   1.818
 8042SOL     OW25024   3.628   2.939   3.758
 8042SOL    HW125025   3.700   2.972   3.697
 8042SOL    HW225026   3.665   2.925   3.850
 8043SOL     OW25027   3.836   6.803   2.622
 8043SOL    HW125028   3.840   6.706   2.597
 8043SOL    HW225029   3.917   6.850   2.587
 8044SOL     OW25030   3.653   2.896   1.113
 8044SOL    HW125031   3.668   2.944   1.200
 8044SOL    HW225032   3.660   2.797   1.128
 8045SOL     OW25033   5.670   0.990   1.339
 8045SOL    HW125034   5.583   0.967   1.383
 8045SOL    HW225035   5.716   1.063   1.390
 8046SOL     OW25036   6.808   5.392   0.578
 8046SOL    HW125037   6.877   5.443   0.527
 8046SOL    HW225038   6.836   5.296   0.586
 8047SOL     OW25039   3.517   5.461   4.187
 8047SOL    HW125040   3.602   5.443   4.137
 8047SOL    HW225041   3.537   5.524   4.263
 8048SOL     OW25042   5.651   0.628   6.120
 8048SOL    HW125043   5.622   0.671   6.034
 8048SOL    HW225044   5.660   0.529   6.106
 8049SOL     OW25045   0.946   0.304   0.333
 8049SOL    HW125046   0.978   0.288   0.239
 8049SOL    HW225047   0.846   0.310   0.333
 8050SOL     OW25048   1.387   3.503   2.737
 8050SOL    HW125049   1.467   3.512   2.678
 8050SOL    HW225050   1.304   3.507   2.681
 8051SOL     OW25051   4.828   5.803   3.092
 8051SOL    HW125052   4.887   5.731   3.057
 8051SOL    HW225053   4.862   5.892   3.061
 8052SOL     OW25054   4.897   1.197   1.967
 8052SOL    HW125055   4.940   1.112   1.937
 8052SOL    HW225056   4.870   1.190   2.063
 8053SOL     OW25057   3.310   3.948   3.725
 8053SOL    HW125058   3.361   4.033   3.736
 8053SOL    HW225059   3.271   3.944   3.633
 8054SOL     OW25060   4.784   0.216   4.663
 8054SOL    HW125061   4.768   0.219   4.564
 8054SOL    HW225062   4.770   0.308   4.701
 8055SOL     OW25063   0.321   0.306   5.541
 8055SOL    HW125064   0.261   0.265   5.609
 8055SOL    HW225065   0.288   0.285   5.449
 8056SOL     OW25066   4.323   1.885   4.135
 8056SOL    HW125067   4.254   1.836   4.083
 8056SOL    HW225068   4.335   1.841   4.225
 8057SOL     OW25069   3.180   2.104   2.985
 8057SOL    HW125070   3.227   2.108   2.896
 8057SOL    HW225071   3.094   2.154   2.979
 8058SOL     OW25072   4.460   0.852   2.517
 8058SOL    HW125073   4.524   0.929   2.506
 8058SOL    HW225074   4.509   0.772   2.550
 8059SOL     OW25075   4.453   2.514   4.695
 8059SOL    HW125076   4.539   2.564   4.689
 8059SOL    HW225077   4.449   2.464   4.782
 8060SOL     OW25078   0.856   2.827   3.963
 8060SOL    HW125079   0.798   2.882   3.903
 8060SOL    HW225080   0.943   2.809   3.917
 8061SOL     OW25081   6.778   0.441   2.146
 8061SOL    HW125082   6.798   0.539   2.146
 8061SOL    HW225083   6.684   0.427   2.175
 8062SOL     OW25084   3.065   5.207   4.486
 8062SOL    HW125085   3.156   5.236   4.517
 8062SOL    HW225086   3.034   5.130   4.542
 8063SOL     OW25087   0.706   3.047   0.442
 8063SOL    HW125088   0.739   2.963   0.484
 8063SOL    HW225089   0.772   3.079   0.374
 8064SOL     OW25090   0.352   5.177   0.926
 8064SOL    HW125091   0.437   5.226   0.904
 8064SOL    HW225092   0.353   5.088   0.880
 8065SOL     OW25093   3.462   5.891   4.529
 8065SOL    HW125094   3.460   5.794   4.556
 8065SOL    HW225095   3.409   5.945   4.594
 8066SOL     OW25096   0.534   2.146   6.244
 8066SOL    HW125097   0.586   2.099   6.173
 8066SOL    HW225098   0.440   2.112   6.243
 8067SOL     OW25099   5.073   2.825   1.600
 8067SOL    HW125100   5.004   2.854   1.667
 8067SOL    HW225101   5.046   2.736   1.562
 8068SOL     OW25102   6.107   4.348   0.226
 8068SOL    HW125103   6.175   4.415   0.194
 8068SOL    HW225104   6.139   4.256   0.204
 8069SOL     OW25105   1.750   6.412   1.097
 8069SOL    HW125106   1.735   6.327   1.148
 8069SOL    HW225107   1.689   6.483   1.133
 8070SOL     OW25108   2.789   2.964   0.539
 8070SOL    HW125109   2.788   2.864   0.532
 8070SOL    HW225110   2.883   2.997   0.535
 8071SOL     OW25111   3.137   6.625   4.970
 8071SOL    HW125112   3.195   6.667   5.040
 8071SOL    HW225113   3.185   6.547   4.929
 8072SOL     OW25114   3.288   0.625   6.830
 8072SOL    HW125115   3.222   0.583   6.768
 8072SOL    HW225116   3.312   0.716   6.797
 8073SOL     OW25117   4.318   5.979   5.556
 8073SOL    HW125118   4.374   6.005   5.477
 8073SOL    HW225119   4.232   5.940   5.525
 8074SOL     OW25120   3.230   2.661   0.699
 8074SOL    HW125121   3.285   2.577   0.700
 8074SOL    HW225122   3.135   2.639   0.720
 8075SOL     OW25123   6.403   1.219   0.636
 8075SOL    HW125124   6.352   1.194   0.718
 8075SOL    HW225125   6.414   1.138   0.578
 8076SOL     OW25126   5.073   2.340   5.540
 8076SOL    HW125127   5.063   2.409   5.468
 8076SOL    HW225128   5.005   2.356   5.612
 8077SOL     OW25129   1.845   5.762   1.975
 8077SOL    HW125130   1.858   5.813   1.891
 8077SOL    HW225131   1.782   5.686   1.959
 8078SOL     OW25132   5.650   1.273   0.810
 8078SOL    HW125133   5.581   1.206   0.837
 8078SOL    HW225134   5.638   1.357   0.864
 8079SOL     OW25135   5.067   1.159   3.396
 8079SOL    HW125136   5.059   1.118   3.305
 8079SOL    HW225137   5.023   1.100   3.463
 8080SOL     OW25138   0.468   3.297   0.205
 8080SOL    HW125139   0.517   3.345   0.278
 8080SOL    HW225140   0.434   3.364   0.139
 8081SOL     OW25141   5.090   6.818   4.553
 8081SOL    HW125142   5.098   6.728   4.598
 8081SOL    HW225143   5.062   6.886   4.621
 8082SOL     OW25144   5.758   0.258   1.999
 8082SOL    HW125145   5.768   0.220   2.091
 8082SOL    HW225146   5.709   0.346   2.005
 8083SOL     OW25147   5.437   3.423   2.412
 8083SOL    HW125148   5.479   3.454   2.498
 8083SOL    HW225149   5.363   3.359   2.433
 8084SOL     OW25150   4.972   6.903   0.067
 8084SOL    HW125151   4.967   6.860   6.993
 8084SOL    HW225152   5.028   6.846   0.128
 8085SOL     OW25153   6.098   0.264   2.724
 8085SOL    HW125154   6.165   0.253   2.798
 8085SOL    HW225155   6.112   0.353   2.681
 8086SOL     OW25156   4.783   1.058   4.046
 8086SOL    HW125157   4.854   1.083   3.981
 8086SOL    HW225158   4.793   1.111   4.130
 8087SOL     OW25159   2.776   1.356   0.764
 8087SOL    HW125160   2.790   1.432   0.700
 8087SOL    HW225161   2.865   1.317   0.788
 8088SOL     OW25162   5.557   2.369   1.339
 8088SOL    HW125163   5.520   2.363   1.432
 8088SOL    HW225164   5.647   2.413   1.341
 8089SOL     OW25165   4.982   2.536   0.070
 8089SOL    HW125166   5.012   2.441   0.067
 8089SOL    HW225167   5.061   2.596   0.056
 8090SOL     OW25168   3.828   2.402   6.600
 8090SOL    HW125169   3.742   2.452   6.610
 8090SOL    HW225170   3.883   2.444   6.528
 8091SOL     OW25171   2.565   4.118   6.203
 8091SOL    HW125172   2.648   4.066   6.224
 8091SOL    HW225173   2.485   4.059   6.214
 8092SOL     OW25174   0.351   2.551   5.184
 8092SOL    HW125175   0.337   2.537   5.282
 8092SOL    HW225176   0.385   2.644   5.169
 8093SOL     OW25177   4.802   5.601   2.584
 8093SOL    HW125178   4.888   5.619   2.535
 8093SOL    HW225179   4.725   5.619   2.524
 8094SOL     OW25180   1.351   3.829   5.007
 8094SOL    HW125181   1.360   3.896   4.934
 8094SOL    HW225182   1.424   3.843   5.074
 8095SOL     OW25183   5.935   3.827   4.229
 8095SOL    HW125184   6.028   3.854   4.204
 8095SOL    HW225185   5.874   3.840   4.152
 8096SOL     OW25186   3.017   5.394   3.712
 8096SOL    HW125187   3.054   5.318   3.659
 8096SOL    HW225188   2.953   5.359   3.781
 8097SOL     OW25189   5.175   6.392   3.394
 8097SOL    HW125190   5.103   6.371   3.461
 8097SOL    HW225191   5.133   6.423   3.308
 8098SOL     OW25192   2.237   6.233   4.035
 8098SOL    HW125193   2.211   6.273   4.122
 8098SOL    HW225194   2.193   6.143   4.025
 8099SOL     OW25195   4.486   7.005   3.840
 8099SOL    HW125196   4.546   6.929   3.863
 8099SOL    HW225197   4.466   7.003   3.742
 8100SOL     OW25198   6.642   0.149   0.090
 8100SOL    HW125199   6.546   0.161   0.116
 8100SOL    HW225200   6.660   0.198   0.004
 8101SOL     OW25201   2.089   0.289   4.059
 8101SOL    HW125202   2.070   0.290   4.157
 8101SOL    HW225203   2.183   0.320   4.043
 8102SOL     OW25204   0.512   4.465   4.920
 8102SOL    HW125205   0.448   4.536   4.951
 8102SOL    HW225206   0.461   4.381   4.902
 8103SOL     OW25207   4.831   0.671   0.996
 8103SOL    HW125208   4.849   0.654   0.899
 8103SOL    HW225209   4.916   0.662   1.047
 8104SOL     OW25210   2.551   0.074   5.768
 8104SOL    HW125211   2.624   0.113   5.824
 8104SOL    HW225212   2.531   6.997   5.798
 8105SOL     OW25213   1.203   2.546   3.364
 8105SOL    HW125214   1.231   2.465   3.313
 8105SOL    HW225215   1.197   2.624   3.302
 8106SOL     OW25216   2.849   5.886   3.339
 8106SOL    HW125217   2.759   5.843   3.341
 8106SOL    HW225218   2.859   5.940   3.256
 8107SOL     OW25219   0.505   5.468   5.027
 8107SOL    HW125220   0.573   5.479   4.954
 8107SOL    HW225221   0.490   5.556   5.072
 8108SOL     OW25222   6.213   3.521   4.883
 8108SOL    HW125223   6.313   3.517   4.877
 8108SOL    HW225224   6.174   3.442   4.836
 8109SOL     OW25225   1.272   3.586   4.442
 8109SOL    HW125226   1.338   3.654   4.474
 8109SOL    HW225227   1.180   3.614   4.469
 8110SOL     OW25228   2.917   6.088   0.841
 8110SOL    HW125229   2.896   6.054   0.749
 8110SOL    HW225230   2.904   6.187   0.843
 8111SOL     OW25231   4.707   0.960   5.225
 8111SOL    HW125232   4.792   0.986   5.178
 8111SOL    HW225233   4.720   0.873   5.272
 8112SOL     OW25234   2.097   1.706   4.576
 8112SOL    HW125235   2.075   1.760   4.494
 8112SOL    HW225236   2.037   1.733   4.650
 8113SOL     OW25237   3.319   3.198   0.994
 8113SOL    HW125238   3.245   3.215   1.058
 8113SOL    HW225239   3.369   3.283   0.976
 8114SOL     OW25240   2.615   3.730   1.436
 8114SOL    HW125241   2.565   3.706   1.519
 8114SOL    HW225242   2.555   3.781   1.374
 8115SOL     OW25243   4.229   0.683   1.195
 8115SOL    HW125244   4.159   0.734   1.145
 8115SOL    HW225245   4.306   0.744   1.214
 8116SOL     OW25246   4.874   6.801   4.782
 8116SOL    HW125247   4.829   6.763   4.701
 8116SOL    HW225248   4.831   6.888   4.807
 8117SOL     OW25249   2.292   0.854   3.637
 8117SOL    HW125250   2.278   0.765   3.682
 8117SOL    HW225251   2.287   0.927   3.705
 8118SOL     OW25252   6.505   2.841   5.538
 8118SOL    HW125253   6.435   2.806   5.476
 8118SOL    HW225254   6.532   2.933   5.508
 8119SOL     OW25255   6.373   5.971   5.242
 8119SOL    HW125256   6.322   5.992   5.325
 8119SOL    HW225257   6.309   5.958   5.166
 8120SOL     OW25258   3.380   4.690   0.293
 8120SOL    HW125259   3.283   4.670   0.303
 8120SOL    HW225260   3.412   4.655   0.204
 8121SOL     OW25261   6.857   5.699   1.953
 8121SOL    HW125262   6.942   5.678   2.000
 8121SOL    HW225263   6.873   5.771   1.885
 8122SOL     OW25264   1.749   5.653   2.455
 8122SOL    HW125265   1.711   5.562   2.473
 8122SOL    HW225266   1.719   5.716   2.527
 8123SOL     OW25267   0.216   0.487   6.698
 8123SOL    HW125268   0.150   0.413   6.682
 8123SOL    HW225269   0.264   0.470   6.784
 8124SOL     OW25270   0.058   6.546   0.578
 8124SOL    HW125271   0.141   6.503   0.543
 8124SOL    HW225272   0.074   6.579   0.671
 8125SOL     OW25273   0.969   0.206   2.934
 8125SOL    HW125274   0.877   0.225   2.969
 8125SOL    HW225275   1.023   0.162   3.006
 8126SOL     OW25276   5.859   4.265   2.184
 8126SOL    HW125277   5.867   4.349   2.129
 8126SOL    HW225278   5.948   4.244   2.225
 8127SOL     OW25279   2.696   5.568   0.469
 8127SOL    HW125280   2.599   5.547   0.485
 8127SOL    HW225281   2.724   5.642   0.529
 8128SOL     OW25282   3.116   3.250   1.178
 8128SOL    HW125283   3.169   3.231   1.260
 8128SOL    HW225284   3.028   3.203   1.183
 8129SOL     OW25285   4.159   0.898   5.783
 8129SOL    HW125286   4.250   0.919   5.748
 8129SOL    HW225287   4.164   0.881   5.882
 8130SOL     OW25288   0.209   4.942   6.369
 8130SOL    HW125289   0.109   4.946   6.369
 8130SOL    HW225290   0.243   4.949   6.463
 8131SOL     OW25291   3.341   1.055   0.987
 8131SOL    HW125292   3.434   1.021   0.978
 8131SOL    HW225293   3.279   0.979   1.007
 8132SOL     OW25294   5.181   6.017   6.538
 8132SOL    HW125295   5.218   6.012   6.631
 8132SOL    HW225296   5.171   6.113   6.511
 8133SOL     OW25297   3.516   5.031   1.899
 8133SOL    HW125298   3.519   4.932   1.911
 8133SOL    HW225299   3.592   5.059   1.840
 8134SOL     OW25300   0.896   2.016   4.627
 8134SOL    HW125301   0.828   1.943   4.624
 8134SOL    HW225302   0.973   1.988   4.684
 8135SOL     OW25303   2.002   6.134   1.090
 8135SOL    HW125304   2.052   6.185   1.020
 8135SOL    HW225305   1.909   6.170   1.097
 8136SOL     OW25306   4.951   4.376   2.925
 8136SOL    HW125307   4.868   4.398   2.873
 8136SOL    HW225308   5.021   4.341   2.863
 8137SOL     OW25309   2.772   1.530   4.452
 8137SOL    HW125310   2.830   1.565   4.526
 8137SOL    HW225311   2.677   1.554   4.470
 8138SOL     OW25312   5.777   2.184   0.369
 8138SOL    HW125313   5.757   2.088   0.388
 8138SOL    HW225314   5.691   2.236   0.362
 8139SOL     OW25315   1.823   2.149   3.998
 8139SOL    HW125316   1.743   2.125   3.944
 8139SOL    HW225317   1.873   2.223   3.953
 8140SOL     OW25318   4.134   6.874   0.223
 8140SOL    HW125319   4.051   6.833   0.184
 8140SOL    HW225320   4.205   6.880   0.153
 8141SOL     OW25321   4.312   6.956   5.558
 8141SOL    HW125322   4.292   6.862   5.585
 8141SOL    HW225323   4.399   6.984   5.598
 8142SOL     OW25324   1.884   5.223   0.336
 8142SOL    HW125325   1.855   5.152   0.400
 8142SOL    HW225326   1.982   5.213   0.317
 8143SOL     OW25327   5.638   5.324   0.504
 8143SOL    HW125328   5.696   5.244   0.518
 8143SOL    HW225329   5.590   5.315   0.416
 8144SOL     OW25330   1.038   5.969   5.805
 8144SOL    HW125331   0.971   5.899   5.781
 8144SOL    HW225332   1.120   5.925   5.844
 8145SOL     OW25333   5.523   5.616   0.705
 8145SOL    HW125334   5.427   5.618   0.676
 8145SOL    HW225335   5.531   5.559   0.787
 8146SOL     OW25336   5.200   0.108   5.286
 8146SOL    HW125337   5.290   0.071   5.310
 8146SOL    HW225338   5.139   0.033   5.261
 8147SOL     OW25339   6.040   0.824   1.171
 8147SOL    HW125340   6.076   0.737   1.205
 8147SOL    HW225341   6.084   0.846   1.084
 8148SOL     OW25342   5.216   5.132   0.163
 8148SOL    HW125343   5.265   5.059   0.115
 8148SOL    HW225344   5.120   5.130   0.137
 8149SOL     OW25345   1.597   6.702   3.426
 8149SOL    HW125346   1.620   6.643   3.348
 8149SOL    HW225347   1.507   6.676   3.461
 8150SOL     OW25348   1.540   4.273   0.906
 8150SOL    HW125349   1.579   4.339   0.842
 8150SOL    HW225350   1.441   4.266   0.890
 8151SOL     OW25351   5.864   5.293   3.251
 8151SOL    HW125352   5.950   5.300   3.301
 8151SOL    HW225353   5.868   5.348   3.168
 8152SOL     OW25354   5.966   3.065   3.270
 8152SOL    HW125355   6.007   3.072   3.179
 8152SOL    HW225356   5.893   2.997   3.268
 8153SOL     OW25357   1.445   1.504   3.881
 8153SOL    HW125358   1.425   1.472   3.788
 8153SOL    HW225359   1.367   1.556   3.915
 8154SOL     OW25360   3.955   6.194   3.047
 8154SOL    HW125361   3.938   6.247   2.964
 8154SOL    HW225362   4.040   6.142   3.037
 8155SOL     OW25363   1.671   3.688   2.291
 8155SOL    HW125364   1.758   3.731   2.268
 8155SOL    HW225365   1.602   3.758   2.311
 8156SOL     OW25366   4.227   6.284   0.449
 8156SOL    HW125367   4.304   6.340   0.417
 8156SOL    HW225368   4.227   6.282   0.549
 8157SOL     OW25369   6.312   4.593   6.802
 8157SOL    HW125370   6.290   4.690   6.796
 8157SOL    HW225371   6.248   4.547   6.864
 8158SOL     OW25372   5.215   4.102   0.286
 8158SOL    HW125373   5.244   4.007   0.298
 8158SOL    HW225374   5.292   4.156   0.251
 8159SOL     OW25375   2.709   5.862   3.643
 8159SOL    HW125376   2.663   5.793   3.587
 8159SOL    HW225377   2.730   5.823   3.733
 8160SOL     OW25378   5.297   0.146   3.931
 8160SOL    HW125379   5.316   0.116   3.837
 8160SOL    HW225380   5.261   0.239   3.929
 8161SOL     OW25381   5.998   3.201   6.321
 8161SOL    HW125382   6.011   3.102   6.312
 8161SOL    HW225383   5.967   3.223   6.413
 8162SOL     OW25384   6.493   6.355   0.142
 8162SOL    HW125385   6.414   6.401   0.102
 8162SOL    HW225386   6.552   6.422   0.187
 8163SOL     OW25387   2.418   4.795   5.321
 8163SOL    HW125388   2.464   4.842   5.246
 8163SOL    HW225389   2.340   4.744   5.286
 8164SOL     OW25390   4.730   1.292   0.947
 8164SOL    HW125391   4.653   1.350   0.919
 8164SOL    HW225392   4.814   1.326   0.906
 8165SOL     OW25393   6.977   3.950   5.800
 8165SOL    HW125394   6.976   3.851   5.787
 8165SOL    HW225395   6.902   3.976   5.860
 8166SOL     OW25396   1.128   0.416   3.268
 8166SOL    HW125397   1.061   0.455   3.331
 8166SOL    HW225398   1.206   0.380   3.320
 8167SOL     OW25399   0.196   1.110   3.580
 8167SOL    HW125400   0.269   1.165   3.619
 8167SOL    HW225401   0.234   1.029   3.536
 8168SOL     OW25402   2.632   0.473   1.611
 8168SOL    HW125403   2.631   0.474   1.511
 8168SOL    HW225404   2.651   0.565   1.645
 8169SOL     OW25405   4.587   2.542   0.519
 8169SOL    HW125406   4.499   2.501   0.541
 8169SOL    HW225407   4.658   2.500   0.575
 8170SOL     OW25408   1.366   5.429   1.546
 8170SOL    HW125409   1.311   5.496   1.495
 8170SOL    HW225410   1.454   5.416   1.501
 8171SOL     OW25411   1.441   1.570   0.002
 8171SOL    HW125412   1.482   1.549   6.929
 8171SOL    HW225413   1.342   1.570   7.010
 8172SOL     OW25414   7.007   2.093   2.107
 8172SOL    HW125415   7.004   2.136   2.197
 8172SOL    HW225416   6.954   2.008   2.108
 8173SOL     OW25417   5.597   2.251   2.063
 8173SOL    HW125418   5.576   2.342   2.029
 8173SOL    HW225419   5.649   2.258   2.148
 8174SOL     OW25420   6.911   0.212   2.458
 8174SOL    HW125421   7.000   0.175   2.431
 8174SOL    HW225422   6.841   0.181   2.394
 8175SOL     OW25423   6.902   3.439   5.349
 8175SOL    HW125424   6.902   3.448   5.449
 8175SOL    HW225425   6.942   3.522   5.309
 8176SOL     OW25426   2.671   4.747   1.349
 8176SOL    HW125427   2.720   4.793   1.424
 8176SOL    HW225428   2.736   4.727   1.275
 8177SOL     OW25429   4.677   0.532   3.597
 8177SOL    HW125430   4.731   0.515   3.515
 8177SOL    HW225431   4.645   0.627   3.596
 8178SOL     OW25432   3.053   6.767   0.476
 8178SOL    HW125433   2.992   6.732   0.547
 8178SOL    HW225434   3.091   6.855   0.505
 8179SOL     OW25435   5.283   1.293   5.028
 8179SOL    HW125436   5.185   1.316   5.025
 8179SOL    HW225437   5.337   1.376   5.022
 8180SOL     OW25438   6.203   1.146   5.975
 8180SOL    HW125439   6.209   1.158   5.876
 8180SOL    HW225440   6.288   1.177   6.017
 8181SOL     OW25441   1.457   1.908   0.697
 8181SOL    HW125442   1.526   1.892   0.768
 8181SOL    HW225443   1.493   1.881   0.608
 8182SOL     OW25444   3.228   3.294   5.584
 8182SOL    HW125445   3.305   3.317   5.643
 8182SOL    HW225446   3.243   3.204   5.543
 8183SOL     OW25447   0.006   2.328   4.618
 8183SOL    HW125448   6.981   2.394   4.555
 8183SOL    HW225449   0.100   2.308   4.588
 8184SOL     OW25450   0.392   0.143   0.411
 8184SOL    HW125451   0.349   0.203   0.344
 8184SOL    HW225452   0.450   0.197   0.472
 8185SOL     OW25453   1.848   0.478   6.866
 8185SOL    HW125454   1.917   0.462   6.796
 8185SOL    HW225455   1.839   0.396   6.923
 8186SOL     OW25456   3.115   4.521   5.692
 8186SOL    HW125457   3.195   4.577   5.669
 8186SOL    HW225458   3.120   4.434   5.643
 8187SOL     OW25459   2.042   1.136   5.047
 8187SOL    HW125460   1.997   1.221   5.019
 8187SOL    HW225461   1.975   1.061   5.045
 8188SOL     OW25462   4.916   3.379   3.819
 8188SOL    HW125463   4.906   3.373   3.719
 8188SOL    HW225464   5.006   3.417   3.841
 8189SOL     OW25465   5.172   5.282   3.052
 8189SOL    HW125466   5.075   5.303   3.063
 8189SOL    HW225467   5.183   5.212   2.981
 8190SOL     OW25468   4.845   4.126   4.397
 8190SOL    HW125469   4.779   4.200   4.383
 8190SOL    HW225470   4.872   4.089   4.308
 8191SOL     OW25471   3.622   5.822   1.702
 8191SOL    HW125472   3.649   5.801   1.796
 8191SOL    HW225473   3.551   5.893   1.702
 8192SOL     OW25474   2.834   5.189   1.703
 8192SOL    HW125475   2.910   5.183   1.769
 8192SOL    HW225476   2.867   5.232   1.619
 8193SOL     OW25477   5.726   5.627   5.752
 8193SOL    HW125478   5.664   5.674   5.815
 8193SOL    HW225479   5.692   5.637   5.658
 8194SOL     OW25480   4.934   1.377   0.790
 8194SOL    HW125481   4.875   1.437   0.736
 8194SOL    HW225482   4.993   1.325   0.729
 8195SOL     OW25483   0.872   6.655   3.166
 8195SOL    HW125484   0.873   6.755   3.157
 8195SOL    HW225485   0.810   6.629   3.241
 8196SOL     OW25486   3.977   6.082   6.699
 8196SOL    HW125487   3.878   6.077   6.699
 8196SOL    HW225488   4.016   5.992   6.719
 8197SOL     OW25489   3.800   1.523   0.353
 8197SOL    HW125490   3.795   1.612   0.398
 8197SOL    HW225491   3.750   1.527   0.266
 8198SOL     OW25492   3.425   6.349   2.742
 8198SOL    HW125493   3.369   6.402   2.805
 8198SOL    HW225494   3.515   6.332   2.783
 8199SOL     OW25495   5.783   2.513   6.175
 8199SOL    HW125496   5.848   2.580   6.210
 8199SOL    HW225497   5.804   2.423   6.213
 8200SOL     OW25498   5.804   4.733   1.964
 8200SOL    HW125499   5.859   4.719   1.882
 8200SOL    HW225500   5.789   4.831   1.978
 8201SOL     OW25501   5.666   0.705   4.721
 8201SOL    HW125502   5.643   0.788   4.771
 8201SOL    HW225503   5.765   0.689   4.725
 8202SOL     OW25504   0.105   5.504   4.008
 8202SOL    HW125505   0.086   5.591   4.055
 8202SOL    HW225506   0.193   5.468   4.039
 8203SOL     OW25507   3.019   2.277   7.005
 8203SOL    HW125508   3.117   2.287   6.987
 8203SOL    HW225509   2.980   2.211   6.941
 8204SOL     OW25510   3.599   4.786   0.018
 8204SOL    HW125511   3.628   4.704   0.068
 8204SOL    HW225512   3.675   4.818   6.977
 8205SOL     OW25513   0.245   4.464   0.451
 8205SOL    HW125514   0.252   4.495   0.546
 8205SOL    HW225515   0.299   4.523   0.392
 8206SOL     OW25516   5.281   1.827   6.557
 8206SOL    HW125517   5.299   1.761   6.629
 8206SOL    HW225518   5.184   1.854   6.560
 8207SOL     OW25519   2.967   3.358   4.358
 8207SOL    HW125520   3.051   3.331   4.311
 8207SOL    HW225521   2.956   3.304   4.441
 8208SOL     OW25522   1.379   6.836   1.474
 8208SOL    HW125523   1.349   6.911   1.534
 8208SOL    HW225524   1.466   6.800   1.507
 8209SOL     OW25525   0.837   1.119   4.755
 8209SOL    HW125526   0.847   1.096   4.658
 8209SOL    HW225527   0.923   1.101   4.802
 8210SOL     OW25528   2.416   1.320   0.966
 8210SOL    HW125529   2.454   1.297   0.876
 8210SOL    HW225530   2.332   1.269   0.981
 8211SOL     OW25531   3.943   4.221   1.706
 8211SOL    HW125532   3.899   4.152   1.762
 8211SOL    HW225533   3.884   4.301   1.697
 8212SOL     OW25534   2.131   2.525   1.913
 8212SOL    HW125535   2.156   2.622   1.924
 8212SOL    HW225536   2.212   2.472   1.890
 8213SOL     OW25537   6.707   4.223   1.634
 8213SOL    HW125538   6.706   4.161   1.556
 8213SOL    HW225539   6.685   4.171   1.717
 8214SOL     OW25540   5.770   6.131   4.061
 8214SOL    HW125541   5.835   6.056   4.051
 8214SOL    HW225542   5.805   6.212   4.014
 8215SOL     OW25543   2.683   5.304   5.886
 8215SOL    HW125544   2.615   5.326   5.816
 8215SOL    HW225545   2.638   5.293   5.975
 8216SOL     OW25546   5.465   4.907   3.828
 8216SOL    HW125547   5.374   4.902   3.787
 8216SOL    HW225548   5.517   4.825   3.804
 8217SOL     OW25549   1.839   4.023   0.224
 8217SOL    HW125550   1.777   4.068   0.288
 8217SOL    HW225551   1.804   4.032   0.131
 8218SOL     OW25552   0.481   0.014   5.884
 8218SOL    HW125553   0.494   0.005   5.785
 8218SOL    HW225554   0.384   0.028   5.904
 8219SOL     OW25555   4.323   2.472   0.567
 8219SOL    HW125556   4.344   2.524   0.650
 8219SOL    HW225557   4.232   2.431   0.576
 8220SOL     OW25558   3.476   2.858   3.370
 8220SOL    HW125559   3.456   2.837   3.465
 8220SOL    HW225560   3.390   2.871   3.320
 8221SOL     OW25561   5.931   6.544   3.489
 8221SOL    HW125562   5.970   6.455   3.515
 8221SOL    HW225563   5.950   6.563   3.393
 8222SOL     OW25564   5.705   1.624   1.450
 8222SOL    HW125565   5.688   1.642   1.353
 8222SOL    HW225566   5.803   1.612   1.466
 8223SOL     OW25567   0.549   4.678   5.427
 8223SOL    HW125568   0.512   4.717   5.511
 8223SOL    HW225569   0.643   4.647   5.444
 8224SOL     OW25570   6.002   0.999   2.482
 8224SOL    HW125571   5.954   0.928   2.533
 8224SOL    HW225572   5.957   1.013   2.393
 8225SOL     OW25573   3.195   1.424   1.125
 8225SOL    HW125574   3.127   1.351   1.132
 8225SOL    HW225575   3.150   1.509   1.100
 8226SOL     OW25576   4.034   0.256   0.515
 8226SOL    HW125577   4.071   0.349   0.510
 8226SOL    HW225578   4.085   0.197   0.452
 8227SOL     OW25579   6.732   1.298   2.721
 8227SOL    HW125580   6.754   1.208   2.757
 8227SOL    HW225581   6.796   1.366   2.758
 8228SOL     OW25582   6.577   1.702   5.670
 8228SOL    HW125583   6.625   1.688   5.756
 8228SOL    HW225584   6.644   1.726   5.599
 8229SOL     OW25585   4.667   2.811   0.572
 8229SOL    HW125586   4.659   2.717   0.542
 8229SOL    HW225587   4.707   2.813   0.664
 8230SOL     OW25588   3.896   0.174   5.376
 8230SOL    HW125589   3.807   0.205   5.411
 8230SOL    HW225590   3.943   0.122   5.447
 8231SOL     OW25591   2.968   4.074   1.053
 8231SOL    HW125592   2.882   4.119   1.033
 8231SOL    HW225593   2.952   3.976   1.070
 8232SOL     OW25594   4.916   1.647   1.629
 8232SOL    HW125595   4.931   1.557   1.671
 8232SOL    HW225596   4.825   1.650   1.588
 8233SOL     OW25597   1.469   5.964   6.354
 8233SOL    HW125598   1.516   5.876   6.344
 8233SOL    HW225599   1.496   6.024   6.279
 8234SOL     OW25600   2.734   4.022   6.756
 8234SOL    HW125601   2.658   3.965   6.789
 8234SOL    HW225602   2.756   3.997   6.662
 8235SOL     OW25603   0.354   3.033   0.085
 8235SOL    HW125604   0.385   3.043   0.179
 8235SOL    HW225605   0.424   3.068   0.023
 8236SOL     OW25606   0.503   5.020   0.479
 8236SOL    HW125607   0.445   5.076   0.539
 8236SOL    HW225608   0.592   5.064   0.468
 8237SOL     OW25609   4.293   6.477   4.119
 8237SOL    HW125610   4.314   6.380   4.126
 8237SOL    HW225611   4.209   6.497   4.169
 8238SOL     OW25612   0.445   5.321   5.991
 8238SOL    HW125613   0.349   5.319   5.964
 8238SOL    HW225614   0.494   5.248   5.943
 8239SOL     OW25615   6.986   0.892   5.796
 8239SOL    HW125616   0.044   0.941   5.843
 8239SOL    HW225617   6.930   0.957   5.745
 8240SOL     OW25618   3.249   4.119   2.391
 8240SOL    HW125619   3.220   4.191   2.328
 8240SOL    HW225620   3.307   4.159   2.463
 8241SOL     OW25621   4.027   6.677   5.716
 8241SOL    HW125622   4.004   6.585   5.746
 8241SOL    HW225623   4.123   6.697   5.736
 8242SOL     OW25624   0.509   4.784   6.305
 8242SOL    HW125625   0.588   4.730   6.275
 8242SOL    HW225626   0.514   4.876   6.266
 8243SOL     OW25627   0.139   2.749   0.400
 8243SOL    HW125628   0.107   2.700   0.319
 8243SOL    HW225629   0.239   2.743   0.406
 8244SOL     OW25630   0.217   0.369   4.089
 8244SOL    HW125631   0.278   0.340   4.016
 8244SOL    HW225632   0.230   0.467   4.106
 8245SOL     OW25633   3.892   1.957   2.455
 8245SOL    HW125634   3.951   1.885   2.420
 8245SOL    HW225635   3.846   2.002   2.378
 8246SOL     OW25636   1.277   3.253   5.817
 8246SOL    HW125637   1.204   3.199   5.858
 8246SOL    HW225638   1.271   3.247   5.717
 8247SOL     OW25639   1.944   0.295   2.293
 8247SOL    HW125640   2.040   0.323   2.290
 8247SOL    HW225641   1.939   0.195   2.301
 8248SOL     OW25642   6.461   5.534   4.819
 8248SOL    HW125643   6.518   5.534   4.737
 8248SOL    HW225644   6.465   5.445   4.864
 8249SOL     OW25645   1.761   2.454   6.043
 8249SOL    HW125646   1.707   2.536   6.064
 8249SOL    HW225647   1.719   2.407   5.965
 8250SOL     OW25648   3.103   3.774   1.809
 8250SOL    HW125649   3.102   3.676   1.833
 8250SOL    HW225650   3.038   3.823   1.867
 8251SOL     OW25651   4.979   3.545   4.126
 8251SOL    HW125652   4.942   3.454   4.110
 8251SOL    HW225653   5.074   3.549   4.095
 8252SOL     OW25654   2.818   1.760   5.238
 8252SOL    HW125655   2.814   1.770   5.338
 8252SOL    HW225656   2.911   1.781   5.207
 8253SOL     OW25657   4.147   4.815   5.568
 8253SOL    HW125658   4.072   4.774   5.517
 8253SOL    HW225659   4.137   4.794   5.666
 8254SOL     OW25660   4.536   4.415   5.239
 8254SOL    HW125661   4.592   4.334   5.259
 8254SOL    HW225662   4.446   4.385   5.208
 8255SOL     OW25663   1.892   0.348   5.220
 8255SOL    HW125664   1.885   0.429   5.161
 8255SOL    HW225665   1.858   0.268   5.171
 8256SOL     OW25666   6.643   6.344   1.817
 8256SOL    HW125667   6.678   6.433   1.788
 8256SOL    HW225668   6.548   6.334   1.787
 8257SOL     OW25669   5.207   4.328   2.799
 8257SOL    HW125670   5.305   4.317   2.811
 8257SOL    HW225671   5.183   4.316   2.703
 8258SOL     OW25672   5.560   2.006   0.834
 8258SOL    HW125673   5.658   1.992   0.822
 8258SOL    HW225674   5.529   2.082   0.776
 8259SOL     OW25675   3.918   1.722   4.306
 8259SOL    HW125676   3.964   1.752   4.389
 8259SOL    HW225677   3.964   1.642   4.268
 8260SOL     OW25678   2.213   6.858   1.125
 8260SOL    HW125679   2.114   6.859   1.135
 8260SOL    HW225680   2.252   6.783   1.178
 8261SOL     OW25681   6.248   6.478   1.968
 8261SOL    HW125682   6.268   6.545   2.039
 8261SOL    HW225683   6.230   6.525   1.882
 8262SOL     OW25684   1.247   3.323   0.522
 8262SOL    HW125685   1.169   3.301   0.580
 8262SOL    HW225686   1.213   3.353   0.432
 8263SOL     OW25687   0.467   2.747   5.995
 8263SOL    HW125688   0.563   2.735   6.021
 8263SOL    HW225689   0.454   2.717   5.900
 8264SOL     OW25690   2.236   6.292   2.208
 8264SOL    HW125691   2.199   6.372   2.161
 8264SOL    HW225692   2.217   6.298   2.306
 8265SOL     OW25693   6.677   0.722   0.974
 8265SOL    HW125694   6.654   0.626   0.983
 8265SOL    HW225695   6.639   0.758   0.889
 8266SOL     OW25696   2.334   1.303   3.642
 8266SOL    HW125697   2.318   1.384   3.698
 8266SOL    HW225698   2.424   1.310   3.598
 8267SOL     OW25699   1.772   3.704   1.057
 8267SOL    HW125700   1.819   3.720   1.143
 8267SOL    HW225701   1.791   3.779   0.994
 8268SOL     OW25702   1.762   6.748   5.658
 8268SOL    HW125703   1.859   6.722   5.661
 8268SOL    HW225704   1.721   6.732   5.747
 8269SOL     OW25705   4.458   0.902   2.174
 8269SOL    HW125706   4.491   0.822   2.223
 8269SOL    HW225707   4.451   0.979   2.237
 8270SOL     OW25708   2.846   6.525   5.014
 8270SOL    HW125709   2.796   6.597   5.062
 8270SOL    HW225710   2.868   6.556   4.921
 8271SOL     OW25711   0.569   0.464   3.446
 8271SOL    HW125712   0.592   0.560   3.466
 8271SOL    HW225713   0.473   0.449   3.468
 8272SOL     OW25714   5.973   2.103   2.621
 8272SOL    HW125715   5.982   2.200   2.598
 8272SOL    HW225716   5.950   2.051   2.540
 8273SOL     OW25717   2.538   1.118   0.474
 8273SOL    HW125718   2.629   1.147   0.444
 8273SOL    HW225719   2.469   1.158   0.413
 8274SOL     OW25720   5.058   4.475   4.094
 8274SOL    HW125721   5.061   4.573   4.114
 8274SOL    HW225722   4.970   4.453   4.051
 8275SOL     OW25723   6.373   0.871   5.268
 8275SOL    HW125724   6.364   0.942   5.338
 8275SOL    HW225725   6.441   0.900   5.201
 8276SOL     OW25726   0.634   2.619   3.877
 8276SOL    HW125727   0.679   2.676   3.808
 8276SOL    HW225728   0.579   2.677   3.937
 8277SOL     OW25729   0.255   6.011   6.505
 8277SOL    HW125730   0.353   6.018   6.525
 8277SOL    HW225731   0.215   5.938   6.560
 8278SOL     OW25732   3.276   1.357   6.266
 8278SOL    HW125733   3.264   1.299   6.185
 8278SOL    HW225734   3.226   1.442   6.253
 8279SOL     OW25735   1.303   6.041   4.853
 8279SOL    HW125736   1.379   6.091   4.811
 8279SOL    HW225737   1.287   6.077   4.945
 8280SOL     OW25738   2.218   3.094   0.159
 8280SOL    HW125739   2.140   3.057   0.210
 8280SOL    HW225740   2.194   3.104   0.063
 8281SOL     OW25741   3.088   4.157   1.760
 8281SOL    HW125742   3.026   4.096   1.810
 8281SOL    HW225743   3.039   4.242   1.739
 8282SOL     OW25744   4.537   3.692   0.174
 8282SOL    HW125745   4.582   3.682   0.263
 8282SOL    HW225746   4.486   3.777   0.171
 8283SOL     OW25747   1.933   5.506   5.535
 8283SOL    HW125748   1.844   5.468   5.509
 8283SOL    HW225749   1.938   5.602   5.506
 8284SOL     OW25750   0.872   3.821   1.170
 8284SOL    HW125751   0.946   3.802   1.105
 8284SOL    HW225752   0.785   3.821   1.121
 8285SOL     OW25753   3.098   3.823   5.376
 8285SOL    HW125754   3.021   3.867   5.330
 8285SOL    HW225755   3.167   3.798   5.308
 8286SOL     OW25756   5.602   1.868   5.528
 8286SOL    HW125757   5.692   1.844   5.492
 8286SOL    HW225758   5.613   1.937   5.600
 8287SOL     OW25759   1.192   5.302   4.348
 8287SOL    HW125760   1.193   5.264   4.441
 8287SOL    HW225761   1.279   5.345   4.328
 8288SOL     OW25762   3.118   2.130   1.884
 8288SOL    HW125763   3.104   2.050   1.942
 8288SOL    HW225764   3.051   2.200   1.909
 8289SOL     OW25765   0.511   6.282   0.451
 8289SOL    HW125766   0.526   6.193   0.410
 8289SOL    HW225767   0.577   6.348   0.415
 8290SOL     OW25768   5.082   1.551   0.942
 8290SOL    HW125769   5.174   1.563   0.903
 8290SOL    HW225770   5.038   1.472   0.899
 8291SOL     OW25771   4.410   6.216   4.613
 8291SOL    HW125772   4.502   6.195   4.645
 8291SOL    HW225773   4.371   6.290   4.668
 8292SOL     OW25774   3.151   6.772   6.801
 8292SOL    HW125775   3.231   6.712   6.796
 8292SOL    HW225776   3.151   6.820   6.889
 8293SOL     OW25777   2.269   5.450   0.317
 8293SOL    HW125778   2.340   5.469   0.385
 8293SOL    HW225779   2.302   5.475   0.226
 8294SOL     OW25780   5.337   3.237   5.356
 8294SOL    HW125781   5.280   3.216   5.435
 8294SOL    HW225782   5.404   3.165   5.343
 8295SOL     OW25783   4.967   5.279   1.622
 8295SOL    HW125784   4.933   5.241   1.708
 8295SOL    HW225785   4.912   5.358   1.596
 8296SOL     OW25786   1.841   4.467   6.358
 8296SOL    HW125787   1.859   4.494   6.264
 8296SOL    HW225788   1.893   4.526   6.420
 8297SOL     OW25789   0.149   3.407   2.458
 8297SOL    HW125790   0.123   3.496   2.422
 8297SOL    HW225791   0.067   3.353   2.477
 8298SOL     OW25792   6.102   1.225   1.233
 8298SOL    HW125793   6.047   1.309   1.237
 8298SOL    HW225794   6.183   1.241   1.177
 8299SOL     OW25795   0.270   2.214   2.439
 8299SOL    HW125796   0.284   2.133   2.382
 8299SOL    HW225797   0.256   2.294   2.381
 8300SOL     OW25798   0.293   5.348   4.307
 8300SOL    HW125799   0.310   5.446   4.321
 8300SOL    HW225800   0.295   5.328   4.209
 8301SOL     OW25801   3.683   1.584   1.002
 8301SOL    HW125802   3.622   1.599   0.924
 8301SOL    HW225803   3.648   1.636   1.081
 8302SOL     OW25804   5.381   6.752   6.619
 8302SOL    HW125805   5.480   6.762   6.625
 8302SOL    HW225806   5.352   6.670   6.667
 8303SOL     OW25807   6.210   0.653   3.747
 8303SOL    HW125808   6.238   0.577   3.806
 8303SOL    HW225809   6.144   0.620   3.679
 8304SOL     OW25810   6.411   3.016   1.240
 8304SOL    HW125811   6.343   3.013   1.314
 8304SOL    HW225812   6.416   2.926   1.196
 8305SOL     OW25813   5.034   4.880   3.946
 8305SOL    HW125814   4.934   4.888   3.938
 8305SOL    HW225815   5.075   4.970   3.940
 8306SOL     OW25816   5.548   1.606   5.582
 8306SOL    HW125817   5.618   1.558   5.634
 8306SOL    HW225818   5.576   1.702   5.570
 8307SOL     OW25819   3.377   5.334   1.735
 8307SOL    HW125820   3.449   5.374   1.792
 8307SOL    HW225821   3.337   5.255   1.783
 8308SOL     OW25822   3.307   5.306   1.278
 8308SOL    HW125823   3.218   5.267   1.255
 8308SOL    HW225824   3.379   5.241   1.254
 8309SOL     OW25825   6.854   5.451   4.016
 8309SOL    HW125826   6.818   5.455   4.109
 8309SOL    HW225827   6.954   5.449   4.019
 8310SOL     OW25828   0.325   5.579   1.122
 8310SOL    HW125829   0.400   5.624   1.073
 8310SOL    HW225830   0.261   5.539   1.056
 8311SOL     OW25831   0.881   1.986   4.967
 8311SOL    HW125832   0.831   2.062   4.927
 8311SOL    HW225833   0.939   1.944   4.897
 8312SOL     OW25834   5.200   0.287   0.111
 8312SOL    HW125835   5.113   0.257   0.074
 8312SOL    HW225836   5.240   0.356   0.051
 8313SOL     OW25837   5.186   6.816   0.497
 8313SOL    HW125838   5.120   6.760   0.448
 8313SOL    HW225839   5.197   6.904   0.450
 8314SOL     OW25840   4.955   0.474   6.965
 8314SOL    HW125841   4.951   0.374   6.963
 8314SOL    HW225842   4.941   0.506   0.043
 8315SOL     OW25843   4.509   3.268   0.924
 8315SOL    HW125844   4.584   3.273   0.857
 8315SOL    HW225845   4.437   3.210   0.888
 8316SOL     OW25846   1.207   2.040   1.772
 8316SOL    HW125847   1.221   1.947   1.804
 8316SOL    HW225848   1.177   2.039   1.677
 8317SOL     OW25849   1.618   2.970   2.484
 8317SOL    HW125850   1.633   3.048   2.545
 8317SOL    HW225851   1.583   3.003   2.396
 8318SOL     OW25852   4.401   1.791   5.926
 8318SOL    HW125853   4.499   1.773   5.917
 8318SOL    HW225854   4.378   1.804   6.022
 8319SOL     OW25855   1.565   2.155   0.905
 8319SOL    HW125856   1.484   2.209   0.883
 8319SOL    HW225857   1.537   2.061   0.926
 8320SOL     OW25858   3.067   3.555   2.443
 8320SOL    HW125859   3.016   3.493   2.503
 8320SOL    HW225860   3.164   3.529   2.442
 8321SOL     OW25861   6.982   0.018   6.283
 8321SOL    HW125862   6.972   6.937   6.258
 8321SOL    HW225863   6.901   0.068   6.254
 8322SOL     OW25864   6.364   0.164   1.276
 8322SOL    HW125865   6.330   0.188   1.367
 8322SOL    HW225866   6.368   0.064   1.267
 8323SOL     OW25867   5.364   5.726   1.978
 8323SOL    HW125868   5.459   5.751   1.996
 8323SOL    HW225869   5.303   5.791   2.022
 8324SOL     OW25870   5.744   6.390   1.399
 8324SOL    HW125871   5.743   6.295   1.368
 8324SOL    HW225872   5.796   6.446   1.335
 8325SOL     OW25873   2.041   3.849   5.277
 8325SOL    HW125874   2.082   3.837   5.187
 8325SOL    HW225875   2.050   3.765   5.330
 8326SOL     OW25876   4.889   3.253   5.434
 8326SOL    HW125877   4.848   3.335   5.474
 8326SOL    HW225878   4.865   3.173   5.490
 8327SOL     OW25879   6.327   0.755   5.924
 8327SOL    HW125880   6.244   0.800   5.891
 8327SOL    HW225881   6.400   0.823   5.933
 8328SOL     OW25882   3.015   6.360   6.107
 8328SOL    HW125883   3.066   6.328   6.027
 8328SOL    HW225884   2.943   6.423   6.078
 8329SOL     OW25885   1.478   3.033   5.967
 8329SOL    HW125886   1.535   3.115   5.969
 8329SOL    HW225887   1.444   3.014   6.059
 8330SOL     OW25888   2.182   1.640   6.832
 8330SOL    HW125889   2.187   1.597   6.922
 8330SOL    HW225890   2.247   1.716   6.827
 8331SOL     OW25891   3.156   0.859   1.076
 8331SOL    HW125892   3.081   0.869   1.010
 8331SOL    HW225893   3.119   0.844   1.167
 8332SOL     OW25894   5.132   5.400   2.238
 8332SOL    HW125895   5.229   5.414   2.256
 8332SOL    HW225896   5.105   5.454   2.158
 8333SOL     OW25897   0.170   5.956   6.241
 8333SOL    HW125898   0.241   5.971   6.310
 8333SOL    HW225899   0.081   5.953   6.286
 8334SOL     OW25900   3.991   0.901   4.384
 8334SOL    HW125901   4.024   0.909   4.290
 8334SOL    HW225902   4.051   0.951   4.445
 8335SOL     OW25903   5.177   0.035   0.314
 8335SOL    HW125904   5.135   0.088   0.388
 8335SOL    HW225905   5.164   0.083   0.227
 8336SOL     OW25906   0.163   4.785   3.071
 8336SOL    HW125907   0.242   4.758   3.016
 8336SOL    HW225908   0.104   4.706   3.085
 8337SOL     OW25909   2.273   6.465   3.144
 8337SOL    HW125910   2.306   6.497   3.056
 8337SOL    HW225911   2.350   6.448   3.205
 8338SOL     OW25912   3.813   5.161   2.044
 8338SOL    HW125913   3.805   5.065   2.016
 8338SOL    HW225914   3.768   5.173   2.133
 8339SOL     OW25915   6.391   0.206   1.842
 8339SOL    HW125916   6.367   0.140   1.770
 8339SOL    HW225917   6.425   0.290   1.801
 8340SOL     OW25918   4.578   3.120   0.616
 8340SOL    HW125919   4.656   3.086   0.563
 8340SOL    HW225920   4.530   3.043   0.658
 8341SOL     OW25921   2.932   6.726   0.227
 8341SOL    HW125922   2.834   6.725   0.209
 8341SOL    HW225923   2.949   6.729   0.326
 8342SOL     OW25924   4.189   6.621   0.841
 8342SOL    HW125925   4.210   6.702   0.896
 8342SOL    HW225926   4.122   6.645   0.771
 8343SOL     OW25927   1.622   5.320   5.137
 8343SOL    HW125928   1.652   5.357   5.049
 8343SOL    HW225929   1.664   5.230   5.152
 8344SOL     OW25930   4.670   5.816   4.928
 8344SOL    HW125931   4.730   5.743   4.895
 8344SOL    HW225932   4.576   5.781   4.935
 8345SOL     OW25933   4.626   1.128   2.466
 8345SOL    HW125934   4.703   1.137   2.528
 8345SOL    HW225935   4.558   1.199   2.486
 8346SOL     OW25936   3.884   5.204   0.291
 8346SOL    HW125937   3.906   5.131   0.356
 8346SOL    HW225938   3.789   5.233   0.305
 8347SOL     OW25939   3.752   5.412   4.022
 8347SOL    HW125940   3.848   5.384   4.022
 8347SOL    HW225941   3.708   5.377   3.939
 8348SOL     OW25942   2.686   0.345   2.005
 8348SOL    HW125943   2.669   0.443   1.993
 8348SOL    HW225944   2.640   0.294   1.933
 8349SOL     OW25945   5.902   6.273   1.630
 8349SOL    HW125946   5.851   6.329   1.565
 8349SOL    HW225947   5.866   6.287   1.722
 8350SOL     OW25948   3.353   6.968   6.084
 8350SOL    HW125949   3.343   6.872   6.109
 8350SOL    HW225950   3.320   0.010   6.158
 8351SOL     OW25951   5.555   5.093   3.985
 8351SOL    HW125952   5.652   5.086   3.962
 8351SOL    HW225953   5.505   5.018   3.941
 8352SOL     OW25954   0.746   0.257   3.442
 8352SOL    HW125955   0.717   0.189   3.509
 8352SOL    HW225956   0.697   0.343   3.459
 8353SOL     OW25957   6.971   3.663   1.716
 8353SOL    HW125958   6.962   3.733   1.787
 8353SOL    HW225959   6.999   3.577   1.757
 8354SOL     OW25960   4.445   6.657   5.366
 8354SOL    HW125961   4.466   6.601   5.446
 8354SOL    HW225962   4.346   6.661   5.354
 8355SOL     OW25963   2.261   0.863   5.946
 8355SOL    HW125964   2.261   0.776   5.995
 8355SOL    HW225965   2.346   0.911   5.964
 8356SOL     OW25966   1.030   6.962   0.855
 8356SOL    HW125967   1.032   6.894   0.928
 8356SOL    HW225968   1.096   0.019   0.876
 8357SOL     OW25969   3.790   6.844   4.787
 8357SOL    HW125970   3.875   6.876   4.827
 8357SOL    HW225971   3.766   6.903   4.709
 8358SOL     OW25972   1.433   4.453   5.259
 8358SOL    HW125973   1.383   4.368   5.273
 8358SOL    HW225974   1.438   4.474   5.161
 8359SOL     OW25975   2.978   0.689   5.008
 8359SOL    HW125976   2.925   0.647   4.935
 8359SOL    HW225977   3.014   0.619   5.068
 8360SOL     OW25978   3.745   6.428   0.986
 8360SOL    HW125979   3.776   6.350   0.932
 8360SOL    HW225980   3.684   6.396   1.059
 8361SOL     OW25981   3.069   0.335   2.532
 8361SOL    HW125982   3.168   0.327   2.521
 8361SOL    HW225983   3.048   0.355   2.628
 8362SOL     OW25984   4.072   2.378   0.603
 8362SOL    HW125985   4.027   2.299   0.561
 8362SOL    HW225986   4.006   2.453   0.612
 8363SOL     OW25987   6.752   2.642   6.442
 8363SOL    HW125988   6.781   2.577   6.513
 8363SOL    HW225989   6.799   2.620   6.357
 8364SOL     OW25990   1.064   2.557   3.581
 8364SOL    HW125991   1.128   2.548   3.505
 8364SOL    HW225992   1.089   2.492   3.653
 8365SOL     OW25993   1.739   3.736   1.877
 8365SOL    HW125994   1.757   3.659   1.816
 8365SOL    HW225995   1.750   3.821   1.827
 8366SOL     OW25996   1.812   5.950   2.147
 8366SOL    HW125997   1.885   5.941   2.214
 8366SOL    HW225998   1.826   5.884   2.073
 8367SOL     OW25999   4.111   5.789   4.507
 8367SOL    HW126000   4.027   5.842   4.497
 8367SOL    HW226001   4.139   5.754   4.418
 8368SOL     OW26002   2.088   5.596   6.372
 8368SOL    HW126003   2.032   5.547   6.305
 8368SOL    HW226004   2.067   5.563   6.464
 8369SOL     OW26005   1.530   6.740   6.200
 8369SOL    HW126006   1.515   6.697   6.289
 8369SOL    HW226007   1.492   6.833   6.202
 8370SOL     OW26008   2.924   1.749   5.822
 8370SOL    HW126009   3.012   1.759   5.775
 8370SOL    HW226010   2.866   1.685   5.772
 8371SOL     OW26011   2.006   4.702   1.146
 8371SOL    HW126012   2.033   4.629   1.083
 8371SOL    HW226013   2.061   4.695   1.230
 8372SOL     OW26014   1.881   4.991   1.793
 8372SOL    HW126015   1.817   4.975   1.718
 8372SOL    HW226016   1.833   4.984   1.880
 8373SOL     OW26017   1.648   0.181   4.020
 8373SOL    HW126018   1.695   0.250   4.075
 8373SOL    HW226019   1.707   0.152   3.944
 8374SOL     OW26020   0.030   0.713   5.094
 8374SOL    HW126021   0.028   0.625   5.141
 8374SOL    HW226022   0.081   0.779   5.148
 8375SOL     OW26023   3.345   6.430   5.003
 8375SOL    HW126024   3.283   6.359   4.971
 8375SOL    HW226025   3.312   6.468   5.089
 8376SOL     OW26026   1.465   1.028   4.344
 8376SOL    HW126027   1.415   0.971   4.409
 8376SOL    HW226028   1.520   1.095   4.394
 8377SOL     OW26029   4.977   6.590   0.729
 8377SOL    HW126030   4.946   6.546   0.813
 8377SOL    HW226031   5.077   6.597   0.730
 8378SOL     OW26032   4.370   5.646   2.645
 8378SOL    HW126033   4.372   5.668   2.743
 8378SOL    HW226034   4.370   5.547   2.634
 8379SOL     OW26035   5.754   2.630   1.336
 8379SOL    HW126036   5.773   2.612   1.239
 8379SOL    HW226037   5.675   2.691   1.343
 8380SOL     OW26038   0.102   0.523   2.673
 8380SOL    HW126039   0.082   0.518   2.576
 8380SOL    HW226040   0.022   0.557   2.722
 8381SOL     OW26041   0.259   3.014   4.949
 8381SOL    HW126042   0.214   3.090   4.902
 8381SOL    HW226043   0.322   2.969   4.885
 8382SOL     OW26044   2.954   0.555   3.158
 8382SOL    HW126045   3.000   0.590   3.076
 8382SOL    HW226046   2.856   0.553   3.143
 8383SOL     OW26047   2.840   0.191   6.008
 8383SOL    HW126048   2.831   0.132   5.928
 8383SOL    HW226049   2.911   0.154   6.068
 8384SOL     OW26050   6.117   0.560   1.243
 8384SOL    HW126051   6.167   0.566   1.330
 8384SOL    HW226052   6.143   0.476   1.196
 8385SOL     OW26053   5.752   2.307   0.838
 8385SOL    HW126054   5.824   2.345   0.780
 8385SOL    HW226055   5.665   2.312   0.790
 8386SOL     OW26056   2.302   5.710   2.323
 8386SOL    HW126057   2.314   5.752   2.233
 8386SOL    HW226058   2.230   5.641   2.319
 8387SOL     OW26059   1.569   1.327   1.836
 8387SOL    HW126060   1.477   1.364   1.848
 8387SOL    HW226061   1.595   1.274   1.916
 8388SOL     OW26062   2.181   6.335   0.262
 8388SOL    HW126063   2.162   6.424   0.221
 8388SOL    HW226064   2.186   6.345   0.362
 8389SOL     OW26065   0.418   3.901   2.344
 8389SOL    HW126066   0.493   3.871   2.285
 8389SOL    HW226067   0.415   3.844   2.426
 8390SOL     OW26068   4.568   1.234   6.836
 8390SOL    HW126069   4.546   1.139   6.812
 8390SOL    HW226070   4.492   1.273   6.888
 8391SOL     OW26071   6.330   5.176   0.989
 8391SOL    HW126072   6.285   5.265   0.983
 8391SOL    HW226073   6.405   5.181   1.055
 8392SOL     OW26074   6.139   3.813   4.442
 8392SOL    HW126075   6.159   3.904   4.479
 8392SOL    HW226076   6.063   3.820   4.377
 8393SOL     OW26077   0.620   6.438   3.032
 8393SOL    HW126078   0.684   6.490   2.976
 8393SOL    HW226079   0.635   6.340   3.019
 8394SOL     OW26080   6.346   2.563   1.523
 8394SOL    HW126081   6.276   2.517   1.468
 8394SOL    HW226082   6.437   2.532   1.493
 8395SOL     OW26083   2.551   0.067   4.986
 8395SOL    HW126084   2.525   0.136   4.918
 8395SOL    HW226085   2.602   7.009   4.941
 8396SOL     OW26086   4.836   5.191   2.305
 8396SOL    HW126087   4.929   5.228   2.293
 8396SOL    HW226088   4.773   5.266   2.322
 8397SOL     OW26089   1.808   0.403   2.504
 8397SOL    HW126090   1.864   0.408   2.586
 8397SOL    HW226091   1.857   0.354   2.432
 8398SOL     OW26092   4.022   1.830   6.588
 8398SOL    HW126093   3.988   1.874   6.671
 8398SOL    HW226094   4.112   1.790   6.605
 8399SOL     OW26095   5.946   6.833   6.553
 8399SOL    HW126096   6.028   6.871   6.594
 8399SOL    HW226097   5.970   6.779   6.473
 8400SOL     OW26098   1.907   1.067   4.432
 8400SOL    HW126099   1.935   1.163   4.446
 8400SOL    HW226100   1.847   1.039   4.507
 8401SOL     OW26101   1.896   1.603   5.405
 8401SOL    HW126102   1.898   1.634   5.310
 8401SOL    HW226103   1.914   1.680   5.466
 8402SOL     OW26104   4.704   1.782   5.875
 8402SOL    HW126105   4.743   1.869   5.905
 8402SOL    HW226106   4.746   1.754   5.788
 8403SOL     OW26107   0.796   2.916   4.619
 8403SOL    HW126108   0.857   2.930   4.698
 8403SOL    HW226109   0.797   2.999   4.562
 8404SOL     OW26110   4.044   0.045   5.913
 8404SOL    HW126111   4.134   0.088   5.908
 8404SOL    HW226112   3.975   0.114   5.933
 8405SOL     OW26113   1.637   1.044   5.460
 8405SOL    HW126114   1.551   1.073   5.419
 8405SOL    HW226115   1.674   1.119   5.515
 8406SOL     OW26116   4.543   0.585   0.483
 8406SOL    HW126117   4.543   0.685   0.485
 8406SOL    HW226118   4.478   0.551   0.550
 8407SOL     OW26119   3.522   6.922   3.625
 8407SOL    HW126120   3.547   6.825   3.637
 8407SOL    HW226121   3.429   6.928   3.589
 8408SOL     OW26122   6.034   3.944   1.576
 8408SOL    HW126123   6.050   3.890   1.659
 8408SOL    HW226124   6.118   3.993   1.553
 8409SOL     OW26125   5.627   2.131   3.149
 8409SOL    HW126126   5.630   2.153   3.052
 8409SOL    HW226127   5.582   2.205   3.199
 8410SOL     OW26128   5.380   0.677   1.926
 8410SOL    HW126129   5.290   0.674   1.881
 8410SOL    HW226130   5.367   0.685   2.025
 8411SOL     OW26131   0.771   4.812   0.095
 8411SOL    HW126132   0.778   4.718   0.130
 8411SOL    HW226133   0.764   4.875   0.172
 8412SOL     OW26134   3.565   1.781   1.438
 8412SOL    HW126135   3.501   1.809   1.367
 8412SOL    HW226136   3.531   1.808   1.528
 8413SOL     OW26137   3.632   5.726   6.886
 8413SOL    HW126138   3.559   5.670   6.926
 8413SOL    HW226139   3.661   5.795   6.951
 8414SOL     OW26140   4.015   5.898   3.909
 8414SOL    HW126141   3.965   5.813   3.893
 8414SOL    HW226142   4.026   5.948   3.823
 8415SOL     OW26143   6.881   6.044   3.952
 8415SOL    HW126144   6.978   6.066   3.957
 8415SOL    HW226145   6.827   6.124   3.979
 8416SOL     OW26146   5.888   3.245   2.767
 8416SOL    HW126147   5.928   3.309   2.702
 8416SOL    HW226148   5.950   3.167   2.779
 8417SOL     OW26149   1.082   4.256   5.813
 8417SOL    HW126150   1.057   4.308   5.894
 8417SOL    HW226151   1.167   4.206   5.830
 8418SOL     OW26152   5.382   5.124   1.126
 8418SOL    HW126153   5.297   5.149   1.080
 8418SOL    HW226154   5.360   5.084   1.216
 8419SOL     OW26155   5.639   6.964   1.999
 8419SOL    HW126156   5.683   0.010   2.064
 8419SOL    HW226157   5.582   0.001   1.936
 8420SOL     OW26158   4.536   0.147   6.625
 8420SOL    HW126159   4.510   0.175   6.533
 8420SOL    HW226160   4.520   0.222   6.689
 8421SOL     OW26161   2.837   5.261   6.825
 8421SOL    HW126162   2.848   5.359   6.839
 8421SOL    HW226163   2.922   5.223   6.790
 8422SOL     OW26164   4.296   1.192   1.695
 8422SOL    HW126165   4.268   1.173   1.789
 8422SOL    HW226166   4.274   1.287   1.673
 8423SOL     OW26167   3.027   5.090   5.668
 8423SOL    HW126168   2.994   5.132   5.753
 8423SOL    HW226169   3.065   5.161   5.608
 8424SOL     OW26170   2.116   2.008   2.257
 8424SOL    HW126171   2.023   2.024   2.288
 8424SOL    HW226172   2.178   2.073   2.300
 8425SOL     OW26173   4.957   4.882   5.856
 8425SOL    HW126174   4.938   4.969   5.902
 8425SOL    HW226175   5.041   4.890   5.803
 8426SOL     OW26176   3.511   3.256   3.256
 8426SOL    HW126177   3.526   3.182   3.191
 8426SOL    HW226178   3.512   3.220   3.349
 8427SOL     OW26179   3.499   4.109   4.994
 8427SOL    HW126180   3.513   4.010   5.004
 8427SOL    HW226181   3.548   4.157   5.067
 8428SOL     OW26182   0.926   5.749   1.389
 8428SOL    HW126183   0.906   5.654   1.412
 8428SOL    HW226184   0.912   5.807   1.469
 8429SOL     OW26185   1.072   5.968   4.255
 8429SOL    HW126186   1.059   6.001   4.348
 8429SOL    HW226187   1.166   5.937   4.243
 8430SOL     OW26188   3.414   5.289   3.223
 8430SOL    HW126189   3.430   5.281   3.322
 8430SOL    HW226190   3.358   5.370   3.205
 8431SOL     OW26191   3.172   4.366   0.853
 8431SOL    HW126192   3.221   4.453   0.861
 8431SOL    HW226193   3.083   4.374   0.898
 8432SOL     OW26194   5.908   6.420   5.674
 8432SOL    HW126195   5.861   6.349   5.621
 8432SOL    HW226196   5.983   6.457   5.620
 8433SOL     OW26197   4.950   2.612   0.404
 8433SOL    HW126198   5.022   2.645   0.344
 8433SOL    HW226199   4.966   2.644   0.497
 8434SOL     OW26200   2.754   0.100   4.726
 8434SOL    HW126201   2.747   0.195   4.757
 8434SOL    HW226202   2.823   0.094   4.654
 8435SOL     OW26203   6.026   0.635   1.616
 8435SOL    HW126204   6.008   0.719   1.565
 8435SOL    HW226205   5.940   0.585   1.628
 8436SOL     OW26206   3.387   6.314   3.393
 8436SOL    HW126207   3.328   6.380   3.346
 8436SOL    HW226208   3.330   6.241   3.431
 8437SOL     OW26209   2.348   1.521   4.293
 8437SOL    HW126210   2.367   1.443   4.353
 8437SOL    HW226211   2.282   1.494   4.223
 8438SOL     OW26212   2.276   5.028   2.536
 8438SOL    HW126213   2.318   5.003   2.623
 8438SOL    HW226214   2.338   5.088   2.485
 8439SOL     OW26215   5.889   4.793   2.553
 8439SOL    HW126216   5.933   4.828   2.636
 8439SOL    HW226217   5.957   4.757   2.491
 8440SOL     OW26218   1.663   2.041   3.446
 8440SOL    HW126219   1.722   2.110   3.488
 8440SOL    HW226220   1.603   2.001   3.515
 8441SOL     OW26221   5.962   6.753   0.216
 8441SOL    HW126222   5.909   6.837   0.204
 8441SOL    HW226223   6.027   6.764   0.291
 8442SOL     OW26224   3.380   1.897   5.092
 8442SOL    HW126225   3.437   1.819   5.120
 8442SOL    HW226226   3.382   1.967   5.163
 8443SOL     OW26227   2.090   4.484   3.557
 8443SOL    HW126228   2.166   4.528   3.605
 8443SOL    HW226229   2.011   4.545   3.557
 8444SOL     OW26230   3.209   6.368   4.100
 8444SOL    HW126231   3.134   6.391   4.038
 8444SOL    HW226232   3.296   6.382   4.053
 8445SOL     OW26233   3.366   6.832   1.230
 8445SOL    HW126234   3.291   6.881   1.274
 8445SOL    HW226235   3.432   6.802   1.299
 8446SOL     OW26236   4.701   5.306   6.699
 8446SOL    HW126237   4.610   5.264   6.702
 8446SOL    HW226238   4.751   5.284   6.783
 8447SOL     OW26239   5.003   1.819   2.237
 8447SOL    HW126240   4.968   1.844   2.147
 8447SOL    HW226241   5.087   1.767   2.227
 8448SOL     OW26242   4.415   5.437   4.077
 8448SOL    HW126243   4.457   5.467   4.163
 8448SOL    HW226244   4.466   5.360   4.040
 8449SOL     OW26245   0.172   3.033   3.643
 8449SOL    HW126246   0.225   3.055   3.562
 8449SOL    HW226247   0.221   2.963   3.696
 8450SOL     OW26248   0.244   6.962   1.050
 8450SOL    HW126249   0.236   6.868   1.081
 8450SOL    HW226250   0.196   0.007   1.114
 8451SOL     OW26251   3.574   1.766   0.219
 8451SOL    HW126252   3.634   1.719   0.155
 8451SOL    HW226253   3.496   1.804   0.170
 8452SOL     OW26254   5.997   1.524   2.820
 8452SOL    HW126255   6.059   1.446   2.816
 8452SOL    HW226256   6.036   1.601   2.769
 8453SOL     OW26257   0.320   4.598   6.802
 8453SOL    HW126258   0.253   4.536   6.842
 8453SOL    HW226259   0.350   4.562   6.714
 8454SOL     OW26260   6.724   6.571   1.658
 8454SOL    HW126261   6.649   6.615   1.706
 8454SOL    HW226262   6.802   6.635   1.653
 8455SOL     OW26263   6.741   2.137   1.949
 8455SOL    HW126264   6.763   2.062   2.011
 8455SOL    HW226265   6.732   2.222   2.001
 8456SOL     OW26266   3.969   5.643   3.334
 8456SOL    HW126267   3.977   5.544   3.342
 8456SOL    HW226268   3.980   5.685   3.424
 8457SOL     OW26269   6.897   6.727   4.985
 8457SOL    HW126270   6.926   6.634   5.005
 8457SOL    HW226271   6.946   6.761   4.905
 8458SOL     OW26272   3.191   0.555   0.112
 8458SOL    HW126273   3.094   0.549   0.088
 8458SOL    HW226274   3.245   0.567   0.028
 8459SOL     OW26275   2.628   5.950   2.100
 8459SOL    HW126276   2.536   5.959   2.138
 8459SOL    HW226277   2.674   6.039   2.101
 8460SOL     OW26278   4.111   4.405   5.319
 8460SOL    HW126279   4.170   4.415   5.239
 8460SOL    HW226280   4.024   4.364   5.291
 8461SOL     OW26281   1.065   4.033   4.768
 8461SOL    HW126282   1.008   3.999   4.693
 8461SOL    HW226283   1.051   4.132   4.779
 8462SOL     OW26284   2.361   2.740   6.666
 8462SOL    HW126285   2.361   2.768   6.762
 8462SOL    HW226286   2.413   2.655   6.656
 8463SOL     OW26287   0.054   6.666   1.238
 8463SOL    HW126288   0.124   6.654   1.169
 8463SOL    HW226289   6.989   6.707   1.197
 8464SOL     OW26290   5.803   3.879   3.996
 8464SOL    HW126291   5.780   3.791   3.954
 8464SOL    HW226292   5.722   3.938   3.996
 8465SOL     OW26293   0.955   3.315   0.658
 8465SOL    HW126294   0.941   3.217   0.672
 8465SOL    HW226295   0.882   3.366   0.705
 8466SOL     OW26296   0.806   6.296   3.950
 8466SOL    HW126297   0.722   6.292   4.004
 8466SOL    HW226298   0.784   6.320   3.856
 8467SOL     OW26299   3.545   6.929   6.661
 8467SOL    HW126300   3.470   6.907   6.599
 8467SOL    HW226301   3.632   6.905   6.617
 8468SOL     OW26302   3.775   1.965   6.495
 8468SOL    HW126303   3.728   1.988   6.580
 8468SOL    HW226304   3.826   1.879   6.507
 8469SOL     OW26305   2.970   1.760   6.727
 8469SOL    HW126306   2.998   1.775   6.822
 8469SOL    HW226307   2.925   1.671   6.719
 8470SOL     OW26308   1.101   4.375   0.182
 8470SOL    HW126309   1.102   4.331   0.093
 8470SOL    HW226310   1.032   4.331   0.240
 8471SOL     OW26311   3.485   1.189   3.170
 8471SOL    HW126312   3.390   1.160   3.180
 8471SOL    HW226313   3.520   1.218   3.259
 8472SOL     OW26314   6.884   0.941   4.650
 8472SOL    HW126315   6.906   0.896   4.736
 8472SOL    HW226316   6.950   0.914   4.580
 8473SOL     OW26317   6.272   6.020   6.774
 8473SOL    HW126318   6.245   6.116   6.786
 8473SOL    HW226319   6.372   6.014   6.772
 8474SOL     OW26320   3.215   3.348   2.194
 8474SOL    HW126321   3.139   3.284   2.204
 8474SOL    HW226322   3.241   3.382   2.284
 8475SOL     OW26323   0.849   2.345   3.211
 8475SOL    HW126324   0.930   2.304   3.253
 8475SOL    HW226325   0.819   2.288   3.134
 8476SOL     OW26326   6.597   1.821   0.944
 8476SOL    HW126327   6.526   1.891   0.955
 8476SOL    HW226328   6.685   1.865   0.929
 8477SOL     OW26329   4.668   6.830   1.540
 8477SOL    HW126330   4.648   6.812   1.636
 8477SOL    HW226331   4.766   6.816   1.523
 8478SOL     OW26332   1.135   0.240   6.187
 8478SOL    HW126333   1.217   0.243   6.244
 8478SOL    HW226334   1.053   0.251   6.244
 8479SOL     OW26335   6.875   3.068   1.226
 8479SOL    HW126336   6.903   3.162   1.244
 8479SOL    HW226337   6.865   3.055   1.128
 8480SOL     OW26338   4.466   1.513   0.301
 8480SOL    HW126339   4.391   1.555   0.351
 8480SOL    HW226340   4.437   1.493   0.207
 8481SOL     OW26341   4.822   1.897   3.339
 8481SOL    HW126342   4.759   1.822   3.355
 8481SOL    HW226343   4.819   1.925   3.243
 8482SOL     OW26344   4.542   5.729   2.219
 8482SOL    HW126345   4.554   5.825   2.194
 8482SOL    HW226346   4.462   5.693   2.172
 8483SOL     OW26347   4.159   6.274   2.022
 8483SOL    HW126348   4.093   6.208   2.059
 8483SOL    HW226349   4.122   6.366   2.031
 8484SOL     OW26350   0.526   5.597   2.938
 8484SOL    HW126351   0.531   5.499   2.917
 8484SOL    HW226352   0.447   5.614   2.997
 8485SOL     OW26353   3.040   3.104   0.565
 8485SOL    HW126354   3.067   3.008   0.559
 8485SOL    HW226355   3.095   3.157   0.500
 8486SOL     OW26356   4.244   1.142   2.831
 8486SOL    HW126357   4.271   1.121   2.924
 8486SOL    HW226358   4.234   1.056   2.779
 8487SOL     OW26359   5.261   1.920   6.265
 8487SOL    HW126360   5.209   1.854   6.210
 8487SOL    HW226361   5.264   1.889   6.360
 8488SOL     OW26362   5.848   5.246   5.787
 8488SOL    HW126363   5.876   5.158   5.749
 8488SOL    HW226364   5.791   5.232   5.867
 8489SOL     OW26365   6.588   1.172   0.970
 8489SOL    HW126366   6.660   1.113   0.932
 8489SOL    HW226367   6.512   1.116   1.001
 8490SOL     OW26368   3.944   6.653   4.588
 8490SOL    HW126369   3.958   6.707   4.671
 8490SOL    HW226370   3.892   6.570   4.611
 8491SOL     OW26371   1.818   6.806   0.834
 8491SOL    HW126372   1.901   6.783   0.784
 8491SOL    HW226373   1.740   6.760   0.791
 8492SOL     OW26374   4.524   4.195   6.359
 8492SOL    HW126375   4.592   4.257   6.321
 8492SOL    HW226376   4.455   4.173   6.290
 8493SOL     OW26377   2.774   2.239   6.271
 8493SOL    HW126378   2.843   2.288   6.218
 8493SOL    HW226379   2.785   2.140   6.257
 8494SOL     OW26380   3.217   4.418   1.188
 8494SOL    HW126381   3.252   4.325   1.201
 8494SOL    HW226382   3.128   4.413   1.143
 8495SOL     OW26383   6.336   4.591   1.135
 8495SOL    HW126384   6.244   4.601   1.172
 8495SOL    HW226385   6.342   4.505   1.083
 8496SOL     OW26386   0.805   1.909   2.292
 8496SOL    HW126387   0.784   1.851   2.214
 8496SOL    HW226388   0.843   1.996   2.259
 8497SOL     OW26389   6.407   1.029   3.646
 8497SOL    HW126390   6.475   1.080   3.699
 8497SOL    HW226391   6.358   1.093   3.586
 8498SOL     OW26392   0.610   6.036   3.034
 8498SOL    HW126393   0.548   6.099   2.986
 8498SOL    HW226394   0.705   6.059   3.012
 8499SOL     OW26395   2.626   4.945   6.217
 8499SOL    HW126396   2.697   4.876   6.231
 8499SOL    HW226397   2.640   5.021   6.281
 8500SOL     OW26398   2.317   6.609   5.116
 8500SOL    HW126399   2.384   6.535   5.123
 8500SOL    HW226400   2.318   6.662   5.201
 8501SOL     OW26401   0.604   1.611   6.897
 8501SOL    HW126402   0.643   1.538   6.840
 8501SOL    HW226403   0.568   1.571   6.982
 8502SOL     OW26404   2.064   4.936   0.974
 8502SOL    HW126405   2.151   4.930   0.925
 8502SOL    HW226406   2.065   4.873   1.052
 8503SOL     OW26407   1.390   6.988   3.963
 8503SOL    HW126408   1.292   6.966   3.965
 8503SOL    HW226409   1.433   6.952   4.045
 8504SOL     OW26410   2.839   5.370   2.986
 8504SOL    HW126411   2.812   5.447   2.929
 8504SOL    HW226412   2.936   5.349   2.970
 8505SOL     OW26413   4.879   3.929   3.586
 8505SOL    HW126414   4.890   3.840   3.630
 8505SOL    HW226415   4.960   3.950   3.532
 8506SOL     OW26416   6.375   1.399   0.153
 8506SOL    HW126417   6.308   1.424   0.082
 8506SOL    HW226418   6.429   1.321   0.121
 8507SOL     OW26419   3.471   1.084   5.458
 8507SOL    HW126420   3.502   1.175   5.432
 8507SOL    HW226421   3.440   1.085   5.553
 8508SOL     OW26422   6.231   1.752   4.926
 8508SOL    HW126423   6.189   1.667   4.959
 8508SOL    HW226424   6.298   1.730   4.855
 8509SOL     OW26425   4.498   1.797   3.402
 8509SOL    HW126426   4.522   1.835   3.313
 8509SOL    HW226427   4.412   1.747   3.395
 8510SOL     OW26428   5.769   4.780   3.017
 8510SOL    HW126429   5.865   4.750   3.013
 8510SOL    HW226430   5.762   4.860   3.077
 8511SOL     OW26431   6.611   4.090   1.401
 8511SOL    HW126432   6.585   4.152   1.326
 8511SOL    HW226433   6.529   4.043   1.435
 8512SOL     OW26434   3.295   1.913   1.368
 8512SOL    HW126435   3.205   1.940   1.404
 8512SOL    HW226436   3.366   1.969   1.409
 8513SOL     OW26437   4.803   4.101   1.932
 8513SOL    HW126438   4.776   4.012   1.967
 8513SOL    HW226439   4.728   4.166   1.945
 8514SOL     OW26440   2.653   2.457   3.780
 8514SOL    HW126441   2.575   2.476   3.720
 8514SOL    HW226442   2.699   2.543   3.804
 8515SOL     OW26443   5.361   1.239   0.248
 8515SOL    HW126444   5.274   1.245   0.199
 8515SOL    HW226445   5.363   1.154   0.301
 8516SOL     OW26446   6.661   1.464   1.257
 8516SOL    HW126447   6.598   1.512   1.319
 8516SOL    HW226448   6.626   1.469   1.164
 8517SOL     OW26449   1.408   3.373   6.850
 8517SOL    HW126450   1.504   3.376   6.879
 8517SOL    HW226451   1.402   3.395   6.753
 8518SOL     OW26452   5.006   4.388   6.848
 8518SOL    HW126453   4.973   4.473   6.890
 8518SOL    HW226454   5.100   4.400   6.818
 8519SOL     OW26455   0.895   4.093   1.293
 8519SOL    HW126456   0.884   3.994   1.285
 8519SOL    HW226457   0.838   4.138   1.225
 8520SOL     OW26458   3.310   3.404   0.444
 8520SOL    HW126459   3.372   3.326   0.452
 8520SOL    HW226460   3.331   3.455   0.361
 8521SOL     OW26461   2.284   5.199   5.607
 8521SOL    HW126462   2.192   5.212   5.572
 8521SOL    HW226463   2.287   5.117   5.664
 8522SOL     OW26464   1.337   6.157   1.186
 8522SOL    HW126465   1.323   6.120   1.278
 8522SOL    HW226466   1.377   6.248   1.192
 8523SOL     OW26467   1.990   6.781   6.787
 8523SOL    HW126468   2.065   6.840   6.755
 8523SOL    HW226469   2.027   6.708   6.844
 8524SOL     OW26470   0.201   2.815   5.433
 8524SOL    HW126471   0.217   2.871   5.351
 8524SOL    HW226472   0.253   2.730   5.424
 8525SOL     OW26473   6.153   4.452   2.076
 8525SOL    HW126474   6.058   4.483   2.076
 8525SOL    HW226475   6.161   4.367   2.024
 8526SOL     OW26476   4.187   6.424   6.560
 8526SOL    HW126477   4.168   6.456   6.467
 8526SOL    HW226478   4.157   6.492   6.626
 8527SOL     OW26479   2.685   1.084   6.249
 8527SOL    HW126480   2.679   1.175   6.208
 8527SOL    HW226481   2.599   1.062   6.293
 8528SOL     OW26482   3.316   1.540   6.860
 8528SOL    HW126483   3.264   1.568   6.779
 8528SOL    HW226484   3.253   1.512   6.932
 8529SOL     OW26485   1.176   0.169   0.917
 8529SOL    HW126486   1.136   0.239   0.859
 8529SOL    HW226487   1.255   0.206   0.965
 8530SOL     OW26488   3.809   4.110   5.566
 8530SOL    HW126489   3.817   4.023   5.613
 8530SOL    HW226490   3.874   4.113   5.490
 8531SOL     OW26491   6.575   4.874   2.688
 8531SOL    HW126492   6.665   4.911   2.665
 8531SOL    HW226493   6.563   4.872   2.787
 8532SOL     OW26494   4.081   4.894   4.862
 8532SOL    HW126495   4.147   4.966   4.843
 8532SOL    HW226496   4.052   4.899   4.957
 8533SOL     OW26497   1.088   7.014   6.784
 8533SOL    HW126498   1.161   0.033   6.725
 8533SOL    HW226499   1.021   0.070   6.802
 8534SOL     OW26500   6.545   2.979   3.526
 8534SOL    HW126501   6.477   2.961   3.597
 8534SOL    HW226502   6.632   3.004   3.569
 8535SOL     OW26503   6.220   1.595   4.198
 8535SOL    HW126504   6.203   1.498   4.179
 8535SOL    HW226505   6.274   1.634   4.123
 8536SOL     OW26506   0.414   2.476   4.935
 8536SOL    HW126507   0.423   2.563   4.885
 8536SOL    HW226508   0.375   2.494   5.025
 8537SOL     OW26509   5.061   0.972   2.417
 8537SOL    HW126510   5.094   1.026   2.340
 8537SOL    HW226511   5.122   0.895   2.433
 8538SOL     OW26512   0.615   0.888   6.970
 8538SOL    HW126513   0.640   0.904   6.874
 8538SOL    HW226514   0.537   0.827   6.974
 8539SOL     OW26515   5.065   0.664   2.535
 8539SOL    HW126516   5.018   0.600   2.597
 8539SOL    HW226517   5.139   0.710   2.586
 8540SOL     OW26518   4.791   0.181   6.203
 8540SOL    HW126519   4.704   0.142   6.172
 8540SOL    HW226520   4.849   0.108   6.239
 8541SOL     OW26521   2.591   1.546   4.163
 8541SOL    HW126522   2.652   1.618   4.194
 8541SOL    HW226523   2.504   1.551   4.213
 8542SOL     OW26524   4.100   4.425   0.232
 8542SOL    HW126525   4.035   4.353   0.208
 8542SOL    HW226526   4.162   4.442   0.155
 8543SOL     OW26527   2.980   0.830   0.864
 8543SOL    HW126528   3.058   0.878   0.825
 8543SOL    HW226529   2.947   0.762   0.798
 8544SOL     OW26530   5.392   2.956   4.454
 8544SOL    HW126531   5.311   2.952   4.396
 8544SOL    HW226532   5.448   3.036   4.429
 8545SOL     OW26533   4.649   6.942   5.230
 8545SOL    HW126534   4.709   6.892   5.291
 8545SOL    HW226535   4.700   0.000   5.186
 8546SOL     OW26536   6.607   1.673   3.797
 8546SOL    HW126537   6.595   1.609   3.873
 8546SOL    HW226538   6.533   1.659   3.731
 8547SOL     OW26539   1.798   6.854   6.067
 8547SOL    HW126540   1.824   6.932   6.011
 8547SOL    HW226541   1.730   6.799   6.019
 8548SOL     OW26542   5.871   2.057   5.395
 8548SOL    HW126543   5.854   2.048   5.297
 8548SOL    HW226544   5.884   1.967   5.436
 8549SOL     OW26545   1.584   2.889   4.035
 8549SOL    HW126546   1.522   2.840   3.974
 8549SOL    HW226547   1.678   2.874   4.005
 8550SOL     OW26548   1.580   4.733   0.167
 8550SOL    HW126549   1.655   4.688   0.118
 8550SOL    HW226550   1.565   4.824   0.128
 8551SOL     OW26551   3.745   3.597   6.518
 8551SOL    HW126552   3.725   3.517   6.574
 8551SOL    HW226553   3.666   3.658   6.517
 8552SOL     OW26554   2.242   0.606   4.217
 8552SOL    HW126555   2.248   0.674   4.144
 8552SOL    HW226556   2.258   0.515   4.179
 8553SOL     OW26557   4.414   4.415   0.313
 8553SOL    HW126558   4.474   4.337   0.330
 8553SOL    HW226559   4.331   4.384   0.266
 8554SOL     OW26560   1.028   4.488   0.666
 8554SOL    HW126561   1.035   4.534   0.754
 8554SOL    HW226562   1.058   4.393   0.675
 8555SOL     OW26563   2.252   1.333   2.748
 8555SOL    HW126564   2.321   1.405   2.751
 8555SOL    HW226565   2.165   1.369   2.780
 8556SOL     OW26566   1.626   6.175   5.273
 8556SOL    HW126567   1.563   6.224   5.213
 8556SOL    HW226568   1.599   6.189   5.368
 8557SOL     OW26569   5.944   0.005   3.121
 8557SOL    HW126570   5.892   6.997   3.039
 8557SOL    HW226571   5.912   6.965   3.198
 8558SOL     OW26572   3.511   4.940   3.268
 8558SOL    HW126573   3.517   4.893   3.356
 8558SOL    HW226574   3.419   4.931   3.231
 8559SOL     OW26575   0.524   0.515   2.512
 8559SOL    HW126576   0.586   0.492   2.437
 8559SOL    HW226577   0.550   0.463   2.594
 8560SOL     OW26578   6.587   6.181   2.021
 8560SOL    HW126579   6.607   6.250   1.952
 8560SOL    HW226580   6.623   6.092   1.991
 8561SOL     OW26581   3.097   0.864   2.499
 8561SOL    HW126582   3.017   0.914   2.464
 8561SOL    HW226583   3.149   0.827   2.422
 8562SOL     OW26584   3.721   5.291   5.678
 8562SOL    HW126585   3.668   5.311   5.595
 8562SOL    HW226586   3.800   5.235   5.654
 8563SOL     OW26587   1.959   4.357   6.690
 8563SOL    HW126588   1.984   4.454   6.680
 8563SOL    HW226589   1.878   4.349   6.748
 8564SOL     OW26590   3.248   0.993   4.709
 8564SOL    HW126591   3.316   1.066   4.713
 8564SOL    HW226592   3.223   0.976   4.613
 8565SOL     OW26593   4.077   5.489   0.967
 8565SOL    HW126594   4.104   5.527   1.055
 8565SOL    HW226595   4.067   5.562   0.900
 8566SOL     OW26596   1.691   0.800   1.433
 8566SOL    HW126597   1.612   0.741   1.448
 8566SOL    HW226598   1.662   0.896   1.437
 8567SOL     OW26599   0.453   2.054   2.689
 8567SOL    HW126600   0.457   2.054   2.589
 8567SOL    HW226601   0.366   2.016   2.719
 8568SOL     OW26602   5.429   1.035   6.258
 8568SOL    HW126603   5.334   1.064   6.261
 8568SOL    HW226604   5.434   0.936   6.242
 8569SOL     OW26605   5.367   1.218   5.999
 8569SOL    HW126606   5.272   1.237   5.974
 8569SOL    HW226607   5.376   1.219   6.099
 8570SOL     OW26608   1.359   2.548   5.223
 8570SOL    HW126609   1.319   2.638   5.241
 8570SOL    HW226610   1.455   2.559   5.199
 8571SOL     OW26611   1.346   5.529   5.431
 8571SOL    HW126612   1.362   5.563   5.524
 8571SOL    HW226613   1.308   5.603   5.375
 8572SOL     OW26614   3.018   4.822   6.763
 8572SOL    HW126615   3.107   4.852   6.797
 8572SOL    HW226616   2.983   4.750   6.823
 8573SOL     OW26617   3.542   6.518   5.889
 8573SOL    HW126618   3.485   6.461   5.948
 8573SOL    HW226619   3.597   6.580   5.946
 8574SOL     OW26620   6.707   5.324   5.336
 8574SOL    HW126621   6.680   5.326   5.240
 8574SOL    HW226622   6.674   5.407   5.382
 8575SOL     OW26623   2.751   2.181   5.216
 8575SOL    HW126624   2.770   2.280   5.214
 8575SOL    HW226625   2.833   2.131   5.189
 8576SOL     OW26626   1.504   5.106   6.659
 8576SOL    HW126627   1.530   5.056   6.741
 8576SOL    HW226628   1.585   5.153   6.622
 8577SOL     OW26629   6.790   6.423   4.208
 8577SOL    HW126630   6.755   6.332   4.231
 8577SOL    HW226631   6.830   6.420   4.116
 8578SOL     OW26632   5.524   1.115   4.600
 8578SOL    HW126633   5.438   1.089   4.557
 8578SOL    HW226634   5.600   1.093   4.539
 8579SOL     OW26635   1.731   0.160   2.700
 8579SOL    HW126636   1.799   0.233   2.693
 8579SOL    HW226637   1.759   0.096   2.771
 8580SOL     OW26638   2.525   6.252   2.368
 8580SOL    HW126639   2.446   6.241   2.308
 8580SOL    HW226640   2.495   6.290   2.456
 8581SOL     OW26641   3.151   3.829   2.147
 8581SOL    HW126642   3.188   3.741   2.117
 8581SOL    HW226643   3.116   3.820   2.241
 8582SOL     OW26644   4.683   4.877   3.009
 8582SOL    HW126645   4.660   4.877   2.912
 8582SOL    HW226646   4.767   4.825   3.024
 8583SOL     OW26647   5.412   0.403   4.625
 8583SOL    HW126648   5.473   0.426   4.701
 8583SOL    HW226649   5.395   0.484   4.569
 8584SOL     OW26650   0.822   4.206   5.748
 8584SOL    HW126651   0.916   4.189   5.778
 8584SOL    HW226652   0.806   4.157   5.662
 8585SOL     OW26653   0.472   5.805   6.435
 8585SOL    HW126654   0.501   5.776   6.344
 8585SOL    HW226655   0.552   5.813   6.495
 8586SOL     OW26656   2.809   0.373   2.918
 8586SOL    HW126657   2.873   0.427   2.864
 8586SOL    HW226658   2.859   0.317   2.984
 8587SOL     OW26659   1.967   6.735   3.863
 8587SOL    HW126660   1.902   6.743   3.787
 8587SOL    HW226661   1.981   6.825   3.904
 8588SOL     OW26662   2.672   0.781   0.220
 8588SOL    HW126663   2.588   0.835   0.223
 8588SOL    HW226664   2.724   0.798   0.304
 8589SOL     OW26665   4.935   2.720   4.896
 8589SOL    HW126666   4.901   2.640   4.847
 8589SOL    HW226667   4.861   2.786   4.910
 8590SOL     OW26668   0.128   6.100   4.045
 8590SOL    HW126669   0.149   6.010   4.083
 8590SOL    HW226670   0.104   6.162   4.119
 8591SOL     OW26671   6.787   4.293   0.154
 8591SOL    HW126672   6.804   4.391   0.152
 8591SOL    HW226673   6.803   4.257   0.246
 8592SOL     OW26674   6.936   2.775   6.886
 8592SOL    HW126675   6.955   2.701   6.822
 8592SOL    HW226676   6.939   2.740   6.980
 8593SOL     OW26677   2.926   0.072   0.994
 8593SOL    HW126678   2.975   7.006   0.965
 8593SOL    HW226679   2.831   0.068   0.962
 8594SOL     OW26680   4.018   2.532   5.634
 8594SOL    HW126681   3.963   2.555   5.553
 8594SOL    HW226682   3.965   2.551   5.717
 8595SOL     OW26683   1.243   2.889   3.360
 8595SOL    HW126684   1.211   2.937   3.278
 8595SOL    HW226685   1.343   2.899   3.367
 8596SOL     OW26686   6.987   5.069   3.534
 8596SOL    HW126687   6.985   5.146   3.599
 8596SOL    HW226688   6.902   5.016   3.544
 8597SOL     OW26689   4.421   0.999   0.729
 8597SOL    HW126690   4.485   1.006   0.806
 8597SOL    HW226691   4.411   1.089   0.686
 8598SOL     OW26692   6.136   6.462   0.978
 8598SOL    HW126693   6.128   6.548   1.028
 8598SOL    HW226694   6.107   6.386   1.037
 8599SOL     OW26695   1.061   2.739   4.418
 8599SOL    HW126696   1.029   2.658   4.466
 8599SOL    HW226697   0.986   2.781   4.368
 8600SOL     OW26698   5.039   5.495   5.887
 8600SOL    HW126699   5.033   5.594   5.875
 8600SOL    HW226700   5.119   5.461   5.838
 8601SOL     OW26701   0.932   0.851   5.005
 8601SOL    HW126702   0.997   0.913   4.961
 8601SOL    HW226703   0.877   0.805   4.935
 8602SOL     OW26704   3.096   5.311   3.090
 8602SOL    HW126705   3.106   5.299   3.189
 8602SOL    HW226706   3.140   5.234   3.043
 8603SOL     OW26707   3.924   5.717   0.316
 8603SOL    HW126708   3.880   5.662   0.387
 8603SOL    HW226709   3.861   5.730   0.240
 8604SOL     OW26710   0.405   3.181   3.543
 8604SOL    HW126711   0.395   3.266   3.490
 8604SOL    HW226712   0.444   3.110   3.484
 8605SOL     OW26713   3.021   5.403   4.796
 8605SOL    HW126714   3.075   5.453   4.729
 8605SOL    HW226715   3.066   5.410   4.886
 8606SOL     OW26716   1.530   3.311   5.948
 8606SOL    HW126717   1.585   3.385   5.909
 8606SOL    HW226718   1.463   3.280   5.880
 8607SOL     OW26719   3.818   6.082   1.025
 8607SOL    HW126720   3.842   5.998   0.976
 8607SOL    HW226721   3.902   6.128   1.055
 8608SOL     OW26722   4.402   5.717   2.931
 8608SOL    HW126723   4.371   5.699   3.024
 8608SOL    HW226724   4.469   5.647   2.905
 8609SOL     OW26725   5.964   1.173   3.534
 8609SOL    HW126726   5.919   1.183   3.623
 8609SOL    HW226727   5.944   1.083   3.496
 8610SOL     OW26728   1.713   2.229   2.540
 8610SOL    HW126729   1.713   2.242   2.639
 8610SOL    HW226730   1.626   2.259   2.502
 8611SOL     OW26731   2.988   1.770   4.266
 8611SOL    HW126732   2.983   1.860   4.223
 8611SOL    HW226733   2.935   1.704   4.212
 8612SOL     OW26734   3.626   3.206   1.119
 8612SOL    HW126735   3.667   3.167   1.201
 8612SOL    HW226736   3.562   3.278   1.145
 8613SOL     OW26737   2.250   1.947   1.093
 8613SOL    HW126738   2.222   1.892   1.172
 8613SOL    HW226739   2.296   2.030   1.125
 8614SOL     OW26740   1.340   3.509   2.127
 8614SOL    HW126741   1.291   3.450   2.192
 8614SOL    HW226742   1.290   3.595   2.116
 8615SOL     OW26743   4.854   1.760   5.078
 8615SOL    HW126744   4.784   1.829   5.096
 8615SOL    HW226745   4.884   1.767   4.983
 8616SOL     OW26746   3.124   4.653   1.773
 8616SOL    HW126747   3.062   4.590   1.822
 8616SOL    HW226748   3.156   4.723   1.836
 8617SOL     OW26749   6.832   1.103   6.654
 8617SOL    HW126750   6.913   1.104   6.712
 8617SOL    HW226751   6.830   1.184   6.597
 8618SOL     OW26752   6.413   6.139   0.849
 8618SOL    HW126753   6.385   6.151   0.944
 8618SOL    HW226754   6.421   6.041   0.829
 8619SOL     OW26755   3.848   4.909   2.339
 8619SOL    HW126756   3.820   4.923   2.434
 8619SOL    HW226757   3.768   4.902   2.280
 8620SOL     OW26758   0.832   0.406   4.023
 8620SOL    HW126759   0.894   0.483   4.010
 8620SOL    HW226760   0.847   0.364   4.112
 8621SOL     OW26761   5.560   1.442   2.710
 8621SOL    HW126762   5.613   1.522   2.738
 8621SOL    HW226763   5.464   1.467   2.701
 8622SOL     OW26764   4.598   2.919   0.087
 8622SOL    HW126765   4.641   2.848   0.143
 8622SOL    HW226766   4.636   3.008   0.112
 8623SOL     OW26767   0.836   3.560   3.581
 8623SOL    HW126768   0.766   3.533   3.647
 8623SOL    HW226769   0.926   3.530   3.614
 8624SOL     OW26770   0.709   3.502   4.804
 8624SOL    HW126771   0.800   3.538   4.825
 8624SOL    HW226772   0.706   3.405   4.828
 8625SOL     OW26773   4.351   6.982   5.893
 8625SOL    HW126774   4.433   6.941   5.854
 8625SOL    HW226775   4.320   0.041   5.834
 8626SOL     OW26776   4.078   3.022   5.684
 8626SOL    HW126777   4.062   3.025   5.585
 8626SOL    HW226778   4.107   2.930   5.711
 8627SOL     OW26779   0.379   1.366   3.352
 8627SOL    HW126780   0.320   1.351   3.273
 8627SOL    HW226781   0.323   1.374   3.434
 8628SOL     OW26782   6.412   6.245   1.121
 8628SOL    HW126783   6.495   6.298   1.139
 8628SOL    HW226784   6.398   6.181   1.196
 8629SOL     OW26785   0.997   4.653   5.217
 8629SOL    HW126786   0.937   4.629   5.141
 8629SOL    HW226787   0.945   4.700   5.288
 8630SOL     OW26788   5.470   4.486   3.344
 8630SOL    HW126789   5.421   4.547   3.407
 8630SOL    HW226790   5.569   4.498   3.357
 8631SOL     OW26791   2.555   5.853   6.078
 8631SOL    HW126792   2.630   5.847   6.144
 8631SOL    HW226793   2.554   5.770   6.023
 8632SOL     OW26794   3.580   6.403   3.755
 8632SOL    HW126795   3.647   6.353   3.810
 8632SOL    HW226796   3.597   6.388   3.658
 8633SOL     OW26797   5.219   2.066   4.949
 8633SOL    HW126798   5.264   2.007   5.016
 8633SOL    HW226799   5.145   2.015   4.904
 8634SOL     OW26800   5.682   3.111   6.983
 8634SOL    HW126801   5.586   3.127   6.958
 8634SOL    HW226802   5.692   3.119   0.066
 8635SOL     OW26803   5.491   4.197   6.462
 8635SOL    HW126804   5.520   4.250   6.383
 8635SOL    HW226805   5.430   4.123   6.433
 8636SOL     OW26806   5.102   5.742   0.515
 8636SOL    HW126807   5.103   5.650   0.555
 8636SOL    HW226808   5.136   5.738   0.421
 8637SOL     OW26809   2.206   1.067   0.115
 8637SOL    HW126810   2.129   1.004   0.103
 8637SOL    HW226811   2.253   1.077   0.027
 8638SOL     OW26812   3.002   3.081   6.754
 8638SOL    HW126813   3.091   3.125   6.742
 8638SOL    HW226814   3.005   2.989   6.715
 8639SOL     OW26815   5.371   2.253   1.791
 8639SOL    HW126816   5.273   2.238   1.779
 8639SOL    HW226817   5.411   2.177   1.841
 8640SOL     OW26818   4.804   3.798   0.649
 8640SOL    HW126819   4.742   3.820   0.724
 8640SOL    HW226820   4.875   3.737   0.682
 8641SOL     OW26821   5.906   5.125   4.467
 8641SOL    HW126822   5.925   5.177   4.550
 8641SOL    HW226823   5.815   5.149   4.433
 8642SOL     OW26824   2.644   0.161   3.080
 8642SOL    HW126825   2.589   0.177   2.998
 8642SOL    HW226826   2.635   0.239   3.142
 8643SOL     OW26827   2.933   0.362   6.517
 8643SOL    HW126828   2.915   0.273   6.474
 8643SOL    HW226829   2.924   0.434   6.448
 8644SOL     OW26830   4.629   2.249   5.572
 8644SOL    HW126831   4.631   2.157   5.610
 8644SOL    HW226832   4.702   2.258   5.504
 8645SOL     OW26833   4.157   4.573   1.207
 8645SOL    HW126834   4.188   4.576   1.112
 8645SOL    HW226835   4.135   4.665   1.238
 8646SOL     OW26836   6.322   1.110   1.596
 8646SOL    HW126837   6.325   1.014   1.625
 8646SOL    HW226838   6.398   1.160   1.637
 8647SOL     OW26839   2.547   5.633   5.882
 8647SOL    HW126840   2.625   5.640   5.821
 8647SOL    HW226841   2.477   5.575   5.840
 8648SOL     OW26842   6.501   0.794   3.485
 8648SOL    HW126843   6.447   0.875   3.509
 8648SOL    HW226844   6.447   0.734   3.426
 8649SOL     OW26845   5.544   4.694   5.962
 8649SOL    HW126846   5.469   4.737   5.912
 8649SOL    HW226847   5.509   4.653   6.046
 8650SOL     OW26848   2.012   5.029   5.497
 8650SOL    HW126849   2.022   5.127   5.479
 8650SOL    HW226850   1.915   5.008   5.513
 8651SOL     OW26851   3.523   0.169   0.755
 8651SOL    HW126852   3.550   0.265   0.753
 8651SOL    HW226853   3.500   0.139   0.662
 8652SOL     OW26854   1.966   4.168   4.124
 8652SOL    HW126855   1.885   4.188   4.180
 8652SOL    HW226856   1.975   4.237   4.052
 8653SOL     OW26857   6.138   0.920   6.243
 8653SOL    HW126858   6.106   0.943   6.151
 8653SOL    HW226859   6.103   0.830   6.268
 8654SOL     OW26860   0.982   5.024   1.190
 8654SOL    HW126861   1.067   5.036   1.139
 8654SOL    HW226862   0.919   5.098   1.168
 8655SOL     OW26863   6.474   1.362   3.685
 8655SOL    HW126864   6.562   1.340   3.643
 8655SOL    HW226865   6.414   1.403   3.617
 8656SOL     OW26866   6.619   0.848   1.208
 8656SOL    HW126867   6.567   0.933   1.209
 8656SOL    HW226868   6.615   0.808   1.117
 8657SOL     OW26869   5.021   4.221   0.434
 8657SOL    HW126870   5.028   4.321   0.425
 8657SOL    HW226871   5.092   4.177   0.380
 8658SOL     OW26872   4.339   6.720   0.341
 8658SOL    HW126873   4.385   6.743   0.255
 8658SOL    HW226874   4.243   6.748   0.335
 8659SOL     OW26875   4.602   1.586   3.039
 8659SOL    HW126876   4.698   1.560   3.032
 8659SOL    HW226877   4.594   1.670   3.092
 8660SOL     OW26878   5.801   3.980   0.654
 8660SOL    HW126879   5.821   3.884   0.673
 8660SOL    HW226880   5.750   4.018   0.731
 8661SOL     OW26881   5.657   4.259   1.175
 8661SOL    HW126882   5.716   4.179   1.184
 8661SOL    HW226883   5.695   4.322   1.107
 8662SOL     OW26884   4.722   6.203   0.891
 8662SOL    HW126885   4.781   6.204   0.810
 8662SOL    HW226886   4.769   6.155   0.965
 8663SOL     OW26887   2.964   6.138   1.806
 8663SOL    HW126888   2.943   6.204   1.878
 8663SOL    HW226889   2.986   6.049   1.847
 8664SOL     OW26890   2.466   6.255   0.813
 8664SOL    HW126891   2.452   6.178   0.875
 8664SOL    HW226892   2.541   6.311   0.846
 8665SOL     OW26893   5.490   6.509   4.968
 8665SOL    HW126894   5.530   6.438   5.026
 8665SOL    HW226895   5.550   6.526   4.890
 8666SOL     OW26896   5.271   1.435   4.357
 8666SOL    HW126897   5.279   1.511   4.291
 8666SOL    HW226898   5.299   1.467   4.448
 8667SOL     OW26899   5.227   2.099   2.921
 8667SOL    HW126900   5.219   2.021   2.983
 8667SOL    HW226901   5.259   2.179   2.972
 8668SOL     OW26902   5.522   3.914   3.223
 8668SOL    HW126903   5.459   3.991   3.219
 8668SOL    HW226904   5.474   3.830   3.197
 8669SOL     OW26905   2.173   6.213   0.015
 8669SOL    HW126906   2.149   6.246   0.106
 8669SOL    HW226907   2.098   6.235   6.968
 8670SOL     OW26908   3.890   4.244   5.238
 8670SOL    HW126909   3.797   4.278   5.224
 8670SOL    HW226910   3.907   4.167   5.176
 8671SOL     OW26911   5.162   1.565   3.686
 8671SOL    HW126912   5.256   1.575   3.718
 8671SOL    HW226913   5.139   1.639   3.623
 8672SOL     OW26914   1.774   4.979   3.761
 8672SOL    HW126915   1.764   5.036   3.679
 8672SOL    HW226916   1.749   5.033   3.842
 8673SOL     OW26917   5.824   2.606   0.440
 8673SOL    HW126918   5.813   2.705   0.447
 8673SOL    HW226919   5.829   2.580   0.343
 8674SOL     OW26920   5.711   6.004   3.628
 8674SOL    HW126921   5.612   6.020   3.628
 8674SOL    HW226922   5.731   5.922   3.574
 8675SOL     OW26923   3.047   1.997   4.148
 8675SOL    HW126924   3.006   2.026   4.061
 8675SOL    HW226925   3.025   2.063   4.219
 8676SOL     OW26926   4.619   0.413   2.770
 8676SOL    HW126927   4.607   0.317   2.742
 8676SOL    HW226928   4.542   0.466   2.736
 8677SOL     OW26929   2.568   5.949   5.201
 8677SOL    HW126930   2.558   5.981   5.107
 8677SOL    HW226931   2.638   5.878   5.205
 8678SOL     OW26932   6.571   0.294   1.181
 8678SOL    HW126933   6.506   0.222   1.205
 8678SOL    HW226934   6.664   0.264   1.204
 8679SOL     OW26935   6.949   2.420   2.888
 8679SOL    HW126936   0.023   2.436   2.928
 8679SOL    HW226937   6.915   2.330   2.915
 8680SOL     OW26938   1.153   4.019   1.069
 8680SOL    HW126939   1.090   3.946   1.043
 8680SOL    HW226940   1.245   3.998   1.034
 8681SOL     OW26941   4.779   5.249   0.291
 8681SOL    HW126942   4.680   5.238   0.289
 8681SOL    HW226943   4.810   5.244   0.386
 8682SOL     OW26944   5.422   0.353   1.705
 8682SOL    HW126945   5.483   0.380   1.780
 8682SOL    HW226946   5.476   0.312   1.632
 8683SOL     OW26947   2.062   2.356   3.099
 8683SOL    HW126948   1.966   2.329   3.090
 8683SOL    HW226949   2.070   2.455   3.092
 8684SOL     OW26950   0.691   2.725   4.991
 8684SOL    HW126951   0.625   2.748   5.063
 8684SOL    HW226952   0.783   2.748   5.023
 8685SOL     OW26953   0.698   1.764   6.272
 8685SOL    HW126954   0.764   1.762   6.197
 8685SOL    HW226955   0.726   1.833   6.339
 8686SOL     OW26956   0.194   1.306   1.666
 8686SOL    HW126957   0.098   1.285   1.649
 8686SOL    HW226958   0.252   1.251   1.606
 8687SOL     OW26959   4.304   5.639   2.145
 8687SOL    HW126960   4.255   5.619   2.060
 8687SOL    HW226961   4.322   5.554   2.194
 8688SOL     OW26962   2.433   6.215   0.450
 8688SOL    HW126963   2.438   6.194   0.352
 8688SOL    HW226964   2.392   6.305   0.463
 8689SOL     OW26965   4.031   4.088   1.390
 8689SOL    HW126966   4.067   4.035   1.313
 8689SOL    HW226967   3.947   4.046   1.423
 8690SOL     OW26968   1.491   3.107   2.948
 8690SOL    HW126969   1.468   3.149   3.036
 8690SOL    HW226970   1.498   3.008   2.958
 8691SOL     OW26971   3.275   2.022   6.039
 8691SOL    HW126972   3.297   2.111   5.998
 8691SOL    HW226973   3.354   1.987   6.088
 8692SOL     OW26974   2.041   1.640   4.179
 8692SOL    HW126975   1.946   1.636   4.209
 8692SOL    HW226976   2.072   1.735   4.177
 8693SOL     OW26977   6.102   0.829   0.201
 8693SOL    HW126978   6.179   0.858   0.257
 8693SOL    HW226979   6.135   0.773   0.125
 8694SOL     OW26980   4.877   0.929   4.675
 8694SOL    HW126981   4.924   0.842   4.662
 8694SOL    HW226982   4.832   0.956   4.590
 8695SOL     OW26983   3.761   2.361   6.043
 8695SOL    HW126984   3.665   2.338   6.023
 8695SOL    HW226985   3.787   2.321   6.131
 8696SOL     OW26986   2.334   5.206   0.056
 8696SOL    HW126987   2.416   5.152   0.073
 8696SOL    HW226988   2.359   5.302   0.047
 8697SOL     OW26989   6.789   2.569   0.041
 8697SOL    HW126990   6.807   2.543   0.136
 8697SOL    HW226991   6.787   2.487   7.000
 8698SOL     OW26992   5.578   6.055   4.669
 8698SOL    HW126993   5.654   5.993   4.654
 8698SOL    HW226994   5.598   6.144   4.629
 8699SOL     OW26995   2.939   2.454   5.808
 8699SOL    HW126996   2.870   2.385   5.787
 8699SOL    HW226997   2.992   2.474   5.726
 8700SOL     OW26998   0.492   0.773   4.735
 8700SOL    HW126999   0.451   0.782   4.644
 8700SOL    HW227000   0.419   0.763   4.803
 8701SOL     OW27001   0.426   1.237   0.353
 8701SOL    HW127002   0.426   1.273   0.259
 8701SOL    HW227003   0.519   1.212   0.379
 8702SOL     OW27004   4.911   5.054   1.491
 8702SOL    HW127005   4.826   5.100   1.465
 8702SOL    HW227006   4.973   5.121   1.533
 8703SOL     OW27007   3.149   4.570   0.309
 8703SOL    HW127008   3.065   4.568   0.254
 8703SOL    HW227009   3.138   4.511   0.389
 8704SOL     OW27010   6.914   3.667   3.092
 8704SOL    HW127011   7.010   3.668   3.064
 8704SOL    HW227012   6.864   3.602   3.035
 8705SOL     OW27013   4.923   1.212   6.327
 8705SOL    HW127014   5.011   1.173   6.296
 8705SOL    HW227015   4.939   1.273   6.404
 8706SOL     OW27016   4.836   1.905   6.832
 8706SOL    HW127017   4.933   1.920   6.850
 8706SOL    HW227018   4.797   1.986   6.788
 8707SOL     OW27019   0.331   2.260   6.672
 8707SOL    HW127020   0.321   2.359   6.666
 8707SOL    HW227021   0.246   2.219   6.705
 8708SOL     OW27022   4.836   2.729   2.467
 8708SOL    HW127023   4.920   2.689   2.504
 8708SOL    HW227024   4.777   2.656   2.433
 8709SOL     OW27025   6.779   6.043   6.918
 8709SOL    HW127026   6.763   5.944   6.927
 8709SOL    HW227027   6.877   6.060   6.910
 8710SOL     OW27028   2.123   3.314   4.417
 8710SOL    HW127029   2.029   3.305   4.386
 8710SOL    HW227030   2.185   3.282   4.345
 8711SOL     OW27031   1.125   6.526   3.127
 8711SOL    HW127032   1.054   6.582   3.168
 8711SOL    HW227033   1.178   6.581   3.062
 8712SOL     OW27034   4.153   2.205   4.835
 8712SOL    HW127035   4.168   2.268   4.911
 8712SOL    HW227036   4.201   2.239   4.754
 8713SOL     OW27037   0.220   2.880   4.036
 8713SOL    HW127038   0.164   2.922   4.107
 8713SOL    HW227039   0.167   2.809   3.990
 8714SOL     OW27040   1.277   1.050   6.338
 8714SOL    HW127041   1.220   0.969   6.354
 8714SOL    HW227042   1.283   1.104   6.422
 8715SOL     OW27043   4.920   0.271   1.228
 8715SOL    HW127044   4.951   0.340   1.162
 8715SOL    HW227045   4.835   0.230   1.195
 8716SOL     OW27046   6.890   0.094   1.260
 8716SOL    HW127047   6.893   0.056   1.352
 8716SOL    HW227048   6.982   0.122   1.232
 8717SOL     OW27049   3.685   3.520   4.086
 8717SOL    HW127050   3.732   3.431   4.084
 8717SOL    HW227051   3.723   3.576   4.159
 8718SOL     OW27052   0.939   3.623   4.896
 8718SOL    HW127053   1.016   3.685   4.878
 8718SOL    HW227054   0.972   3.543   4.946
 8719SOL     OW27055   3.329   0.617   6.093
 8719SOL    HW127056   3.387   0.637   6.014
 8719SOL    HW227057   3.294   0.524   6.087
 8720SOL     OW27058   6.067   4.723   6.341
 8720SOL    HW127059   6.053   4.654   6.413
 8720SOL    HW227060   6.154   4.706   6.296
 8721SOL     OW27061   6.926   2.916   2.418
 8721SOL    HW127062   6.895   2.827   2.385
 8721SOL    HW227063   6.854   2.958   2.474
 8722SOL     OW27064   4.324   1.716   6.918
 8722SOL    HW127065   4.411   1.684   6.956
 8722SOL    HW227066   4.273   1.764   6.989
 8723SOL     OW27067   5.052   5.860   0.886
 8723SOL    HW127068   4.969   5.808   0.865
 8723SOL    HW227069   5.028   5.953   0.912
 8724SOL     OW27070   4.586   0.071   5.680
 8724SOL    HW127071   4.651   0.103   5.749
 8724SOL    HW227072   4.636   0.030   5.604
 8725SOL     OW27073   1.621   6.729   5.880
 8725SOL    HW127074   1.571   6.813   5.899
 8725SOL    HW227075   1.577   6.653   5.927
 8726SOL     OW27076   0.428   1.040   2.179
 8726SOL    HW127077   0.417   1.029   2.080
 8726SOL    HW227078   0.338   1.049   2.221
 8727SOL     OW27079   6.867   5.716   2.743
 8727SOL    HW127080   6.829   5.757   2.660
 8727SOL    HW227081   6.963   5.695   2.729
 8728SOL     OW27082   5.549   0.416   3.296
 8728SOL    HW127083   5.535   0.494   3.235
 8728SOL    HW227084   5.646   0.396   3.304
 8729SOL     OW27085   4.444   5.590   4.937
 8729SOL    HW127086   4.356   5.614   4.896
 8729SOL    HW227087   4.471   5.498   4.907
 8730SOL     OW27088   6.444   3.936   2.291
 8730SOL    HW127089   6.466   3.864   2.356
 8730SOL    HW227090   6.368   3.990   2.325
 8731SOL     OW27091   2.126   2.251   2.412
 8731SOL    HW127092   2.085   2.319   2.473
 8731SOL    HW227093   2.087   2.261   2.320
 8732SOL     OW27094   5.646   4.961   1.801
 8732SOL    HW127095   5.721   5.003   1.853
 8732SOL    HW227096   5.595   4.899   1.860
 8733SOL     OW27097   1.460   5.167   0.805
 8733SOL    HW127098   1.496   5.210   0.888
 8733SOL    HW227099   1.463   5.067   0.816
 8734SOL     OW27100   1.878   4.586   2.034
 8734SOL    HW127101   1.936   4.651   1.984
 8734SOL    HW227102   1.845   4.630   2.118
 8735SOL     OW27103   0.969   2.718   0.443
 8735SOL    HW127104   1.029   2.760   0.376
 8735SOL    HW227105   1.020   2.701   0.528
 8736SOL     OW27106   0.850   5.723   6.349
 8736SOL    HW127107   0.876   5.814   6.382
 8736SOL    HW227108   0.842   5.725   6.249
 8737SOL     OW27109   2.199   6.970   5.919
 8737SOL    HW127110   2.164   0.047   5.932
 8737SOL    HW227111   2.159   6.910   5.988
 8738SOL     OW27112   2.060   5.671   4.480
 8738SOL    HW127113   2.051   5.577   4.448
 8738SOL    HW227114   2.058   5.672   4.580
 8739SOL     OW27115   5.475   5.399   6.243
 8739SOL    HW127116   5.445   5.328   6.307
 8739SOL    HW227117   5.542   5.458   6.288
 8740SOL     OW27118   4.978   1.138   4.802
 8740SOL    HW127119   5.053   1.166   4.743
 8740SOL    HW227120   4.941   1.051   4.770
 8741SOL     OW27121   2.714   1.367   1.799
 8741SOL    HW127122   2.752   1.354   1.707
 8741SOL    HW227123   2.767   1.437   1.847
 8742SOL     OW27124   5.828   6.429   0.963
 8742SOL    HW127125   5.733   6.402   0.948
 8742SOL    HW227126   5.888   6.352   0.942
 8743SOL     OW27127   1.307   0.468   2.390
 8743SOL    HW127128   1.246   0.419   2.452
 8743SOL    HW227129   1.398   0.473   2.430
 8744SOL     OW27130   3.167   2.997   6.454
 8744SOL    HW127131   3.128   2.929   6.516
 8744SOL    HW227132   3.226   3.059   6.504
 8745SOL     OW27133   5.723   2.906   6.265
 8745SOL    HW127134   5.698   2.889   6.360
 8745SOL    HW227135   5.814   2.946   6.261
 8746SOL     OW27136   5.252   4.157   4.819
 8746SOL    HW127137   5.266   4.241   4.872
 8746SOL    HW227138   5.337   4.105   4.816
 8747SOL     OW27139   0.812   2.812   3.266
 8747SOL    HW127140   0.811   2.739   3.197
 8747SOL    HW227141   0.893   2.802   3.324
 8748SOL     OW27142   6.930   1.446   4.994
 8748SOL    HW127143   6.907   1.505   5.072
 8748SOL    HW227144   6.996   1.493   4.935
 8749SOL     OW27145   2.624   0.814   6.090
 8749SOL    HW127146   2.597   0.910   6.079
 8749SOL    HW227147   2.593   0.762   6.011
 8750SOL     OW27148   3.559   3.680   5.530
 8750SOL    HW127149   3.472   3.634   5.544
 8750SOL    HW227150   3.629   3.636   5.587
 8751SOL     OW27151   6.264   1.434   2.111
 8751SOL    HW127152   6.289   1.339   2.092
 8751SOL    HW227153   6.167   1.440   2.131
 8752SOL     OW27154   2.785   3.717   0.380
 8752SOL    HW127155   2.788   3.775   0.299
 8752SOL    HW227156   2.877   3.711   0.420
 8753SOL     OW27157   4.271   1.744   5.664
 8753SOL    HW127158   4.292   1.747   5.762
 8753SOL    HW227159   4.340   1.794   5.613
 8754SOL     OW27160   1.255   3.325   5.555
 8754SOL    HW127161   1.292   3.366   5.472
 8754SOL    HW227162   1.155   3.321   5.548
 8755SOL     OW27163   2.202   0.203   1.121
 8755SOL    HW127164   2.261   0.284   1.115
 8755SOL    HW227165   2.133   0.206   1.048
 8756SOL     OW27166   1.580   2.748   3.494
 8756SOL    HW127167   1.569   2.715   3.589
 8756SOL    HW227168   1.678   2.751   3.472
 8757SOL     OW27169   3.955   6.411   5.763
 8757SOL    HW127170   3.960   6.412   5.664
 8757SOL    HW227171   4.045   6.387   5.801
 8758SOL     OW27172   4.494   5.884   2.720
 8758SOL    HW127173   4.538   5.944   2.788
 8758SOL    HW227174   4.428   5.825   2.767
 8759SOL     OW27175   4.007   2.461   0.214
 8759SOL    HW127176   4.075   2.388   0.205
 8759SOL    HW227177   3.929   2.428   0.267
 8760SOL     OW27178   1.653   1.176   5.111
 8760SOL    HW127179   1.633   1.210   5.019
 8760SOL    HW227180   1.723   1.234   5.153
 8761SOL     OW27181   5.838   2.490   2.354
 8761SOL    HW127182   5.772   2.547   2.404
 8761SOL    HW227183   5.852   2.528   2.262
 8762SOL     OW27184   1.380   4.045   2.925
 8762SOL    HW127185   1.283   4.060   2.909
 8762SOL    HW227186   1.393   3.975   2.995
 8763SOL     OW27187   6.791   6.981   5.688
 8763SOL    HW127188   6.696   7.000   5.664
 8763SOL    HW227189   6.851   0.023   5.632
 8764SOL     OW27190   5.059   0.750   5.158
 8764SOL    HW127191   5.049   0.849   5.148
 8764SOL    HW227192   4.977   0.705   5.122
 8765SOL     OW27193   5.507   6.928   4.236
 8765SOL    HW127194   5.493   6.935   4.335
 8765SOL    HW227195   5.603   6.945   4.215
 8766SOL     OW27196   4.654   4.373   3.498
 8766SOL    HW127197   4.708   4.342   3.420
 8766SOL    HW227198   4.665   4.310   3.574
 8767SOL     OW27199   4.859   6.246   2.596
 8767SOL    HW127200   4.824   6.241   2.690
 8767SOL    HW227201   4.906   6.334   2.583
 8768SOL     OW27202   1.328   2.965   0.461
 8768SOL    HW127203   1.243   2.964   0.408
 8768SOL    HW227204   1.361   3.059   0.468
 8769SOL     OW27205   0.675   0.829   3.706
 8769SOL    HW127206   0.673   0.813   3.607
 8769SOL    HW227207   0.768   0.818   3.740
 8770SOL     OW27208   5.150   4.522   2.459
 8770SOL    HW127209   5.243   4.494   2.481
 8770SOL    HW227210   5.085   4.453   2.494
 8771SOL     OW27211   0.962   0.250   6.789
 8771SOL    HW127212   0.965   0.332   6.848
 8771SOL    HW227213   1.033   0.258   6.719
 8772SOL     OW27214   5.023   6.667   6.577
 8772SOL    HW127215   4.958   6.597   6.546
 8772SOL    HW227216   5.038   6.733   6.504
 8773SOL     OW27217   4.505   2.442   3.605
 8773SOL    HW127218   4.554   2.380   3.667
 8773SOL    HW227219   4.504   2.403   3.513
 8774SOL     OW27220   1.253   1.124   6.611
 8774SOL    HW127221   1.155   1.125   6.631
 8774SOL    HW227222   1.284   1.029   6.605
 8775SOL     OW27223   6.326   6.971   5.741
 8775SOL    HW127224   6.368   0.002   5.663
 8775SOL    HW227225   6.350   6.873   5.737
 8776SOL     OW27226   3.790   3.153   6.346
 8776SOL    HW127227   3.805   3.199   6.434
 8776SOL    HW227228   3.878   3.122   6.309
 8777SOL     OW27229   6.886   3.768   1.238
 8777SOL    HW127230   6.848   3.687   1.192
 8777SOL    HW227231   6.959   3.740   1.300
 8778SOL     OW27232   6.272   2.596   4.879
 8778SOL    HW127233   6.194   2.576   4.820
 8778SOL    HW227234   6.327   2.669   4.837
 8779SOL     OW27235   2.797   5.464   2.156
 8779SOL    HW127236   2.810   5.374   2.115
 8779SOL    HW227237   2.878   5.487   2.210
 8780SOL     OW27238   0.729   5.699   2.604
 8780SOL    HW127239   0.807   5.754   2.572
 8780SOL    HW227240   0.691   5.740   2.687
 8781SOL     OW27241   5.698   1.240   3.097
 8781SOL    HW127242   5.790   1.250   3.133
 8781SOL    HW227243   5.636   1.210   3.170
 8782SOL     OW27244   5.143   6.596   1.629
 8782SOL    HW127245   5.213   6.663   1.653
 8782SOL    HW227246   5.139   6.524   1.698
 8783SOL     OW27247   6.302   3.913   3.252
 8783SOL    HW127248   6.378   3.890   3.191
 8783SOL    HW227249   6.302   3.851   3.330
 8784SOL     OW27250   5.767   4.258   6.616
 8784SOL    HW127251   5.736   4.350   6.593
 8784SOL    HW227252   5.690   4.195   6.610
 8785SOL     OW27253   5.980   3.048   6.702
 8785SOL    HW127254   6.080   3.054   6.703
 8785SOL    HW227255   5.942   3.129   6.657
 8786SOL     OW27256   1.829   0.013   0.310
 8786SOL    HW127257   1.835   6.939   0.267
 8786SOL    HW227258   1.920   0.047   0.331
 8787SOL     OW27259   2.812   2.722   1.489
 8787SOL    HW127260   2.770   2.703   1.401
 8787SOL    HW227261   2.877   2.798   1.479
 8788SOL     OW27262   0.291   2.047   6.173
 8788SOL    HW127263   0.266   1.950   6.167
 8788SOL    HW227264   0.236   2.091   6.244
 8789SOL     OW27265   6.008   6.944   5.872
 8789SOL    HW127266   6.098   6.930   5.914
 8789SOL    HW227267   5.959   6.857   5.869
 8790SOL     OW27268   0.725   0.587   6.737
 8790SOL    HW127269   0.784   0.620   6.810
 8790SOL    HW227270   0.643   0.546   6.777
 8791SOL     OW27271   5.536   0.135   4.852
 8791SOL    HW127272   5.629   0.117   4.887
 8791SOL    HW227273   5.529   0.231   4.825
 8792SOL     OW27274   3.164   6.735   3.166
 8792SOL    HW127275   3.099   6.715   3.239
 8792SOL    HW227276   3.253   6.696   3.188
 8793SOL     OW27277   1.730   4.450   3.233
 8793SOL    HW127278   1.802   4.418   3.172
 8793SOL    HW227279   1.706   4.544   3.210
 8794SOL     OW27280   4.090   6.310   1.725
 8794SOL    HW127281   4.092   6.396   1.674
 8794SOL    HW227282   4.111   6.328   1.821
 8795SOL     OW27283   1.474   5.855   5.476
 8795SOL    HW127284   1.444   5.809   5.393
 8795SOL    HW227285   1.545   5.922   5.453
 8796SOL     OW27286   3.906   2.052   4.131
 8796SOL    HW127287   3.819   2.100   4.142
 8796SOL    HW227288   3.895   1.978   4.065
 8797SOL     OW27289   0.302   6.959   6.213
 8797SOL    HW127290   0.366   6.910   6.154
 8797SOL    HW227291   0.344   6.974   6.302
 8798SOL     OW27292   4.941   5.814   5.889
 8798SOL    HW127293   4.942   5.762   5.974
 8798SOL    HW227294   4.911   5.755   5.814
 8799SOL     OW27295   2.304   4.897   3.934
 8799SOL    HW127296   2.359   4.979   3.920
 8799SOL    HW227297   2.210   4.923   3.957
 8800SOL     OW27298   5.896   3.744   5.523
 8800SOL    HW127299   5.989   3.725   5.493
 8800SOL    HW227300   5.839   3.768   5.444
 8801SOL     OW27301   0.348   2.024   5.127
 8801SOL    HW127302   0.354   2.112   5.079
 8801SOL    HW227303   0.255   1.987   5.116
 8802SOL     OW27304   1.480   6.599   0.683
 8802SOL    HW127305   1.492   6.548   0.597
 8802SOL    HW227306   1.496   6.537   0.760
 8803SOL     OW27307   6.299   5.784   6.624
 8803SOL    HW127308   6.298   5.878   6.657
 8803SOL    HW227309   6.208   5.745   6.631
 8804SOL     OW27310   2.871   0.489   2.403
 8804SOL    HW127311   2.956   0.457   2.443
 8804SOL    HW227312   2.887   0.514   2.307
 8805SOL     OW27313   2.889   0.027   4.214
 8805SOL    HW127314   2.837   0.044   4.130
 8805SOL    HW227315   2.984   0.058   4.201
 8806SOL     OW27316   2.770   5.543   2.783
 8806SOL    HW127317   2.820   5.523   2.699
 8806SOL    HW227318   2.752   5.641   2.788
 8807SOL     OW27319   5.711   6.892   6.953
 8807SOL    HW127320   5.728   6.795   6.938
 8807SOL    HW227321   5.798   6.941   6.962
 8808SOL     OW27322   5.901   2.790   0.031
 8808SOL    HW127323   5.965   2.753   0.098
 8808SOL    HW227324   5.939   2.874   7.009
 8809SOL     OW27325   4.806   5.357   3.800
 8809SOL    HW127326   4.776   5.405   3.882
 8809SOL    HW227327   4.861   5.418   3.744
 8810SOL     OW27328   5.270   0.536   6.047
 8810SOL    HW127329   5.338   0.485   5.993
 8810SOL    HW227330   5.227   0.475   6.113
 8811SOL     OW27331   3.049   1.307   3.500
 8811SOL    HW127332   3.002   1.245   3.437
 8811SOL    HW227333   3.064   1.395   3.454
 8812SOL     OW27334   1.905   0.044   0.902
 8812SOL    HW127335   1.959   0.100   0.839
 8812SOL    HW227336   1.891   6.969   0.863
 8813SOL     OW27337   1.794   4.985   1.474
 8813SOL    HW127338   1.714   4.936   1.438
 8813SOL    HW227339   1.871   4.972   1.412
 8814SOL     OW27340   5.310   0.102   1.214
 8814SOL    HW127341   5.343   0.170   1.280
 8814SOL    HW227342   5.235   0.050   1.255
 8815SOL     OW27343   6.205   6.974   0.636
 8815SOL    HW127344   6.191   6.887   0.589
 8815SOL    HW227345   6.154   0.030   0.590
 8816SOL     OW27346   1.453   0.149   6.686
 8816SOL    HW127347   1.539   0.170   6.640
 8816SOL    HW227348   1.471   0.095   6.768
 8817SOL     OW27349   0.894   5.382   4.746
 8817SOL    HW127350   0.819   5.363   4.682
 8817SOL    HW227351   0.905   5.305   4.808
 8818SOL     OW27352   0.365   4.329   4.681
 8818SOL    HW127353   0.366   4.229   4.680
 8818SOL    HW227354   0.271   4.362   4.680
 8819SOL     OW27355   5.074   5.265   4.956
 8819SOL    HW127356   5.045   5.254   4.861
 8819SOL    HW227357   5.150   5.330   4.961
 8820SOL     OW27358   1.909   0.873   5.052
 8820SOL    HW127359   1.858   0.890   5.136
 8820SOL    HW227360   1.981   0.806   5.070
 8821SOL     OW27361   2.418   6.444   0.158
 8821SOL    HW127362   2.426   6.512   0.086
 8821SOL    HW227363   2.341   6.383   0.139
 8822SOL     OW27364   7.012   6.959   4.414
 8822SOL    HW127365   0.032   0.025   4.459
 8822SOL    HW227366   6.971   6.985   4.326
 8823SOL     OW27367   2.803   0.790   1.250
 8823SOL    HW127368   2.851   0.714   1.207
 8823SOL    HW227369   2.797   0.866   1.186
 8824SOL     OW27370   1.117   2.677   0.677
 8824SOL    HW127371   1.216   2.674   0.687
 8824SOL    HW227372   1.075   2.671   0.768
 8825SOL     OW27373   2.056   0.062   2.604
 8825SOL    HW127374   2.131   0.014   2.558
 8825SOL    HW227375   2.064   0.160   2.586
 8826SOL     OW27376   6.325   3.494   1.157
 8826SOL    HW127377   6.388   3.534   1.223
 8826SOL    HW227378   6.296   3.404   1.188
 8827SOL     OW27379   3.841   1.624   2.811
 8827SOL    HW127380   3.880   1.561   2.744
 8827SOL    HW227381   3.891   1.710   2.810
 8828SOL     OW27382   4.682   5.570   5.494
 8828SOL    HW127383   4.590   5.601   5.517
 8828SOL    HW227384   4.690   5.559   5.395
 8829SOL     OW27385   5.280   2.503   0.692
 8829SOL    HW127386   5.259   2.601   0.692
 8829SOL    HW227387   5.326   2.479   0.777
 8830SOL     OW27388   1.335   1.798   2.338
 8830SOL    HW127389   1.410   1.846   2.383
 8830SOL    HW227390   1.309   1.718   2.392
 8831SOL     OW27391   4.858   1.826   4.158
 8831SOL    HW127392   4.767   1.804   4.192
 8831SOL    HW227393   4.888   1.755   4.094
 8832SOL     OW27394   0.086   5.187   3.278
 8832SOL    HW127395   0.027   5.147   3.348
 8832SOL    HW227396   0.031   5.222   3.203
 8833SOL     OW27397   2.642   5.424   5.588
 8833SOL    HW127398   2.622   5.468   5.500
 8833SOL    HW227399   2.684   5.335   5.571
 8834SOL     OW27400   4.987   4.199   4.790
 8834SOL    HW127401   5.083   4.180   4.773
 8834SOL    HW227402   4.930   4.145   4.728
 8835SOL     OW27403   5.167   0.786   6.068
 8835SOL    HW127404   5.171   0.838   5.983
 8835SOL    HW227405   5.224   0.704   6.059
 8836SOL     OW27406   5.174   3.483   7.003
 8836SOL    HW127407   5.080   3.482   0.020
 8836SOL    HW227408   5.180   3.430   6.918
 8837SOL     OW27409   6.573   5.840   2.874
 8837SOL    HW127410   6.665   5.874   2.895
 8837SOL    HW227411   6.577   5.742   2.856
 8838SOL     OW27412   2.638   5.548   3.185
 8838SOL    HW127413   2.658   5.626   3.245
 8838SOL    HW227414   2.546   5.559   3.146
 8839SOL     OW27415   5.774   5.215   3.531
 8839SOL    HW127416   5.785   5.121   3.563
 8839SOL    HW227417   5.799   5.221   3.434
 8840SOL     OW27418   6.817   2.191   2.600
 8840SOL    HW127419   6.879   2.268   2.583
 8840SOL    HW227420   6.833   2.156   2.692
 8841SOL     OW27421   0.769   1.213   5.143
 8841SOL    HW127422   0.761   1.182   5.048
 8841SOL    HW227423   0.734   1.306   5.151
 8842SOL     OW27424   3.572   2.819   2.385
 8842SOL    HW127425   3.500   2.860   2.441
 8842SOL    HW227426   3.564   2.719   2.389
 8843SOL     OW27427   1.692   2.922   5.752
 8843SOL    HW127428   1.690   2.838   5.698
 8843SOL    HW227429   1.614   2.922   5.815
 8844SOL     OW27430   6.823   2.513   6.717
 8844SOL    HW127431   6.755   2.583   6.739
 8844SOL    HW227432   6.820   2.441   6.786
 8845SOL     OW27433   3.529   3.239   0.105
 8845SOL    HW127434   3.626   3.254   0.121
 8845SOL    HW227435   3.491   3.316   0.053
 8846SOL     OW27436   3.278   5.404   3.867
 8846SOL    HW127437   3.189   5.364   3.843
 8846SOL    HW227438   3.278   5.430   3.963
 8847SOL     OW27439   2.730   0.989   3.103
 8847SOL    HW127440   2.829   0.974   3.094
 8847SOL    HW227441   2.694   1.024   3.017
 8848SOL     OW27442   2.577   1.023   1.685
 8848SOL    HW127443   2.548   1.117   1.703
 8848SOL    HW227444   2.631   1.021   1.601
 8849SOL     OW27445   2.867   6.373   3.365
 8849SOL    HW127446   2.777   6.368   3.407
 8849SOL    HW227447   2.911   6.459   3.390
 8850SOL     OW27448   0.663   2.345   0.356
 8850SOL    HW127449   0.707   2.337   0.446
 8850SOL    HW227450   0.698   2.274   0.295
 8851SOL     OW27451   1.585   4.217   3.615
 8851SOL    HW127452   1.565   4.122   3.640
 8851SOL    HW227453   1.569   4.230   3.518
 8852SOL     OW27454   6.783   2.462   5.491
 8852SOL    HW127455   6.813   2.481   5.397
 8852SOL    HW227456   6.785   2.546   5.544
 8853SOL     OW27457   3.089   0.834   1.331
 8853SOL    HW127458   3.145   0.781   1.394
 8853SOL    HW227459   2.993   0.828   1.358
 8854SOL     OW27460   3.435   2.681   5.876
 8854SOL    HW127461   3.444   2.610   5.946
 8854SOL    HW227462   3.421   2.769   5.921
 8855SOL     OW27463   6.761   5.608   1.374
 8855SOL    HW127464   6.666   5.601   1.341
 8855SOL    HW227465   6.822   5.565   1.307
 8856SOL     OW27466   0.522   6.156   6.563
 8856SOL    HW127467   0.617   6.179   6.586
 8856SOL    HW227468   0.498   6.198   6.476
 8857SOL     OW27469   6.944   1.653   4.424
 8857SOL    HW127470   6.971   1.562   4.392
 8857SOL    HW227471   6.847   1.668   4.404
 8858SOL     OW27472   0.457   3.548   4.604
 8858SOL    HW127473   0.532   3.541   4.669
 8858SOL    HW227474   0.402   3.629   4.625
 8859SOL     OW27475   1.368   0.657   3.427
 8859SOL    HW127476   1.368   0.686   3.331
 8859SOL    HW227477   1.440   0.705   3.477
 8860SOL     OW27478   0.058   2.484   2.143
 8860SOL    HW127479   0.011   2.542   2.076
 8860SOL    HW227480   7.011   2.461   2.217
 8861SOL     OW27481   4.419   1.256   6.501
 8861SOL    HW127482   4.513   1.229   6.483
 8861SOL    HW227483   4.415   1.356   6.511
 8862SOL     OW27484   5.434   0.077   3.706
 8862SOL    HW127485   5.480   0.137   3.641
 8862SOL    HW227486   5.406   7.009   3.660
 8863SOL     OW27487   2.289   4.657   3.787
 8863SOL    HW127488   2.305   4.755   3.802
 8863SOL    HW227489   2.275   4.611   3.874
 8864SOL     OW27490   2.735   5.389   6.391
 8864SOL    HW127491   2.813   5.423   6.443
 8864SOL    HW227492   2.763   5.368   6.297
 8865SOL     OW27493   2.900   0.583   4.751
 8865SOL    HW127494   2.918   0.681   4.748
 8865SOL    HW227495   2.925   0.541   4.663
 8866SOL     OW27496   5.089   0.097   3.083
 8866SOL    HW127497   5.160   0.131   3.144
 8866SOL    HW227498   5.104   7.015   3.065
 8867SOL     OW27499   5.665   4.798   3.443
 8867SOL    HW127500   5.693   4.715   3.396
 8867SOL    HW227501   5.591   4.842   3.392
 8868SOL     OW27502   0.190   3.313   1.592
 8868SOL    HW127503   0.163   3.326   1.497
 8868SOL    HW227504   0.180   3.216   1.616
 8869SOL     OW27505   3.602   6.173   5.066
 8869SOL    HW127506   3.684   6.117   5.081
 8869SOL    HW227507   3.628   6.258   5.019
 8870SOL     OW27508   2.575   6.785   0.816
 8870SOL    HW127509   2.590   6.790   0.717
 8870SOL    HW227510   2.492   6.836   0.839
 8871SOL     OW27511   1.819   0.767   4.081
 8871SOL    HW127512   1.863   0.769   4.170
 8871SOL    HW227513   1.740   0.706   4.084
 8872SOL     OW27514   1.635   4.450   5.445
 8872SOL    HW127515   1.728   4.423   5.420
 8872SOL    HW227516   1.572   4.427   5.370
 8873SOL     OW27517   0.812   6.797   2.145
 8873SOL    HW127518   0.724   6.788   2.191
 8873SOL    HW227519   0.861   6.710   2.150
 8874SOL     OW27520   2.555   5.654   2.366
 8874SOL    HW127521   2.470   5.693   2.330
 8874SOL    HW227522   2.629   5.720   2.354
 8875SOL     OW27523   0.389   3.350   4.361
 8875SOL    HW127524   0.386   3.409   4.441
 8875SOL    HW227525   0.296   3.335   4.327
 8876SOL     OW27526   2.391   6.776   5.329
 8876SOL    HW127527   2.461   6.755   5.397
 8876SOL    HW227528   2.408   6.867   5.291
 8877SOL     OW27529   3.147   1.505   3.837
 8877SOL    HW127530   3.152   1.591   3.889
 8877SOL    HW227531   3.221   1.444   3.867
 8878SOL     OW27532   5.085   5.135   1.066
 8878SOL    HW127533   5.080   5.234   1.077
 8878SOL    HW227534   5.059   5.091   1.152
 8879SOL     OW27535   4.296   4.968   2.292
 8879SOL    HW127536   4.297   4.944   2.194
 8879SOL    HW227537   4.231   4.909   2.340
 8880SOL     OW27538   4.438   5.780   4.466
 8880SOL    HW127539   4.372   5.793   4.540
 8880SOL    HW227540   4.531   5.790   4.503
 8881SOL     OW27541   5.089   6.166   4.100
 8881SOL    HW127542   5.120   6.261   4.101
 8881SOL    HW227543   4.991   6.162   4.085
 8882SOL     OW27544   5.409   0.913   1.400
 8882SOL    HW127545   5.378   0.819   1.412
 8882SOL    HW227546   5.333   0.976   1.417
 8883SOL     OW27547   2.044   6.375   5.985
 8883SOL    HW127548   2.039   6.439   6.062
 8883SOL    HW227549   2.139   6.346   5.971
 8884SOL     OW27550   5.799   3.327   5.005
 8884SOL    HW127551   5.845   3.414   4.986
 8884SOL    HW227552   5.704   3.333   4.977
 8885SOL     OW27553   5.421   4.358   1.185
 8885SOL    HW127554   5.380   4.351   1.275
 8885SOL    HW227555   5.514   4.320   1.188
 8886SOL     OW27556   2.557   6.105   4.937
 8886SOL    HW127557   2.582   6.200   4.917
 8886SOL    HW227558   2.621   6.043   4.892
 8887SOL     OW27559   3.738   0.767   0.736
 8887SOL    HW127560   3.725   0.685   0.679
 8887SOL    HW227561   3.781   0.740   0.822
 8888SOL     OW27562   2.090   1.565   5.852
 8888SOL    HW127563   1.996   1.546   5.882
 8888SOL    HW227564   2.139   1.479   5.839
 8889SOL     OW27565   6.836   6.953   0.040
 8889SOL    HW127566   6.772   0.013   0.052
 8889SOL    HW227567   6.878   6.931   0.128
 8890SOL     OW27568   0.043   6.225   5.599
 8890SOL    HW127569   0.071   6.289   5.670
 8890SOL    HW227570   0.079   6.134   5.619
 8891SOL     OW27571   3.971   3.599   0.050
 8891SOL    HW127572   3.986   3.696   0.067
 8891SOL    HW227573   3.967   3.582   6.967
 8892SOL     OW27574   3.764   4.834   2.864
 8892SOL    HW127575   3.685   4.773   2.863
 8892SOL    HW227576   3.825   4.810   2.789
 8893SOL     OW27577   0.904   5.519   4.205
 8893SOL    HW127578   0.880   5.519   4.108
 8893SOL    HW227579   0.827   5.483   4.258
 8894SOL     OW27580   2.940   1.772   6.451
 8894SOL    HW127581   2.937   1.789   6.550
 8894SOL    HW227582   2.907   1.680   6.432
 8895SOL     OW27583   6.758   2.749   2.274
 8895SOL    HW127584   6.658   2.756   2.276
 8895SOL    HW227585   6.793   2.779   2.186
 8896SOL     OW27586   2.231   3.055   5.304
 8896SOL    HW127587   2.329   3.056   5.282
 8896SOL    HW227588   2.190   2.970   5.271
 8897SOL     OW27589   2.391   2.648   3.979
 8897SOL    HW127590   2.417   2.637   3.883
 8897SOL    HW227591   2.339   2.568   4.009
 8898SOL     OW27592   5.049   3.504   2.682
 8898SOL    HW127593   5.086   3.525   2.773
 8898SOL    HW227594   5.014   3.588   2.641
 8899SOL     OW27595   1.095   4.600   1.308
 8899SOL    HW127596   1.033   4.587   1.385
 8899SOL    HW227597   1.179   4.643   1.341
 8900SOL     OW27598   5.547   3.029   3.020
 8900SOL    HW127599   5.500   2.992   3.100
 8900SOL    HW227600   5.630   3.076   3.050
 8901SOL     OW27601   1.478   1.517   4.803
 8901SOL    HW127602   1.411   1.524   4.877
 8901SOL    HW227603   1.430   1.515   4.715
 8902SOL     OW27604   0.668   5.511   0.438
 8902SOL    HW127605   0.716   5.509   0.349
 8902SOL    HW227606   0.726   5.557   0.505
 8903SOL     OW27607   0.635   2.053   4.254
 8903SOL    HW127608   0.697   2.014   4.186
 8903SOL    HW227609   0.685   2.074   4.338
 8904SOL     OW27610   6.870   0.828   4.908
 8904SOL    HW127611   6.946   0.782   4.953
 8904SOL    HW227612   6.786   0.775   4.921
 8905SOL     OW27613   2.073   3.448   3.502
 8905SOL    HW127614   2.103   3.535   3.541
 8905SOL    HW227615   2.090   3.448   3.404
 8906SOL     OW27616   1.281   6.384   0.310
 8906SOL    HW127617   1.321   6.298   0.341
 8906SOL    HW227618   1.231   6.426   0.385
 8907SOL     OW27619   3.261   3.049   5.467
 8907SOL    HW127620   3.187   2.984   5.450
 8907SOL    HW227621   3.331   3.005   5.524
 8908SOL     OW27622   1.695   5.585   6.968
 8908SOL    HW127623   1.790   5.584   7.000
 8908SOL    HW227624   1.650   5.669   7.000
 8909SOL     OW27625   2.393   1.400   5.460
 8909SOL    HW127626   2.390   1.495   5.429
 8909SOL    HW227627   2.326   1.346   5.408
 8910SOL     OW27628   0.618   2.887   5.682
 8910SOL    HW127629   0.696   2.902   5.743
 8910SOL    HW227630   0.560   2.968   5.680
 8911SOL     OW27631   4.667   2.770   4.399
 8911SOL    HW127632   4.594   2.701   4.391
 8911SOL    HW227633   4.681   2.813   4.310
 8912SOL     OW27634   3.467   3.511   0.225
 8912SOL    HW127635   3.413   3.489   0.144
 8912SOL    HW227636   3.559   3.471   0.216
 8913SOL     OW27637   4.117   5.342   6.021
 8913SOL    HW127638   4.151   5.434   6.045
 8913SOL    HW227639   4.022   5.333   6.050
 8914SOL     OW27640   4.471   6.993   4.742
 8914SOL    HW127641   4.491   6.918   4.680
 8914SOL    HW227642   4.393   6.970   4.800
 8915SOL     OW27643   1.488   2.523   3.389
 8915SOL    HW127644   1.391   2.528   3.364
 8915SOL    HW227645   1.518   2.611   3.426
 8916SOL     OW27646   6.732   3.345   0.724
 8916SOL    HW127647   6.672   3.414   0.683
 8916SOL    HW227648   6.694   3.254   0.708
 8917SOL     OW27649   6.135   2.704   0.201
 8917SOL    HW127650   6.177   2.775   0.257
 8917SOL    HW227651   6.190   2.690   0.119
 8918SOL     OW27652   0.022   4.492   1.302
 8918SOL    HW127653   6.968   4.443   1.353
 8918SOL    HW227654   0.059   4.567   1.358
 8919SOL     OW27655   4.716   4.215   0.145
 8919SOL    HW127656   4.732   4.314   0.150
 8919SOL    HW227657   4.704   4.189   0.049
 8920SOL     OW27658   0.111   1.818   6.895
 8920SOL    HW127659   0.129   1.885   6.967
 8920SOL    HW227660   0.043   1.752   6.928
 8921SOL     OW27661   1.624   2.782   1.772
 8921SOL    HW127662   1.562   2.729   1.715
 8921SOL    HW227663   1.697   2.821   1.715
 8922SOL     OW27664   4.094   5.273   2.101
 8922SOL    HW127665   4.163   5.201   2.108
 8922SOL    HW227666   4.003   5.234   2.110
 8923SOL     OW27667   1.760   1.613   6.737
 8923SOL    HW127668   1.852   1.634   6.704
 8923SOL    HW227669   1.733   1.680   6.806
 8924SOL     OW27670   4.989   5.800   5.420
 8924SOL    HW127671   5.007   5.827   5.325
 8924SOL    HW227672   4.896   5.828   5.446
 8925SOL     OW27673   0.717   0.787   3.078
 8925SOL    HW127674   0.704   0.757   2.983
 8925SOL    HW227675   0.813   0.811   3.092
 8926SOL     OW27676   6.814   2.921   6.452
 8926SOL    HW127677   6.765   2.959   6.530
 8926SOL    HW227678   6.796   2.823   6.445
 8927SOL     OW27679   0.228   1.011   4.795
 8927SOL    HW127680   0.192   0.932   4.745
 8927SOL    HW227681   0.156   1.047   4.855
 8928SOL     OW27682   1.439   6.975   6.121
 8928SOL    HW127683   1.468   6.993   6.028
 8928SOL    HW227684   1.340   6.960   6.124
 8929SOL     OW27685   5.514   1.495   5.220
 8929SOL    HW127686   5.496   1.559   5.145
 8929SOL    HW227687   5.450   1.513   5.295
 8930SOL     OW27688   1.210   2.827   4.814
 8930SOL    HW127689   1.222   2.838   4.715
 8930SOL    HW227690   1.284   2.874   4.862
 8931SOL     OW27691   3.167   3.736   1.167
 8931SOL    HW127692   3.069   3.752   1.161
 8931SOL    HW227693   3.196   3.736   1.263
 8932SOL     OW27694   5.983   2.263   1.730
 8932SOL    HW127695   5.993   2.359   1.755
 8932SOL    HW227696   5.965   2.255   1.632
 8933SOL     OW27697   2.548   3.027   6.287
 8933SOL    HW127698   2.563   3.066   6.378
 8933SOL    HW227699   2.620   2.961   6.266
 8934SOL     OW27700   2.454   5.455   4.336
 8934SOL    HW127701   2.530   5.501   4.380
 8934SOL    HW227702   2.457   5.471   4.237
 8935SOL     OW27703   0.720   4.414   0.055
 8935SOL    HW127704   0.665   4.332   0.041
 8935SOL    HW227705   0.664   4.495   0.034
 8936SOL     OW27706   1.345   3.868   2.388
 8936SOL    HW127707   1.270   3.804   2.403
 8936SOL    HW227708   1.356   3.926   2.468
 8937SOL     OW27709   0.582   0.282   5.634
 8937SOL    HW127710   0.488   0.289   5.603
 8937SOL    HW227711   0.584   0.280   5.734
 8938SOL     OW27712   0.361   6.248   0.113
 8938SOL    HW127713   0.370   6.160   0.065
 8938SOL    HW227714   0.281   6.245   0.173
 8939SOL     OW27715   5.206   3.924   4.038
 8939SOL    HW127716   5.177   3.859   4.108
 8939SOL    HW227717   5.278   3.983   4.075
 8940SOL     OW27718   0.363   1.482   2.007
 8940SOL    HW127719   0.357   1.501   1.909
 8940SOL    HW227720   0.303   1.406   2.030
 8941SOL     OW27721   6.306   2.700   5.370
 8941SOL    HW127722   6.319   2.768   5.298
 8941SOL    HW227723   6.212   2.665   5.367
 8942SOL     OW27724   6.388   4.888   5.529
 8942SOL    HW127725   6.469   4.891   5.587
 8942SOL    HW227726   6.384   4.970   5.471
 8943SOL     OW27727   3.536   4.985   6.134
 8943SOL    HW127728   3.484   4.989   6.049
 8943SOL    HW227729   3.624   4.940   6.118
 8944SOL     OW27730   5.718   4.771   5.789
 8944SOL    HW127731   5.805   4.725   5.808
 8944SOL    HW227732   5.648   4.738   5.852
 8945SOL     OW27733   1.098   0.428   2.818
 8945SOL    HW127734   1.124   0.424   2.721
 8945SOL    HW227735   1.048   0.344   2.843
 8946SOL     OW27736   3.166   1.403   5.091
 8946SOL    HW127737   3.257   1.363   5.098
 8946SOL    HW227738   3.165   1.471   5.017
 8947SOL     OW27739   1.934   3.348   5.978
 8947SOL    HW127740   1.910   3.436   6.019
 8947SOL    HW227741   2.022   3.356   5.932
 8948SOL     OW27742   5.863   6.168   4.421
 8948SOL    HW127743   5.777   6.127   4.391
 8948SOL    HW227744   5.935   6.099   4.422
 8949SOL     OW27745   2.941   6.631   0.776
 8949SOL    HW127746   2.943   6.538   0.740
 8949SOL    HW227747   2.857   6.645   0.828
 8950SOL     OW27748   4.666   4.408   6.290
 8950SOL    HW127749   4.750   4.372   6.331
 8950SOL    HW227750   4.687   4.446   6.200
 8951SOL     OW27751   1.245   1.844   5.190
 8951SOL    HW127752   1.221   1.749   5.169
 8951SOL    HW227753   1.341   1.859   5.168
 8952SOL     OW27754   1.606   6.579   2.962
 8952SOL    HW127755   1.619   6.587   3.061
 8952SOL    HW227756   1.627   6.486   2.933
 8953SOL     OW27757   1.873   3.960   6.781
 8953SOL    HW127758   1.901   3.906   6.702
 8953SOL    HW227759   1.928   3.933   6.861
 8954SOL     OW27760   0.836   0.517   5.038
 8954SOL    HW127761   0.823   0.601   4.985
 8954SOL    HW227762   0.878   0.447   4.980
 8955SOL     OW27763   0.098   5.013   2.448
 8955SOL    HW127764   0.035   5.084   2.480
 8955SOL    HW227765   0.132   5.037   2.357
 8956SOL     OW27766   1.368   0.752   6.834
 8956SOL    HW127767   1.304   0.811   6.883
 8956SOL    HW227768   1.385   0.669   6.888
 8957SOL     OW27769   2.867   4.719   0.874
 8957SOL    HW127770   2.961   4.721   0.908
 8957SOL    HW227771   2.858   4.782   0.798
 8958SOL     OW27772   0.674   1.354   4.660
 8958SOL    HW127773   0.737   1.278   4.679
 8958SOL    HW227774   0.660   1.408   4.743
 8959SOL     OW27775   1.995   4.652   1.655
 8959SOL    HW127776   1.958   4.735   1.614
 8959SOL    HW227777   2.050   4.603   1.587
 8960SOL     OW27778   4.767   4.643   2.677
 8960SOL    HW127779   4.705   4.698   2.733
 8960SOL    HW227780   4.717   4.567   2.637
 8961SOL     OW27781   2.372   1.196   4.117
 8961SOL    HW127782   2.345   1.103   4.140
 8961SOL    HW227783   2.290   1.254   4.113
 8962SOL     OW27784   6.281   5.498   2.066
 8962SOL    HW127785   6.321   5.498   1.975
 8962SOL    HW227786   6.267   5.404   2.097
 8963SOL     OW27787   3.966   6.015   4.221
 8963SOL    HW127788   4.024   5.965   4.157
 8963SOL    HW227789   3.984   6.113   4.213
 8964SOL     OW27790   5.077   3.312   3.343
 8964SOL    HW127791   5.011   3.241   3.320
 8964SOL    HW227792   5.166   3.290   3.302
 8965SOL     OW27793   2.855   4.792   0.315
 8965SOL    HW127794   2.871   4.874   0.370
 8965SOL    HW227795   2.853   4.712   0.375
 8966SOL     OW27796   6.869   4.186   0.411
 8966SOL    HW127797   6.907   4.263   0.463
 8966SOL    HW227798   6.942   4.127   0.378
 8967SOL     OW27799   4.195   0.521   1.418
 8967SOL    HW127800   4.228   0.581   1.492
 8967SOL    HW227801   4.181   0.575   1.336
 8968SOL     OW27802   4.883   5.334   3.073
 8968SOL    HW127803   4.841   5.308   3.160
 8968SOL    HW227804   4.868   5.263   3.005
 8969SOL     OW27805   6.775   1.374   4.653
 8969SOL    HW127806   6.862   1.328   4.664
 8969SOL    HW227807   6.782   1.468   4.688
 8970SOL     OW27808   2.388   3.007   0.379
 8970SOL    HW127809   2.472   3.061   0.393
 8970SOL    HW227810   2.342   3.038   0.295
 8971SOL     OW27811   5.421   5.389   1.230
 8971SOL    HW127812   5.326   5.422   1.231
 8971SOL    HW227813   5.422   5.293   1.201
 8972SOL     OW27814   5.481   4.631   6.424
 8972SOL    HW127815   5.384   4.617   6.446
 8972SOL    HW227816   5.495   4.617   6.327
 8973SOL     OW27817   0.694   3.134   2.210
 8973SOL    HW127818   0.674   3.040   2.236
 8973SOL    HW227819   0.609   3.179   2.181
 8974SOL     OW27820   0.964   4.451   5.649
 8974SOL    HW127821   0.957   4.364   5.698
 8974SOL    HW227822   1.049   4.453   5.597
 8975SOL     OW27823   1.568   6.870   5.504
 8975SOL    HW127824   1.627   6.805   5.553
 8975SOL    HW227825   1.527   6.825   5.425
 8976SOL     OW27826   6.795   5.152   5.981
 8976SOL    HW127827   6.866   5.172   6.049
 8976SOL    HW227828   6.717   5.110   6.026
 8977SOL     OW27829   6.123   2.436   0.272
 8977SOL    HW127830   6.107   2.533   0.250
 8977SOL    HW227831   6.138   2.427   0.370
 8978SOL     OW27832   6.089   0.284   4.308
 8978SOL    HW127833   6.146   0.203   4.322
 8978SOL    HW227834   6.098   0.315   4.213
 8979SOL     OW27835   1.337   4.005   4.802
 8979SOL    HW127836   1.373   3.957   4.721
 8979SOL    HW227837   1.245   4.038   4.783
 8980SOL     OW27838   3.064   2.740   5.636
 8980SOL    HW127839   3.088   2.643   5.638
 8980SOL    HW227840   3.006   2.759   5.557
 8981SOL     OW27841   4.345   1.444   5.905
 8981SOL    HW127842   4.373   1.501   5.828
 8981SOL    HW227843   4.282   1.374   5.873
 8982SOL     OW27844   0.847   2.560   1.456
 8982SOL    HW127845   0.821   2.606   1.541
 8982SOL    HW227846   0.848   2.461   1.471
 8983SOL     OW27847   1.420   5.785   6.992
 8983SOL    HW127848   1.434   5.738   0.064
 8983SOL    HW227849   1.341   5.846   7.000
 8984SOL     OW27850   6.613   6.804   4.605
 8984SOL    HW127851   6.684   6.795   4.535
 8984SOL    HW227852   6.535   6.852   4.567
 8985SOL     OW27853   2.710   2.059   0.975
 8985SOL    HW127854   2.768   2.107   1.042
 8985SOL    HW227855   2.670   2.126   0.913
 8986SOL     OW27856   4.430   5.185   2.075
 8986SOL    HW127857   4.422   5.163   1.978
 8986SOL    HW227858   4.482   5.114   2.121
 8987SOL     OW27859   4.945   6.791   0.995
 8987SOL    HW127860   4.848   6.803   1.016
 8987SOL    HW227861   4.985   6.726   1.060
 8988SOL     OW27862   1.145   3.560   5.705
 8988SOL    HW127863   1.093   3.484   5.666
 8988SOL    HW227864   1.201   3.527   5.781
 8989SOL     OW27865   5.195   3.845   1.353
 8989SOL    HW127866   5.174   3.931   1.307
 8989SOL    HW227867   5.278   3.855   1.407
 8990SOL     OW27868   2.068   5.963   3.213
 8990SOL    HW127869   2.083   5.919   3.125
 8990SOL    HW227870   2.139   6.033   3.227
 8991SOL     OW27871   1.323   1.329   6.795
 8991SOL    HW127872   1.237   1.306   6.839
 8991SOL    HW227873   1.324   1.290   6.703
 8992SOL     OW27874   5.837   1.673   0.152
 8992SOL    HW127875   5.807   1.577   0.152
 8992SOL    HW227876   5.936   1.677   0.167
 8993SOL     OW27877   4.680   2.305   2.918
 8993SOL    HW127878   4.598   2.249   2.925
 8993SOL    HW227879   4.734   2.276   2.839
 8994SOL     OW27880   1.523   4.794   4.843
 8994SOL    HW127881   1.578   4.730   4.789
 8994SOL    HW227882   1.426   4.774   4.829
 8995SOL     OW27883   0.858   2.731   0.076
 8995SOL    HW127884   0.858   2.655   0.140
 8995SOL    HW227885   0.860   2.817   0.126
 8996SOL     OW27886   6.233   5.026   0.662
 8996SOL    HW127887   6.313   5.056   0.611
 8996SOL    HW227888   6.261   4.996   0.753
 8997SOL     OW27889   4.652   1.217   5.799
 8997SOL    HW127890   4.706   1.133   5.810
 8997SOL    HW227891   4.639   1.260   5.889
 8998SOL     OW27892   6.272   3.576   4.346
 8998SOL    HW127893   6.215   3.637   4.402
 8998SOL    HW227894   6.212   3.520   4.289
 8999SOL     OW27895   4.835   6.490   6.945
 8999SOL    HW127896   4.796   6.491   6.853
 8999SOL    HW227897   4.877   6.401   6.962
 9000SOL     OW27898   1.837   3.951   0.737
 9000SOL    HW127899   1.803   3.857   0.733
 9000SOL    HW227900   1.933   3.950   0.765
 9001SOL     OW27901   1.511   5.573   2.695
 9001SOL    HW127902   1.550   5.665   2.702
 9001SOL    HW227903   1.529   5.536   2.604
 9002SOL     OW27904   0.041   4.922   5.058
 9002SOL    HW127905   0.007   4.874   4.978
 9002SOL    HW227906   0.113   4.986   5.031
 9003SOL     OW27907   5.045   3.177   1.648
 9003SOL    HW127908   4.997   3.210   1.730
 9003SOL    HW227909   5.144   3.186   1.662
 9004SOL     OW27910   3.844   6.654   1.324
 9004SOL    HW127911   3.884   6.674   1.235
 9004SOL    HW227912   3.860   6.559   1.348
 9005SOL     OW27913   5.359   2.419   4.137
 9005SOL    HW127914   5.372   2.442   4.234
 9005SOL    HW227915   5.388   2.496   4.081
 9006SOL     OW27916   2.093   6.681   0.892
 9006SOL    HW127917   2.141   6.731   0.820
 9006SOL    HW227918   2.160   6.640   0.954
 9007SOL     OW27919   3.689   1.009   4.515
 9007SOL    HW127920   3.772   0.953   4.507
 9007SOL    HW227921   3.620   0.957   4.565
 9008SOL     OW27922   1.494   5.654   3.338
 9008SOL    HW127923   1.499   5.623   3.243
 9008SOL    HW227924   1.398   5.656   3.367
 9009SOL     OW27925   3.174   7.008   0.570
 9009SOL    HW127926   3.168   0.057   0.646
 9009SOL    HW227927   3.270   6.999   0.542
 9010SOL     OW27928   1.302   6.366   3.748
 9010SOL    HW127929   1.324   6.285   3.803
 9010SOL    HW227930   1.289   6.445   3.807
 9011SOL     OW27931   5.368   2.464   2.187
 9011SOL    HW127932   5.290   2.457   2.125
 9011SOL    HW227933   5.369   2.385   2.248
 9012SOL     OW27934   1.989   4.195   1.157
 9012SOL    HW127935   1.913   4.257   1.141
 9012SOL    HW227936   2.046   4.189   1.075
 9013SOL     OW27937   6.965   6.621   5.373
 9013SOL    HW127938   6.961   6.521   5.369
 9013SOL    HW227939   6.887   6.655   5.425
 9014SOL     OW27940   6.522   2.040   0.103
 9014SOL    HW127941   6.531   1.941   0.108
 9014SOL    HW227942   6.429   2.067   0.127
 9015SOL     OW27943   5.243   1.152   1.176
 9015SOL    HW127944   5.188   1.075   1.144
 9015SOL    HW227945   5.189   1.236   1.170
 9016SOL     OW27946   0.589   6.545   6.263
 9016SOL    HW127947   0.680   6.586   6.253
 9016SOL    HW227948   0.560   6.551   6.358
 9017SOL     OW27949   4.080   1.935   3.105
 9017SOL    HW127950   4.138   1.855   3.122
 9017SOL    HW227951   4.134   2.018   3.116
 9018SOL     OW27952   3.884   2.350   6.848
 9018SOL    HW127953   3.976   2.310   6.848
 9018SOL    HW227954   3.857   2.372   6.754
 9019SOL     OW27955   1.485   6.417   2.031
 9019SOL    HW127956   1.555   6.465   1.978
 9019SOL    HW227957   1.509   6.420   2.128
 9020SOL     OW27958   0.429   4.384   1.579
 9020SOL    HW127959   0.356   4.318   1.563
 9020SOL    HW227960   0.390   4.471   1.609
 9021SOL     OW27961   6.677   0.166   3.728
 9021SOL    HW127962   6.616   0.169   3.808
 9021SOL    HW227963   6.761   0.216   3.749
 9022SOL     OW27964   2.869   2.348   6.755
 9022SOL    HW127965   2.796   2.364   6.821
 9022SOL    HW227966   2.898   2.252   6.760
 9023SOL     OW27967   3.031   3.256   2.473
 9023SOL    HW127968   3.021   3.204   2.388
 9023SOL    HW227969   3.123   3.242   2.510
 9024SOL     OW27970   0.984   4.710   4.889
 9024SOL    HW127971   0.913   4.695   4.820
 9024SOL    HW227972   0.948   4.685   4.979
 9025SOL     OW27973   0.846   5.237   0.202
 9025SOL    HW127974   0.874   5.300   0.130
 9025SOL    HW227975   0.897   5.257   0.286
 9026SOL     OW27976   4.150   3.027   1.261
 9026SOL    HW127977   4.143   2.956   1.191
 9026SOL    HW227978   4.155   2.985   1.352
 9027SOL     OW27979   1.371   2.521   3.779
 9027SOL    HW127980   1.285   2.471   3.792
 9027SOL    HW227981   1.443   2.457   3.755
 9028SOL     OW27982   2.279   3.453   5.342
 9028SOL    HW127983   2.227   3.511   5.279
 9028SOL    HW227984   2.328   3.511   5.407
 9029SOL     OW27985   3.737   6.629   4.976
 9029SOL    HW127986   3.693   6.674   5.053
 9029SOL    HW227987   3.729   6.686   4.895
 9030SOL     OW27988   2.316   1.746   2.959
 9030SOL    HW127989   2.372   1.828   2.951
 9030SOL    HW227990   2.312   1.717   3.054
 9031SOL     OW27991   4.143   5.482   4.318
 9031SOL    HW127992   4.076   5.506   4.389
 9031SOL    HW227993   4.214   5.425   4.359
 9032SOL     OW27994   3.763   2.851   0.551
 9032SOL    HW127995   3.785   2.808   0.464
 9032SOL    HW227996   3.759   2.950   0.539
 9033SOL     OW27997   0.898   4.212   3.380
 9033SOL    HW127998   0.829   4.186   3.313
 9033SOL    HW227999   0.874   4.173   3.469
 9034SOL     OW28000   2.867   0.431   5.664
 9034SOL    HW128001   2.815   0.418   5.580
 9034SOL    HW228002   2.829   0.508   5.716
 9035SOL     OW28003   1.298   5.074   6.467
 9035SOL    HW128004   1.388   5.084   6.510
 9035SOL    HW228005   1.280   5.152   6.408
 9036SOL     OW28006   1.433   1.580   5.836
 9036SOL    HW128007   1.366   1.651   5.860
 9036SOL    HW228008   1.453   1.526   5.918
 9037SOL     OW28009   1.157   3.889   5.171
 9037SOL    HW128010   1.197   3.977   5.196
 9037SOL    HW228011   1.215   3.843   5.103
 9038SOL     OW28012   4.585   6.811   5.874
 9038SOL    HW128013   4.652   6.879   5.906
 9038SOL    HW228014   4.611   6.720   5.907
 9039SOL     OW28015   2.546   5.733   5.450
 9039SOL    HW128016   2.486   5.657   5.476
 9039SOL    HW228017   2.547   5.743   5.351
 9040SOL     OW28018   3.569   1.396   2.413
 9040SOL    HW128019   3.569   1.440   2.324
 9040SOL    HW228020   3.531   1.458   2.481
 9041SOL     OW28021   0.879   2.291   1.533
 9041SOL    HW128022   0.976   2.284   1.510
 9041SOL    HW228023   0.839   2.199   1.537
 9042SOL     OW28024   3.032   0.475   3.947
 9042SOL    HW128025   3.123   0.516   3.942
 9042SOL    HW228026   3.022   0.407   3.874
 9043SOL     OW28027   1.347   0.951   0.258
 9043SOL    HW128028   1.305   0.872   0.213
 9043SOL    HW228029   1.319   1.035   0.212
 9044SOL     OW28030   6.301   0.798   0.396
 9044SOL    HW128031   6.348   0.872   0.445
 9044SOL    HW228032   6.298   0.717   0.454
 9045SOL     OW28033   2.442   1.281   2.302
 9045SOL    HW128034   2.367   1.297   2.367
 9045SOL    HW228035   2.466   1.366   2.256
 9046SOL     OW28036   3.652   3.531   3.215
 9046SOL    HW128037   3.715   3.496   3.145
 9046SOL    HW228038   3.584   3.461   3.237
 9047SOL     OW28039   1.813   3.113   6.089
 9047SOL    HW128040   1.714   3.106   6.099
 9047SOL    HW228041   1.835   3.198   6.041
 9048SOL     OW28042   5.422   2.998   5.979
 9048SOL    HW128043   5.359   3.075   5.994
 9048SOL    HW228044   5.516   3.032   5.973
 9049SOL     OW28045   3.253   0.148   5.834
 9049SOL    HW128046   3.196   0.079   5.880
 9049SOL    HW228047   3.203   0.234   5.830
 9050SOL     OW28048   0.307   3.169   0.566
 9050SOL    HW128049   0.355   3.129   0.488
 9050SOL    HW228050   0.306   3.104   0.642
 9051SOL     OW28051   3.914   6.638   1.050
 9051SOL    HW128052   3.857   6.562   1.019
 9051SOL    HW228053   3.911   6.711   0.982
 9052SOL     OW28054   2.390   1.938   3.899
 9052SOL    HW128055   2.396   1.838   3.901
 9052SOL    HW228056   2.445   1.973   3.823
 9053SOL     OW28057   2.025   0.976   2.664
 9053SOL    HW128058   1.942   1.015   2.704
 9053SOL    HW228059   2.012   0.878   2.649
 9054SOL     OW28060   3.033   6.244   3.074
 9054SOL    HW128061   3.020   6.145   3.084
 9054SOL    HW228062   2.980   6.277   2.996
 9055SOL     OW28063   5.301   2.708   4.301
 9055SOL    HW128064   5.267   2.716   4.395
 9055SOL    HW228065   5.224   2.701   4.239
 9056SOL     OW28066   0.536   1.418   2.217
 9056SOL    HW128067   0.511   1.456   2.306
 9056SOL    HW228068   0.468   1.447   2.148
 9057SOL     OW28069   4.871   4.248   6.346
 9057SOL    HW128070   4.877   4.178   6.274
 9057SOL    HW228071   4.963   4.283   6.366
 9058SOL     OW28072   2.408   2.168   2.209
 9058SOL    HW128073   2.410   2.264   2.235
 9058SOL    HW228074   2.464   2.115   2.272
 9059SOL     OW28075   0.876   2.273   4.271
 9059SOL    HW128076   0.953   2.291   4.209
 9059SOL    HW228077   0.794   2.317   4.236
 9060SOL     OW28078   6.618   2.648   3.534
 9060SOL    HW128079   6.530   2.691   3.514
 9060SOL    HW228080   6.640   2.660   3.631
 9061SOL     OW28081   2.367   5.600   2.602
 9061SOL    HW128082   2.328   5.512   2.575
 9061SOL    HW228083   2.444   5.622   2.543
 9062SOL     OW28084   1.516   5.962   2.118
 9062SOL    HW128085   1.613   5.984   2.131
 9062SOL    HW228086   1.483   5.909   2.196
 9063SOL     OW28087   2.535   6.921   3.112
 9063SOL    HW128088   2.605   6.992   3.110
 9063SOL    HW228089   2.572   6.836   3.077
 9064SOL     OW28090   6.278   2.009   5.346
 9064SOL    HW128091   6.228   1.961   5.274
 9064SOL    HW228092   6.226   2.006   5.431
 9065SOL     OW28093   3.225   0.075   5.512
 9065SOL    HW128094   3.164   0.137   5.463
 9065SOL    HW228095   3.243   0.111   5.603
 9066SOL     OW28096   4.863   6.157   0.647
 9066SOL    HW128097   4.940   6.096   0.662
 9066SOL    HW228098   4.789   6.106   0.602
 9067SOL     OW28099   6.987   0.681   4.294
 9067SOL    HW128100   6.998   0.584   4.317
 9067SOL    HW228101   6.891   0.702   4.279
 9068SOL     OW28102   2.482   6.689   4.525
 9068SOL    HW128103   2.528   6.777   4.530
 9068SOL    HW228104   2.476   6.660   4.429
 9069SOL     OW28105   1.894   3.421   1.254
 9069SOL    HW128106   1.901   3.519   1.269
 9069SOL    HW228107   1.886   3.374   1.342
 9070SOL     OW28108   1.148   3.784   4.836
 9070SOL    HW128109   1.155   3.880   4.808
 9070SOL    HW228110   1.209   3.767   4.914
 9071SOL     OW28111   5.600   0.280   1.501
 9071SOL    HW128112   5.606   0.201   1.439
 9071SOL    HW228113   5.646   0.358   1.459
 9072SOL     OW28114   6.981   1.690   1.826
 9072SOL    HW128115   7.012   1.630   1.900
 9072SOL    HW228116   6.907   1.645   1.776
 9073SOL     OW28117   3.173   6.810   2.418
 9073SOL    HW128118   3.161   6.725   2.470
 9073SOL    HW228119   3.144   6.888   2.474
 9074SOL     OW28120   1.658   2.068   1.935
 9074SOL    HW128121   1.578   2.102   1.984
 9074SOL    HW228122   1.642   2.071   1.836
 9075SOL     OW28123   1.129   1.636   2.080
 9075SOL    HW128124   1.088   1.578   2.010
 9075SOL    HW228125   1.093   1.611   2.169
 9076SOL     OW28126   6.651   2.206   5.754
 9076SOL    HW128127   6.650   2.157   5.666
 9076SOL    HW228128   6.675   2.142   5.827
 9077SOL     OW28129   4.194   0.475   0.472
 9077SOL    HW128130   4.282   0.437   0.442
 9077SOL    HW228131   4.204   0.513   0.564
 9078SOL     OW28132   4.278   3.452   6.327
 9078SOL    HW128133   4.322   3.400   6.401
 9078SOL    HW228134   4.349   3.491   6.268
 9079SOL     OW28135   3.212   0.457   4.221
 9079SOL    HW128136   3.132   0.517   4.223
 9079SOL    HW228137   3.295   0.513   4.225
 9080SOL     OW28138   4.331   2.407   6.294
 9080SOL    HW128139   4.404   2.386   6.228
 9080SOL    HW228140   4.307   2.504   6.286
 9081SOL     OW28141   3.578   6.890   2.564
 9081SOL    HW128142   3.672   6.859   2.579
 9081SOL    HW228143   3.515   6.833   2.617
 9082SOL     OW28144   2.036   0.385   5.568
 9082SOL    HW128145   2.117   0.350   5.522
 9082SOL    HW228146   1.954   0.362   5.516
 9083SOL     OW28147   3.283   5.650   6.093
 9083SOL    HW128148   3.321   5.710   6.022
 9083SOL    HW228149   3.194   5.617   6.065
 9084SOL     OW28150   3.240   4.046   4.498
 9084SOL    HW128151   3.251   4.086   4.407
 9084SOL    HW228152   3.224   4.119   4.564
 9085SOL     OW28153   2.270   0.141   1.687
 9085SOL    HW128154   2.348   0.199   1.709
 9085SOL    HW228155   2.287   0.095   1.599
 9086SOL     OW28156   1.095   4.617   0.420
 9086SOL    HW128157   1.100   4.553   0.497
 9086SOL    HW228158   1.124   4.708   0.450
 9087SOL     OW28159   4.351   2.226   1.598
 9087SOL    HW128160   4.349   2.131   1.629
 9087SOL    HW228161   4.268   2.273   1.627
 9088SOL     OW28162   0.117   6.610   0.844
 9088SOL    HW128163   0.189   6.549   0.877
 9088SOL    HW228164   0.028   6.573   0.870
 9089SOL     OW28165   5.282   5.650   5.594
 9089SOL    HW128166   5.332   5.604   5.667
 9089SOL    HW228167   5.195   5.603   5.578
 9090SOL     OW28168   6.896   1.197   4.092
 9090SOL    HW128169   6.883   1.205   3.994
 9090SOL    HW228170   6.940   1.109   4.112
 9091SOL     OW28171   3.494   4.200   6.786
 9091SOL    HW128172   3.424   4.246   6.732
 9091SOL    HW228173   3.451   4.133   6.846
 9092SOL     OW28174   6.401   0.860   6.854
 9092SOL    HW128175   6.478   0.797   6.836
 9092SOL    HW228176   6.436   0.953   6.862
 9093SOL     OW28177   0.746   5.577   5.679
 9093SOL    HW128178   0.799   5.530   5.748
 9093SOL    HW228179   0.787   5.562   5.589
 9094SOL     OW28180   6.604   4.595   3.013
 9094SOL    HW128181   6.632   4.546   3.095
 9094SOL    HW228182   6.571   4.529   2.945
 9095SOL     OW28183   5.028   4.759   6.213
 9095SOL    HW128184   5.019   4.682   6.150
 9095SOL    HW228185   4.941   4.776   6.258
 9096SOL     OW28186   6.431   5.039   2.526
 9096SOL    HW128187   6.488   5.097   2.469
 9096SOL    HW228188   6.489   4.990   2.591
 9097SOL     OW28189   1.153   1.610   1.091
 9097SOL    HW128190   1.159   1.577   1.185
 9097SOL    HW228191   1.161   1.709   1.089
 9098SOL     OW28192   3.507   1.841   4.644
 9098SOL    HW128193   3.471   1.892   4.721
 9098SOL    HW228194   3.588   1.790   4.674
 9099SOL     OW28195   3.402   3.301   5.935
 9099SOL    HW128196   3.441   3.327   5.846
 9099SOL    HW228197   3.318   3.353   5.951
 9100SOL     OW28198   0.114   3.223   3.273
 9100SOL    HW128199   0.104   3.266   3.363
 9100SOL    HW228200   0.157   3.133   3.285
 9101SOL     OW28201   2.715   2.594   1.721
 9101SOL    HW128202   2.785   2.543   1.772
 9101SOL    HW228203   2.760   2.656   1.657
 9102SOL     OW28204   3.741   6.506   2.042
 9102SOL    HW128205   3.746   6.411   2.010
 9102SOL    HW228206   3.806   6.562   1.991
 9103SOL     OW28207   5.752   2.267   6.720
 9103SOL    HW128208   5.669   2.284   6.667
 9103SOL    HW228209   5.773   2.348   6.775
 9104SOL     OW28210   0.054   6.373   1.626
 9104SOL    HW128211   7.015   6.331   1.698
 9104SOL    HW228212   0.082   6.465   1.654
 9105SOL     OW28213   0.374   1.197   6.446
 9105SOL    HW128214   0.355   1.205   6.348
 9105SOL    HW228215   0.406   1.285   6.482
 9106SOL     OW28216   5.458   3.707   1.366
 9106SOL    HW128217   5.539   3.663   1.405
 9106SOL    HW228218   5.402   3.640   1.318
 9107SOL     OW28219   2.216   0.902   6.628
 9107SOL    HW128220   2.122   0.879   6.602
 9107SOL    HW228221   2.230   1.000   6.618
 9108SOL     OW28222   4.957   4.114   5.273
 9108SOL    HW128223   5.047   4.154   5.252
 9108SOL    HW228224   4.929   4.053   5.199
 9109SOL     OW28225   6.206   3.637   2.916
 9109SOL    HW128226   6.163   3.690   2.989
 9109SOL    HW228227   6.140   3.621   2.843
 9110SOL     OW28228   2.008   5.272   4.239
 9110SOL    HW128229   2.065   5.336   4.187
 9110SOL    HW228230   1.913   5.278   4.206
 9111SOL     OW28231   4.666   2.868   6.839
 9111SOL    HW128232   4.766   2.871   6.848
 9111SOL    HW228233   4.624   2.886   6.928
 9112SOL     OW28234   2.163   5.771   2.714
 9112SOL    HW128235   2.246   5.772   2.658
 9112SOL    HW228236   2.116   5.684   2.702
 9113SOL     OW28237   5.141   2.696   2.630
 9113SOL    HW128238   5.123   2.615   2.574
 9113SOL    HW228239   5.238   2.719   2.625
 9114SOL     OW28240   6.707   5.212   3.675
 9114SOL    HW128241   6.673   5.272   3.747
 9114SOL    HW228242   6.662   5.233   3.589
 9115SOL     OW28243   5.694   5.576   4.989
 9115SOL    HW128244   5.691   5.551   5.085
 9115SOL    HW228245   5.789   5.573   4.957
 9116SOL     OW28246   0.445   6.710   3.021
 9116SOL    HW128247   0.501   6.627   3.015
 9116SOL    HW228248   0.366   6.702   2.960
 9117SOL     OW28249   3.618   2.947   5.779
 9117SOL    HW128250   3.649   2.852   5.772
 9117SOL    HW228251   3.603   2.984   5.688
 9118SOL     OW28252   6.358   3.487   0.254
 9118SOL    HW128253   6.346   3.404   0.199
 9118SOL    HW228254   6.365   3.567   0.194
 9119SOL     OW28255   3.630   0.992   2.075
 9119SOL    HW128256   3.666   1.018   1.985
 9119SOL    HW228257   3.698   1.012   2.145
 9120SOL     OW28258   0.251   1.960   5.836
 9120SOL    HW128259   0.350   1.968   5.828
 9120SOL    HW228260   0.228   1.898   5.911
 9121SOL     OW28261   3.689   6.159   4.760
 9121SOL    HW128262   3.616   6.220   4.792
 9121SOL    HW228263   3.653   6.066   4.750
 9122SOL     OW28264   2.525   4.523   2.056
 9122SOL    HW128265   2.587   4.600   2.039
 9122SOL    HW228266   2.509   4.474   1.970
 9123SOL     OW28267   2.229   0.838   4.518
 9123SOL    HW128268   2.189   0.749   4.495
 9123SOL    HW228269   2.155   0.903   4.538
 9124SOL     OW28270   3.924   5.398   0.726
 9124SOL    HW128271   3.830   5.369   0.744
 9124SOL    HW228272   3.979   5.385   0.809
 9125SOL     OW28273   3.905   4.594   1.397
 9125SOL    HW128274   3.906   4.635   1.306
 9125SOL    HW228275   3.925   4.496   1.389
 9126SOL     OW28276   5.060   3.993   1.757
 9126SOL    HW128277   5.144   3.944   1.730
 9126SOL    HW228278   5.003   3.932   1.812
 9127SOL     OW28279   6.683   2.039   5.958
 9127SOL    HW128280   6.643   2.010   6.044
 9127SOL    HW228281   6.746   1.969   5.925
 9128SOL     OW28282   6.138   2.468   5.508
 9128SOL    HW128283   6.095   2.399   5.567
 9128SOL    HW228284   6.218   2.428   5.463
 9129SOL     OW28285   6.185   1.859   0.151
 9129SOL    HW128286   6.162   1.764   0.174
 9129SOL    HW228287   6.200   1.911   0.236
 9130SOL     OW28288   1.129   4.687   6.298
 9130SOL    HW128289   1.131   4.610   6.234
 9130SOL    HW228290   1.105   4.654   6.389
 9131SOL     OW28291   5.113   3.401   5.949
 9131SOL    HW128292   5.130   3.470   5.878
 9131SOL    HW228293   5.019   3.409   5.981
 9132SOL     OW28294   1.049   5.177   4.584
 9132SOL    HW128295   1.118   5.215   4.646
 9132SOL    HW228296   1.045   5.078   4.595
 9133SOL     OW28297   3.442   0.198   1.229
 9133SOL    HW128298   3.350   0.217   1.195
 9133SOL    HW228299   3.451   0.233   1.322
 9134SOL     OW28300   4.230   5.364   1.274
 9134SOL    HW128301   4.329   5.351   1.260
 9134SOL    HW228302   4.205   5.457   1.248
 9135SOL     OW28303   1.098   6.368   1.401
 9135SOL    HW128304   1.157   6.362   1.482
 9135SOL    HW228305   1.122   6.450   1.349
 9136SOL     OW28306   4.628   5.885   5.654
 9136SOL    HW128307   4.652   5.921   5.564
 9136SOL    HW228308   4.539   5.840   5.649
 9137SOL     OW28309   3.739   0.681   6.816
 9137SOL    HW128310   3.659   0.649   6.868
 9137SOL    HW228311   3.710   0.750   6.750
 9138SOL     OW28312   1.214   3.979   6.371
 9138SOL    HW128313   1.166   4.064   6.393
 9138SOL    HW228314   1.200   3.912   6.444
 9139SOL     OW28315   1.367   1.378   2.182
 9139SOL    HW128316   1.306   1.457   2.178
 9139SOL    HW228317   1.327   1.302   2.131
 9140SOL     OW28318   0.887   4.347   1.830
 9140SOL    HW128319   0.848   4.382   1.915
 9140SOL    HW228320   0.884   4.247   1.830
 9141SOL     OW28321   6.392   6.693   0.201
 9141SOL    HW128322   6.430   6.688   0.108
 9141SOL    HW228323   6.456   6.653   0.265
 9142SOL     OW28324   0.440   3.840   1.387
 9142SOL    HW128325   0.358   3.890   1.358
 9142SOL    HW228326   0.452   3.759   1.330
 9143SOL     OW28327   0.149   4.445   1.716
 9143SOL    HW128328   0.067   4.428   1.770
 9143SOL    HW228329   0.145   4.392   1.631
 9144SOL     OW28330   3.617   5.319   4.609
 9144SOL    HW128331   3.683   5.306   4.535
 9144SOL    HW228332   3.657   5.289   4.695
 9145SOL     OW28333   1.529   5.889   6.755
 9145SOL    HW128334   1.515   5.839   6.841
 9145SOL    HW228335   1.626   5.884   6.730
 9146SOL     OW28336   5.570   3.468   2.637
 9146SOL    HW128337   5.534   3.422   2.718
 9146SOL    HW228338   5.644   3.529   2.664
 9147SOL     OW28339   6.853   0.396   5.032
 9147SOL    HW128340   6.764   0.369   4.994
 9147SOL    HW228341   6.909   0.436   4.960
 9148SOL     OW28342   5.960   6.631   1.857
 9148SOL    HW128343   5.968   6.705   1.790
 9148SOL    HW228344   5.997   6.661   1.945
 9149SOL     OW28345   5.863   2.854   1.836
 9149SOL    HW128346   5.796   2.797   1.788
 9149SOL    HW228347   5.816   2.905   1.908
 9150SOL     OW28348   3.626   4.482   1.040
 9150SOL    HW128349   3.606   4.449   0.948
 9150SOL    HW228350   3.724   4.473   1.058
 9151SOL     OW28351   2.168   3.961   3.539
 9151SOL    HW128352   2.242   4.004   3.591
 9151SOL    HW228353   2.165   4.000   3.447
 9152SOL     OW28354   1.754   4.537   4.435
 9152SOL    HW128355   1.732   4.583   4.349
 9152SOL    HW228356   1.687   4.465   4.452
 9153SOL     OW28357   0.141   2.560   6.812
 9153SOL    HW128358   0.211   2.526   6.748
 9153SOL    HW228359   0.174   2.644   6.856
 9154SOL     OW28360   5.092   3.854   3.380
 9154SOL    HW128361   5.124   3.947   3.395
 9154SOL    HW228362   5.124   3.821   3.292
 9155SOL     OW28363   2.196   4.684   2.827
 9155SOL    HW128364   2.216   4.775   2.792
 9155SOL    HW228365   2.202   4.684   2.927
 9156SOL     OW28366   6.514   2.430   1.760
 9156SOL    HW128367   6.568   2.440   1.844
 9156SOL    HW228368   6.418   2.452   1.779
 9157SOL     OW28369   3.279   4.216   6.584
 9157SOL    HW128370   3.210   4.283   6.611
 9157SOL    HW228371   3.236   4.143   6.531
 9158SOL     OW28372   6.422   3.707   4.157
 9158SOL    HW128373   6.381   3.664   4.238
 9158SOL    HW228374   6.393   3.658   4.075
 9159SOL     OW28375   1.700   0.515   3.780
 9159SOL    HW128376   1.794   0.519   3.817
 9159SOL    HW228377   1.680   0.421   3.752
 9160SOL     OW28378   0.473   5.937   5.588
 9160SOL    HW128379   0.379   5.971   5.590
 9160SOL    HW228380   0.474   5.840   5.614
 9161SOL     OW28381   6.339   4.952   3.479
 9161SOL    HW128382   6.262   5.015   3.495
 9161SOL    HW228383   6.313   4.885   3.410
 9162SOL     OW28384   3.910   0.216   2.976
 9162SOL    HW128385   3.895   0.185   3.070
 9162SOL    HW228386   3.869   0.307   2.964
 9163SOL     OW28387   6.965   3.508   2.807
 9163SOL    HW128388   0.034   3.463   2.778
 9163SOL    HW228389   6.914   3.447   2.868
 9164SOL     OW28390   1.820   1.031   6.937
 9164SOL    HW128391   1.796   0.938   6.912
 9164SOL    HW228392   1.764   1.095   6.883
 9165SOL     OW28393   4.760   1.598   6.122
 9165SOL    HW128394   4.778   1.690   6.158
 9165SOL    HW228395   4.744   1.603   6.024
 9166SOL     OW28396   4.511   5.331   0.807
 9166SOL    HW128397   4.419   5.342   0.844
 9166SOL    HW228398   4.506   5.330   0.707
 9167SOL     OW28399   1.408   2.419   6.200
 9167SOL    HW128400   1.458   2.332   6.206
 9167SOL    HW228401   1.362   2.425   6.111
 9168SOL     OW28402   6.542   5.996   6.719
 9168SOL    HW128403   6.591   6.082   6.706
 9168SOL    HW228404   6.598   5.920   6.686
 9169SOL     OW28405   6.388   5.833   5.992
 9169SOL    HW128406   6.343   5.761   6.044
 9169SOL    HW228407   6.452   5.881   6.052
 9170SOL     OW28408   1.685   0.914   6.564
 9170SOL    HW128409   1.703   1.001   6.517
 9170SOL    HW228410   1.768   0.859   6.565
 9171SOL     OW28411   3.084   5.412   0.421
 9171SOL    HW128412   3.025   5.332   0.408
 9171SOL    HW228413   3.069   5.449   0.513
 9172SOL     OW28414   4.432   2.147   4.473
 9172SOL    HW128415   4.483   2.128   4.557
 9172SOL    HW228416   4.358   2.080   4.464
 9173SOL     OW28417   6.085   3.030   4.422
 9173SOL    HW128418   6.006   2.993   4.471
 9173SOL    HW228419   6.140   3.086   4.484
 9174SOL     OW28420   0.720   5.832   0.032
 9174SOL    HW128421   0.751   5.785   6.965
 9174SOL    HW228422   0.797   5.876   0.077
 9175SOL     OW28423   1.394   6.775   6.967
 9175SOL    HW128424   1.378   6.695   0.008
 9175SOL    HW228425   1.348   6.763   6.879
 9176SOL     OW28426   2.869   6.711   1.203
 9176SOL    HW128427   2.875   6.810   1.211
 9176SOL    HW228428   2.930   6.668   1.269
 9177SOL     OW28429   1.591   2.680   3.798
 9177SOL    HW128430   1.494   2.665   3.777
 9177SOL    HW228431   1.620   2.614   3.868
 9178SOL     OW28432   2.491   5.305   6.107
 9178SOL    HW128433   2.440   5.224   6.136
 9178SOL    HW228434   2.429   5.384   6.104
 9179SOL     OW28435   2.298   5.972   5.233
 9179SOL    HW128436   2.273   6.017   5.147
 9179SOL    HW228437   2.397   5.962   5.238
 9180SOL     OW28438   6.443   2.388   3.833
 9180SOL    HW128439   6.448   2.398   3.932
 9180SOL    HW228440   6.353   2.351   3.807
 9181SOL     OW28441   5.220   2.535   3.580
 9181SOL    HW128442   5.261   2.529   3.671
 9181SOL    HW228443   5.281   2.494   3.513
 9182SOL     OW28444   3.233   1.092   3.223
 9182SOL    HW128445   3.232   1.024   3.296
 9182SOL    HW228446   3.167   1.165   3.243
 9183SOL     OW28447   4.818   3.946   6.576
 9183SOL    HW128448   4.737   4.006   6.583
 9183SOL    HW228449   4.810   3.889   6.495
 9184SOL     OW28450   3.729   2.154   1.112
 9184SOL    HW128451   3.782   2.194   1.037
 9184SOL    HW228452   3.779   2.167   1.198
 9185SOL     OW28453   0.788   6.766   6.028
 9185SOL    HW128454   0.847   6.841   6.002
 9185SOL    HW228455   0.760   6.715   5.947
 9186SOL     OW28456   4.798   0.207   5.402
 9186SOL    HW128457   4.865   0.242   5.467
 9186SOL    HW228458   4.793   0.107   5.410
 9187SOL     OW28459   4.495   2.191   6.699
 9187SOL    HW128460   4.463   2.187   6.793
 9187SOL    HW228461   4.417   2.192   6.637
 9188SOL     OW28462   1.159   0.486   1.506
 9188SOL    HW128463   1.224   0.536   1.449
 9188SOL    HW228464   1.091   0.441   1.448
 9189SOL     OW28465   3.176   0.525   3.471
 9189SOL    HW128466   3.267   0.533   3.513
 9189SOL    HW228467   3.159   0.430   3.447
 9190SOL     OW28468   6.628   3.556   5.451
 9190SOL    HW128469   6.688   3.489   5.407
 9190SOL    HW228470   6.665   3.580   5.541
 9191SOL     OW28471   4.599   6.746   6.597
 9191SOL    HW128472   4.652   6.676   6.644
 9191SOL    HW228473   4.644   6.835   6.607
 9192SOL     OW28474   6.322   3.526   6.259
 9192SOL    HW128475   6.234   3.496   6.223
 9192SOL    HW228476   6.360   3.455   6.318
 9193SOL     OW28477   3.504   3.808   4.036
 9193SOL    HW128478   3.497   3.907   4.018
 9193SOL    HW228479   3.508   3.793   4.135
 9194SOL     OW28480   3.339   5.975   1.762
 9194SOL    HW128481   3.331   5.949   1.858
 9194SOL    HW228482   3.264   5.934   1.710
 9195SOL     OW28483   2.239   2.439   4.400
 9195SOL    HW128484   2.299   2.478   4.330
 9195SOL    HW228485   2.248   2.339   4.400
 9196SOL     OW28486   5.986   0.221   3.816
 9196SOL    HW128487   5.967   0.135   3.863
 9196SOL    HW228488   5.901   0.258   3.778
 9197SOL     OW28489   3.587   4.857   0.936
 9197SOL    HW128490   3.641   4.778   0.966
 9197SOL    HW228491   3.644   4.940   0.941
 9198SOL     OW28492   5.867   4.339   5.998
 9198SOL    HW128493   5.933   4.314   5.927
 9198SOL    HW228494   5.875   4.275   6.074
 9199SOL     OW28495   0.571   3.131   6.138
 9199SOL    HW128496   0.540   3.224   6.160
 9199SOL    HW228497   0.533   3.066   6.203
 9200SOL     OW28498   2.076   5.884   6.602
 9200SOL    HW128499   1.994   5.938   6.620
 9200SOL    HW228500   2.050   5.790   6.579
 9201SOL     OW28501   0.232   3.958   1.276
 9201SOL    HW128502   0.270   4.051   1.283
 9201SOL    HW228503   0.167   3.955   1.200
 9202SOL     OW28504   1.122   5.586   4.384
 9202SOL    HW128505   1.125   5.511   4.450
 9202SOL    HW228506   1.050   5.568   4.317
 9203SOL     OW28507   5.461   2.236   6.069
 9203SOL    HW128508   5.372   2.223   6.026
 9203SOL    HW228509   5.493   2.149   6.106
 9204SOL     OW28510   4.860   3.684   3.327
 9204SOL    HW128511   4.837   3.672   3.424
 9204SOL    HW228512   4.948   3.730   3.319
 9205SOL     OW28513   5.404   3.827   2.407
 9205SOL    HW128514   5.336   3.800   2.474
 9205SOL    HW228515   5.382   3.918   2.372
 9206SOL     OW28516   2.891   0.464   4.318
 9206SOL    HW128517   2.872   0.429   4.226
 9206SOL    HW228518   2.855   0.557   4.326
 9207SOL     OW28519   3.478   6.581   5.596
 9207SOL    HW128520   3.539   6.574   5.675
 9207SOL    HW228521   3.384   6.564   5.624
 9208SOL     OW28522   5.493   4.415   2.232
 9208SOL    HW128523   5.436   4.496   2.220
 9208SOL    HW228524   5.459   4.342   2.173
 9209SOL     OW28525   4.351   0.402   1.851
 9209SOL    HW128526   4.412   0.480   1.862
 9209SOL    HW228527   4.403   0.317   1.864
 9210SOL     OW28528   0.877   0.818   1.145
 9210SOL    HW128529   0.827   0.902   1.163
 9210SOL    HW228530   0.975   0.837   1.144
 9211SOL     OW28531   5.173   2.573   5.732
 9211SOL    HW128532   5.152   2.497   5.670
 9211SOL    HW228533   5.271   2.587   5.735
 9212SOL     OW28534   4.811   4.001   4.926
 9212SOL    HW128535   4.818   4.055   4.843
 9212SOL    HW228536   4.842   3.907   4.909
 9213SOL     OW28537   4.890   6.020   4.480
 9213SOL    HW128538   4.882   6.111   4.521
 9213SOL    HW228539   4.861   6.025   4.384
 9214SOL     OW28540   0.349   2.554   5.455
 9214SOL    HW128541   0.441   2.587   5.474
 9214SOL    HW228542   0.331   2.471   5.508
 9215SOL     OW28543   0.647   4.370   2.542
 9215SOL    HW128544   0.682   4.358   2.634
 9215SOL    HW228545   0.581   4.297   2.521
 9216SOL     OW28546   2.573   6.988   4.575
 9216SOL    HW128547   2.598   7.014   4.481
 9216SOL    HW228548   2.636   0.016   4.639
 9217SOL     OW28549   5.600   1.406   6.830
 9217SOL    HW128550   5.623   1.317   6.790
 9217SOL    HW228551   5.585   1.473   6.757
 9218SOL     OW28552   4.224   1.040   6.577
 9218SOL    HW128553   4.169   1.081   6.505
 9218SOL    HW228554   4.296   1.104   6.604
 9219SOL     OW28555   4.327   3.285   5.700
 9219SOL    HW128556   4.296   3.208   5.756
 9219SOL    HW228557   4.401   3.255   5.640
 9220SOL     OW28558   2.000   5.883   2.347
 9220SOL    HW128559   1.992   5.936   2.432
 9220SOL    HW228560   1.969   5.789   2.363
 9221SOL     OW28561   2.680   0.360   5.489
 9221SOL    HW128562   2.597   0.390   5.536
 9221SOL    HW228563   2.657   0.339   5.394
 9222SOL     OW28564   2.349   4.632   4.856
 9222SOL    HW128565   2.411   4.618   4.934
 9222SOL    HW228566   2.302   4.720   4.867
 9223SOL     OW28567   1.112   2.357   3.770
 9223SOL    HW128568   1.037   2.390   3.827
 9223SOL    HW228569   1.083   2.276   3.719
 9224SOL     OW28570   1.479   3.098   3.692
 9224SOL    HW128571   1.421   3.139   3.621
 9224SOL    HW228572   1.553   3.161   3.715
 9225SOL     OW28573   3.800   6.283   6.172
 9225SOL    HW128574   3.833   6.362   6.120
 9225SOL    HW228575   3.854   6.275   6.256
 9226SOL     OW28576   1.282   0.734   1.321
 9226SOL    HW128577   1.279   0.716   1.223
 9226SOL    HW228578   1.364   0.691   1.360
 9227SOL     OW28579   2.328   5.587   1.433
 9227SOL    HW128580   2.404   5.640   1.469
 9227SOL    HW228581   2.278   5.642   1.365
 9228SOL     OW28582   2.045   2.220   6.356
 9228SOL    HW128583   1.995   2.211   6.270
 9228SOL    HW228584   2.063   2.316   6.375
 9229SOL     OW28585   0.936   5.104   6.398
 9229SOL    HW128586   0.916   5.041   6.323
 9229SOL    HW228587   0.858   5.109   6.460
 9230SOL     OW28588   4.950   2.574   3.554
 9230SOL    HW128589   4.928   2.497   3.494
 9230SOL    HW228590   5.045   2.569   3.582
 9231SOL     OW28591   0.801   4.593   5.486
 9231SOL    HW128592   0.873   4.658   5.509
 9231SOL    HW228593   0.826   4.502   5.520
 9232SOL     OW28594   2.650   5.774   1.136
 9232SOL    HW128595   2.733   5.755   1.189
 9232SOL    HW228596   2.673   5.779   1.039
 9233SOL     OW28597   1.231   6.933   0.591
 9233SOL    HW128598   1.250   6.952   0.495
 9233SOL    HW228599   1.139   6.967   0.614
 9234SOL     OW28600   2.424   5.570   0.531
 9234SOL    HW128601   2.415   5.574   0.630
 9234SOL    HW228602   2.387   5.653   0.490
 9235SOL     OW28603   2.372   2.654   3.266
 9235SOL    HW128604   2.328   2.683   3.351
 9235SOL    HW228605   2.356   2.723   3.195
 9236SOL     OW28606   2.517   3.195   6.553
 9236SOL    HW128607   2.512   3.282   6.504
 9236SOL    HW228608   2.551   3.210   6.646
 9237SOL     OW28609   0.109   5.675   2.763
 9237SOL    HW128610   0.121   5.769   2.794
 9237SOL    HW228611   0.118   5.613   2.841
 9238SOL     OW28612   3.204   2.507   6.170
 9238SOL    HW128613   3.171   2.600   6.184
 9238SOL    HW228614   3.223   2.493   6.072
 9239SOL     OW28615   6.722   4.806   6.518
 9239SOL    HW128616   6.680   4.745   6.450
 9239SOL    HW228617   6.651   4.861   6.563
 9240SOL     OW28618   5.221   2.990   2.877
 9240SOL    HW128619   5.126   2.984   2.907
 9240SOL    HW228620   5.225   3.022   2.782
 9241SOL     OW28621   0.411   5.427   0.452
 9241SOL    HW128622   0.492   5.485   0.444
 9241SOL    HW228623   0.337   5.465   0.397
 9242SOL     OW28624   2.045   3.315   1.773
 9242SOL    HW128625   2.133   3.338   1.815
 9242SOL    HW228626   1.995   3.252   1.833
 9243SOL     OW28627   0.790   0.321   2.007
 9243SOL    HW128628   0.748   0.250   1.950
 9243SOL    HW228629   0.849   0.278   2.075
 9244SOL     OW28630   2.593   6.555   6.149
 9244SOL    HW128631   2.522   6.619   6.119
 9244SOL    HW228632   2.618   6.494   6.073
 9245SOL     OW28633   0.359   4.349   4.012
 9245SOL    HW128634   0.301   4.417   4.058
 9245SOL    HW228635   0.375   4.272   4.074
 9246SOL     OW28636   6.153   0.264   4.028
 9246SOL    HW128637   6.098   0.279   3.946
 9246SOL    HW228638   6.215   0.341   4.042
 9247SOL     OW28639   4.112   5.232   3.283
 9247SOL    HW128640   4.106   5.269   3.376
 9247SOL    HW228641   4.077   5.300   3.218
 9248SOL     OW28642   3.068   2.061   5.477
 9248SOL    HW128643   3.099   1.974   5.440
 9248SOL    HW228644   2.984   2.047   5.529
 9249SOL     OW28645   4.507   5.340   1.227
 9249SOL    HW128646   4.537   5.425   1.185
 9249SOL    HW228647   4.576   5.308   1.292
 9250SOL     OW28648   6.611   3.024   4.034
 9250SOL    HW128649   6.684   2.960   4.012
 9250SOL    HW228650   6.592   3.020   4.133
 9251SOL     OW28651   4.494   2.073   2.124
 9251SOL    HW128652   4.418   2.138   2.118
 9251SOL    HW228653   4.463   1.990   2.172
 9252SOL     OW28654   5.597   0.452   4.849
 9252SOL    HW128655   5.635   0.544   4.859
 9252SOL    HW228656   5.565   0.419   4.938
 9253SOL     OW28657   5.331   5.275   5.978
 9253SOL    HW128658   5.340   5.255   6.075
 9253SOL    HW228659   5.417   5.313   5.944
 9254SOL     OW28660   4.966   5.154   2.610
 9254SOL    HW128661   4.991   5.062   2.581
 9254SOL    HW228662   5.045   5.200   2.648
 9255SOL     OW28663   5.330   3.239   6.314
 9255SOL    HW128664   5.331   3.324   6.367
 9255SOL    HW228665   5.369   3.165   6.368
 9256SOL     OW28666   1.966   6.984   1.612
 9256SOL    HW128667   2.001   6.936   1.692
 9256SOL    HW228668   2.028   0.042   1.587
 9257SOL     OW28669   5.884   5.681   3.040
 9257SOL    HW128670   5.813   5.735   2.994
 9257SOL    HW228671   5.922   5.733   3.116
 9258SOL     OW28672   4.028   3.207   1.067
 9258SOL    HW128673   4.072   3.134   1.120
 9258SOL    HW228674   3.955   3.248   1.122
 9259SOL     OW28675   1.711   1.113   0.185
 9259SOL    HW128676   1.708   1.200   0.136
 9259SOL    HW228677   1.805   1.078   0.187
 9260SOL     OW28678   0.005   2.909   5.886
 9260SOL    HW128679   0.096   2.884   5.851
 9260SOL    HW228680   7.013   3.008   5.889
 9261SOL     OW28681   4.691   0.910   6.490
 9261SOL    HW128682   4.621   0.854   6.535
 9261SOL    HW228683   4.751   0.852   6.436
 9262SOL     OW28684   1.059   6.383   5.571
 9262SOL    HW128685   1.004   6.402   5.653
 9262SOL    HW228686   1.010   6.319   5.512
 9263SOL     OW28687   3.196   5.295   2.472
 9263SOL    HW128688   3.173   5.311   2.568
 9263SOL    HW228689   3.165   5.204   2.445
 9264SOL     OW28690   4.410   3.166   0.376
 9264SOL    HW128691   4.467   3.132   0.451
 9264SOL    HW228692   4.319   3.189   0.411
 9265SOL     OW28693   3.945   2.496   6.369
 9265SOL    HW128694   4.010   2.571   6.374
 9265SOL    HW228695   3.852   2.532   6.382
 9266SOL     OW28696   0.302   5.888   1.570
 9266SOL    HW128697   0.376   5.934   1.619
 9266SOL    HW228698   0.292   5.927   1.479
 9267SOL     OW28699   0.551   2.238   4.070
 9267SOL    HW128700   0.557   2.174   4.147
 9267SOL    HW228701   0.613   2.315   4.086
 9268SOL     OW28702   1.093   6.552   2.638
 9268SOL    HW128703   1.111   6.518   2.730
 9268SOL    HW228704   1.147   6.635   2.623
 9269SOL     OW28705   3.866   0.138   6.505
 9269SOL    HW128706   3.924   0.192   6.565
 9269SOL    HW228707   3.770   0.166   6.517
 9270SOL     OW28708   4.113   0.660   5.648
 9270SOL    HW128709   4.031   0.684   5.597
 9270SOL    HW228710   4.142   0.739   5.702
 9271SOL     OW28711   6.712   0.271   0.385
 9271SOL    HW128712   6.718   0.225   0.296
 9271SOL    HW228713   6.686   0.206   0.455
 9272SOL     OW28714   0.736   5.972   6.364
 9272SOL    HW128715   0.706   5.948   6.456
 9272SOL    HW228716   0.680   5.924   6.297
 9273SOL     OW28717   5.586   6.090   2.633
 9273SOL    HW128718   5.636   6.006   2.654
 9273SOL    HW228719   5.563   6.137   2.718
 9274SOL     OW28720   6.816   2.326   6.926
 9274SOL    HW128721   6.737   2.302   6.982
 9274SOL    HW228722   6.890   2.260   6.944
 9275SOL     OW28723   0.166   6.632   6.962
 9275SOL    HW128724   0.238   6.687   7.005
 9275SOL    HW228725   0.155   6.660   6.867
 9276SOL     OW28726   2.230   5.053   6.686
 9276SOL    HW128727   2.131   5.041   6.683
 9276SOL    HW228728   2.258   5.117   6.615
 9277SOL     OW28729   3.686   5.653   2.535
 9277SOL    HW128730   3.725   5.597   2.462
 9277SOL    HW228731   3.647   5.593   2.605
 9278SOL     OW28732   1.354   0.696   5.527
 9278SOL    HW128733   1.454   0.702   5.530
 9278SOL    HW228734   1.325   0.604   5.554
 9279SOL     OW28735   3.723   6.944   1.932
 9279SOL    HW128736   3.702   0.024   1.952
 9279SOL    HW228737   3.647   6.886   1.961
 9280SOL     OW28738   2.356   1.832   2.660
 9280SOL    HW128739   2.335   1.905   2.595
 9280SOL    HW228740   2.308   1.849   2.746
 9281SOL     OW28741   3.559   3.843   6.296
 9281SOL    HW128742   3.639   3.865   6.240
 9281SOL    HW228743   3.581   3.857   6.392
 9282SOL     OW28744   4.355   1.051   4.267
 9282SOL    HW128745   4.429   1.082   4.208
 9282SOL    HW228746   4.273   1.034   4.213
 9283SOL     OW28747   5.146   0.312   5.453
 9283SOL    HW128748   5.237   0.346   5.476
 9283SOL    HW228749   5.155   0.230   5.396
 9284SOL     OW28750   2.786   3.580   5.593
 9284SOL    HW128751   2.790   3.482   5.572
 9284SOL    HW228752   2.773   3.631   5.508
 9285SOL     OW28753   5.326   3.171   0.862
 9285SOL    HW128754   5.297   3.261   0.827
 9285SOL    HW228755   5.307   3.166   0.960
 9286SOL     OW28756   5.025   5.517   0.628
 9286SOL    HW128757   5.078   5.433   0.637
 9286SOL    HW228758   4.993   5.547   0.718
 9287SOL     OW28759   3.686   4.352   5.597
 9287SOL    HW128760   3.717   4.257   5.596
 9287SOL    HW228761   3.598   4.358   5.645
 9288SOL     OW28762   4.793   1.945   3.075
 9288SOL    HW128763   4.854   2.021   3.097
 9288SOL    HW228764   4.830   1.895   2.996
 9289SOL     OW28765   4.300   1.116   6.873
 9289SOL    HW128766   4.305   1.201   6.926
 9289SOL    HW228767   4.204   1.091   6.860
 9290SOL     OW28768   6.483   0.767   3.834
 9290SOL    HW128769   6.510   0.680   3.875
 9290SOL    HW228770   6.396   0.755   3.786
 9291SOL     OW28771   2.025   6.149   6.167
 9291SOL    HW128772   2.013   6.234   6.115
 9291SOL    HW228773   2.091   6.091   6.120
 9292SOL     OW28774   2.018   1.228   6.940
 9292SOL    HW128775   1.964   1.148   6.917
 9292SOL    HW228776   2.038   1.229   0.022
 9293SOL     OW28777   5.406   3.475   6.452
 9293SOL    HW128778   5.428   3.528   6.534
 9293SOL    HW228779   5.429   3.529   6.371
 9294SOL     OW28780   4.936   0.946   6.657
 9294SOL    HW128781   4.914   0.901   6.744
 9294SOL    HW228782   4.855   0.995   6.624
 9295SOL     OW28783   6.640   0.730   4.995
 9295SOL    HW128784   6.590   0.661   5.048
 9295SOL    HW228785   6.604   0.821   5.016
 9296SOL     OW28786   2.176   5.156   0.472
 9296SOL    HW128787   2.133   5.196   0.552
 9296SOL    HW228788   2.275   5.152   0.486
 9297SOL     OW28789   0.694   6.591   3.387
 9297SOL    HW128790   0.638   6.637   3.456
 9297SOL    HW228791   0.634   6.543   3.323
 9298SOL     OW28792   1.251   6.371   6.583
 9298SOL    HW128793   1.284   6.466   6.582
 9298SOL    HW228794   1.321   6.311   6.544
 9299SOL     OW28795   0.982   1.577   3.894
 9299SOL    HW128796   0.996   1.488   3.851
 9299SOL    HW228797   1.071   1.619   3.915
 9300SOL     OW28798   0.405   5.235   5.169
 9300SOL    HW128799   0.435   5.319   5.125
 9300SOL    HW228800   0.386   5.252   5.265
 9301SOL     OW28801   6.573   4.412   4.974
 9301SOL    HW128802   6.615   4.434   4.886
 9301SOL    HW228803   6.642   4.418   5.046
 9302SOL     OW28804   2.175   3.088   4.552
 9302SOL    HW128805   2.130   3.172   4.521
 9302SOL    HW228806   2.197   3.097   4.649
 9303SOL     OW28807   2.783   4.275   0.105
 9303SOL    HW128808   2.850   4.201   0.115
 9303SOL    HW228809   2.717   4.250   0.034
 9304SOL     OW28810   4.505   5.228   0.336
 9304SOL    HW128811   4.465   5.144   0.372
 9304SOL    HW228812   4.446   5.265   0.264
 9305SOL     OW28813   3.566   0.970   0.631
 9305SOL    HW128814   3.627   0.899   0.666
 9305SOL    HW228815   3.472   0.937   0.632
 9306SOL     OW28816   0.599   4.299   5.457
 9306SOL    HW128817   0.533   4.234   5.494
 9306SOL    HW228818   0.672   4.250   5.410
 9307SOL     OW28819   1.354   4.397   0.425
 9307SOL    HW128820   1.342   4.360   0.517
 9307SOL    HW228821   1.278   4.367   0.367
 9308SOL     OW28822   1.287   4.572   1.581
 9308SOL    HW128823   1.286   4.473   1.573
 9308SOL    HW228824   1.265   4.598   1.675
 9309SOL     OW28825   4.045   6.400   5.476
 9309SOL    HW128826   3.991   6.432   5.398
 9309SOL    HW228827   4.113   6.469   5.500
 9310SOL     OW28828   5.584   6.370   5.573
 9310SOL    HW128829   5.507   6.335   5.519
 9310SOL    HW228830   5.663   6.310   5.561
 9311SOL     OW28831   5.688   4.615   1.275
 9311SOL    HW128832   5.727   4.655   1.192
 9311SOL    HW228833   5.661   4.520   1.257
 9312SOL     OW28834   1.311   2.147   1.076
 9312SOL    HW128835   1.335   2.203   1.154
 9312SOL    HW228836   1.296   2.205   0.996
 9313SOL     OW28837   0.377   0.270   1.260
 9313SOL    HW128838   0.408   0.312   1.175
 9313SOL    HW228839   0.404   0.174   1.261
 9314SOL     OW28840   6.431   3.769   0.824
 9314SOL    HW128841   6.390   3.680   0.842
 9314SOL    HW228842   6.475   3.803   0.907
 9315SOL     OW28843   6.350   0.478   6.244
 9315SOL    HW128844   6.375   0.567   6.281
 9315SOL    HW228845   6.255   0.481   6.213
 9316SOL     OW28846   5.800   0.016   5.397
 9316SOL    HW128847   5.878   0.038   5.338
 9316SOL    HW228848   5.796   0.082   5.472
 9317SOL     OW28849   4.194   5.553   3.021
 9317SOL    HW128850   4.110   5.499   3.015
 9317SOL    HW228851   4.173   5.645   3.054
 9318SOL     OW28852   4.337   6.873   0.039
 9318SOL    HW128853   4.275   6.937   7.011
 9318SOL    HW228854   4.329   6.783   7.011
 9319SOL     OW28855   2.402   3.056   0.657
 9319SOL    HW128856   2.465   3.133   0.660
 9319SOL    HW228857   2.388   3.029   0.562
 9320SOL     OW28858   4.598   0.527   5.753
 9320SOL    HW128859   4.576   0.431   5.736
 9320SOL    HW228860   4.515   0.575   5.781
 9321SOL     OW28861   1.244   1.332   5.691
 9321SOL    HW128862   1.283   1.420   5.717
 9321SOL    HW228863   1.286   1.259   5.746
 9322SOL     OW28864   6.988   4.552   6.245
 9322SOL    HW128865   7.010   4.599   6.331
 9322SOL    HW228866   6.921   4.607   6.194
 9323SOL     OW28867   2.405   1.887   5.043
 9323SOL    HW128868   2.437   1.974   5.079
 9323SOL    HW228869   2.321   1.860   5.090
 9324SOL     OW28870   2.021   3.784   2.530
 9324SOL    HW128871   2.063   3.822   2.448
 9324SOL    HW228872   1.943   3.727   2.504
 9325SOL     OW28873   0.500   6.451   0.753
 9325SOL    HW128874   0.483   6.512   0.676
 9325SOL    HW228875   0.583   6.480   0.800
 9326SOL     OW28876   3.305   4.863   6.842
 9326SOL    HW128877   3.340   4.784   6.792
 9326SOL    HW228878   3.379   4.929   6.855
 9327SOL     OW28879   4.426   0.163   2.930
 9327SOL    HW128880   4.380   0.209   3.006
 9327SOL    HW228881   4.391   0.198   2.843
 9328SOL     OW28882   1.847   0.510   4.996
 9328SOL    HW128883   1.846   0.610   4.996
 9328SOL    HW228884   1.754   0.476   4.979
 9329SOL     OW28885   6.641   5.915   0.683
 9329SOL    HW128886   6.693   5.838   0.719
 9329SOL    HW228887   6.697   5.998   0.687
 9330SOL     OW28888   0.207   0.381   5.964
 9330SOL    HW128889   0.220   0.285   5.990
 9330SOL    HW228890   0.115   0.393   5.927
 9331SOL     OW28891   1.995   1.734   6.163
 9331SOL    HW128892   1.955   1.785   6.087
 9331SOL    HW228893   1.932   1.662   6.192
 9332SOL     OW28894   4.367   5.805   0.832
 9332SOL    HW128895   4.450   5.861   0.841
 9332SOL    HW228896   4.378   5.740   0.756
 9333SOL     OW28897   3.511   5.491   0.005
 9333SOL    HW128898   3.451   5.536   0.070
 9333SOL    HW228899   3.554   5.412   0.049
 9334SOL     OW28900   5.084   0.436   4.547
 9334SOL    HW128901   5.084   0.340   4.520
 9334SOL    HW228902   5.176   0.473   4.537
 9335SOL     OW28903   1.700   1.390   0.080
 9335SOL    HW128904   1.761   1.468   0.084
 9335SOL    HW228905   1.622   1.405   0.141
 9336SOL     OW28906   5.532   0.284   4.235
 9336SOL    HW128907   5.630   0.299   4.241
 9336SOL    HW228908   5.503   0.224   4.310
 9337SOL     OW28909   5.202   0.844   6.339
 9337SOL    HW128910   5.298   0.822   6.356
 9337SOL    HW228911   5.169   0.791   6.261
 9338SOL     OW28912   0.179   6.299   1.109
 9338SOL    HW128913   0.087   6.332   1.128
 9338SOL    HW228914   0.234   6.304   1.192
 9339SOL     OW28915   5.614   5.839   0.435
 9339SOL    HW128916   5.563   5.872   0.514
 9339SOL    HW228917   5.562   5.856   0.351
 9340SOL     OW28918   4.325   4.706   2.701
 9340SOL    HW128919   4.254   4.694   2.770
 9340SOL    HW228920   4.402   4.757   2.741
 9341SOL     OW28921   6.501   4.016   0.561
 9341SOL    HW128922   6.439   3.941   0.539
 9341SOL    HW228923   6.518   4.017   0.660
 9342SOL     OW28924   2.785   0.745   4.392
 9342SOL    HW128925   2.812   0.833   4.432
 9342SOL    HW228926   2.711   0.760   4.326
 9343SOL     OW28927   4.952   3.448   2.038
 9343SOL    HW128928   4.914   3.439   2.130
 9343SOL    HW228929   4.922   3.371   1.981
 9344SOL     OW28930   5.136   5.713   6.509
 9344SOL    HW128931   5.045   5.694   6.548
 9344SOL    HW228932   5.132   5.796   6.454
 9345SOL     OW28933   6.817   4.662   0.722
 9345SOL    HW128934   6.800   4.581   0.666
 9345SOL    HW228935   6.731   4.710   0.739
 9346SOL     OW28936   5.299   6.656   2.079
 9346SOL    HW128937   5.389   6.620   2.105
 9346SOL    HW228938   5.260   6.599   2.007
 9347SOL     OW28939   3.054   5.570   0.670
 9347SOL    HW128940   2.974   5.627   0.686
 9347SOL    HW228941   3.130   5.601   0.727
 9348SOL     OW28942   2.853   5.130   3.281
 9348SOL    HW128943   2.873   5.208   3.221
 9348SOL    HW228944   2.937   5.079   3.298
 9349SOL     OW28945   6.286   5.793   2.166
 9349SOL    HW128946   6.323   5.857   2.100
 9349SOL    HW228947   6.300   5.699   2.134
 9350SOL     OW28948   0.430   1.929   4.791
 9350SOL    HW128949   0.433   2.001   4.860
 9350SOL    HW228950   0.344   1.933   4.741
 9351SOL     OW28951   2.945   0.529   6.318
 9351SOL    HW128952   3.001   0.605   6.350
 9351SOL    HW228953   2.975   0.501   6.227
 9352SOL     OW28954   2.419   3.043   5.721
 9352SOL    HW128955   2.500   2.994   5.754
 9352SOL    HW228956   2.353   3.052   5.796
 9353SOL     OW28957   1.874   4.056   2.067
 9353SOL    HW128958   1.895   3.966   2.105
 9353SOL    HW228959   1.777   4.076   2.080
 9354SOL     OW28960   6.156   1.861   0.470
 9354SOL    HW128961   6.130   1.776   0.425
 9354SOL    HW228962   6.220   1.842   0.545
 9355SOL     OW28963   6.601   1.045   4.365
 9355SOL    HW128964   6.600   1.128   4.420
 9355SOL    HW228965   6.600   1.069   4.268
 9356SOL     OW28966   4.338   5.354   1.712
 9356SOL    HW128967   4.317   5.404   1.627
 9356SOL    HW228968   4.427   5.384   1.747
 9357SOL     OW28969   2.734   3.686   6.782
 9357SOL    HW128970   2.657   3.749   6.788
 9357SOL    HW228971   2.779   3.680   6.872
 9358SOL     OW28972   6.133   3.748   1.774
 9358SOL    HW128973   6.228   3.754   1.742
 9358SOL    HW228974   6.125   3.792   1.863
 9359SOL     OW28975   0.982   3.362   5.650
 9359SOL    HW128976   0.898   3.314   5.624
 9359SOL    HW228977   1.032   3.308   5.718
 9360SOL     OW28978   1.173   6.803   5.948
 9360SOL    HW128979   1.221   6.848   5.872
 9360SOL    HW228980   1.194   6.705   5.947
 9361SOL     OW28981   2.848   6.517   3.739
 9361SOL    HW128982   2.765   6.519   3.683
 9361SOL    HW228983   2.846   6.593   3.804
 9362SOL     OW28984   1.432   1.740   2.075
 9362SOL    HW128985   1.397   1.753   2.168
 9362SOL    HW228986   1.531   1.726   2.079
 9363SOL     OW28987   4.070   5.303   1.825
 9363SOL    HW128988   4.068   5.315   1.925
 9363SOL    HW228989   4.145   5.357   1.787
 9364SOL     OW28990   4.767   3.599   6.181
 9364SOL    HW128991   4.784   3.570   6.276
 9364SOL    HW228992   4.676   3.568   6.153
 9365SOL     OW28993   2.823   1.794   5.504
 9365SOL    HW128994   2.795   1.878   5.551
 9365SOL    HW228995   2.787   1.715   5.554
 9366SOL     OW28996   2.745   1.280   0.417
 9366SOL    HW128997   2.679   1.353   0.402
 9366SOL    HW228998   2.811   1.279   0.342
 9367SOL     OW28999   6.970   5.829   3.390
 9367SOL    HW129000   0.044   5.830   3.346
 9367SOL    HW229001   6.914   5.757   3.349
 9368SOL     OW29002   2.535   1.935   3.338
 9368SOL    HW129003   2.605   1.865   3.351
 9368SOL    HW229004   2.479   1.943   3.421
 9369SOL     OW29005   0.340   1.120   5.741
 9369SOL    HW129006   0.287   1.103   5.824
 9369SOL    HW229007   0.279   1.153   5.669
 9370SOL     OW29008   4.632   0.701   2.653
 9370SOL    HW129009   4.715   0.646   2.654
 9370SOL    HW229010   4.608   0.728   2.747
 9371SOL     OW29011   2.137   4.563   0.942
 9371SOL    HW129012   2.197   4.635   0.977
 9371SOL    HW229013   2.175   4.524   0.859
 9372SOL     OW29014   5.766   6.043   3.112
 9372SOL    HW129015   5.715   6.011   3.191
 9372SOL    HW229016   5.724   6.007   3.028
 9373SOL     OW29017   4.208   2.258   2.856
 9373SOL    HW129018   4.115   2.238   2.824
 9373SOL    HW229019   4.205   2.284   2.953
 9374SOL     OW29020   6.249   3.769   0.576
 9374SOL    HW129021   6.163   3.820   0.565
 9374SOL    HW229022   6.285   3.785   0.668
 9375SOL     OW29023   6.727   1.693   3.002
 9375SOL    HW129024   6.793   1.688   2.928
 9375SOL    HW229025   6.676   1.779   2.996
 9376SOL     OW29026   2.435   4.133   1.590
 9376SOL    HW129027   2.421   4.163   1.496
 9376SOL    HW229028   2.528   4.155   1.618
 9377SOL     OW29029   1.607   5.640   3.824
 9377SOL    HW129030   1.575   5.659   3.917
 9377SOL    HW229031   1.559   5.700   3.760
 9378SOL     OW29032   0.637   0.468   5.226
 9378SOL    HW129033   0.712   0.490   5.164
 9378SOL    HW229034   0.668   0.400   5.293
 9379SOL     OW29035   4.632   5.311   5.609
 9379SOL    HW129036   4.546   5.320   5.659
 9379SOL    HW229037   4.661   5.400   5.576
 9380SOL     OW29038   5.775   4.545   4.845
 9380SOL    HW129039   5.737   4.496   4.924
 9380SOL    HW229040   5.861   4.503   4.818
 9381SOL     OW29041   2.620   2.894   5.845
 9381SOL    HW129042   2.702   2.836   5.844
 9381SOL    HW229043   2.621   2.951   5.927
 9382SOL     OW29044   3.687   1.293   3.041
 9382SOL    HW129045   3.755   1.286   3.114
 9382SOL    HW229046   3.595   1.276   3.079
 9383SOL     OW29047   1.749   6.069   4.306
 9383SOL    HW129048   1.752   6.135   4.380
 9383SOL    HW229049   1.669   6.088   4.248
 9384SOL     OW29050   3.018   6.112   1.536
 9384SOL    HW129051   2.943   6.065   1.489
 9384SOL    HW229052   2.997   6.118   1.634
 9385SOL     OW29053   4.312   0.623   3.127
 9385SOL    HW129054   4.360   0.576   3.202
 9385SOL    HW229055   4.233   0.569   3.099
 9386SOL     OW29056   2.356   6.315   4.461
 9386SOL    HW129057   2.334   6.253   4.536
 9386SOL    HW229058   2.273   6.330   4.406
 9387SOL     OW29059   2.715   1.506   0.005
 9387SOL    HW129060   2.654   1.436   0.041
 9387SOL    HW229061   2.739   1.571   0.078
 9388SOL     OW29062   2.128   5.647   3.083
 9388SOL    HW129063   2.031   5.630   3.067
 9388SOL    HW229064   2.150   5.629   3.179
 9389SOL     OW29065   1.268   6.608   5.011
 9389SOL    HW129066   1.236   6.542   5.080
 9389SOL    HW229067   1.366   6.624   5.025
 9390SOL     OW29068   3.479   5.300   5.060
 9390SOL    HW129069   3.391   5.274   5.100
 9390SOL    HW229070   3.496   5.246   4.978
 9391SOL     OW29071   2.631   0.941   4.698
 9391SOL    HW129072   2.560   0.949   4.768
 9391SOL    HW229073   2.658   0.845   4.689
 9392SOL     OW29074   6.743   0.259   5.331
 9392SOL    HW129075   6.670   0.310   5.377
 9392SOL    HW229076   6.712   0.233   5.239
 9393SOL     OW29077   2.769   0.230   5.045
 9393SOL    HW129078   2.709   0.150   5.042
 9393SOL    HW229079   2.776   0.270   4.954
 9394SOL     OW29080   0.021   1.553   2.082
 9394SOL    HW129081   0.060   1.461   2.073
 9394SOL    HW229082   0.011   1.576   2.178
 9395SOL     OW29083   2.250   1.507   0.365
 9395SOL    HW129084   2.210   1.517   0.456
 9395SOL    HW229085   2.236   1.591   0.313
 9396SOL     OW29086   1.759   5.553   3.386
 9396SOL    HW129087   1.745   5.466   3.433
 9396SOL    HW229088   1.671   5.600   3.376
 9397SOL     OW29089   3.141   0.279   6.919
 9397SOL    HW129090   3.168   0.200   6.974
 9397SOL    HW229091   3.047   0.304   6.941
 9398SOL     OW29092   0.764   0.290   5.434
 9398SOL    HW129093   0.841   0.344   5.467
 9398SOL    HW229094   0.691   0.288   5.502
 9399SOL     OW29095   6.689   1.762   6.451
 9399SOL    HW129096   6.724   1.844   6.497
 9399SOL    HW229097   6.755   1.688   6.459
 9400SOL     OW29098   4.118   1.994   1.896
 9400SOL    HW129099   4.034   2.048   1.896
 9400SOL    HW229100   4.179   2.029   1.968
 9401SOL     OW29101   5.259   6.783   3.243
 9401SOL    HW129102   5.300   6.873   3.259
 9401SOL    HW229103   5.227   6.744   3.329
 9402SOL     OW29104   1.177   4.972   3.653
 9402SOL    HW129105   1.101   4.938   3.598
 9402SOL    HW229106   1.146   5.053   3.705
 9403SOL     OW29107   5.967   1.712   2.293
 9403SOL    HW129108   5.971   1.667   2.382
 9403SOL    HW229109   5.889   1.774   2.290
 9404SOL     OW29110   1.202   3.310   6.487
 9404SOL    HW129111   1.156   3.387   6.443
 9404SOL    HW229112   1.200   3.231   6.426
 9405SOL     OW29113   0.701   5.883   2.083
 9405SOL    HW129114   0.692   5.832   2.169
 9405SOL    HW229115   0.623   5.862   2.024
 9406SOL     OW29116   6.792   2.764   5.986
 9406SOL    HW129117   6.867   2.799   5.929
 9406SOL    HW229118   6.749   2.840   6.035
 9407SOL     OW29119   2.843   5.155   3.598
 9407SOL    HW129120   2.837   5.223   3.526
 9407SOL    HW229121   2.933   5.110   3.594
 9408SOL     OW29122   3.931   1.676   6.221
 9408SOL    HW129123   4.028   1.654   6.208
 9408SOL    HW229124   3.919   1.719   6.311
 9409SOL     OW29125   5.794   4.592   6.807
 9409SOL    HW129126   5.845   4.522   6.857
 9409SOL    HW229127   5.725   4.632   6.867
 9410SOL     OW29128   2.949   6.301   2.034
 9410SOL    HW129129   3.008   6.274   2.110
 9410SOL    HW229130   2.939   6.401   2.034
 9411SOL     OW29131   3.607   3.697   1.683
 9411SOL    HW129132   3.593   3.663   1.590
 9411SOL    HW229133   3.578   3.628   1.749
 9412SOL     OW29134   0.241   2.959   1.858
 9412SOL    HW129135   0.156   3.006   1.881
 9412SOL    HW229136   0.310   2.977   1.929
 9413SOL     OW29137   3.290   6.178   4.294
 9413SOL    HW129138   3.275   6.254   4.231
 9413SOL    HW229139   3.371   6.127   4.266
 9414SOL     OW29140   3.144   0.738   3.315
 9414SOL    HW129141   3.155   0.655   3.370
 9414SOL    HW229142   3.047   0.762   3.311
 9415SOL     OW29143   2.580   6.962   1.846
 9415SOL    HW129144   2.550   6.974   1.751
 9415SOL    HW229145   2.667   7.009   1.860
 9416SOL     OW29146   0.573   2.155   1.161
 9416SOL    HW129147   0.524   2.120   1.241
 9416SOL    HW229148   0.519   2.139   1.079
 9417SOL     OW29149   3.635   6.756   5.998
 9417SOL    HW129150   3.695   6.758   6.078
 9417SOL    HW229151   3.686   6.786   5.917
 9418SOL     OW29152   3.444   6.040   1.391
 9418SOL    HW129153   3.450   6.106   1.466
 9418SOL    HW229154   3.376   6.071   1.325
 9419SOL     OW29155   3.450   5.147   5.713
 9419SOL    HW129156   3.419   5.086   5.786
 9419SOL    HW229157   3.529   5.199   5.744
 9420SOL     OW29158   6.916   2.545   5.250
 9420SOL    HW129159   6.864   2.603   5.186
 9420SOL    HW229160   6.953   2.601   5.324
 9421SOL     OW29161   1.934   6.766   4.887
 9421SOL    HW129162   2.030   6.773   4.914
 9421SOL    HW229163   1.890   6.692   4.938
 9422SOL     OW29164   4.978   6.086   3.383
 9422SOL    HW129165   4.879   6.098   3.385
 9422SOL    HW229166   5.020   6.142   3.455
 9423SOL     OW29167   4.167   0.488   3.566
 9423SOL    HW129168   4.198   0.395   3.587
 9423SOL    HW229169   4.240   0.537   3.518
 9424SOL     OW29170   4.743   0.413   4.874
 9424SOL    HW129171   4.671   0.474   4.842
 9424SOL    HW229172   4.722   0.381   4.966
 9425SOL     OW29173   6.836   3.353   6.311
 9425SOL    HW129174   6.809   3.400   6.227
 9425SOL    HW229175   6.898   3.411   6.364
 9426SOL     OW29176   2.983   1.989   0.337
 9426SOL    HW129177   2.926   1.999   0.418
 9426SOL    HW229178   3.051   2.062   0.334
 9427SOL     OW29179   2.700   5.584   4.279
 9427SOL    HW129180   2.713   5.560   4.183
 9427SOL    HW229181   2.765   5.532   4.335
 9428SOL     OW29182   5.866   1.074   1.095
 9428SOL    HW129183   5.772   1.086   1.127
 9428SOL    HW229184   5.926   1.054   1.172
 9429SOL     OW29185   2.066   3.555   2.089
 9429SOL    HW129186   2.004   3.502   2.147
 9429SOL    HW229187   2.135   3.495   2.050
 9430SOL     OW29188   0.558   4.665   2.447
 9430SOL    HW129189   0.495   4.637   2.374
 9430SOL    HW229190   0.601   4.585   2.487
 9431SOL     OW29191   5.847   4.067   1.270
 9431SOL    HW129192   5.868   3.983   1.221
 9431SOL    HW229193   5.874   4.058   1.366
 9432SOL     OW29194   4.902   0.603   3.404
 9432SOL    HW129195   4.917   0.512   3.368
 9432SOL    HW229196   4.947   0.612   3.493
 9433SOL     OW29197   3.716   5.050   3.404
 9433SOL    HW129198   3.785   5.092   3.345
 9433SOL    HW229199   3.637   5.024   3.348
 9434SOL     OW29200   5.162   4.890   3.700
 9434SOL    HW129201   5.169   4.985   3.669
 9434SOL    HW229202   5.125   4.888   3.792
 9435SOL     OW29203   0.755   2.652   4.724
 9435SOL    HW129204   0.732   2.661   4.821
 9435SOL    HW229205   0.777   2.742   4.686
 9436SOL     OW29206   1.083   3.205   2.004
 9436SOL    HW129207   1.025   3.285   1.991
 9436SOL    HW229208   1.179   3.234   2.006
 9437SOL     OW29209   2.612   6.375   3.539
 9437SOL    HW129210   2.578   6.410   3.626
 9437SOL    HW229211   2.629   6.277   3.547
 9438SOL     OW29212   6.971   0.038   1.518
 9438SOL    HW129213   0.037   0.095   1.521
 9438SOL    HW229214   6.922   0.043   1.605
 9439SOL     OW29215   0.421   3.508   1.674
 9439SOL    HW129216   0.327   3.484   1.700
 9439SOL    HW229217   0.469   3.426   1.643
 9440SOL     OW29218   4.322   4.961   3.956
 9440SOL    HW129219   4.328   4.971   3.856
 9440SOL    HW229220   4.227   4.967   3.985
 9441SOL     OW29221   1.396   3.641   5.245
 9441SOL    HW129222   1.427   3.736   5.243
 9441SOL    HW229223   1.312   3.632   5.192
 9442SOL     OW29224   4.460   3.464   0.408
 9442SOL    HW129225   4.463   3.375   0.362
 9442SOL    HW229226   4.552   3.503   0.411
 9443SOL     OW29227   2.658   5.356   1.407
 9443SOL    HW129228   2.580   5.365   1.467
 9443SOL    HW229229   2.657   5.265   1.364
 9444SOL     OW29230   1.465   3.996   6.693
 9444SOL    HW129231   1.494   3.938   6.769
 9444SOL    HW229232   1.383   3.956   6.650
 9445SOL     OW29233   5.735   3.567   2.964
 9445SOL    HW129234   5.800   3.518   3.022
 9445SOL    HW229235   5.669   3.503   2.926
 9446SOL     OW29236   6.684   6.166   4.279
 9446SOL    HW129237   6.587   6.159   4.303
 9446SOL    HW229238   6.737   6.107   4.341
 9447SOL     OW29239   5.962   3.117   4.201
 9447SOL    HW129240   5.880   3.161   4.238
 9447SOL    HW229241   5.998   3.052   4.268
 9448SOL     OW29242   6.824   6.634   6.449
 9448SOL    HW129243   6.740   6.689   6.449
 9448SOL    HW229244   6.813   6.558   6.385
 9449SOL     OW29245   6.730   5.781   6.981
 9449SOL    HW129246   6.644   5.767   6.933
 9449SOL    HW229247   6.780   5.694   6.986
 9450SOL     OW29248   3.005   5.940   5.162
 9450SOL    HW129249   3.009   5.841   5.151
 9450SOL    HW229250   2.949   5.962   5.242
 9451SOL     OW29251   3.896   6.503   6.064
 9451SOL    HW129252   3.867   6.498   5.968
 9451SOL    HW229253   3.984   6.550   6.069
 9452SOL     OW29254   1.509   3.850   0.303
 9452SOL    HW129255   1.449   3.787   0.351
 9452SOL    HW229256   1.504   3.941   0.345
 9453SOL     OW29257   2.054   4.901   3.263
 9453SOL    HW129258   2.098   4.923   3.350
 9453SOL    HW229259   1.955   4.899   3.275
 9454SOL     OW29260   2.324   3.447   6.930
 9454SOL    HW129261   2.256   3.469   6.860
 9454SOL    HW229262   2.380   3.528   6.949
 9455SOL     OW29263   3.887   1.889   2.725
 9455SOL    HW129264   3.789   1.873   2.736
 9455SOL    HW229265   3.908   1.902   2.628
 9456SOL     OW29266   0.612   3.536   1.088
 9456SOL    HW129267   0.539   3.554   1.022
 9456SOL    HW229268   0.671   3.617   1.095
 9457SOL     OW29269   2.147   3.778   5.012
 9457SOL    HW129270   2.086   3.812   4.940
 9457SOL    HW229271   2.199   3.855   5.051
 9458SOL     OW29272   1.603   3.520   0.420
 9458SOL    HW129273   1.661   3.496   0.498
 9458SOL    HW229274   1.603   3.446   0.354
 9459SOL     OW29275   5.131   4.650   2.728
 9459SOL    HW129276   5.155   4.642   2.631
 9459SOL    HW229277   5.169   4.572   2.778
 9460SOL     OW29278   0.460   2.722   4.067
 9460SOL    HW129279   0.419   2.631   4.063
 9460SOL    HW229280   0.389   2.791   4.055
 9461SOL     OW29281   6.473   1.813   2.737
 9461SOL    HW129282   6.517   1.751   2.672
 9461SOL    HW229283   6.404   1.868   2.689
 9462SOL     OW29284   2.072   3.722   2.794
 9462SOL    HW129285   2.049   3.733   2.697
 9462SOL    HW229286   2.140   3.790   2.820
 9463SOL     OW29287   0.423   0.917   1.458
 9463SOL    HW129288   0.323   0.925   1.452
 9463SOL    HW229289   0.449   0.822   1.443
 9464SOL     OW29290   5.689   0.146   1.288
 9464SOL    HW129291   5.627   0.153   1.210
 9464SOL    HW229292   5.776   0.191   1.267
 9465SOL     OW29293   1.401   5.240   3.127
 9465SOL    HW129294   1.374   5.302   3.054
 9465SOL    HW229295   1.388   5.285   3.216
 9466SOL     OW29296   4.643   5.041   5.693
 9466SOL    HW129297   4.718   4.992   5.648
 9466SOL    HW229298   4.644   5.137   5.664
 9467SOL     OW29299   1.101   2.782   1.534
 9467SOL    HW129300   1.163   2.818   1.603
 9467SOL    HW229301   1.007   2.785   1.569
 9468SOL     OW29302   6.210   2.492   6.103
 9468SOL    HW129303   6.262   2.568   6.065
 9468SOL    HW229304   6.190   2.425   6.031
 9469SOL     OW29305   6.198   6.242   1.613
 9469SOL    HW129306   6.109   6.234   1.658
 9469SOL    HW229307   6.185   6.265   1.517
 9470SOL     OW29308   4.459   4.068   5.491
 9470SOL    HW129309   4.509   4.000   5.438
 9470SOL    HW229310   4.449   4.152   5.437
 9471SOL     OW29311   6.609   1.303   4.474
 9471SOL    HW129312   6.517   1.333   4.499
 9471SOL    HW229313   6.675   1.337   4.540
 9472SOL     OW29314   5.624   3.100   4.334
 9472SOL    HW129315   5.689   3.112   4.410
 9472SOL    HW229316   5.614   3.187   4.286
 9473SOL     OW29317   2.939   5.457   5.381
 9473SOL    HW129318   2.898   5.422   5.297
 9473SOL    HW229319   2.929   5.557   5.384
 9474SOL     OW29320   0.086   3.159   0.363
 9474SOL    HW129321   0.170   3.153   0.416
 9474SOL    HW229322   0.060   3.254   0.350
 9475SOL     OW29323   3.134   3.564   6.821
 9475SOL    HW129324   3.211   3.507   6.792
 9475SOL    HW229325   3.057   3.506   6.846
 9476SOL     OW29326   2.938   3.809   5.006
 9476SOL    HW129327   3.022   3.756   5.019
 9476SOL    HW229328   2.890   3.776   4.925
 9477SOL     OW29329   0.520   4.152   2.236
 9477SOL    HW129330   0.582   4.134   2.160
 9477SOL    HW229331   0.499   4.067   2.283
 9478SOL     OW29332   5.558   3.548   6.226
 9478SOL    HW129333   5.568   3.551   6.126
 9478SOL    HW229334   5.645   3.574   6.269
 9479SOL     OW29335   4.286   6.615   6.965
 9479SOL    HW129336   4.342   6.532   6.955
 9479SOL    HW229337   4.241   6.635   6.878
 9480SOL     OW29338   5.128   3.562   0.970
 9480SOL    HW129339   5.033   3.561   0.939
 9480SOL    HW229340   5.164   3.655   0.965
 9481SOL     OW29341   5.279   3.301   2.683
 9481SOL    HW129342   5.225   3.382   2.661
 9481SOL    HW229343   5.274   3.235   2.608
 9482SOL     OW29344   6.556   0.922   3.194
 9482SOL    HW129345   6.544   0.984   3.271
 9482SOL    HW229346   6.561   0.974   3.109
 9483SOL     OW29347   1.011   1.519   1.850
 9483SOL    HW129348   1.043   1.601   1.803
 9483SOL    HW229349   1.008   1.442   1.786
 9484SOL     OW29350   3.924   1.247   3.484
 9484SOL    HW129351   3.834   1.255   3.526
 9484SOL    HW229352   3.914   1.224   3.387
 9485SOL     OW29353   0.919   0.137   1.776
 9485SOL    HW129354   0.959   0.097   1.859
 9485SOL    HW229355   0.987   0.140   1.704
 9486SOL     OW29356   2.839   6.135   1.146
 9486SOL    HW129357   2.838   6.055   1.087
 9486SOL    HW229358   2.928   6.181   1.139
 9487SOL     OW29359   3.062   3.259   3.252
 9487SOL    HW129360   2.975   3.305   3.235
 9487SOL    HW229361   3.134   3.304   3.199
 9488SOL     OW29362   1.273   6.308   0.647
 9488SOL    HW129363   1.345   6.255   0.602
 9488SOL    HW229364   1.266   6.281   0.743
 9489SOL     OW29365   4.182   4.343   1.328
 9489SOL    HW129366   4.181   4.428   1.275
 9489SOL    HW229367   4.164   4.266   1.268
 9490SOL     OW29368   6.812   5.787   1.118
 9490SOL    HW129369   6.794   5.688   1.118
 9490SOL    HW229370   6.823   5.819   1.212
 9491SOL     OW29371   6.915   3.784   4.044
 9491SOL    HW129372   6.883   3.865   3.996
 9491SOL    HW229373   6.917   3.707   3.980
 9492SOL     OW29374   3.473   2.872   2.846
 9492SOL    HW129375   3.508   2.941   2.909
 9492SOL    HW229376   3.456   2.787   2.895
 9493SOL     OW29377   3.992   5.183   3.715
 9493SOL    HW129378   4.057   5.179   3.639
 9493SOL    HW229379   3.899   5.194   3.680
 9494SOL     OW29380   4.459   4.683   1.864
 9494SOL    HW129381   4.383   4.623   1.888
 9494SOL    HW229382   4.425   4.765   1.819
 9495SOL     OW29383   6.796   1.803   3.489
 9495SOL    HW129384   6.826   1.859   3.412
 9495SOL    HW229385   6.700   1.824   3.509
 9496SOL     OW29386   5.649   5.098   1.040
 9496SOL    HW129387   5.661   5.043   0.958
 9496SOL    HW229388   5.553   5.097   1.068
 9497SOL     OW29389   5.968   6.020   6.698
 9497SOL    HW129390   5.986   5.925   6.721
 9497SOL    HW229391   6.030   6.080   6.750
 9498SOL     OW29392   5.423   6.885   4.761
 9498SOL    HW129393   5.419   6.982   4.783
 9498SOL    HW229394   5.433   6.832   4.846
 9499SOL     OW29395   1.914   5.053   6.670
 9499SOL    HW129396   1.877   5.002   6.748
 9499SOL    HW229397   1.839   5.088   6.614
 9500SOL     OW29398   5.392   0.326   0.779
 9500SOL    HW129399   5.406   0.236   0.819
 9500SOL    HW229400   5.383   0.317   0.680
 9501SOL     OW29401   2.775   1.505   5.167
 9501SOL    HW129402   2.818   1.444   5.234
 9501SOL    HW229403   2.781   1.599   5.200
 9502SOL     OW29404   6.978   2.263   5.217
 9502SOL    HW129405   0.056   2.265   5.250
 9502SOL    HW229406   6.946   2.356   5.201
 9503SOL     OW29407   0.190   1.950   1.170
 9503SOL    HW129408   0.234   1.915   1.253
 9503SOL    HW229409   0.261   1.974   1.104
 9504SOL     OW29410   6.788   2.050   0.928
 9504SOL    HW129411   6.740   2.130   0.963
 9504SOL    HW229412   6.885   2.056   0.951
 9505SOL     OW29413   5.481   5.004   3.231
 9505SOL    HW129414   5.412   5.076   3.232
 9505SOL    HW229415   5.442   4.921   3.193
 9506SOL     OW29416   0.292   2.523   6.593
 9506SOL    HW129417   0.242   2.532   6.507
 9506SOL    HW229418   0.361   2.595   6.600
 9507SOL     OW29419   1.004   1.866   3.203
 9507SOL    HW129420   1.028   1.848   3.108
 9507SOL    HW229421   1.082   1.908   3.249
 9508SOL     OW29422   6.511   4.071   0.837
 9508SOL    HW129423   6.439   4.137   0.815
 9508SOL    HW229424   6.492   4.030   0.926
 9509SOL     OW29425   0.366   0.728   5.013
 9509SOL    HW129426   0.401   0.669   5.086
 9509SOL    HW229427   0.394   0.822   5.031
 9510SOL     OW29428   1.162   3.663   2.429
 9510SOL    HW129429   1.107   3.702   2.503
 9510SOL    HW229430   1.197   3.574   2.457
 9511SOL     OW29431   0.326   1.349   0.109
 9511SOL    HW129432   0.302   1.277   0.044
 9511SOL    HW229433   0.297   1.437   0.073
 9512SOL     OW29434   5.320   1.551   1.318
 9512SOL    HW129435   5.346   1.648   1.316
 9512SOL    HW229436   5.284   1.525   1.228
 9513SOL     OW29437   1.606   3.689   5.679
 9513SOL    HW129438   1.515   3.718   5.648
 9513SOL    HW229439   1.620   3.718   5.774
 9514SOL     OW29440   2.133   4.545   6.524
 9514SOL    HW129441   2.154   4.621   6.587
 9514SOL    HW229442   2.156   4.573   6.431
 9515SOL     OW29443   1.496   6.298   1.413
 9515SOL    HW129444   1.446   6.211   1.415
 9515SOL    HW229445   1.569   6.295   1.481
 9516SOL     OW29446   5.333   3.655   4.997
 9516SOL    HW129447   5.332   3.753   5.014
 9516SOL    HW229448   5.342   3.606   5.084
 9517SOL     OW29449   0.645   4.703   1.239
 9517SOL    HW129450   0.672   4.690   1.335
 9517SOL    HW229451   0.724   4.733   1.186
 9518SOL     OW29452   1.058   1.661   0.209
 9518SOL    HW129453   1.021   1.753   0.212
 9518SOL    HW229454   1.004   1.601   0.269
 9519SOL     OW29455   3.284   4.134   4.228
 9519SOL    HW129456   3.241   4.056   4.183
 9519SOL    HW229457   3.361   4.166   4.173
 9520SOL     OW29458   0.817   1.476   3.398
 9520SOL    HW129459   0.781   1.569   3.384
 9520SOL    HW229460   0.913   1.474   3.373
 9521SOL     OW29461   4.420   5.049   1.351
 9521SOL    HW129462   4.338   5.105   1.362
 9521SOL    HW229463   4.447   5.048   1.255
 9522SOL     OW29464   4.013   5.241   1.407
 9522SOL    HW129465   3.942   5.311   1.410
 9522SOL    HW229466   4.095   5.278   1.362
 9523SOL     OW29467   2.500   5.133   4.468
 9523SOL    HW129468   2.457   5.155   4.380
 9523SOL    HW229469   2.558   5.052   4.457
 9524SOL     OW29470   2.662   3.190   0.718
 9524SOL    HW129471   2.662   3.177   0.619
 9524SOL    HW229472   2.720   3.121   0.761
 9525SOL     OW29473   2.534   2.144   5.819
 9525SOL    HW129474   2.463   2.102   5.762
 9525SOL    HW229475   2.493   2.211   5.881
 9526SOL     OW29476   5.260   4.740   1.006
 9526SOL    HW129477   5.284   4.837   1.018
 9526SOL    HW229478   5.261   4.695   1.096
 9527SOL     OW29479   0.740   0.754   4.500
 9527SOL    HW129480   0.690   0.814   4.563
 9527SOL    HW229481   0.784   0.810   4.429
 9528SOL     OW29482   6.959   1.687   0.931
 9528SOL    HW129483   6.915   1.599   0.948
 9528SOL    HW229484   6.949   1.745   1.012
 9529SOL     OW29485   6.276   3.109   6.440
 9529SOL    HW129486   6.211   3.037   6.466
 9529SOL    HW229487   6.288   3.109   6.340
 9530SOL     OW29488   1.804   2.825   3.349
 9530SOL    HW129489   1.889   2.775   3.335
 9530SOL    HW229490   1.770   2.859   3.262
 9531SOL     OW29491   4.887   4.641   2.414
 9531SOL    HW129492   4.867   4.673   2.507
 9531SOL    HW229493   4.969   4.583   2.416
 9532SOL     OW29494   0.324   6.020   1.334
 9532SOL    HW129495   0.318   6.116   1.361
 9532SOL    HW229496   0.244   5.995   1.279
 9533SOL     OW29497   6.789   5.675   5.137
 9533SOL    HW129498   6.733   5.617   5.078
 9533SOL    HW229499   6.844   5.618   5.197
 9534SOL     OW29500   6.645   3.942   5.473
 9534SOL    HW129501   6.583   3.883   5.421
 9534SOL    HW229502   6.698   3.998   5.410
 9535SOL     OW29503   1.700   0.458   5.760
 9535SOL    HW129504   1.661   0.410   5.681
 9535SOL    HW229505   1.626   0.490   5.819
 9536SOL     OW29506   3.154   3.855   5.633
 9536SOL    HW129507   3.131   3.847   5.537
 9536SOL    HW229508   3.149   3.950   5.661
 9537SOL     OW29509   2.879   0.338   4.538
 9537SOL    HW129510   2.878   0.389   4.452
 9537SOL    HW229511   2.908   0.244   4.520
 9538SOL     OW29512   5.929   0.905   3.499
 9538SOL    HW129513   5.900   0.831   3.438
 9538SOL    HW229514   5.889   0.891   3.589
 9539SOL     OW29515   3.570   3.841   4.302
 9539SOL    HW129516   3.660   3.871   4.272
 9539SOL    HW229517   3.513   3.921   4.321
 9540SOL     OW29518   6.068   4.551   4.154
 9540SOL    HW129519   6.048   4.616   4.228
 9540SOL    HW229520   6.155   4.505   4.173
 9541SOL     OW29521   3.048   0.669   5.893
 9541SOL    HW129522   3.068   0.763   5.920
 9541SOL    HW229523   3.057   0.660   5.793
 9542SOL     OW29524   4.877   4.406   4.616
 9542SOL    HW129525   4.909   4.353   4.695
 9542SOL    HW229526   4.926   4.375   4.534
 9543SOL     OW29527   3.410   0.721   5.808
 9543SOL    HW129528   3.496   0.771   5.799
 9543SOL    HW229529   3.334   0.786   5.815
 9544SOL     OW29530   7.010   2.096   3.442
 9544SOL    HW129531   6.979   2.166   3.506
 9544SOL    HW229532   0.046   2.026   3.491
 9545SOL     OW29533   5.635   6.009   4.328
 9545SOL    HW129534   5.589   5.935   4.377
 9545SOL    HW229535   5.624   5.996   4.229
 9546SOL     OW29536   4.408   2.176   5.106
 9546SOL    HW129537   4.366   2.096   5.064
 9546SOL    HW229538   4.471   2.147   5.178
 9547SOL     OW29539   2.786   4.864   4.415
 9547SOL    HW129540   2.858   4.839   4.350
 9547SOL    HW229541   2.828   4.894   4.501
 9548SOL     OW29542   5.718   4.482   5.795
 9548SOL    HW129543   5.788   4.416   5.770
 9548SOL    HW229544   5.651   4.439   5.857
 9549SOL     OW29545   2.608   3.111   1.134
 9549SOL    HW129546   2.594   3.149   1.225
 9549SOL    HW229547   2.571   3.173   1.065
 9550SOL     OW29548   6.720   1.391   0.297
 9550SOL    HW129549   6.755   1.417   0.208
 9550SOL    HW229550   6.657   1.461   0.330
 9551SOL     OW29551   5.679   2.004   5.828
 9551SOL    HW129552   5.704   2.098   5.807
 9551SOL    HW229553   5.581   1.999   5.850
 9552SOL     OW29554   1.547   6.979   4.208
 9552SOL    HW129555   1.589   6.899   4.251
 9552SOL    HW229556   1.619   0.026   4.178
 9553SOL     OW29557   6.162   2.503   6.910
 9553SOL    HW129558   6.215   2.552   6.979
 9553SOL    HW229559   6.208   2.509   6.822
 9554SOL     OW29560   2.848   6.833   1.648
 9554SOL    HW129561   2.857   6.750   1.703
 9554SOL    HW229562   2.902   6.906   1.689
 9555SOL     OW29563   0.753   0.712   2.817
 9555SOL    HW129564   0.762   0.690   2.719
 9555SOL    HW229565   0.832   0.765   2.847
 9556SOL     OW29566   1.794   3.889   1.624
 9556SOL    HW129567   1.884   3.866   1.659
 9556SOL    HW229568   1.796   3.979   1.581
 9557SOL     OW29569   6.856   5.862   2.184
 9557SOL    HW129570   6.823   5.818   2.100
 9557SOL    HW229571   6.778   5.891   2.239
 9558SOL     OW29572   6.135   6.464   4.926
 9558SOL    HW129573   6.072   6.532   4.966
 9558SOL    HW229574   6.200   6.434   4.996
 9559SOL     OW29575   0.257   5.105   1.630
 9559SOL    HW129576   0.163   5.138   1.628
 9559SOL    HW229577   0.281   5.065   1.542
 9560SOL     OW29578   1.851   1.867   3.345
 9560SOL    HW129579   1.784   1.932   3.381
 9560SOL    HW229580   1.826   1.842   3.252
 9561SOL     OW29581   2.139   0.378   0.571
 9561SOL    HW129582   2.085   0.453   0.609
 9561SOL    HW229583   2.196   0.413   0.496
 9562SOL     OW29584   2.672   0.696   5.518
 9562SOL    HW129585   2.712   0.643   5.443
 9562SOL    HW229586   2.573   0.685   5.517
 9563SOL     OW29587   6.840   6.379   0.565
 9563SOL    HW129588   6.907   6.450   0.585
 9563SOL    HW229589   6.851   6.350   0.469
 9564SOL     OW29590   2.886   0.376   0.627
 9564SOL    HW129591   2.844   0.285   0.621
 9564SOL    HW229592   2.893   0.415   0.535
 9565SOL     OW29593   3.523   0.339   4.804
 9565SOL    HW129594   3.461   0.290   4.743
 9565SOL    HW229595   3.485   0.340   4.896
 9566SOL     OW29596   2.151   4.560   6.971
 9566SOL    HW129597   2.214   4.582   0.030
 9566SOL    HW229598   2.184   4.479   6.922
 9567SOL     OW29599   4.738   5.156   1.144
 9567SOL    HW129600   4.671   5.214   1.191
 9567SOL    HW229601   4.773   5.087   1.208
 9568SOL     OW29602   4.085   2.272   6.308
 9568SOL    HW129603   4.173   2.319   6.314
 9568SOL    HW229604   4.011   2.336   6.330
 9569SOL     OW29605   6.741   1.646   2.389
 9569SOL    HW129606   6.745   1.556   2.346
 9569SOL    HW229607   6.702   1.712   2.326
 9570SOL     OW29608   0.930   3.473   2.050
 9570SOL    HW129609   0.899   3.428   2.133
 9570SOL    HW229610   0.998   3.543   2.073
 9571SOL     OW29611   3.876   3.994   5.907
 9571SOL    HW129612   3.842   4.084   5.881
 9571SOL    HW229613   3.836   3.925   5.847
 9572SOL     OW29614   2.427   5.064   1.698
 9572SOL    HW129615   2.369   5.131   1.743
 9572SOL    HW229616   2.522   5.095   1.699
 9573SOL     OW29617   0.481   2.698   6.788
 9573SOL    HW129618   0.387   2.730   6.801
 9573SOL    HW229619   0.535   2.720   6.870
 9574SOL     OW29620   4.109   3.472   3.327
 9574SOL    HW129621   4.029   3.424   3.361
 9574SOL    HW229622   4.192   3.435   3.370
 9575SOL     OW29623   0.353   1.221   1.025
 9575SOL    HW129624   0.274   1.281   1.036
 9575SOL    HW229625   0.352   1.180   0.934
 9576SOL     OW29626   1.906   0.693   1.685
 9576SOL    HW129627   1.926   0.777   1.634
 9576SOL    HW229628   1.899   0.616   1.621
 9577SOL     OW29629   1.144   0.581   5.978
 9577SOL    HW129630   1.145   0.484   6.002
 9577SOL    HW229631   1.212   0.630   6.033
 9578SOL     OW29632   0.236   3.985   3.565
 9578SOL    HW129633   0.317   4.040   3.589
 9578SOL    HW229634   0.249   3.944   3.475
 9579SOL     OW29635   1.746   5.092   2.499
 9579SOL    HW129636   1.664   5.100   2.442
 9579SOL    HW229637   1.722   5.111   2.594
 9580SOL     OW29638   4.709   3.451   0.675
 9580SOL    HW129639   4.615   3.441   0.707
 9580SOL    HW229640   4.726   3.388   0.599
 9581SOL     OW29641   0.540   4.856   5.654
 9581SOL    HW129642   0.477   4.923   5.693
 9581SOL    HW229643   0.584   4.804   5.727
 9582SOL     OW29644   5.021   5.363   6.421
 9582SOL    HW129645   5.010   5.430   6.347
 9582SOL    HW229646   5.027   5.271   6.383
 9583SOL     OW29647   3.609   4.181   1.087
 9583SOL    HW129648   3.573   4.228   1.006
 9583SOL    HW229649   3.705   4.207   1.100
 9584SOL     OW29650   6.938   5.372   0.129
 9584SOL    HW129651   6.994   5.417   0.199
 9584SOL    HW229652   6.968   5.277   0.119
 9585SOL     OW29653   6.928   0.425   4.353
 9585SOL    HW129654   6.831   0.450   4.344
 9585SOL    HW229655   6.939   0.360   4.428
 9586SOL     OW29656   5.594   4.844   2.255
 9586SOL    HW129657   5.672   4.786   2.281
 9586SOL    HW229658   5.620   4.940   2.261
 9587SOL     OW29659   6.864   1.016   1.845
 9587SOL    HW129660   6.788   0.953   1.860
 9587SOL    HW229661   6.854   1.059   1.755
 9588SOL     OW29662   6.532   1.597   1.470
 9588SOL    HW129663   6.580   1.684   1.459
 9588SOL    HW229664   6.454   1.608   1.532
 9589SOL     OW29665   2.288   4.915   6.192
 9589SOL    HW129666   2.384   4.932   6.213
 9589SOL    HW229667   2.281   4.871   6.102
 9590SOL     OW29668   6.577   3.013   2.039
 9590SOL    HW129669   6.481   2.989   2.029
 9590SOL    HW229670   6.598   3.029   2.135
 9591SOL     OW29671   3.331   5.968   6.243
 9591SOL    HW129672   3.371   5.877   6.229
 9591SOL    HW229673   3.241   5.958   6.285
 9592SOL     OW29674   4.107   4.163   1.121
 9592SOL    HW129675   4.108   4.066   1.095
 9592SOL    HW229676   4.163   4.215   1.057
 9593SOL     OW29677   0.267   1.262   5.426
 9593SOL    HW129678   0.298   1.172   5.397
 9593SOL    HW229679   0.170   1.273   5.404
 9594SOL     OW29680   1.618   6.075   3.007
 9594SOL    HW129681   1.589   6.078   3.102
 9594SOL    HW229682   1.717   6.085   3.001
 9595SOL     OW29683   0.763   4.187   5.273
 9595SOL    HW129684   0.806   4.238   5.198
 9595SOL    HW229685   0.691   4.129   5.236
 9596SOL     OW29686   6.757   5.549   6.660
 9596SOL    HW129687   6.794   5.458   6.680
 9596SOL    HW229688   6.724   5.552   6.566
 9597SOL     OW29689   0.687   4.727   1.529
 9597SOL    HW129690   0.738   4.696   1.608
 9597SOL    HW229691   0.589   4.718   1.546
 9598SOL     OW29692   1.196   3.370   3.931
 9598SOL    HW129693   1.240   3.295   3.979
 9598SOL    HW229694   1.217   3.456   3.977
 9599SOL     OW29695   4.113   6.769   4.834
 9599SOL    HW129696   4.163   6.791   4.917
 9599SOL    HW229697   4.065   6.851   4.802
 9600SOL     OW29698   1.988   0.421   6.621
 9600SOL    HW129699   2.047   0.348   6.657
 9600SOL    HW229700   2.045   0.493   6.580
 9601SOL     OW29701   5.329   3.919   1.662
 9601SOL    HW129702   5.369   4.009   1.680
 9601SOL    HW229703   5.353   3.857   1.737
 9602SOL     OW29704   6.626   5.101   6.368
 9602SOL    HW129705   6.692   5.136   6.435
 9602SOL    HW229706   6.653   5.130   6.276
 9603SOL     OW29707   3.654   1.838   4.255
 9603SOL    HW129708   3.749   1.807   4.262
 9603SOL    HW229709   3.631   1.895   4.334
 9604SOL     OW29710   4.194   0.456   6.451
 9604SOL    HW129711   4.210   0.535   6.511
 9604SOL    HW229712   4.129   0.394   6.496
 9605SOL     OW29713   0.564   5.385   3.578
 9605SOL    HW129714   0.595   5.398   3.484
 9605SOL    HW229715   0.623   5.319   3.623
 9606SOL     OW29716   2.070   6.788   6.068
 9606SOL    HW129717   2.082   6.690   6.081
 9606SOL    HW229718   1.973   6.811   6.079
 9607SOL     OW29719   1.555   1.600   0.703
 9607SOL    HW129720   1.473   1.600   0.760
 9607SOL    HW229721   1.528   1.594   0.607
 9608SOL     OW29722   6.567   5.955   2.298
 9608SOL    HW129723   6.572   5.911   2.208
 9608SOL    HW229724   6.521   6.043   2.289
 9609SOL     OW29725   1.986   3.990   6.457
 9609SOL    HW129726   2.069   4.011   6.507
 9609SOL    HW229727   1.923   4.068   6.461
 9610SOL     OW29728   1.863   5.079   4.104
 9610SOL    HW129729   1.791   5.083   4.035
 9610SOL    HW229730   1.950   5.057   4.060
 9611SOL     OW29731   0.141   6.260   6.528
 9611SOL    HW129732   0.219   6.324   6.524
 9611SOL    HW229733   0.174   6.167   6.518
 9612SOL     OW29734   0.914   4.065   1.843
 9612SOL    HW129735   0.927   4.010   1.926
 9612SOL    HW229736   0.861   4.012   1.777
 9613SOL     OW29737   4.688   6.102   3.384
 9613SOL    HW129738   4.649   6.145   3.302
 9613SOL    HW229739   4.652   6.009   3.394
 9614SOL     OW29740   3.482   2.682   0.342
 9614SOL    HW129741   3.409   2.690   0.275
 9614SOL    HW229742   3.566   2.722   0.305
 9615SOL     OW29743   0.753   7.003   0.999
 9615SOL    HW129744   0.670   6.948   0.987
 9615SOL    HW229745   0.817   6.984   0.925
 9616SOL     OW29746   4.518   3.285   1.188
 9616SOL    HW129747   4.529   3.254   1.093
 9616SOL    HW229748   4.421   3.285   1.212
 9617SOL     OW29749   1.934   2.978   3.784
 9617SOL    HW129750   1.970   3.054   3.838
 9617SOL    HW229751   1.925   2.897   3.842
 9618SOL     OW29752   3.656   7.004   5.724
 9618SOL    HW129753   3.586   6.942   5.691
 9618SOL    HW229754   3.726   6.952   5.773
 9619SOL     OW29755   0.914   6.613   0.148
 9619SOL    HW129756   0.934   6.559   0.230
 9619SOL    HW229757   0.970   6.696   0.148
 9620SOL     OW29758   4.231   2.415   6.700
 9620SOL    HW129759   4.215   2.388   6.795
 9620SOL    HW229760   4.204   2.340   6.639
 9621SOL     OW29761   0.959   0.975   2.436
 9621SOL    HW129762   0.911   1.044   2.491
 9621SOL    HW229763   0.917   0.886   2.453
 9622SOL     OW29764   6.716   0.822   0.239
 9622SOL    HW129765   6.659   0.740   0.235
 9622SOL    HW229766   6.658   0.904   0.242
 9623SOL     OW29767   3.346   4.680   5.628
 9623SOL    HW129768   3.345   4.779   5.614
 9623SOL    HW229769   3.403   4.637   5.559
 9624SOL     OW29770   6.294   4.508   3.160
 9624SOL    HW129771   6.346   4.593   3.160
 9624SOL    HW229772   6.273   4.482   3.255
 9625SOL     OW29773   4.944   5.404   0.142
 9625SOL    HW129774   4.922   5.488   0.093
 9625SOL    HW229775   4.871   5.383   0.207
 9626SOL     OW29776   2.785   6.584   6.960
 9626SOL    HW129777   2.740   6.503   6.924
 9626SOL    HW229778   2.814   6.642   6.884
 9627SOL     OW29779   0.037   4.530   3.091
 9627SOL    HW129780   0.003   4.488   3.175
 9627SOL    HW229781   6.991   4.509   3.016
 9628SOL     OW29782   6.032   4.945   6.974
 9628SOL    HW129783   6.007   4.933   6.878
 9628SOL    HW229784   6.054   5.041   6.991
 9629SOL     OW29785   0.458   6.558   2.739
 9629SOL    HW129786   0.373   6.604   2.762
 9629SOL    HW229787   0.449   6.460   2.758
 9630SOL     OW29788   6.065   6.583   5.534
 9630SOL    HW129789   6.135   6.653   5.521
 9630SOL    HW229790   5.978   6.615   5.498
 9631SOL     OW29791   6.040   0.437   0.145
 9631SOL    HW129792   6.075   0.394   0.062
 9631SOL    HW229793   5.976   0.509   0.121
 9632SOL     OW29794   2.073   5.483   2.699
 9632SOL    HW129795   2.054   5.404   2.641
 9632SOL    HW229796   2.149   5.462   2.760
 9633SOL     OW29797   4.973   5.005   6.793
 9633SOL    HW129798   5.044   5.033   6.728
 9633SOL    HW229799   4.963   5.075   6.864
 9634SOL     OW29800   0.891   6.873   4.854
 9634SOL    HW129801   0.966   6.863   4.788
 9634SOL    HW229802   0.811   6.910   4.807
 9635SOL     OW29803   1.432   4.381   5.611
 9635SOL    HW129804   1.517   4.403   5.563
 9635SOL    HW229805   1.453   4.357   5.706
 9636SOL     OW29806   4.159   1.638   6.070
 9636SOL    HW129807   4.206   1.550   6.077
 9636SOL    HW229808   4.106   1.640   5.985
 9637SOL     OW29809   2.325   2.137   0.316
 9637SOL    HW129810   2.280   2.196   0.383
 9637SOL    HW229811   2.355   2.052   0.362
 9638SOL     OW29812   0.162   3.388   0.212
 9638SOL    HW129813   0.157   3.312   0.147
 9638SOL    HW229814   0.137   3.473   0.166
 9639SOL     OW29815   4.583   1.660   1.988
 9639SOL    HW129816   4.563   1.603   1.908
 9639SOL    HW229817   4.660   1.621   2.038
 9640SOL     OW29818   3.057   1.553   3.384
 9640SOL    HW129819   3.116   1.592   3.313
 9640SOL    HW229820   2.963   1.584   3.369
 9641SOL     OW29821   5.318   6.202   0.929
 9641SOL    HW129822   5.232   6.249   0.943
 9641SOL    HW229823   5.302   6.103   0.924
 9642SOL     OW29824   2.425   5.902   4.581
 9642SOL    HW129825   2.522   5.922   4.594
 9642SOL    HW229826   2.414   5.805   4.559
 9643SOL     OW29827   6.311   4.421   4.140
 9643SOL    HW129828   6.263   4.392   4.057
 9643SOL    HW229829   6.383   4.486   4.115
 9644SOL     OW29830   0.463   5.160   4.441
 9644SOL    HW129831   0.561   5.158   4.420
 9644SOL    HW229832   0.429   5.253   4.428
 9645SOL     OW29833   3.496   4.879   3.528
 9645SOL    HW129834   3.439   4.825   3.589
 9645SOL    HW229835   3.514   4.968   3.568
 9646SOL     OW29836   2.752   4.733   2.252
 9646SOL    HW129837   2.803   4.713   2.168
 9646SOL    HW229838   2.679   4.666   2.263
 9647SOL     OW29839   0.621   5.698   1.407
 9647SOL    HW129840   0.522   5.683   1.414
 9647SOL    HW229841   0.666   5.659   1.488
 9648SOL     OW29842   3.546   1.852   6.729
 9648SOL    HW129843   3.616   1.920   6.751
 9648SOL    HW229844   3.456   1.895   6.735
 9649SOL     OW29845   2.741   5.027   6.900
 9649SOL    HW129846   2.777   5.117   6.874
 9649SOL    HW229847   2.646   5.020   6.870
 9650SOL     OW29848   5.164   4.310   3.116
 9650SOL    HW129849   5.083   4.314   3.057
 9650SOL    HW229850   5.193   4.403   3.140
 9651SOL     OW29851   6.432   0.535   6.970
 9651SOL    HW129852   6.506   0.573   6.914
 9651SOL    HW229853   6.356   0.600   6.972
 9652SOL     OW29854   2.145   4.212   0.929
 9652SOL    HW129855   2.151   4.146   0.854
 9652SOL    HW229856   2.178   4.301   0.898
 9653SOL     OW29857   4.465   5.365   5.199
 9653SOL    HW129858   4.490   5.382   5.104
 9653SOL    HW229859   4.539   5.315   5.244
 9654SOL     OW29860   3.601   3.183   2.300
 9654SOL    HW129861   3.685   3.157   2.251
 9654SOL    HW229862   3.591   3.282   2.299
 9655SOL     OW29863   6.637   1.112   0.275
 9655SOL    HW129864   6.678   1.200   0.296
 9655SOL    HW229865   6.596   1.115   0.184
 9656SOL     OW29866   4.275   1.935   0.747
 9656SOL    HW129867   4.259   1.969   0.840
 9656SOL    HW229868   4.337   1.857   0.750
 9657SOL     OW29869   5.991   2.019   3.682
 9657SOL    HW129870   6.089   2.010   3.703
 9657SOL    HW229871   5.971   1.970   3.597
 9658SOL     OW29872   5.753   1.894   2.302
 9658SOL    HW129873   5.780   1.988   2.281
 9658SOL    HW229874   5.699   1.893   2.386
 9659SOL     OW29875   6.796   3.264   0.394
 9659SOL    HW129876   6.875   3.293   0.448
 9659SOL    HW229877   6.718   3.248   0.455
 9660SOL     OW29878   0.246   6.526   2.300
 9660SOL    HW129879   0.206   6.612   2.333
 9660SOL    HW229880   0.280   6.474   2.378
 9661SOL     OW29881   3.122   6.378   1.703
 9661SOL    HW129882   3.131   6.426   1.790
 9661SOL    HW229883   3.123   6.279   1.719
 9662SOL     OW29884   4.587   2.872   5.495
 9662SOL    HW129885   4.561   2.834   5.583
 9662SOL    HW229886   4.670   2.927   5.506
 9663SOL     OW29887   6.990   5.935   3.676
 9663SOL    HW129888   6.926   5.907   3.747
 9663SOL    HW229889   6.951   5.913   3.586
 9664SOL     OW29890   5.423   6.390   3.907
 9664SOL    HW129891   5.426   6.360   3.812
 9664SOL    HW229892   5.465   6.321   3.966
 9665SOL     OW29893   5.110   6.613   0.047
 9665SOL    HW129894   5.042   6.599   6.990
 9665SOL    HW229895   5.199   6.578   0.016
 9666SOL     OW29896   6.164   3.704   1.379
 9666SOL    HW129897   6.072   3.663   1.376
 9666SOL    HW229898   6.180   3.753   1.293
 9667SOL     OW29899   3.923   3.295   5.512
 9667SOL    HW129900   3.921   3.247   5.424
 9667SOL    HW229901   4.005   3.270   5.562
 9668SOL     OW29902   6.957   0.903   6.270
 9668SOL    HW129903   6.859   0.909   6.248
 9668SOL    HW229904   6.999   0.831   6.216
 9669SOL     OW29905   1.338   0.173   2.108
 9669SOL    HW129906   1.307   0.268   2.102
 9669SOL    HW229907   1.318   0.126   2.022
 9670SOL     OW29908   6.236   4.854   6.769
 9670SOL    HW129909   6.197   4.847   6.861
 9670SOL    HW229910   6.183   4.920   6.715
 9671SOL     OW29911   5.880   4.727   0.083
 9671SOL    HW129912   5.941   4.783   0.026
 9671SOL    HW229913   5.790   4.722   0.040
 9672SOL     OW29914   1.686   5.979   3.814
 9672SOL    HW129915   1.762   6.043   3.803
 9672SOL    HW229916   1.654   5.949   3.724
 9673SOL     OW29917   5.354   3.601   0.567
 9673SOL    HW129918   5.299   3.547   0.632
 9673SOL    HW229919   5.407   3.539   0.510
 9674SOL     OW29920   2.528   6.246   3.099
 9674SOL    HW129921   2.592   6.321   3.116
 9674SOL    HW229922   2.514   6.236   3.001
 9675SOL     OW29923   5.562   2.517   0.600
 9675SOL    HW129924   5.518   2.603   0.575
 9675SOL    HW229925   5.526   2.443   0.543
 9676SOL     OW29926   1.336   3.744   5.618
 9676SOL    HW129927   1.313   3.770   5.524
 9676SOL    HW229928   1.278   3.669   5.647
 9677SOL     OW29929   1.262   5.087   5.069
 9677SOL    HW129930   1.283   5.184   5.056
 9677SOL    HW229931   1.344   5.039   5.100
 9678SOL     OW29932   3.274   3.637   3.056
 9678SOL    HW129933   3.331   3.677   3.127
 9678SOL    HW229934   3.288   3.538   3.054
 9679SOL     OW29935   2.395   1.000   2.280
 9679SOL    HW129936   2.403   1.092   2.318
 9679SOL    HW229937   2.357   1.005   2.188
 9680SOL     OW29938   5.006   1.000   2.683
 9680SOL    HW129939   5.081   1.052   2.725
 9680SOL    HW229940   5.005   1.016   2.584
 9681SOL     OW29941   3.225   1.364   0.362
 9681SOL    HW129942   3.212   1.427   0.438
 9681SOL    HW229943   3.195   1.273   0.389
 9682SOL     OW29944   5.144   4.595   3.788
 9682SOL    HW129945   5.078   4.659   3.827
 9682SOL    HW229946   5.215   4.576   3.855
 9683SOL     OW29947   2.802   5.313   0.378
 9683SOL    HW129948   2.788   5.309   0.279
 9683SOL    HW229949   2.796   5.408   0.408
 9684SOL     OW29950   0.065   3.266   5.202
 9684SOL    HW129951   0.154   3.309   5.188
 9684SOL    HW229952   0.012   3.321   5.266
 9685SOL     OW29953   3.015   4.502   1.385
 9685SOL    HW129954   3.086   4.485   1.317
 9685SOL    HW229955   2.930   4.456   1.357
 9686SOL     OW29956   6.369   1.310   6.688
 9686SOL    HW129957   6.457   1.279   6.724
 9686SOL    HW229958   6.309   1.231   6.674
 9687SOL     OW29959   1.532   0.621   3.947
 9687SOL    HW129960   1.579   0.610   3.860
 9687SOL    HW229961   1.466   0.546   3.959
 9688SOL     OW29962   0.638   3.250   2.536
 9688SOL    HW129963   0.620   3.163   2.583
 9688SOL    HW229964   0.623   3.239   2.438
 9689SOL     OW29965   1.163   5.336   6.807
 9689SOL    HW129966   1.123   5.338   6.715
 9689SOL    HW229967   1.198   5.426   6.830
 9690SOL     OW29968   5.747   5.843   6.966
 9690SOL    HW129969   5.838   5.804   6.980
 9690SOL    HW229970   5.678   5.771   6.975
 9691SOL     OW29971   2.945   5.316   1.454
 9691SOL    HW129972   3.001   5.274   1.382
 9691SOL    HW229973   2.856   5.340   1.417
 9692SOL     OW29974   3.933   5.342   2.524
 9692SOL    HW129975   3.965   5.271   2.461
 9692SOL    HW229976   3.834   5.333   2.538
 9693SOL     OW29977   6.213   4.832   1.525
 9693SOL    HW129978   6.138   4.887   1.489
 9693SOL    HW229979   6.234   4.861   1.618
 9694SOL     OW29980   2.417   0.910   0.215
 9694SOL    HW129981   2.360   0.984   0.180
 9694SOL    HW229982   2.397   0.894   0.312
 9695SOL     OW29983   6.819   3.788   2.465
 9695SOL    HW129984   6.804   3.773   2.563
 9695SOL    HW229985   6.845   3.701   2.422
 9696SOL     OW29986   5.184   3.416   0.735
 9696SOL    HW129987   5.118   3.443   0.665
 9696SOL    HW229988   5.162   3.463   0.821
 9697SOL     OW29989   0.270   5.483   6.777
 9697SOL    HW129990   0.219   5.555   6.730
 9697SOL    HW229991   0.347   5.454   6.720
 9698SOL     OW29992   4.491   1.170   6.145
 9698SOL    HW129993   4.511   1.254   6.095
 9698SOL    HW229994   4.572   1.140   6.196
 9699SOL     OW29995   6.752   5.016   6.785
 9699SOL    HW129996   6.797   5.054   6.867
 9699SOL    HW229997   6.753   4.916   6.791
 9700SOL     OW29998   4.564   5.341   4.910
 9700SOL    HW129999   4.520   5.255   4.884
 9700SOL    HW230000   4.653   5.347   4.866
 9701SOL     OW30001   3.899   5.108   5.390
 9701SOL    HW130002   3.894   5.185   5.328
 9701SOL    HW230003   3.924   5.140   5.482
 9702SOL     OW30004   4.575   0.438   6.783
 9702SOL    HW130005   4.606   0.384   6.861
 9702SOL    HW230006   4.654   0.464   6.727
 9703SOL     OW30007   4.556   4.612   3.655
 9703SOL    HW130008   4.614   4.693   3.643
 9703SOL    HW230009   4.591   4.538   3.598
 9704SOL     OW30010   3.335   0.824   2.857
 9704SOL    HW130011   3.397   0.790   2.786
 9704SOL    HW230012   3.376   0.904   2.902
 9705SOL     OW30013   6.012   4.504   6.511
 9705SOL    HW130014   6.016   4.406   6.532
 9705SOL    HW230015   5.920   4.538   6.527
 9706SOL     OW30016   0.405   3.582   0.919
 9706SOL    HW130017   0.480   3.619   0.865
 9706SOL    HW230018   0.360   3.509   0.867
 9707SOL     OW30019   6.865   4.875   2.138
 9707SOL    HW130020   6.908   4.845   2.053
 9707SOL    HW230021   6.889   4.811   2.211
 9708SOL     OW30022   1.321   2.042   2.635
 9708SOL    HW130023   1.353   2.124   2.586
 9708SOL    HW230024   1.221   2.035   2.625
 9709SOL     OW30025   6.002   6.543   3.223
 9709SOL    HW130026   5.961   6.581   3.140
 9709SOL    HW230027   6.093   6.508   3.201
 9710SOL     OW30028   0.412   1.004   1.889
 9710SOL    HW130029   0.315   1.026   1.879
 9710SOL    HW230030   0.455   0.997   1.799
 9711SOL     OW30031   1.963   4.837   5.989
 9711SOL    HW130032   1.924   4.890   6.064
 9711SOL    HW230033   1.897   4.830   5.915
 9712SOL     OW30034   5.984   4.018   6.445
 9712SOL    HW130035   5.993   4.089   6.515
 9712SOL    HW230036   6.038   3.938   6.472
 9713SOL     OW30037   1.285   4.980   3.145
 9713SOL    HW130038   1.305   5.077   3.160
 9713SOL    HW230039   1.354   4.942   3.084
 9714SOL     OW30040   2.972   0.167   0.336
 9714SOL    HW130041   2.941   0.105   0.407
 9714SOL    HW230042   2.917   0.250   0.337
 9715SOL     OW30043   5.121   3.969   6.499
 9715SOL    HW130044   5.106   4.020   6.584
 9715SOL    HW230045   5.055   3.895   6.492
 9716SOL     OW30046   3.865   3.157   0.210
 9716SOL    HW130047   3.965   3.145   0.209
 9716SOL    HW230048   3.842   3.249   0.178
 9717SOL     OW30049   5.143   6.204   5.892
 9717SOL    HW130050   5.219   6.140   5.901
 9717SOL    HW230051   5.172   6.281   5.834
 9718SOL     OW30052   4.745   2.623   0.190
 9718SOL    HW130053   4.810   2.566   0.139
 9718SOL    HW230054   4.785   2.649   0.278
 9719SOL     OW30055   6.412   1.900   5.823
 9719SOL    HW130056   6.448   1.857   5.906
 9719SOL    HW230057   6.451   1.854   5.743
 9720SOL     OW30058   6.924   5.404   2.202
 9720SOL    HW130059   6.965   5.467   2.136
 9720SOL    HW230060   6.962   5.421   2.293
 9721SOL     OW30061   0.254   2.471   1.582
 9721SOL    HW130062   0.277   2.530   1.504
 9721SOL    HW230063   0.155   2.459   1.587
 9722SOL     OW30064   6.447   0.108   3.988
 9722SOL    HW130065   6.366   0.107   4.047
 9722SOL    HW230066   6.499   0.191   4.004
 9723SOL     OW30067   2.138   6.760   3.156
 9723SOL    HW130068   2.180   6.838   3.202
 9723SOL    HW230069   2.117   6.689   3.222
 9724SOL     OW30070   1.645   4.486   0.476
 9724SOL    HW130071   1.551   4.460   0.455
 9724SOL    HW230072   1.694   4.507   0.392
 9725SOL     OW30073   3.921   4.834   6.357
 9725SOL    HW130074   3.878   4.744   6.357
 9725SOL    HW230075   3.993   4.837   6.426
 9726SOL     OW30076   5.191   0.415   4.206
 9726SOL    HW130077   5.189   0.512   4.230
 9726SOL    HW230078   5.267   0.370   4.253
 9727SOL     OW30079   0.696   3.839   5.844
 9727SOL    HW130080   0.791   3.831   5.816
 9727SOL    HW230081   0.687   3.908   5.916
 9728SOL     OW30082   0.312   0.824   6.096
 9728SOL    HW130083   0.357   0.768   6.027
 9728SOL    HW230084   0.377   0.890   6.133
 9729SOL     OW30085   1.101   4.231   3.214
 9729SOL    HW130086   1.028   4.236   3.283
 9729SOL    HW230087   1.189   4.245   3.259
 9730SOL     OW30088   1.111   3.816   3.932
 9730SOL    HW130089   1.042   3.889   3.926
 9730SOL    HW230090   1.067   3.730   3.955
 9731SOL     OW30091   4.550   4.414   1.080
 9731SOL    HW130092   4.526   4.346   1.149
 9731SOL    HW230093   4.550   4.505   1.121
 9732SOL     OW30094   5.833   5.704   3.563
 9732SOL    HW130095   5.841   5.655   3.650
 9732SOL    HW230096   5.775   5.652   3.500
 9733SOL     OW30097   5.362   4.947   0.771
 9733SOL    HW130098   5.265   4.965   0.788
 9733SOL    HW230099   5.375   4.923   0.675
 9734SOL     OW30100   6.545   1.631   2.560
 9734SOL    HW130101   6.636   1.637   2.518
 9734SOL    HW230102   6.485   1.577   2.502
 9735SOL     OW30103   2.639   4.681   3.366
 9735SOL    HW130104   2.590   4.768   3.363
 9735SOL    HW230105   2.627   4.638   3.455
 9736SOL     OW30106   6.417   1.635   6.805
 9736SOL    HW130107   6.450   1.580   6.728
 9736SOL    HW230108   6.332   1.681   6.779
 9737SOL     OW30109   5.959   2.506   3.890
 9737SOL    HW130110   6.059   2.514   3.899
 9737SOL    HW230111   5.916   2.560   3.963
 9738SOL     OW30112   1.386   0.190   1.145
 9738SOL    HW130113   1.368   0.096   1.116
 9738SOL    HW230114   1.445   0.188   1.226
 9739SOL     OW30115   6.130   4.589   1.825
 9739SOL    HW130116   6.196   4.631   1.762
 9739SOL    HW230117   6.179   4.532   1.891
 9740SOL     OW30118   6.554   2.450   3.159
 9740SOL    HW130119   6.584   2.382   3.226
 9740SOL    HW230120   6.454   2.450   3.153
 9741SOL     OW30121   4.761   1.239   3.258
 9741SOL    HW130122   4.720   1.327   3.234
 9741SOL    HW230123   4.860   1.247   3.255
 9742SOL     OW30124   4.553   6.949   1.111
 9742SOL    HW130125   4.468   7.001   1.111
 9742SOL    HW230126   4.630   7.010   1.133
 9743SOL     OW30127   0.692   1.893   5.112
 9743SOL    HW130128   0.652   1.977   5.149
 9743SOL    HW230129   0.775   1.915   5.062
 9744SOL     OW30130   0.347   6.960   2.823
 9744SOL    HW130131   0.435   6.970   2.868
 9744SOL    HW230132   0.299   0.032   2.822
 9745SOL     OW30133   6.383   2.632   5.918
 9745SOL    HW130134   6.389   2.717   5.866
 9745SOL    HW230135   6.416   2.556   5.862
 9746SOL     OW30136   6.664   1.010   5.741
 9746SOL    HW130137   6.601   0.968   5.677
 9746SOL    HW230138   6.629   1.100   5.769
 9747SOL     OW30139   2.431   1.002   1.271
 9747SOL    HW130140   2.431   0.910   1.312
 9747SOL    HW230141   2.448   1.070   1.343
 9748SOL     OW30142   0.659   1.310   3.261
 9748SOL    HW130143   0.727   1.383   3.272
 9748SOL    HW230144   0.574   1.337   3.306
 9749SOL     OW30145   2.231   1.613   5.155
 9749SOL    HW130146   2.285   1.536   5.120
 9749SOL    HW230147   2.141   1.613   5.111
 9750SOL     OW30148   5.760   4.519   3.585
 9750SOL    HW130149   5.696   4.445   3.607
 9750SOL    HW230150   5.828   4.485   3.521
 9751SOL     OW30151   0.566   0.896   0.628
 9751SOL    HW130152   0.604   0.805   0.609
 9751SOL    HW230153   0.537   0.899   0.724
 9752SOL     OW30154   4.853   1.680   5.675
 9752SOL    HW130155   4.903   1.601   5.711
 9752SOL    HW230156   4.918   1.746   5.638
 9753SOL     OW30157   5.625   6.115   5.829
 9753SOL    HW130158   5.659   6.208   5.847
 9753SOL    HW230159   5.655   6.054   5.903
 9754SOL     OW30160   1.007   1.352   6.646
 9754SOL    HW130161   0.997   1.374   6.549
 9754SOL    HW230162   1.063   1.422   6.691
 9755SOL     OW30163   4.169   3.303   5.172
 9755SOL    HW130164   4.102   3.250   5.224
 9755SOL    HW230165   4.227   3.241   5.120
 9756SOL     OW30166   5.958   3.211   0.938
 9756SOL    HW130167   5.889   3.181   0.871
 9756SOL    HW230168   5.968   3.310   0.933
 9757SOL     OW30169   6.100   3.744   3.457
 9757SOL    HW130170   6.177   3.705   3.508
 9757SOL    HW230171   6.027   3.769   3.521
 9758SOL     OW30172   2.479   6.912   6.644
 9758SOL    HW130173   2.531   6.995   6.663
 9758SOL    HW230174   2.383   6.928   6.665
 9759SOL     OW30175   2.205   6.961   6.720
 9759SOL    HW130176   2.149   7.010   6.653
 9759SOL    HW230177   2.195   7.004   6.810
 9760SOL     OW30178   4.647   3.243   5.286
 9760SOL    HW130179   4.743   3.225   5.308
 9760SOL    HW230180   4.634   3.342   5.274
 9761SOL     OW30181   6.178   0.813   2.257
 9761SOL    HW130182   6.086   0.852   2.263
 9761SOL    HW230183   6.176   0.719   2.290
 9762SOL     OW30184   3.729   1.721   4.733
 9762SOL    HW130185   3.775   1.641   4.695
 9762SOL    HW230186   3.787   1.762   4.804
 9763SOL     OW30187   5.119   2.391   2.057
 9763SOL    HW130188   5.035   2.438   2.033
 9763SOL    HW230189   5.129   2.309   2.001
 9764SOL     OW30190   0.469   3.037   2.995
 9764SOL    HW130191   0.407   2.967   2.959
 9764SOL    HW230192   0.521   3.000   3.072
 9765SOL     OW30193   6.796   1.393   3.400
 9765SOL    HW130194   6.761   1.425   3.312
 9765SOL    HW230195   6.815   1.471   3.459
 9766SOL     OW30196   2.599   0.353   3.267
 9766SOL    HW130197   2.623   0.447   3.245
 9766SOL    HW230198   2.661   0.319   3.339
 9767SOL     OW30199   4.828   1.448   5.381
 9767SOL    HW130200   4.866   1.540   5.367
 9767SOL    HW230201   4.832   1.425   5.479
 9768SOL     OW30202   5.819   2.045   3.298
 9768SOL    HW130203   5.768   2.068   3.215
 9768SOL    HW230204   5.848   2.129   3.343
 9769SOL     OW30205   2.811   0.788   2.777
 9769SOL    HW130206   2.910   0.802   2.777
 9769SOL    HW230207   2.789   0.702   2.731
 9770SOL     OW30208   5.788   6.952   0.207
 9770SOL    HW130209   5.794   0.006   0.137
 9770SOL    HW230210   5.701   6.904   0.201
 9771SOL     OW30211   2.759   5.131   1.229
 9771SOL    HW130212   2.787   5.140   1.134
 9771SOL    HW230213   2.741   5.035   1.250
 9772SOL     OW30214   1.275   6.061   3.017
 9772SOL    HW130215   1.241   5.967   3.021
 9772SOL    HW230216   1.370   6.064   3.047
 9773SOL     OW30217   5.173   6.004   4.421
 9773SOL    HW130218   5.199   5.995   4.325
 9773SOL    HW230219   5.075   6.021   4.428
 9774SOL     OW30220   6.852   4.996   1.803
 9774SOL    HW130221   6.795   4.920   1.773
 9774SOL    HW230222   6.801   5.053   1.868
 9775SOL     OW30223   2.164   0.545   3.740
 9775SOL    HW130224   2.148   0.549   3.642
 9775SOL    HW230225   2.079   0.520   3.787
 9776SOL     OW30226   1.110   4.641   4.075
 9776SOL    HW130227   1.169   4.721   4.063
 9776SOL    HW230228   1.139   4.569   4.012
 9777SOL     OW30229   5.268   4.368   6.258
 9777SOL    HW130230   5.291   4.319   6.174
 9777SOL    HW230231   5.258   4.465   6.239
 9778SOL     OW30232   0.437   0.817   3.101
 9778SOL    HW130233   0.536   0.803   3.099
 9778SOL    HW230234   0.394   0.759   3.032
 9779SOL     OW30235   1.900   0.915   4.795
 9779SOL    HW130236   1.995   0.938   4.770
 9779SOL    HW230237   1.894   0.902   4.893
 9780SOL     OW30238   2.905   1.636   1.174
 9780SOL    HW130239   2.859   1.551   1.151
 9780SOL    HW230240   2.879   1.707   1.108
 9781SOL     OW30241   1.809   3.692   4.351
 9781SOL    HW130242   1.908   3.698   4.360
 9781SOL    HW230243   1.784   3.601   4.318
 9782SOL     OW30244   6.532   0.576   1.558
 9782SOL    HW130245   6.470   0.561   1.481
 9782SOL    HW230246   6.625   0.549   1.531
 9783SOL     OW30247   5.219   1.880   3.117
 9783SOL    HW130248   5.156   1.828   3.175
 9783SOL    HW230249   5.301   1.903   3.169
 9784SOL     OW30250   4.099   1.375   4.637
 9784SOL    HW130251   4.099   1.338   4.730
 9784SOL    HW230252   4.045   1.316   4.577
 9785SOL     OW30253   0.505   3.678   5.946
 9785SOL    HW130254   0.555   3.748   5.896
 9785SOL    HW230255   0.414   3.713   5.970
 9786SOL     OW30256   2.390   4.471   0.057
 9786SOL    HW130257   2.327   4.451   0.131
 9786SOL    HW230258   2.460   4.400   0.052
 9787SOL     OW30259   4.463   3.415   1.689
 9787SOL    HW130260   4.548   3.363   1.693
 9787SOL    HW230261   4.460   3.469   1.605
 9788SOL     OW30262   0.678   0.776   3.450
 9788SOL    HW130263   0.601   0.756   3.389
 9788SOL    HW230264   0.759   0.797   3.396
 9789SOL     OW30265   1.118   5.455   0.299
 9789SOL    HW130266   1.180   5.464   0.221
 9789SOL    HW230267   1.072   5.542   0.315
 9790SOL     OW30268   5.946   4.015   5.348
 9790SOL    HW130269   5.918   4.081   5.418
 9790SOL    HW230270   5.939   4.057   5.258
 9791SOL     OW30271   0.131   1.192   2.841
 9791SOL    HW130272   0.061   1.263   2.836
 9791SOL    HW230273   0.136   1.155   2.934
 9792SOL     OW30274   5.168   5.440   1.795
 9792SOL    HW130275   5.203   5.529   1.765
 9792SOL    HW230276   5.244   5.374   1.798
 9793SOL     OW30277   5.097   5.349   3.506
 9793SOL    HW130278   5.061   5.426   3.454
 9793SOL    HW230279   5.046   5.266   3.482
 9794SOL     OW30280   6.356   3.969   0.215
 9794SOL    HW130281   6.454   3.989   0.208
 9794SOL    HW230282   6.316   4.025   0.287
 9795SOL     OW30283   2.201   1.932   4.156
 9795SOL    HW130284   2.227   1.926   4.253
 9795SOL    HW230285   2.281   1.956   4.102
 9796SOL     OW30286   4.534   2.432   1.590
 9796SOL    HW130287   4.456   2.376   1.560
 9796SOL    HW230288   4.610   2.372   1.616
 9797SOL     OW30289   3.057   5.168   6.723
 9797SOL    HW130290   3.074   5.075   6.692
 9797SOL    HW230291   3.101   5.233   6.662
 9798SOL     OW30292   2.753   0.317   1.263
 9798SOL    HW130293   2.689   0.251   1.222
 9798SOL    HW230294   2.799   0.274   1.341
 9799SOL     OW30295   3.420   3.880   3.282
 9799SOL    HW130296   3.414   3.835   3.371
 9799SOL    HW230297   3.328   3.902   3.250
 9800SOL     OW30298   3.614   6.392   4.914
 9800SOL    HW130299   3.523   6.406   4.952
 9800SOL    HW230300   3.669   6.474   4.927
 9801SOL     OW30301   4.807   3.984   0.430
 9801SOL    HW130302   4.794   3.936   0.517
 9801SOL    HW230303   4.718   4.010   0.393
 9802SOL     OW30304   0.844   3.303   1.599
 9802SOL    HW130305   0.926   3.270   1.552
 9802SOL    HW230306   0.864   3.392   1.641
 9803SOL     OW30307   6.636   1.416   6.932
 9803SOL    HW130308   6.601   1.500   6.973
 9803SOL    HW230309   6.573   1.341   6.952
 9804SOL     OW30310   1.073   6.267   3.049
 9804SOL    HW130311   1.101   6.355   3.088
 9804SOL    HW230312   1.152   6.207   3.041
 9805SOL     OW30313   1.258   6.263   5.805
 9805SOL    HW130314   1.189   6.297   5.741
 9805SOL    HW230315   1.338   6.232   5.753
 9806SOL     OW30316   1.462   1.094   1.177
 9806SOL    HW130317   1.426   1.019   1.121
 9806SOL    HW230318   1.493   1.059   1.265
 9807SOL     OW30319   1.961   3.045   0.272
 9807SOL    HW130320   1.909   3.115   0.223
 9807SOL    HW230321   1.905   2.962   0.280
 9808SOL     OW30322   5.569   1.181   5.377
 9808SOL    HW130323   5.520   1.154   5.295
 9808SOL    HW230324   5.513   1.246   5.429
 9809SOL     OW30325   0.723   2.128   6.862
 9809SOL    HW130326   0.762   2.161   6.776
 9809SOL    HW230327   0.677   2.041   6.846
 9810SOL     OW30328   2.627   2.472   4.142
 9810SOL    HW130329   2.641   2.497   4.238
 9810SOL    HW230330   2.594   2.551   4.091
 9811SOL     OW30331   5.360   5.763   3.910
 9811SOL    HW130332   5.418   5.701   3.962
 9811SOL    HW230333   5.277   5.783   3.962
 9812SOL     OW30334   3.093   2.455   5.587
 9812SOL    HW130335   3.044   2.418   5.508
 9812SOL    HW230336   3.187   2.420   5.587
 9813SOL     OW30337   6.022   0.655   6.770
 9813SOL    HW130338   6.008   0.561   6.801
 9813SOL    HW230339   5.939   0.689   6.727
 9814SOL     OW30340   0.321   0.976   0.249
 9814SOL    HW130341   0.235   0.967   0.198
 9814SOL    HW230342   0.345   1.072   0.257
 9815SOL     OW30343   5.694   3.846   2.651
 9815SOL    HW130344   5.625   3.802   2.708
 9815SOL    HW230345   5.649   3.899   2.579
 9816SOL     OW30346   0.188   1.784   6.059
 9816SOL    HW130347   0.148   1.746   6.143
 9816SOL    HW230348   0.257   1.721   6.024
 9817SOL     OW30349   2.485   5.499   2.815
 9817SOL    HW130350   2.581   5.493   2.787
 9817SOL    HW230351   2.432   5.543   2.742
 9818SOL     OW30352   1.673   0.755   4.406
 9818SOL    HW130353   1.758   0.795   4.373
 9818SOL    HW230354   1.686   0.717   4.497
 9819SOL     OW30355   4.782   2.944   4.881
 9819SOL    HW130356   4.829   3.027   4.908
 9819SOL    HW230357   4.769   2.943   4.781
 9820SOL     OW30358   3.687   3.433   5.934
 9820SOL    HW130359   3.663   3.517   5.983
 9820SOL    HW230360   3.691   3.357   5.999
 9821SOL     OW30361   4.974   0.690   0.595
 9821SOL    HW130362   5.029   0.675   0.513
 9821SOL    HW230363   4.896   0.749   0.573
 9822SOL     OW30364   2.502   5.683   3.555
 9822SOL    HW130365   2.503   5.591   3.517
 9822SOL    HW230366   2.410   5.705   3.587
 9823SOL     OW30367   2.517   0.008   1.522
 9823SOL    HW130368   2.543   6.927   1.523
 9823SOL    HW230369   2.464   0.028   1.440
 9824SOL     OW30370   1.772   5.789   4.251
 9824SOL    HW130371   1.748   5.885   4.246
 9824SOL    HW230372   1.865   5.776   4.216
 9825SOL     OW30373   5.378   6.915   4.487
 9825SOL    HW130374   5.375   6.907   4.586
 9825SOL    HW230375   5.293   6.878   4.448
 9826SOL     OW30376   3.422   6.239   5.294
 9826SOL    HW130377   3.490   6.210   5.228
 9826SOL    HW230378   3.337   6.261   5.246
 9827SOL     OW30379   1.580   3.738   3.544
 9827SOL    HW130380   1.657   3.674   3.544
 9827SOL    HW230381   1.584   3.795   3.462
 9828SOL     OW30382   3.212   2.772   5.193
 9828SOL    HW130383   3.218   2.674   5.177
 9828SOL    HW230384   3.288   2.801   5.251
 9829SOL     OW30385   4.456   5.883   6.441
 9829SOL    HW130386   4.475   5.966   6.493
 9829SOL    HW230387   4.398   5.822   6.496
 9830SOL     OW30388   5.308   1.409   2.160
 9830SOL    HW130389   5.408   1.411   2.155
 9830SOL    HW230390   5.270   1.419   2.068
 9831SOL     OW30391   1.133   4.276   2.623
 9831SOL    HW130392   1.165   4.343   2.557
 9831SOL    HW230393   1.073   4.320   2.690
 9832SOL     OW30394   4.809   5.728   1.668
 9832SOL    HW130395   4.787   5.764   1.759
 9832SOL    HW230396   4.871   5.791   1.622
 9833SOL     OW30397   3.280   3.407   3.202
 9833SOL    HW130398   3.351   3.343   3.230
 9833SOL    HW230399   3.244   3.455   3.282
 9834SOL     OW30400   2.027   4.509   5.554
 9834SOL    HW130401   2.018   4.574   5.479
 9834SOL    HW230402   2.124   4.500   5.579
 9835SOL     OW30403   3.765   3.256   4.091
 9835SOL    HW130404   3.732   3.215   4.176
 9835SOL    HW230405   3.826   3.192   4.045
 9836SOL     OW30406   0.649   4.030   4.463
 9836SOL    HW130407   0.634   4.116   4.513
 9836SOL    HW230408   0.566   4.007   4.413
 9837SOL     OW30409   4.890   0.535   2.679
 9837SOL    HW130410   4.918   0.591   2.757
 9837SOL    HW230411   4.846   0.451   2.712
 9838SOL     OW30412   1.492   6.879   0.717
 9838SOL    HW130413   1.519   6.783   0.705
 9838SOL    HW230414   1.395   6.889   0.694
 9839SOL     OW30415   5.081   6.434   3.134
 9839SOL    HW130416   5.050   6.375   3.059
 9839SOL    HW230417   5.015   6.508   3.148
 9840SOL     OW30418   4.997   2.029   0.692
 9840SOL    HW130419   4.904   2.008   0.665
 9840SOL    HW230420   5.023   2.118   0.654
 9841SOL     OW30421   1.182   4.437   3.911
 9841SOL    HW130422   1.177   4.488   3.825
 9841SOL    HW230423   1.254   4.367   3.904
 9842SOL     OW30424   3.520   3.203   1.519
 9842SOL    HW130425   3.454   3.236   1.452
 9842SOL    HW230426   3.566   3.281   1.562
 9843SOL     OW30427   6.874   0.108   1.769
 9843SOL    HW130428   6.796   0.105   1.707
 9843SOL    HW230429   6.888   0.202   1.800
 9844SOL     OW30430   6.281   1.080   4.068
 9844SOL    HW130431   6.227   1.022   4.007
 9844SOL    HW230432   6.292   1.035   4.157
 9845SOL     OW30433   1.530   2.155   3.242
 9845SOL    HW130434   1.585   2.103   3.307
 9845SOL    HW230435   1.473   2.091   3.189
 9846SOL     OW30436   4.551   2.230   0.616
 9846SOL    HW130437   4.465   2.207   0.570
 9846SOL    HW230438   4.532   2.287   0.695
 9847SOL     OW30439   4.156   3.408   2.396
 9847SOL    HW130440   4.108   3.330   2.436
 9847SOL    HW230441   4.176   3.475   2.467
 9848SOL     OW30442   4.423   4.996   5.854
 9848SOL    HW130443   4.506   5.026   5.808
 9848SOL    HW230444   4.395   5.064   5.921
 9849SOL     OW30445   0.653   0.076   6.417
 9849SOL    HW130446   0.704   7.009   6.440
 9849SOL    HW230447   0.685   0.152   6.473
 9850SOL     OW30448   0.305   0.822   3.696
 9850SOL    HW130449   0.357   0.745   3.732
 9850SOL    HW230450   0.310   0.821   3.596
 9851SOL     OW30451   2.289   0.159   4.277
 9851SOL    HW130452   2.313   0.063   4.267
 9851SOL    HW230453   2.367   0.210   4.313
 9852SOL     OW30454   1.628   1.716   4.975
 9852SOL    HW130455   1.544   1.757   5.009
 9852SOL    HW230456   1.607   1.653   4.900
 9853SOL     OW30457   6.513   3.404   5.203
 9853SOL    HW130458   6.583   3.417   5.132
 9853SOL    HW230459   6.529   3.468   5.278
 9854SOL     OW30460   0.353   5.625   4.371
 9854SOL    HW130461   0.401   5.612   4.458
 9854SOL    HW230462   0.332   5.722   4.359
 9855SOL     OW30463   2.059   3.717   0.512
 9855SOL    HW130464   2.111   3.645   0.557
 9855SOL    HW230465   1.963   3.711   0.540
 9856SOL     OW30466   5.343   4.393   3.705
 9856SOL    HW130467   5.277   4.422   3.635
 9856SOL    HW230468   5.313   4.427   3.794
 9857SOL     OW30469   5.339   2.368   2.943
 9857SOL    HW130470   5.292   2.440   2.892
 9857SOL    HW230471   5.374   2.299   2.879
 9858SOL     OW30472   0.471   6.700   1.544
 9858SOL    HW130473   0.376   6.696   1.514
 9858SOL    HW230474   0.483   6.641   1.624
 9859SOL     OW30475   6.598   5.154   4.085
 9859SOL    HW130476   6.532   5.078   4.088
 9859SOL    HW230477   6.591   5.201   3.997
 9860SOL     OW30478   1.488   2.558   4.683
 9860SOL    HW130479   1.478   2.610   4.768
 9860SOL    HW230480   1.458   2.464   4.698
 9861SOL     OW30481   2.717   0.335   3.544
 9861SOL    HW130482   2.756   0.249   3.577
 9861SOL    HW230483   2.790   0.403   3.535
 9862SOL     OW30484   2.670   3.830   0.614
 9862SOL    HW130485   2.573   3.837   0.592
 9862SOL    HW230486   2.716   3.775   0.544
 9863SOL     OW30487   3.080   5.527   1.019
 9863SOL    HW130488   3.059   5.623   1.000
 9863SOL    HW230489   3.104   5.517   1.115
 9864SOL     OW30490   3.429   0.615   4.958
 9864SOL    HW130491   3.524   0.644   4.946
 9864SOL    HW230492   3.369   0.677   4.907
 9865SOL     OW30493   1.276   6.323   4.090
 9865SOL    HW130494   1.266   6.256   4.017
 9865SOL    HW230495   1.372   6.329   4.117
 9866SOL     OW30496   6.361   4.513   5.187
 9866SOL    HW130497   6.417   4.434   5.210
 9866SOL    HW230498   6.266   4.495   5.209
 9867SOL     OW30499   6.427   2.129   2.942
 9867SOL    HW130500   6.489   2.185   2.886
 9867SOL    HW230501   6.364   2.080   2.882
 9868SOL     OW30502   1.037   3.359   4.217
 9868SOL    HW130503   1.066   3.364   4.313
 9868SOL    HW230504   1.082   3.432   4.165
 9869SOL     OW30505   0.491   2.872   0.906
 9869SOL    HW130506   0.529   2.831   0.824
 9869SOL    HW230507   0.504   2.811   0.984
 9870SOL     OW30508   4.437   6.351   2.820
 9870SOL    HW130509   4.344   6.323   2.796
 9870SOL    HW230510   4.435   6.402   2.906
 9871SOL     OW30511   6.551   3.403   5.816
 9871SOL    HW130512   6.468   3.455   5.796
 9871SOL    HW230513   6.556   3.324   5.755
 9872SOL     OW30514   2.666   5.556   4.630
 9872SOL    HW130515   2.575   5.594   4.613
 9872SOL    HW230516   2.658   5.459   4.651
 9873SOL     OW30517   2.171   2.522   6.971
 9873SOL    HW130518   2.205   2.464   6.897
 9873SOL    HW230519   2.103   2.471   0.008
 9874SOL     OW30520   0.400   3.433   5.505
 9874SOL    HW130521   0.358   3.505   5.449
 9874SOL    HW230522   0.387   3.455   5.601
 9875SOL     OW30523   6.428   5.691   2.676
 9875SOL    HW130524   6.394   5.762   2.738
 9875SOL    HW230525   6.370   5.688   2.594
 9876SOL     OW30526   5.542   0.860   3.690
 9876SOL    HW130527   5.526   0.801   3.611
 9876SOL    HW230528   5.469   0.845   3.757
 9877SOL     OW30529   6.594   4.714   4.231
 9877SOL    HW130530   6.546   4.684   4.148
 9877SOL    HW230531   6.592   4.641   4.299
 9878SOL     OW30532   2.472   3.663   5.809
 9878SOL    HW130533   2.505   3.715   5.888
 9878SOL    HW230534   2.439   3.573   5.840
 9879SOL     OW30535   6.755   4.650   5.326
 9879SOL    HW130536   6.822   4.710   5.370
 9879SOL    HW230537   6.671   4.648   5.380
 9880SOL     OW30538   2.221   0.743   0.694
 9880SOL    HW130539   2.146   0.687   0.729
 9880SOL    HW230540   2.205   0.839   0.718
 9881SOL     OW30541   6.668   1.473   4.250
 9881SOL    HW130542   6.624   1.407   4.311
 9881SOL    HW230543   6.763   1.447   4.235
 9882SOL     OW30544   3.304   3.634   5.659
 9882SOL    HW130545   3.273   3.729   5.649
 9882SOL    HW230546   3.350   3.623   5.747
 9883SOL     OW30547   0.835   6.294   1.458
 9883SOL    HW130548   0.928   6.327   1.443
 9883SOL    HW230549   0.770   6.361   1.423
 9884SOL     OW30550   3.989   1.986   0.743
 9884SOL    HW130551   3.943   1.897   0.749
 9884SOL    HW230552   4.083   1.974   0.711
 9885SOL     OW30553   0.748   3.152   4.483
 9885SOL    HW130554   0.754   3.217   4.407
 9885SOL    HW230555   0.660   3.163   4.529
 9886SOL     OW30556   6.897   6.143   2.502
 9886SOL    HW130557   6.895   6.194   2.416
 9886SOL    HW230558   6.803   6.124   2.532
 9887SOL     OW30559   3.161   0.139   0.131
 9887SOL    HW130560   3.117   0.131   0.220
 9887SOL    HW230561   3.260   0.144   0.142
 9888SOL     OW30562   5.599   6.096   3.362
 9888SOL    HW130563   5.525   6.162   3.372
 9888SOL    HW230564   5.568   6.006   3.394
 9889SOL     OW30565   1.234   5.145   2.314
 9889SOL    HW130566   1.201   5.230   2.272
 9889SOL    HW230567   1.258   5.163   2.409
 9890SOL     OW30568   6.935   3.329   1.260
 9890SOL    HW130569   6.887   3.413   1.285
 9890SOL    HW230570   0.017   3.348   1.251
 9891SOL     OW30571   5.520   4.691   1.503
 9891SOL    HW130572   5.538   4.702   1.405
 9891SOL    HW230573   5.523   4.594   1.526
 9892SOL     OW30574   2.224   5.585   3.319
 9892SOL    HW130575   2.284   5.525   3.267
 9892SOL    HW230576   2.206   5.545   3.409
 9893SOL     OW30577   6.536   6.266   2.475
 9893SOL    HW130578   6.491   6.181   2.504
 9893SOL    HW230579   6.587   6.304   2.552
 9894SOL     OW30580   2.300   1.539   6.373
 9894SOL    HW130581   2.369   1.591   6.423
 9894SOL    HW230582   2.267   1.593   6.295
 9895SOL     OW30583   6.241   2.336   5.885
 9895SOL    HW130584   6.164   2.310   5.826
 9895SOL    HW230585   6.309   2.385   5.831
 9896SOL     OW30586   5.038   2.283   6.986
 9896SOL    HW130587   5.028   2.246   0.063
 9896SOL    HW230588   4.948   2.310   6.952
 9897SOL     OW30589   4.843   0.337   2.464
 9897SOL    HW130590   4.823   0.328   2.562
 9897SOL    HW230591   4.935   0.376   2.453
 9898SOL     OW30592   0.720   4.996   4.649
 9898SOL    HW130593   0.621   4.982   4.648
 9898SOL    HW230594   0.743   5.074   4.589
 9899SOL     OW30595   6.582   4.718   2.469
 9899SOL    HW130596   6.584   4.780   2.547
 9899SOL    HW230597   6.527   4.758   2.396
 9900SOL     OW30598   2.283   2.164   2.639
 9900SOL    HW130599   2.246   2.240   2.585
 9900SOL    HW230600   2.348   2.199   2.706
 9901SOL     OW30601   1.748   1.916   0.231
 9901SOL    HW130602   1.825   1.864   0.268
 9901SOL    HW230603   1.773   2.013   0.223
 9902SOL     OW30604   3.704   3.089   1.355
 9902SOL    HW130605   3.764   3.024   1.402
 9902SOL    HW230606   3.634   3.121   1.418
 9903SOL     OW30607   4.571   6.872   2.298
 9903SOL    HW130608   4.563   6.806   2.373
 9903SOL    HW230609   4.641   6.939   2.320
 9904SOL     OW30610   6.969   3.799   6.906
 9904SOL    HW130611   6.939   3.894   6.915
 9904SOL    HW230612   6.888   3.740   6.898
 9905SOL     OW30613   1.588   6.448   0.462
 9905SOL    HW130614   1.548   6.366   0.420
 9905SOL    HW230615   1.667   6.421   0.517
 9906SOL     OW30616   1.797   3.541   0.204
 9906SOL    HW130617   1.895   3.556   0.218
 9906SOL    HW230618   1.746   3.592   0.273
 9907SOL     OW30619   2.479   0.079   3.474
 9907SOL    HW130620   2.468   0.166   3.520
 9907SOL    HW230621   2.395   0.056   3.425
 9908SOL     OW30622   0.515   3.926   5.654
 9908SOL    HW130623   0.565   3.907   5.738
 9908SOL    HW230624   0.580   3.948   5.581
 9909SOL     OW30625   3.829   0.212   3.264
 9909SOL    HW130626   3.830   0.289   3.326
 9909SOL    HW230627   3.764   0.143   3.296
 9910SOL     OW30628   0.934   5.212   1.555
 9910SOL    HW130629   1.012   5.151   1.545
 9910SOL    HW230630   0.849   5.161   1.543
 9911SOL     OW30631   4.618   5.357   2.690
 9911SOL    HW130632   4.533   5.381   2.643
 9911SOL    HW230633   4.689   5.423   2.665
 9912SOL     OW30634   4.243   1.047   1.446
 9912SOL    HW130635   4.163   1.049   1.387
 9912SOL    HW230636   4.229   1.111   1.522
 9913SOL     OW30637   6.593   3.088   2.309
 9913SOL    HW130638   6.623   3.026   2.382
 9913SOL    HW230639   6.501   3.120   2.329
 9914SOL     OW30640   0.868   0.453   5.852
 9914SOL    HW130641   0.854   0.479   5.948
 9914SOL    HW230642   0.791   0.398   5.821
 9915SOL     OW30643   4.750   2.825   4.143
 9915SOL    HW130644   4.761   2.745   4.085
 9915SOL    HW230645   4.751   2.908   4.088
 9916SOL     OW30646   2.557   2.577   3.450
 9916SOL    HW130647   2.483   2.610   3.392
 9916SOL    HW230648   2.610   2.509   3.401
 9917SOL     OW30649   3.188   3.293   4.200
 9917SOL    HW130650   3.183   3.194   4.209
 9917SOL    HW230651   3.284   3.322   4.203
 9918SOL     OW30652   0.626   2.194   0.666
 9918SOL    HW130653   0.704   2.158   0.717
 9918SOL    HW230654   0.589   2.122   0.606
 9919SOL     OW30655   2.221   5.428   1.193
 9919SOL    HW130656   2.306   5.472   1.163
 9919SOL    HW230657   2.179   5.484   1.265
 9920SOL     OW30658   3.537   1.030   2.973
 9920SOL    HW130659   3.510   1.097   3.042
 9920SOL    HW230660   3.635   1.012   2.980
 9921SOL     OW30661   5.492   6.275   4.369
 9921SOL    HW130662   5.496   6.180   4.401
 9921SOL    HW230663   5.560   6.330   4.418
 9922SOL     OW30664   4.861   4.346   0.920
 9922SOL    HW130665   4.943   4.398   0.943
 9922SOL    HW230666   4.884   4.277   0.851
 9923SOL     OW30667   6.972   3.372   0.591
 9923SOL    HW130668   0.027   3.442   0.592
 9923SOL    HW230669   6.886   3.411   0.623
 9924SOL     OW30670   5.617   2.185   2.890
 9924SOL    HW130671   5.614   2.273   2.842
 9924SOL    HW230672   5.566   2.117   2.837
 9925SOL     OW30673   2.157   4.195   5.096
 9925SOL    HW130674   2.213   4.277   5.101
 9925SOL    HW230675   2.211   4.119   5.061
 9926SOL     OW30676   2.871   2.402   1.390
 9926SOL    HW130677   2.775   2.427   1.406
 9926SOL    HW230678   2.916   2.384   1.477
 9927SOL     OW30679   0.678   2.396   1.260
 9927SOL    HW130680   0.635   2.309   1.236
 9927SOL    HW230681   0.775   2.381   1.281
 9928SOL     OW30682   6.105   4.110   2.326
 9928SOL    HW130683   6.149   4.122   2.415
 9928SOL    HW230684   6.172   4.121   2.253
 9929SOL     OW30685   3.077   4.318   5.511
 9929SOL    HW130686   2.986   4.301   5.473
 9929SOL    HW230687   3.121   4.393   5.461
 9930SOL     OW30688   0.210   0.034   5.977
 9930SOL    HW130689   0.130   7.001   5.944
 9930SOL    HW230690   0.232   0.006   6.070
 9931SOL     OW30691   0.099   5.504   5.143
 9931SOL    HW130692   0.048   5.418   5.140
 9931SOL    HW230693   0.049   5.571   5.198
 9932SOL     OW30694   1.421   2.025   7.016
 9932SOL    HW130695   1.324   2.021   0.022
 9932SOL    HW230696   1.435   1.999   6.920
 9933SOL     OW30697   1.891   0.888   3.822
 9933SOL    HW130698   1.847   0.845   3.901
 9933SOL    HW230699   1.826   0.893   3.747
 9934SOL     OW30700   6.321   2.269   0.186
 9934SOL    HW130701   6.410   2.295   0.224
 9934SOL    HW230702   6.254   2.340   0.209
 9935SOL     OW30703   2.201   1.256   0.641
 9935SOL    HW130704   2.149   1.342   0.643
 9935SOL    HW230705   2.295   1.274   0.668
 9936SOL     OW30706   5.932   4.971   6.399
 9936SOL    HW130707   6.018   5.011   6.432
 9936SOL    HW230708   5.948   4.876   6.373
 9937SOL     OW30709   1.164   0.866   2.655
 9937SOL    HW130710   1.174   0.911   2.567
 9937SOL    HW230711   1.205   0.775   2.651
 9938SOL     OW30712   5.641   0.585   3.793
 9938SOL    HW130713   5.678   0.500   3.755
 9938SOL    HW230714   5.699   0.662   3.768
 9939SOL     OW30715   1.974   3.045   1.127
 9939SOL    HW130716   2.006   3.138   1.109
 9939SOL    HW230717   1.945   3.003   1.042
 9940SOL     OW30718   0.814   0.477   3.213
 9940SOL    HW130719   0.900   0.496   3.166
 9940SOL    HW230720   0.746   0.444   3.147
 9941SOL     OW30721   3.042   5.436   5.674
 9941SOL    HW130722   2.987   5.431   5.590
 9941SOL    HW230723   3.111   5.507   5.665
 9942SOL     OW30724   4.648   5.363   2.368
 9942SOL    HW130725   4.633   5.444   2.423
 9942SOL    HW230726   4.561   5.318   2.349
 9943SOL     OW30727   0.706   4.259   6.246
 9943SOL    HW130728   0.729   4.356   6.262
 9943SOL    HW230729   0.776   4.202   6.289
 9944SOL     OW30730   6.708   5.463   6.394
 9944SOL    HW130731   6.626   5.515   6.372
 9944SOL    HW230732   6.686   5.393   6.462
 9945SOL     OW30733   5.592   4.014   6.652
 9945SOL    HW130734   5.646   3.973   6.578
 9945SOL    HW230735   5.505   4.048   6.614
 9946SOL     OW30736   6.417   6.933   3.272
 9946SOL    HW130737   6.512   6.904   3.284
 9946SOL    HW230738   6.396   7.004   3.339
 9947SOL     OW30739   1.896   1.645   3.771
 9947SOL    HW130740   1.851   1.731   3.796
 9947SOL    HW230741   1.949   1.658   3.687
 9948SOL     OW30742   6.664   5.354   5.075
 9948SOL    HW130743   6.673   5.256   5.062
 9948SOL    HW230744   6.721   5.403   5.008
 9949SOL     OW30745   0.027   5.025   4.396
 9949SOL    HW130746   0.034   5.110   4.448
 9949SOL    HW230747   6.951   4.988   4.405
 9950SOL     OW30748   6.500   5.154   5.695
 9950SOL    HW130749   6.592   5.146   5.735
 9950SOL    HW230750   6.505   5.136   5.597
 9951SOL     OW30751   1.445   1.880   2.842
 9951SOL    HW130752   1.401   1.910   2.757
 9951SOL    HW230753   1.539   1.852   2.822
 9952SOL     OW30754   1.675   4.071   1.238
 9952SOL    HW130755   1.601   4.006   1.257
 9952SOL    HW230756   1.708   4.056   1.144
 9953SOL     OW30757   5.448   2.243   3.387
 9953SOL    HW130758   5.419   2.339   3.393
 9953SOL    HW230759   5.517   2.225   3.457
 9954SOL     OW30760   1.583   0.591   4.840
 9954SOL    HW130761   1.565   0.497   4.869
 9954SOL    HW230762   1.544   0.655   4.907
 9955SOL     OW30763   4.059   4.006   6.523
 9955SOL    HW130764   4.099   4.097   6.515
 9955SOL    HW230765   3.964   4.014   6.556
 9956SOL     OW30766   0.762   3.992   2.643
 9956SOL    HW130767   0.831   4.002   2.571
 9956SOL    HW230768   0.684   3.941   2.607
 9957SOL     OW30769   5.439   0.091   1.856
 9957SOL    HW130770   5.376   0.164   1.885
 9957SOL    HW230771   5.487   0.120   1.773
 9958SOL     OW30772   2.972   5.929   5.579
 9958SOL    HW130773   2.930   5.950   5.667
 9958SOL    HW230774   3.052   5.988   5.566
 9959SOL     OW30775   4.163   3.250   2.175
 9959SOL    HW130776   4.258   3.220   2.168
 9959SOL    HW230777   4.152   3.306   2.258
 9960SOL     OW30778   0.553   6.507   1.139
 9960SOL    HW130779   0.541   6.410   1.119
 9960SOL    HW230780   0.613   6.548   1.070
 9961SOL     OW30781   2.386   4.380   2.622
 9961SOL    HW130782   2.289   4.375   2.645
 9961SOL    HW230783   2.439   4.398   2.705
 9962SOL     OW30784   4.021   0.669   2.114
 9962SOL    HW130785   4.112   0.642   2.146
 9962SOL    HW230786   3.979   0.593   2.066
 9963SOL     OW30787   2.513   3.415   6.384
 9963SOL    HW130788   2.557   3.477   6.449
 9963SOL    HW230789   2.436   3.462   6.340
 9964SOL     OW30790   3.692   4.924   5.485
 9964SOL    HW130791   3.709   4.925   5.583
 9964SOL    HW230792   3.768   4.968   5.437
 9965SOL     OW30793   3.205   5.553   4.631
 9965SOL    HW130794   3.220   5.601   4.718
 9965SOL    HW230795   3.261   5.470   4.630
 9966SOL     OW30796   2.361   5.384   1.768
 9966SOL    HW130797   2.337   5.438   1.848
 9966SOL    HW230798   2.456   5.353   1.775
 9967SOL     OW30799   6.139   4.987   2.512
 9967SOL    HW130800   6.091   4.956   2.594
 9967SOL    HW230801   6.237   4.994   2.531
 9968SOL     OW30802   3.861   5.545   6.696
 9968SOL    HW130803   3.872   5.624   6.636
 9968SOL    HW230804   3.764   5.524   6.706
 9969SOL     OW30805   1.593   2.987   4.436
 9969SOL    HW130806   1.663   2.947   4.376
 9969SOL    HW230807   1.636   3.022   4.519
 9970SOL     OW30808   6.580   5.006   1.389
 9970SOL    HW130809   6.497   5.047   1.426
 9970SOL    HW230810   6.650   5.077   1.377
 9971SOL     OW30811   2.546   3.497   1.139
 9971SOL    HW130812   2.577   3.431   1.071
 9971SOL    HW230813   2.598   3.486   1.223
 9972SOL     OW30814   2.875   4.412   0.701
 9972SOL    HW130815   2.824   4.491   0.735
 9972SOL    HW230816   2.822   4.328   0.716
 9973SOL     OW30817   4.076   2.199   4.282
 9973SOL    HW130818   4.071   2.134   4.358
 9973SOL    HW230819   4.030   2.161   4.202
 9974SOL     OW30820   0.162   3.326   2.764
 9974SOL    HW130821   0.141   3.231   2.786
 9974SOL    HW230822   0.159   3.339   2.665
 9975SOL     OW30823   0.084   5.277   6.378
 9975SOL    HW130824   0.099   5.223   6.461
 9975SOL    HW230825   0.151   5.250   6.309
 9976SOL     OW30826   0.849   5.132   5.550
 9976SOL    HW130827   0.751   5.142   5.533
 9976SOL    HW230828   0.870   5.162   5.643
 9977SOL     OW30829   5.941   4.870   5.971
 9977SOL    HW130830   6.015   4.803   5.977
 9977SOL    HW230831   5.868   4.845   6.034
 9978SOL     OW30832   6.026   1.248   5.531
 9978SOL    HW130833   5.949   1.218   5.477
 9978SOL    HW230834   6.021   1.347   5.545
 9979SOL     OW30835   6.933   4.052   6.616
 9979SOL    HW130836   6.928   3.956   6.587
 9979SOL    HW230837   6.973   4.057   6.707
 9980SOL     OW30838   1.628   0.372   0.469
 9980SOL    HW130839   1.627   0.279   0.505
 9980SOL    HW230840   1.640   0.436   0.545
 9981SOL     OW30841   2.732   2.123   0.539
 9981SOL    HW130842   2.735   2.188   0.463
 9981SOL    HW230843   2.637   2.108   0.567
 9982SOL     OW30844   1.468   1.221   4.024
 9982SOL    HW130845   1.523   1.220   4.107
 9982SOL    HW230846   1.499   1.294   3.963
 9983SOL     OW30847   0.770   1.283   2.170
 9983SOL    HW130848   0.684   1.325   2.201
 9983SOL    HW230849   0.758   1.248   2.077
 9984SOL     OW30850   0.651   6.706   0.095
 9984SOL    HW130851   0.740   6.666   0.119
 9984SOL    HW230852   0.578   6.641   0.115
 9985SOL     OW30853   3.286   6.116   1.147
 9985SOL    HW130854   3.203   6.126   1.203
 9985SOL    HW230855   3.287   6.026   1.105
 9986SOL     OW30856   5.650   4.913   0.828
 9986SOL    HW130857   5.551   4.915   0.815
 9986SOL    HW230858   5.696   4.924   0.740
 9987SOL     OW30859   6.140   2.360   2.944
 9987SOL    HW130860   6.053   2.341   2.990
 9987SOL    HW230861   6.198   2.278   2.948
 9988SOL     OW30862   6.767   5.258   4.617
 9988SOL    HW130863   6.848   5.224   4.569
 9988SOL    HW230864   6.775   5.357   4.630
 9989SOL     OW30865   6.281   4.119   2.555
 9989SOL    HW130866   6.364   4.081   2.596
 9989SOL    HW230867   6.213   4.135   2.626
 9990SOL     OW30868   2.333   6.687   3.759
 9990SOL    HW130869   2.265   6.661   3.691
 9990SOL    HW230870   2.360   6.782   3.744
 9991SOL     OW30871   2.158   3.105   4.065
 9991SOL    HW130872   2.166   3.006   4.068
 9991SOL    HW230873   2.148   3.136   3.970
 9992SOL     OW30874   4.043   3.462   0.666
 9992SOL    HW130875   4.044   3.380   0.608
 9992SOL    HW230876   4.105   3.449   0.743
 9993SOL     OW30877   3.824   6.698   3.519
 9993SOL    HW130878   3.898   6.656   3.466
 9993SOL    HW230879   3.855   6.713   3.613
 9994SOL     OW30880   6.774   4.153   2.194
 9994SOL    HW130881   6.771   4.116   2.288
 9994SOL    HW230882   6.737   4.246   2.194
 9995SOL     OW30883   3.569   0.294   3.662
 9995SOL    HW130884   3.596   0.289   3.566
 9995SOL    HW230885   3.627   0.235   3.717
 9996SOL     OW30886   2.721   3.301   1.754
 9996SOL    HW130887   2.636   3.256   1.727
 9996SOL    HW230888   2.703   3.397   1.775
 9997SOL     OW30889   5.091   0.997   1.887
 9997SOL    HW130890   5.115   0.912   1.841
 9997SOL    HW230891   5.175   1.041   1.920
 9998SOL     OW30892   5.737   3.480   2.375
 9998SOL    HW130893   5.640   3.501   2.386
 9998SOL    HW230894   5.776   3.538   2.303
 9999SOL     OW30895   0.310   5.886   4.847
 9999SOL    HW130896   0.257   5.889   4.931
 9999SOL    HW230897   0.278   5.958   4.785
10000SOL     OW30898   5.304   2.080   0.304
10000SOL    HW130899   5.269   2.030   0.225
10000SOL    HW230900   5.235   2.080   0.377
10001SOL     OW30901   3.950   1.160   1.504
10001SOL    HW130902   3.863   1.113   1.516
10001SOL    HW230903   3.992   1.131   1.418
10002SOL     OW30904   1.730   1.112   1.665
10002SOL    HW130905   1.698   1.203   1.694
10002SOL    HW230906   1.804   1.082   1.724
10003SOL     OW30907   3.047   2.142   2.242
10003SOL    HW130908   3.123   2.085   2.212
10003SOL    HW230909   3.052   2.231   2.195
10004SOL     OW30910   5.392   2.938   5.076
10004SOL    HW130911   5.346   2.895   4.998
10004SOL    HW230912   5.373   2.885   5.159
10005SOL     OW30913   3.236   5.634   2.372
10005SOL    HW130914   3.145   5.608   2.340
10005SOL    HW230915   3.228   5.679   2.462
10006SOL     OW30916   6.057   0.101   5.637
10006SOL    HW130917   6.106   0.029   5.687
10006SOL    HW230918   6.087   0.101   5.542
10007SOL     OW30919   0.424   3.111   3.842
10007SOL    HW130920   0.446   3.152   3.753
10007SOL    HW230921   0.386   3.020   3.829
10008SOL     OW30922   4.666   1.089   3.443
10008SOL    HW130923   4.574   1.121   3.465
10008SOL    HW230924   4.699   1.135   3.361
10009SOL     OW30925   1.575   4.281   1.641
10009SOL    HW130926   1.484   4.319   1.625
10009SOL    HW230927   1.602   4.298   1.736
10010SOL     OW30928   2.431   6.103   0.210
10010SOL    HW130929   2.354   6.039   0.212
10010SOL    HW230930   2.427   6.157   0.126
10011SOL     OW30931   0.614   3.941   6.319
10011SOL    HW130932   0.597   4.002   6.242
10011SOL    HW230933   0.660   3.858   6.287
10012SOL     OW30934   5.461   0.128   2.411
10012SOL    HW130935   5.450   0.148   2.509
10012SOL    HW230936   5.402   0.189   2.358
10013SOL     OW30937   1.552   1.927   3.718
10013SOL    HW130938   1.606   1.871   3.781
10013SOL    HW230939   1.539   2.018   3.758
10014SOL     OW30940   0.665   1.482   1.286
10014SOL    HW130941   0.570   1.462   1.311
10014SOL    HW230942   0.688   1.434   1.202
10015SOL     OW30943   4.218   5.358   6.934
10015SOL    HW130944   4.176   5.355   0.010
10015SOL    HW230945   4.194   5.275   6.884
10016SOL     OW30946   1.378   0.658   4.541
10016SOL    HW130947   1.397   0.571   4.588
10016SOL    HW230948   1.458   0.684   4.486
10017SOL     OW30949   1.699   1.750   3.148
10017SOL    HW130950   1.729   1.657   3.127
10017SOL    HW230951   1.616   1.745   3.205
10018SOL     OW30952   6.595   4.534   6.125
10018SOL    HW130953   6.556   4.452   6.167
10018SOL    HW230954   6.694   4.533   6.134
10019SOL     OW30955   0.677   2.193   3.445
10019SOL    HW130956   0.688   2.268   3.380
10019SOL    HW230957   0.598   2.138   3.420
10020SOL     OW30958   0.533   0.677   1.289
10020SOL    HW130959   0.533   0.702   1.192
10020SOL    HW230960   0.620   0.635   1.314
10021SOL     OW30961   0.952   2.270   2.578
10021SOL    HW130962   1.019   2.260   2.651
10021SOL    HW230963   0.947   2.185   2.525
10022SOL     OW30964   3.664   6.576   0.758
10022SOL    HW130965   3.643   6.530   0.672
10022SOL    HW230966   3.697   6.509   0.825
10023SOL     OW30967   2.174   4.846   4.990
10023SOL    HW130968   2.128   4.913   5.048
10023SOL    HW230969   2.130   4.844   4.900
10024SOL     OW30970   2.142   6.060   1.590
10024SOL    HW130971   2.184   5.974   1.616
10024SOL    HW230972   2.177   6.088   1.500
10025SOL     OW30973   2.111   2.976   1.957
10025SOL    HW130974   2.013   2.963   1.938
10025SOL    HW230975   2.149   2.891   1.994
10026SOL     OW30976   5.134   0.230   3.486
10026SOL    HW130977   5.172   0.215   3.394
10026SOL    HW230978   5.042   0.269   3.477
10027SOL     OW30979   0.517   2.770   5.211
10027SOL    HW130980   0.451   2.845   5.217
10027SOL    HW230981   0.600   2.794   5.260
10028SOL     OW30982   1.824   1.529   2.287
10028SOL    HW130983   1.779   1.602   2.236
10028SOL    HW230984   1.873   1.568   2.365
10029SOL     OW30985   1.752   1.871   3.908
10029SOL    HW130986   1.830   1.918   3.868
10029SOL    HW230987   1.775   1.840   4.000
10030SOL     OW30988   3.129   0.372   4.661
10030SOL    HW130989   3.211   0.384   4.605
10030SOL    HW230990   3.053   0.342   4.603
10031SOL     OW30991   5.488   4.596   4.351
10031SOL    HW130992   5.497   4.532   4.275
10031SOL    HW230993   5.482   4.546   4.437
10032SOL     OW30994   4.054   0.371   5.127
10032SOL    HW130995   4.093   0.360   5.219
10032SOL    HW230996   3.955   0.375   5.133
10033SOL     OW30997   4.598   2.363   3.856
10033SOL    HW130998   4.695   2.359   3.877
10033SOL    HW230999   4.548   2.403   3.933
10034SOL     OW31000   3.589   0.355   4.316
10034SOL    HW131001   3.528   0.342   4.238
10034SOL    HW231002   3.564   0.293   4.390
10035SOL     OW31003   6.564   4.938   1.680
10035SOL    HW131004   6.629   4.951   1.605
10035SOL    HW231005   6.604   4.877   1.748
10036SOL     OW31006   6.448   0.305   0.765
10036SOL    HW131007   6.354   0.293   0.796
10036SOL    HW231008   6.449   0.353   0.677
10037SOL     OW31009   5.832   1.242   0.402
10037SOL    HW131010   5.915   1.235   0.346
10037SOL    HW231011   5.752   1.246   0.343
10038SOL     OW31012   4.078   0.589   6.229
10038SOL    HW131013   4.031   0.667   6.270
10038SOL    HW231014   4.108   0.526   6.301
10039SOL     OW31015   3.848   6.603   5.328
10039SOL    HW131016   3.761   6.557   5.345
10039SOL    HW231017   3.898   6.553   5.257
10040SOL     OW31018   4.067   6.158   6.069
10040SOL    HW131019   4.001   6.234   6.069
10040SOL    HW231020   4.019   6.073   6.045
10041SOL     OW31021   4.071   5.851   6.795
10041SOL    HW131022   4.097   5.759   6.828
10041SOL    HW231023   4.038   5.905   6.873
10042SOL     OW31024   1.565   2.189   5.059
10042SOL    HW131025   1.476   2.162   5.022
10042SOL    HW231026   1.630   2.114   5.046
10043SOL     OW31027   0.676   2.475   4.530
10043SOL    HW131028   0.610   2.495   4.458
10043SOL    HW231029   0.689   2.557   4.586
10044SOL     OW31030   3.127   1.429   4.739
10044SOL    HW131031   3.179   1.364   4.683
10044SOL    HW231032   3.190   1.489   4.787
10045SOL     OW31033   5.186   6.675   3.481
10045SOL    HW131034   5.096   6.700   3.516
10045SOL    HW231035   5.187   6.578   3.456
10046SOL     OW31036   1.950   3.691   1.321
10046SOL    HW131037   2.040   3.695   1.278
10046SOL    HW231038   1.944   3.761   1.391
10047SOL     OW31039   6.465   2.983   4.919
10047SOL    HW131040   6.552   3.008   4.961
10047SOL    HW231041   6.390   3.026   4.971
10048SOL     OW31042   6.135   1.582   2.496
10048SOL    HW131043   6.121   1.635   2.579
10048SOL    HW231044   6.096   1.490   2.508
10049SOL     OW31045   0.519   0.316   6.668
10049SOL    HW131046   0.453   0.322   6.593
10049SOL    HW231047   0.476   0.348   6.753
10050SOL     OW31048   5.986   2.317   4.698
10050SOL    HW131049   5.988   2.318   4.798
10050SOL    HW231050   5.980   2.222   4.665
10051SOL     OW31051   6.297   2.145   5.075
10051SOL    HW131052   6.223   2.086   5.105
10051SOL    HW231053   6.312   2.217   5.143
10052SOL     OW31054   2.712   2.403   2.895
10052SOL    HW131055   2.776   2.328   2.915
10052SOL    HW231056   2.691   2.451   2.980
10053SOL     OW31057   3.307   5.925   2.043
10053SOL    HW131058   3.208   5.931   2.034
10053SOL    HW231059   3.336   5.974   2.125
10054SOL     OW31060   5.182   5.105   6.403
10054SOL    HW131061   5.150   5.153   6.484
10054SOL    HW231062   5.203   5.010   6.427
10055SOL     OW31063   6.475   1.888   5.046
10055SOL    HW131064   6.450   1.983   5.061
10055SOL    HW231065   6.396   1.838   5.010
10056SOL     OW31066   5.754   4.239   2.452
10056SOL    HW131067   5.751   4.211   2.356
10056SOL    HW231068   5.830   4.302   2.466
10057SOL     OW31069   3.933   1.866   4.610
10057SOL    HW131070   3.990   1.820   4.678
10057SOL    HW231071   3.851   1.902   4.655
10058SOL     OW31072   0.519   3.733   4.352
10058SOL    HW131073   0.596   3.696   4.404
10058SOL    HW231074   0.438   3.735   4.410
10059SOL     OW31075   5.728   0.735   1.208
10059SOL    HW131076   5.806   0.733   1.146
10059SOL    HW231077   5.721   0.826   1.249
10060SOL     OW31078   1.506   1.540   1.350
10060SOL    HW131079   1.564   1.542   1.431
10060SOL    HW231080   1.556   1.578   1.272
10061SOL     OW31081   4.721   1.534   4.299
10061SOL    HW131082   4.755   1.509   4.209
10061SOL    HW231083   4.782   1.601   4.340
10062SOL     OW31084   6.676   0.289   4.017
10062SOL    HW131085   6.678   0.325   4.111
10062SOL    HW231086   6.766   0.300   3.975
10063SOL     OW31087   2.432   0.622   3.810
10063SOL    HW131088   2.335   0.598   3.801
10063SOL    HW231089   2.479   0.602   3.723
10064SOL     OW31090   4.699   6.688   0.063
10064SOL    HW131091   4.764   6.739   0.119
10064SOL    HW231092   4.748   6.620   0.008
10065SOL     OW31093   2.029   0.023   2.065
10065SOL    HW131094   2.115   0.050   2.022
10065SOL    HW231095   2.036   0.036   2.164
10066SOL     OW31096   0.906   2.448   3.928
10066SOL    HW131097   0.875   2.531   3.882
10066SOL    HW231098   0.844   2.372   3.906
10067SOL     OW31099   6.573   4.097   4.665
10067SOL    HW131100   6.522   4.028   4.717
10067SOL    HW231101   6.514   4.178   4.651
10068SOL     OW31102   0.172   3.628   3.089
10068SOL    HW131103   0.251   3.659   3.036
10068SOL    HW231104   0.164   3.529   3.081
10069SOL     OW31105   2.503   4.995   3.050
10069SOL    HW131106   2.409   5.027   3.039
10069SOL    HW231107   2.566   5.072   3.040
10070SOL     OW31108   6.503   6.917   5.086
10070SOL    HW131109   6.568   6.894   5.013
10070SOL    HW231110   6.416   6.870   5.068
10071SOL     OW31111   5.983   5.940   4.127
10071SOL    HW131112   6.031   5.890   4.199
10071SOL    HW231113   5.942   5.875   4.062
10072SOL     OW31114   0.183   6.317   3.864
10072SOL    HW131115   0.198   6.241   3.927
10072SOL    HW231116   0.085   6.339   3.860
10073SOL     OW31117   5.846   4.429   5.492
10073SOL    HW131118   5.812   4.522   5.483
10073SOL    HW231119   5.774   4.371   5.530
10074SOL     OW31120   1.541   0.506   5.295
10074SOL    HW131121   1.608   0.580   5.287
10074SOL    HW231122   1.566   0.432   5.233
10075SOL     OW31123   2.039   2.754   2.851
10075SOL    HW131124   1.945   2.785   2.867
10075SOL    HW231125   2.045   2.710   2.761
10076SOL     OW31126   0.346   0.133   3.702
10076SOL    HW131127   0.341   0.228   3.670
10076SOL    HW231128   0.390   0.131   3.792
10077SOL     OW31129   4.056   3.060   6.445
10077SOL    HW131130   4.064   3.139   6.383
10077SOL    HW231131   4.125   3.068   6.517
10078SOL     OW31132   0.568   5.524   4.091
10078SOL    HW131133   0.485   5.578   4.098
10078SOL    HW231134   0.550   5.430   4.122
10079SOL     OW31135   6.593   3.935   3.111
10079SOL    HW131136   6.606   3.940   3.210
10079SOL    HW231137   6.563   3.842   3.087
10080SOL     OW31138   4.510   1.316   5.565
10080SOL    HW131139   4.546   1.264   5.643
10080SOL    HW231140   4.569   1.302   5.486
10081SOL     OW31141   6.966   0.233   0.708
10081SOL    HW131142   6.980   0.224   0.610
10081SOL    HW231143   0.038   0.244   0.754
10082SOL     OW31144   0.246   5.359   1.299
10082SOL    HW131145   0.222   5.384   1.393
10082SOL    HW231146   0.262   5.442   1.246
10083SOL     OW31147   4.403   1.115   3.502
10083SOL    HW131148   4.349   1.031   3.492
10083SOL    HW231149   4.349   1.184   3.550
10084SOL     OW31150   1.998   0.724   5.326
10084SOL    HW131151   1.991   0.798   5.394
10084SOL    HW231152   2.089   0.724   5.286
10085SOL     OW31153   2.541   6.031   1.170
10085SOL    HW131154   2.505   6.030   1.263
10085SOL    HW231155   2.620   5.970   1.163
10086SOL     OW31156   4.171   5.790   2.513
10086SOL    HW131157   4.080   5.751   2.511
10086SOL    HW231158   4.236   5.722   2.548
10087SOL     OW31159   6.901   6.654   3.713
10087SOL    HW131160   6.806   6.651   3.682
10087SOL    HW231161   6.941   6.743   3.688
10088SOL     OW31162   6.580   0.265   1.519
10088SOL    HW131163   6.625   0.287   1.432
10088SOL    HW231164   6.484   0.295   1.515
10089SOL     OW31165   2.895   1.897   2.233
10089SOL    HW131166   2.920   1.844   2.313
10089SOL    HW231167   2.943   1.984   2.233
10090SOL     OW31168   1.521   4.732   1.583
10090SOL    HW131169   1.462   4.654   1.564
10090SOL    HW231170   1.473   4.798   1.641
10091SOL     OW31171   0.434   4.256   6.311
10091SOL    HW131172   0.528   4.260   6.278
10091SOL    HW231173   0.401   4.349   6.328
10092SOL     OW31174   2.251   2.503   5.492
10092SOL    HW131175   2.169   2.547   5.454
10092SOL    HW231176   2.301   2.568   5.547
10093SOL     OW31177   6.433   2.750   4.748
10093SOL    HW131178   6.444   2.842   4.786
10093SOL    HW231179   6.522   2.715   4.718
10094SOL     OW31180   2.551   5.633   2.006
10094SOL    HW131181   2.562   5.730   2.028
10094SOL    HW231182   2.588   5.577   2.080
10095SOL     OW31183   6.041   1.631   5.264
10095SOL    HW131184   6.110   1.562   5.286
10095SOL    HW231185   5.952   1.587   5.252
10096SOL     OW31186   4.455   5.131   2.755
10096SOL    HW131187   4.393   5.198   2.796
10096SOL    HW231188   4.521   5.179   2.697
10097SOL     OW31189   0.679   1.380   0.392
10097SOL    HW131190   0.667   1.288   0.428
10097SOL    HW231191   0.594   1.432   0.402
10098SOL     OW31192   2.726   0.380   4.803
10098SOL    HW131193   2.677   0.444   4.863
10098SOL    HW231194   2.812   0.422   4.773
10099SOL     OW31195   0.037   5.280   1.161
10099SOL    HW131196   0.070   5.217   1.090
10099SOL    HW231197   0.113   5.302   1.222
10100SOL     OW31198   4.720   0.015   4.815
10100SOL    HW131199   4.623   7.006   4.808
10100SOL    HW231200   4.741   0.090   4.752
10101SOL     OW31201   6.413   3.802   1.753
10101SOL    HW131202   6.507   3.785   1.726
10101SOL    HW231203   6.410   3.824   1.851
10102SOL     OW31204   0.417   1.536   2.457
10102SOL    HW131205   0.320   1.528   2.436
10102SOL    HW231206   0.439   1.631   2.479
10103SOL     OW31207   2.494   0.607   5.853
10103SOL    HW131208   2.463   0.520   5.892
10103SOL    HW231209   2.594   0.607   5.847
10104SOL     OW31210   1.926   1.929   4.132
10104SOL    HW131211   2.024   1.917   4.111
10104SOL    HW231212   1.893   2.012   4.087
10105SOL     OW31213   1.578   0.867   0.125
10105SOL    HW131214   1.507   0.908   0.183
10105SOL    HW231215   1.647   0.936   0.104
10106SOL     OW31216   3.888   6.388   0.509
10106SOL    HW131217   3.936   6.359   0.427
10106SOL    HW231218   3.932   6.348   0.590
10107SOL     OW31219   6.147   1.496   5.757
10107SOL    HW131220   6.200   1.511   5.840
10107SOL    HW231221   6.069   1.438   5.777
10108SOL     OW31222   6.402   0.273   0.054
10108SOL    HW131223   6.381   0.197   7.008
10108SOL    HW231224   6.416   0.356   7.016
10109SOL     OW31225   5.721   0.147   0.658
10109SOL    HW131226   5.765   0.125   0.571
10109SOL    HW231227   5.728   0.245   0.675
10110SOL     OW31228   3.611   5.129   4.854
10110SOL    HW131229   3.531   5.075   4.827
10110SOL    HW231230   3.687   5.109   4.792
10111SOL     OW31231   5.852   3.257   3.386
10111SOL    HW131232   5.842   3.317   3.306
10111SOL    HW231233   5.886   3.167   3.356
10112SOL     OW31234   5.664   3.414   3.629
10112SOL    HW131235   5.753   3.444   3.594
10112SOL    HW231236   5.677   3.339   3.693
10113SOL     OW31237   4.310   0.424   0.106
10113SOL    HW131238   4.350   0.377   0.184
10113SOL    HW231239   4.360   0.400   0.023
10114SOL     OW31240   4.637   1.613   1.133
10114SOL    HW131241   4.733   1.627   1.156
10114SOL    HW231242   4.599   1.541   1.192
10115SOL     OW31243   3.946   0.877   4.948
10115SOL    HW131244   4.020   0.822   4.909
10115SOL    HW231245   3.881   0.900   4.875
10116SOL     OW31246   0.459   6.507   0.132
10116SOL    HW131247   0.529   6.454   0.179
10116SOL    HW231248   0.391   6.445   0.092
10117SOL     OW31249   6.778   5.664   5.966
10117SOL    HW131250   6.769   5.565   5.953
10117SOL    HW231251   6.852   5.699   5.908
10118SOL     OW31252   2.424   4.684   2.568
10118SOL    HW131253   2.415   4.594   2.610
10118SOL    HW231254   2.334   4.723   2.552
10119SOL     OW31255   0.127   5.765   4.587
10119SOL    HW131256   0.201   5.799   4.529
10119SOL    HW231257   0.161   5.752   4.681
10120SOL     OW31258   2.147   3.410   4.741
10120SOL    HW131259   2.222   3.425   4.805
10120SOL    HW231260   2.158   3.469   4.661
10121SOL     OW31261   6.281   3.323   6.669
10121SOL    HW131262   6.251   3.231   6.641
10121SOL    HW231263   6.220   3.357   6.740
10122SOL     OW31264   6.089   3.220   2.311
10122SOL    HW131265   6.083   3.197   2.214
10122SOL    HW231266   6.011   3.182   2.359
10123SOL     OW31267   5.209   6.307   0.142
10123SOL    HW131268   5.126   6.252   0.130
10123SOL    HW231269   5.196   6.371   0.217
10124SOL     OW31270   1.437   4.090   0.414
10124SOL    HW131271   1.427   4.187   0.437
10124SOL    HW231272   1.351   4.042   0.431
10125SOL     OW31273   1.919   0.798   2.117
10125SOL    HW131274   1.918   0.699   2.130
10125SOL    HW231275   1.997   0.837   2.165
10126SOL     OW31276   6.967   6.868   6.534
10126SOL    HW131277   6.915   6.787   6.504
10126SOL    HW231278   6.993   6.922   6.454
10127SOL     OW31279   2.789   4.723   6.264
10127SOL    HW131280   2.828   4.710   6.355
10127SOL    HW231281   2.861   4.715   6.196
10128SOL     OW31282   2.831   1.054   0.565
10128SOL    HW131283   2.806   1.075   0.660
10128SOL    HW231284   2.828   1.137   0.511
10129SOL     OW31285   6.212   1.876   2.336
10129SOL    HW131286   6.278   1.871   2.261
10129SOL    HW231287   6.155   1.794   2.337
10130SOL     OW31288   1.443   3.257   1.512
10130SOL    HW131289   1.383   3.256   1.432
10130SOL    HW231290   1.396   3.214   1.590
10131SOL     OW31291   1.271   6.916   4.960
10131SOL    HW131292   1.187   6.924   5.013
10131SOL    HW231293   1.322   6.836   4.991
10132SOL     OW31294   3.854   0.422   4.334
10132SOL    HW131295   3.755   0.412   4.343
10132SOL    HW231296   3.893   0.441   4.424
10133SOL     OW31297   3.624   6.457   0.506
10133SOL    HW131298   3.569   6.383   0.468
10133SOL    HW231299   3.721   6.432   0.503
10134SOL     OW31300   0.008   6.624   2.766
10134SOL    HW131301   6.994   6.555   2.832
10134SOL    HW231302   6.944   6.654   2.713
10135SOL     OW31303   4.872   3.117   3.585
10135SOL    HW131304   4.802   3.055   3.621
10135SOL    HW231305   4.946   3.064   3.544
10136SOL     OW31306   5.154   1.153   2.212
10136SOL    HW131307   5.143   1.217   2.136
10136SOL    HW231308   5.221   1.083   2.187
10137SOL     OW31309   6.782   3.175   4.402
10137SOL    HW131310   6.730   3.261   4.404
10137SOL    HW231311   6.878   3.195   4.384
10138SOL     OW31312   5.414   3.583   6.954
10138SOL    HW131313   5.319   3.558   6.972
10138SOL    HW231314   5.418   3.673   6.911
10139SOL     OW31315   2.887   3.606   3.474
10139SOL    HW131316   2.898   3.631   3.570
10139SOL    HW231317   2.903   3.508   3.462
10140SOL     OW31318   6.149   5.553   6.945
10140SOL    HW131319   6.189   5.478   6.891
10140SOL    HW231320   6.203   5.567   0.011
10141SOL     OW31321   3.889   0.998   5.777
10141SOL    HW131322   3.981   0.960   5.766
10141SOL    HW231323   3.882   1.083   5.724
10142SOL     OW31324   6.782   0.169   5.890
10142SOL    HW131325   6.719   0.177   5.813
10142SOL    HW231326   6.844   0.092   5.875
10143SOL     OW31327   5.304   1.003   6.979
10143SOL    HW131328   5.335   0.929   0.022
10143SOL    HW231329   5.377   1.027   6.914
10144SOL     OW31330   3.213   0.910   5.844
10144SOL    HW131331   3.156   0.975   5.795
10144SOL    HW231332   3.284   0.959   5.895
10145SOL     OW31333   3.022   5.199   3.918
10145SOL    HW131334   2.946   5.136   3.898
10145SOL    HW231335   3.014   5.232   4.012
10146SOL     OW31336   4.594   4.442   4.893
10146SOL    HW131337   4.500   4.472   4.905
10146SOL    HW231338   4.614   4.366   4.954
10147SOL     OW31339   5.425   4.208   5.373
10147SOL    HW131340   5.448   4.146   5.297
10147SOL    HW231341   5.367   4.159   5.439
10148SOL     OW31342   5.108   5.012   6.140
10148SOL    HW131343   5.141   5.042   6.229
10148SOL    HW231344   5.071   4.920   6.147
10149SOL     OW31345   5.928   3.587   1.310
10149SOL    HW131346   5.911   3.493   1.283
10149SOL    HW231347   5.885   3.649   1.244
10150SOL     OW31348   3.793   3.151   0.896
10150SOL    HW131349   3.878   3.139   0.947
10150SOL    HW231350   3.720   3.175   0.959
10151SOL     OW31351   0.509   5.600   0.088
10151SOL    HW131352   0.443   5.526   0.086
10151SOL    HW231353   0.525   5.634   7.011
10152SOL     OW31354   6.754   5.949   4.543
10152SOL    HW131355   6.727   5.890   4.466
10152SOL    HW231356   6.675   6.000   4.575
10153SOL     OW31357   4.361   5.664   3.472
10153SOL    HW131358   4.274   5.710   3.492
10153SOL    HW231359   4.374   5.588   3.536
10154SOL     OW31360   4.027   6.169   5.129
10154SOL    HW131361   3.959   6.098   5.110
10154SOL    HW231362   4.118   6.127   5.136
10155SOL     OW31363   3.672   2.076   6.121
10155SOL    HW131364   3.719   2.129   6.191
10155SOL    HW231365   3.586   2.040   6.158
10156SOL     OW31366   5.941   0.940   2.178
10156SOL    HW131367   6.007   0.914   2.107
10156SOL    HW231368   5.903   1.029   2.157
10157SOL     OW31369   0.403   1.747   0.417
10157SOL    HW131370   0.497   1.729   0.388
10157SOL    HW231371   0.343   1.746   0.336
10158SOL     OW31372   6.365   5.865   1.070
10158SOL    HW131373   6.352   5.856   0.972
10158SOL    HW231374   6.459   5.841   1.094
10159SOL     OW31375   2.092   3.195   0.482
10159SOL    HW131376   2.029   3.132   0.437
10159SOL    HW231377   2.079   3.189   0.581
10160SOL     OW31378   1.636   3.080   2.193
10160SOL    HW131379   1.673   3.040   2.109
10160SOL    HW231380   1.554   3.133   2.172
10161SOL     OW31381   4.211   3.492   1.144
10161SOL    HW131382   4.270   3.573   1.146
10161SOL    HW231383   4.121   3.515   1.182
10162SOL     OW31384   3.817   4.739   1.169
10162SOL    HW131385   3.869   4.823   1.157
10162SOL    HW231386   3.738   4.757   1.228
10163SOL     OW31387   6.261   4.183   0.009
10163SOL    HW131388   6.265   4.093   0.053
10163SOL    HW231389   6.345   4.234   0.031
10164SOL     OW31390   6.033   3.075   3.922
10164SOL    HW131391   6.039   3.077   4.022
10164SOL    HW231392   6.114   3.118   3.883
10165SOL     OW31393   6.699   1.201   3.582
10165SOL    HW131394   6.740   1.267   3.519
10165SOL    HW231395   6.689   1.113   3.536
10166SOL     OW31396   3.363   1.648   1.944
10166SOL    HW131397   3.463   1.653   1.946
10166SOL    HW231398   3.326   1.696   2.024
10167SOL     OW31399   1.391   4.692   6.772
10167SOL    HW131400   1.431   4.775   6.732
10167SOL    HW231401   1.456   4.617   6.766
10168SOL     OW31402   5.654   2.763   6.494
10168SOL    HW131403   5.569   2.728   6.456
10168SOL    HW231404   5.716   2.686   6.513
10169SOL     OW31405   6.954   4.054   3.555
10169SOL    HW131406   0.036   4.042   3.539
10169SOL    HW231407   6.926   4.144   3.521
10170SOL     OW31408   6.063   5.565   5.437
10170SOL    HW131409   6.043   5.544   5.533
10170SOL    HW231410   6.116   5.490   5.397
10171SOL     OW31411   7.012   2.332   4.952
10171SOL    HW131412   6.999   2.263   4.880
10171SOL    HW231413   6.996   2.289   5.041
10172SOL     OW31414   0.849   6.195   5.456
10172SOL    HW131415   0.789   6.216   5.378
10172SOL    HW231416   0.795   6.194   5.540
10173SOL     OW31417   1.908   2.742   0.509
10173SOL    HW131418   1.902   2.828   0.559
10173SOL    HW231419   1.830   2.684   0.533
10174SOL     OW31420   5.177   4.745   3.319
10174SOL    HW131421   5.106   4.684   3.284
10174SOL    HW231422   5.241   4.767   3.245
10175SOL     OW31423   5.513   1.882   3.058
10175SOL    HW131424   5.515   1.895   2.959
10175SOL    HW231425   5.535   1.968   3.103
10176SOL     OW31426   0.289   3.191   5.422
10176SOL    HW131427   0.209   3.172   5.478
10176SOL    HW231428   0.328   3.279   5.447
10177SOL     OW31429   2.354   1.224   1.449
10177SOL    HW131430   2.380   1.250   1.542
10177SOL    HW231431   2.421   1.258   1.384
10178SOL     OW31432   0.067   1.074   6.757
10178SOL    HW131433   0.091   0.979   6.776
10178SOL    HW231434   0.067   1.089   6.658
10179SOL     OW31435   0.654   2.892   6.634
10179SOL    HW131436   0.582   2.827   6.656
10179SOL    HW231437   0.625   2.951   6.559
10180SOL     OW31438   4.148   1.201   5.905
10180SOL    HW131439   4.144   1.175   5.809
10180SOL    HW231440   4.158   1.119   5.962
10181SOL     OW31441   6.291   3.498   1.888
10181SOL    HW131442   6.384   3.534   1.890
10181SOL    HW231443   6.240   3.543   1.814
10182SOL     OW31444   4.724   0.874   1.677
10182SOL    HW131445   4.705   0.880   1.775
10182SOL    HW231446   4.669   0.942   1.628
10183SOL     OW31447   6.465   2.669   6.470
10183SOL    HW131448   6.539   2.717   6.517
10183SOL    HW231449   6.483   2.669   6.372
10184SOL     OW31450   4.254   1.175   6.299
10184SOL    HW131451   4.289   1.231   6.374
10184SOL    HW231452   4.330   1.151   6.237
10185SOL     OW31453   6.177   6.109   2.812
10185SOL    HW131454   6.109   6.037   2.826
10185SOL    HW231455   6.132   6.195   2.793
10186SOL     OW31456   5.112   3.768   3.843
10186SOL    HW131457   5.138   3.790   3.749
10186SOL    HW231458   5.155   3.833   3.906
10187SOL     OW31459   1.102   3.616   6.972
10187SOL    HW131460   1.067   3.542   0.013
10187SOL    HW231461   1.042   3.628   6.893
10188SOL     OW31462   4.118   4.644   0.534
10188SOL    HW131463   4.057   4.651   0.456
10188SOL    HW231464   4.205   4.603   0.505
10189SOL     OW31465   0.719   0.939   6.735
10189SOL    HW131466   0.788   0.997   6.691
10189SOL    HW231467   0.642   0.925   6.672
10190SOL     OW31468   4.800   2.851   1.358
10190SOL    HW131469   4.794   2.922   1.428
10190SOL    HW231470   4.845   2.770   1.396
10191SOL     OW31471   4.092   5.598   6.864
10191SOL    HW131472   4.005   5.595   6.816
10191SOL    HW231473   4.114   5.507   6.899
10192SOL     OW31474   4.236   1.425   5.577
10192SOL    HW131475   4.235   1.524   5.566
10192SOL    HW231476   4.331   1.393   5.583
10193SOL     OW31477   3.839   2.940   1.976
10193SOL    HW131478   3.872   2.960   2.068
10193SOL    HW231479   3.741   2.956   1.971
10194SOL     OW31480   4.978   6.190   5.405
10194SOL    HW131481   4.903   6.226   5.349
10194SOL    HW231482   4.942   6.121   5.468
10195SOL     OW31483   6.680   6.137   0.378
10195SOL    HW131484   6.599   6.192   0.358
10195SOL    HW231485   6.691   6.130   0.477
10196SOL     OW31486   4.021   2.033   3.800
10196SOL    HW131487   3.974   1.966   3.857
10196SOL    HW231488   4.078   2.091   3.858
10197SOL     OW31489   5.332   1.857   4.717
10197SOL    HW131490   5.310   1.949   4.683
10197SOL    HW231491   5.406   1.863   4.785
10198SOL     OW31492   2.679   6.962   2.593
10198SOL    HW131493   2.703   6.975   2.497
10198SOL    HW231494   2.723   0.018   2.648
10199SOL     OW31495   1.163   3.046   0.717
10199SOL    HW131496   1.219   3.082   0.643
10199SOL    HW231497   1.209   2.967   0.758
10200SOL     OW31498   4.876   2.989   5.888
10200SOL    HW131499   4.895   3.068   5.946
10200SOL    HW231500   4.960   2.934   5.878
10201SOL     OW31501   1.434   5.240   0.360
10201SOL    HW131502   1.416   5.142   0.346
10201SOL    HW231503   1.475   5.278   0.277
10202SOL     OW31504   3.193   4.966   0.221
10202SOL    HW131505   3.108   5.007   0.186
10202SOL    HW231506   3.180   4.868   0.233
10203SOL     OW31507   7.006   2.383   2.608
10203SOL    HW131508   7.011   2.425   2.698
10203SOL    HW231509   0.041   2.297   2.608
10204SOL     OW31510   4.024   5.415   6.440
10204SOL    HW131511   4.103   5.446   6.385
10204SOL    HW231512   3.944   5.469   6.415
10205SOL     OW31513   2.175   0.758   1.844
10205SOL    HW131514   2.211   0.692   1.778
10205SOL    HW231515   2.079   0.777   1.824
10206SOL     OW31516   0.051   0.249   6.660
10206SOL    HW131517   0.007   0.173   6.708
10206SOL    HW231518   0.128   0.214   6.606
10207SOL     OW31519   0.738   2.189   0.124
10207SOL    HW131520   0.709   2.189   0.028
10207SOL    HW231521   0.694   2.114   0.172
10208SOL     OW31522   6.103   5.298   4.267
10208SOL    HW131523   6.140   5.258   4.350
10208SOL    HW231524   6.013   5.337   4.285
10209SOL     OW31525   0.197   6.538   6.296
10209SOL    HW131526   0.209   6.515   6.393
10209SOL    HW231527   0.177   6.455   6.244
10210SOL     OW31528   4.578   6.438   0.991
10210SOL    HW131529   4.561   6.400   1.082
10210SOL    HW231530   4.606   6.364   0.929
10211SOL     OW31531   4.663   6.183   4.658
10211SOL    HW131532   4.721   6.249   4.609
10211SOL    HW231533   4.721   6.128   4.718
10212SOL     OW31534   0.512   7.013   5.625
10212SOL    HW131535   0.549   0.090   5.632
10212SOL    HW231536   0.413   0.003   5.607
10213SOL     OW31537   5.407   2.719   1.850
10213SOL    HW131538   5.417   2.787   1.777
10213SOL    HW231539   5.312   2.690   1.856
10214SOL     OW31540   0.083   1.826   1.583
10214SOL    HW131541   0.100   1.743   1.531
10214SOL    HW231542   0.053   1.802   1.676
10215SOL     OW31543   3.707   3.382   3.512
10215SOL    HW131544   3.651   3.307   3.477
10215SOL    HW231545   3.651   3.463   3.526
10216SOL     OW31546   6.858   1.168   1.314
10216SOL    HW131547   6.810   1.116   1.385
10216SOL    HW231548   6.821   1.261   1.310
10217SOL     OW31549   1.976   2.040   3.723
10217SOL    HW131550   2.008   1.992   3.641
10217SOL    HW231551   2.055   2.068   3.778
10218SOL     OW31552   0.849   0.738   1.548
10218SOL    HW131553   0.935   0.779   1.579
10218SOL    HW231554   0.772   0.786   1.590
10219SOL     OW31555   0.311   2.352   2.701
10219SOL    HW131556   0.244   2.299   2.753
10219SOL    HW231557   0.288   2.350   2.604
10220SOL     OW31558   4.396   1.573   1.535
10220SOL    HW131559   4.459   1.649   1.549
10220SOL    HW231560   4.362   1.575   1.441
10221SOL     OW31561   1.925   4.057   4.991
10221SOL    HW131562   1.937   4.010   4.904
10221SOL    HW231563   2.003   4.117   5.008
10222SOL     OW31564   3.057   4.179   5.187
10222SOL    HW131565   3.011   4.267   5.189
10222SOL    HW231566   2.989   4.106   5.187
10223SOL     OW31567   2.890   5.008   0.997
10223SOL    HW131568   2.965   4.958   1.040
10223SOL    HW231569   2.881   4.979   0.902
10224SOL     OW31570   6.473   2.398   5.767
10224SOL    HW131571   6.467   2.437   5.675
10224SOL    HW231572   6.525   2.312   5.764
10225SOL     OW31573   1.792   5.977   5.709
10225SOL    HW131574   1.857   6.030   5.654
10225SOL    HW231575   1.801   5.880   5.687
10226SOL     OW31576   2.193   0.545   6.090
10226SOL    HW131577   2.189   0.552   6.190
10226SOL    HW231578   2.100   0.540   6.054
10227SOL     OW31579   5.310   4.895   0.053
10227SOL    HW131580   5.349   4.838   0.126
10227SOL    HW231581   5.227   4.851   0.017
10228SOL     OW31582   0.975   5.876   2.054
10228SOL    HW131583   0.876   5.870   2.048
10228SOL    HW231584   1.016   5.823   1.980
10229SOL     OW31585   2.060   2.632   4.799
10229SOL    HW131586   2.009   2.712   4.830
10229SOL    HW231587   2.158   2.646   4.816
10230SOL     OW31588   6.251   6.471   3.145
10230SOL    HW131589   6.284   6.380   3.121
10230SOL    HW231590   6.314   6.540   3.112
10231SOL     OW31591   6.350   4.771   5.052
10231SOL    HW131592   6.253   4.779   5.030
10231SOL    HW231593   6.367   4.684   5.098
10232SOL     OW31594   3.535   1.560   3.941
10232SOL    HW131595   3.515   1.658   3.953
10232SOL    HW231596   3.562   1.543   3.846
10233SOL     OW31597   3.521   3.853   5.069
10233SOL    HW131598   3.485   3.802   4.990
10233SOL    HW231599   3.619   3.833   5.078
10234SOL     OW31600   5.328   0.783   0.495
10234SOL    HW131601   5.418   0.759   0.531
10234SOL    HW231602   5.304   0.876   0.524
10235SOL     OW31603   3.045   1.936   1.199
10235SOL    HW131604   3.143   1.929   1.216
10235SOL    HW231605   2.996   1.870   1.256
10236SOL     OW31606   1.431   1.256   1.482
10236SOL    HW131607   1.470   1.331   1.428
10236SOL    HW231608   1.338   1.239   1.451
10237SOL     OW31609   6.959   4.933   6.356
10237SOL    HW131610   6.938   4.898   6.264
10237SOL    HW231611   6.888   4.904   6.420
10238SOL     OW31612   3.949   3.898   2.346
10238SOL    HW131613   3.873   3.957   2.374
10238SOL    HW231614   3.943   3.811   2.395
10239SOL     OW31615   2.137   3.614   5.677
10239SOL    HW131616   2.217   3.625   5.618
10239SOL    HW231617   2.056   3.651   5.631
10240SOL     OW31618   1.950   4.053   2.611
10240SOL    HW131619   1.951   3.961   2.572
10240SOL    HW231620   2.003   4.054   2.696
10241SOL     OW31621   0.181   6.096   3.338
10241SOL    HW131622   0.125   6.024   3.296
10241SOL    HW231623   0.121   6.162   3.383
10242SOL     OW31624   0.665   1.195   1.691
10242SOL    HW131625   0.583   1.217   1.638
10242SOL    HW231626   0.742   1.249   1.656
10243SOL     OW31627   2.507   4.742   2.937
10243SOL    HW131628   2.543   4.759   2.845
10243SOL    HW231629   2.507   4.828   2.989
10244SOL     OW31630   1.834   4.393   1.070
10244SOL    HW131631   1.879   4.481   1.060
10244SOL    HW231632   1.796   4.364   0.982
10245SOL     OW31633   3.899   4.344   1.086
10245SOL    HW131634   3.945   4.426   1.052
10245SOL    HW231635   3.968   4.277   1.114
10246SOL     OW31636   2.967   3.365   3.516
10246SOL    HW131637   3.011   3.330   3.599
10246SOL    HW231638   2.993   3.308   3.438
10247SOL     OW31639   0.325   4.514   6.343
10247SOL    HW131640   0.391   4.582   6.311
10247SOL    HW231641   0.250   4.561   6.390
10248SOL     OW31642   1.657   6.777   2.633
10248SOL    HW131643   1.655   6.812   2.726
10248SOL    HW231644   1.656   6.854   2.569
10249SOL     OW31645   2.349   6.498   6.594
10249SOL    HW131646   2.449   6.487   6.592
10249SOL    HW231647   2.325   6.590   6.563
10250SOL     OW31648   6.658   2.507   1.981
10250SOL    HW131649   6.750   2.545   1.969
10250SOL    HW231650   6.654   2.457   2.068
10251SOL     OW31651   2.362   1.277   4.694
10251SOL    HW131652   2.312   1.353   4.653
10251SOL    HW231653   2.454   1.307   4.718
10252SOL     OW31654   3.825   4.926   5.812
10252SOL    HW131655   3.916   4.888   5.831
10252SOL    HW231656   3.757   4.854   5.818
10253SOL     OW31657   2.780   6.820   0.606
10253SOL    HW131658   2.722   6.866   0.539
10253SOL    HW231659   2.798   6.727   0.575
10254SOL     OW31660   4.912   1.105   5.509
10254SOL    HW131661   4.968   1.184   5.484
10254SOL    HW231662   4.820   1.116   5.470
10255SOL     OW31663   2.424   6.011   0.943
10255SOL    HW131664   2.444   6.022   1.040
10255SOL    HW231665   2.343   5.953   0.932
10256SOL     OW31666   5.059   1.804   1.422
10256SOL    HW131667   4.981   1.813   1.361
10256SOL    HW231668   5.033   1.752   1.503
10257SOL     OW31669   2.151   4.703   4.567
10257SOL    HW131670   2.211   4.721   4.489
10257SOL    HW231671   2.098   4.620   4.550
10258SOL     OW31672   3.345   1.063   3.515
10258SOL    HW131673   3.357   1.153   3.558
10258SOL    HW231674   3.253   1.028   3.535
10259SOL     OW31675   1.011   4.974   3.081
10259SOL    HW131676   1.110   4.978   3.093
10259SOL    HW231677   0.972   5.066   3.090
10260SOL     OW31678   1.730   0.925   3.572
10260SOL    HW131679   1.783   0.866   3.511
10260SOL    HW231680   1.776   1.013   3.582
10261SOL     OW31681   6.787   4.987   2.542
10261SOL    HW131682   6.787   5.003   2.443
10261SOL    HW231683   6.820   5.069   2.589
10262SOL     OW31684   2.403   0.026   5.209
10262SOL    HW131685   2.445   0.072   5.287
10262SOL    HW231686   2.455   0.048   5.126
10263SOL     OW31687   5.208   6.824   6.844
10263SOL    HW131688   5.236   6.835   6.940
10263SOL    HW231689   5.266   6.879   6.785
10264SOL     OW31690   6.184   6.946   6.629
10264SOL    HW131691   6.253   6.874   6.621
10264SOL    HW231692   6.195   7.011   6.554
10265SOL     OW31693   2.062   2.935   1.520
10265SOL    HW131694   2.096   2.990   1.597
10265SOL    HW231695   2.052   2.994   1.439
10266SOL     OW31696   4.105   3.437   3.885
10266SOL    HW131697   4.152   3.415   3.799
10266SOL    HW231698   4.007   3.443   3.868
10267SOL     OW31699   5.829   2.531   6.535
10267SOL    HW131700   5.854   2.516   6.631
10267SOL    HW231701   5.748   2.478   6.513
10268SOL     OW31702   5.881   5.732   2.424
10268SOL    HW131703   5.811   5.693   2.483
10268SOL    HW231704   5.947   5.661   2.400
10269SOL     OW31705   0.356   3.512   0.011
10269SOL    HW131706   0.328   3.479   6.937
10269SOL    HW231707   0.276   3.541   0.063
10270SOL     OW31708   3.997   4.789   2.692
10270SOL    HW131709   3.986   4.690   2.679
10270SOL    HW231710   4.065   4.823   2.627
10271SOL     OW31711   3.451   2.934   5.986
10271SOL    HW131712   3.438   3.014   6.044
10271SOL    HW231713   3.505   2.959   5.906
10272SOL     OW31714   1.617   1.301   4.862
10272SOL    HW131715   1.559   1.383   4.864
10272SOL    HW231716   1.713   1.328   4.874
10273SOL     OW31717   2.998   5.805   2.872
10273SOL    HW131718   3.009   5.748   2.954
10273SOL    HW231719   2.900   5.813   2.850
10274SOL     OW31720   1.008   5.966   5.139
10274SOL    HW131721   1.061   5.902   5.084
10274SOL    HW231722   1.029   6.060   5.112
10275SOL     OW31723   0.391   6.466   1.755
10275SOL    HW131724   0.385   6.473   1.855
10275SOL    HW231725   0.303   6.491   1.714
10276SOL     OW31726   5.088   5.027   5.590
10276SOL    HW131727   5.143   5.100   5.550
10276SOL    HW231728   5.136   4.940   5.581
10277SOL     OW31729   1.342   5.336   3.906
10277SOL    HW131730   1.242   5.328   3.908
10277SOL    HW231731   1.367   5.432   3.900
10278SOL     OW31732   0.339   2.202   4.588
10278SOL    HW131733   0.438   2.191   4.583
10278SOL    HW231734   0.295   2.113   4.576
10279SOL     OW31735   2.401   5.174   4.217
10279SOL    HW131736   2.472   5.178   4.147
10279SOL    HW231737   2.335   5.103   4.192
10280SOL     OW31738   0.293   3.307   0.827
10280SOL    HW131739   0.350   3.237   0.871
10280SOL    HW231740   0.200   3.272   0.815
10281SOL     OW31741   5.815   1.315   2.317
10281SOL    HW131742   5.865   1.382   2.263
10281SOL    HW231743   5.717   1.328   2.303
10282SOL     OW31744   4.893   3.266   4.195
10282SOL    HW131745   4.889   3.203   4.273
10282SOL    HW231746   4.870   3.216   4.111
10283SOL     OW31747   1.087   3.606   0.527
10283SOL    HW131748   1.015   3.542   0.499
10283SOL    HW231749   1.103   3.672   0.454
10284SOL     OW31750   5.187   2.822   4.919
10284SOL    HW131751   5.239   2.737   4.926
10284SOL    HW231752   5.089   2.802   4.925
10285SOL     OW31753   6.265   0.059   2.580
10285SOL    HW131754   6.314   0.017   2.503
10285SOL    HW231755   6.252   0.156   2.561
10286SOL     OW31756   3.209   1.688   3.188
10286SOL    HW131757   3.230   1.782   3.216
10286SOL    HW231758   3.166   1.689   3.098
10287SOL     OW31759   1.929   0.036   1.196
10287SOL    HW131760   1.931   0.126   1.239
10287SOL    HW231761   1.958   0.043   1.101
10288SOL     OW31762   4.885   6.093   3.099
10288SOL    HW131763   4.828   6.172   3.121
10288SOL    HW231764   4.937   6.066   3.180
10289SOL     OW31765   2.100   6.594   0.164
10289SOL    HW131766   2.038   6.670   0.182
10289SOL    HW231767   2.126   6.594   0.067
10290SOL     OW31768   3.115   3.989   2.742
10290SOL    HW131769   3.106   4.088   2.727
10290SOL    HW231770   3.158   3.947   2.662
10291SOL     OW31771   4.470   1.254   2.751
10291SOL    HW131772   4.371   1.243   2.758
10291SOL    HW231773   4.494   1.286   2.659
10292SOL     OW31774   1.677   0.929   5.211
10292SOL    HW131775   1.657   1.000   5.144
10292SOL    HW231776   1.682   0.971   5.302
10293SOL     OW31777   2.137   4.397   2.744
10293SOL    HW131778   2.054   4.388   2.690
10293SOL    HW231779   2.142   4.489   2.782
10294SOL     OW31780   5.780   3.211   3.038
10294SOL    HW131781   5.811   3.299   3.075
10294SOL    HW231782   5.842   3.182   2.966
10295SOL     OW31783   6.701   4.330   5.563
10295SOL    HW131784   6.692   4.277   5.647
10295SOL    HW231785   6.662   4.277   5.487
10296SOL     OW31786   5.162   1.219   0.070
10296SOL    HW131787   5.066   1.205   0.093
10296SOL    HW231788   5.197   1.137   0.023
10297SOL     OW31789   1.703   6.959   6.476
10297SOL    HW131790   1.729   0.016   6.539
10297SOL    HW231791   1.684   6.998   6.386
10298SOL     OW31792   2.863   4.687   1.643
10298SOL    HW131793   2.895   4.639   1.724
10298SOL    HW231794   2.903   4.645   1.561
10299SOL     OW31795   4.930   5.017   2.981
10299SOL    HW131796   5.026   5.040   2.963
10299SOL    HW231797   4.872   5.061   2.912
10300SOL     OW31798   1.363   3.809   3.103
10300SOL    HW131799   1.403   3.728   3.060
10300SOL    HW231800   1.268   3.790   3.128
10301SOL     OW31801   4.891   2.535   4.299
10301SOL    HW131802   4.803   2.489   4.287
10301SOL    HW231803   4.880   2.634   4.286
10302SOL     OW31804   2.158   0.048   3.959
10302SOL    HW131805   2.124   0.123   4.015
10302SOL    HW231806   2.128   6.977   3.998
10303SOL     OW31807   2.042   6.344   3.011
10303SOL    HW131808   2.008   6.414   2.948
10303SOL    HW231809   2.119   6.381   3.063
10304SOL     OW31810   5.719   0.057   1.666
10304SOL    HW131811   5.729   0.154   1.644
10304SOL    HW231812   5.781   0.033   1.741
10305SOL     OW31813   1.033   4.231   6.843
10305SOL    HW131814   1.124   4.205   6.874
10305SOL    HW231815   1.011   4.323   6.875
10306SOL     OW31816   4.669   6.848   6.174
10306SOL    HW131817   4.707   6.880   6.087
10306SOL    HW231818   4.572   6.872   6.178
10307SOL     OW31819   2.236   2.232   5.467
10307SOL    HW131820   2.226   2.328   5.495
10307SOL    HW231821   2.328   2.200   5.489
10308SOL     OW31822   2.215   4.243   3.599
10308SOL    HW131823   2.167   4.180   3.538
10308SOL    HW231824   2.158   4.323   3.615
10309SOL     OW31825   6.963   1.398   5.384
10309SOL    HW131826   6.897   1.352   5.444
10309SOL    HW231827   6.992   1.335   5.312
10310SOL     OW31828   3.411   3.769   1.065
10310SOL    HW131829   3.330   3.748   1.120
10310SOL    HW231830   3.479   3.814   1.122
10311SOL     OW31831   6.912   6.306   0.320
10311SOL    HW131832   6.835   6.244   0.340
10311SOL    HW231833   6.897   6.349   0.232
10312SOL     OW31834   3.730   6.324   2.477
10312SOL    HW131835   3.644   6.375   2.482
10312SOL    HW231836   3.735   6.258   2.552
10313SOL     OW31837   4.921   6.320   1.250
10313SOL    HW131838   4.992   6.308   1.319
10313SOL    HW231839   4.923   6.413   1.215
10314SOL     OW31840   6.593   0.923   1.883
10314SOL    HW131841   6.569   1.020   1.898
10314SOL    HW231842   6.591   0.875   1.970
10315SOL     OW31843   4.911   6.132   5.083
10315SOL    HW131844   5.009   6.131   5.102
10315SOL    HW231845   4.863   6.173   5.160
10316SOL     OW31846   6.325   1.628   4.463
10316SOL    HW131847   6.320   1.564   4.387
10316SOL    HW231848   6.303   1.720   4.431
10317SOL     OW31849   4.235   5.758   4.854
10317SOL    HW131850   4.258   5.855   4.858
10317SOL    HW231851   4.144   5.747   4.814
10318SOL     OW31852   4.929   5.663   6.695
10318SOL    HW131853   4.838   5.624   6.711
10318SOL    HW231854   4.950   5.730   6.766
10319SOL     OW31855   1.336   2.905   5.051
10319SOL    HW131856   1.253   2.961   5.061
10319SOL    HW231857   1.402   2.930   5.122
10320SOL     OW31858   0.351   0.621   2.890
10320SOL    HW131859   0.379   0.695   2.829
10320SOL    HW231860   0.270   0.576   2.853
10321SOL     OW31861   3.976   1.489   2.134
10321SOL    HW131862   4.026   1.476   2.048
10321SOL    HW231863   3.959   1.399   2.176
10322SOL     OW31864   6.551   5.546   5.459
10322SOL    HW131865   6.510   5.594   5.381
10322SOL    HW231866   6.481   5.533   5.530
10323SOL     OW31867   5.890   3.061   5.603
10323SOL    HW131868   5.959   3.005   5.557
10323SOL    HW231869   5.896   3.046   5.702
10324SOL     OW31870   3.308   3.428   2.421
10324SOL    HW131871   3.347   3.360   2.483
10324SOL    HW231872   3.354   3.516   2.435
10325SOL     OW31873   0.128   3.968   2.330
10325SOL    HW131874   0.098   4.064   2.323
10325SOL    HW231875   0.215   3.964   2.380
10326SOL     OW31876   3.982   4.022   0.289
10326SOL    HW131877   3.938   3.959   0.226
10326SOL    HW231878   4.061   3.977   0.331
10327SOL     OW31879   2.422   1.849   1.630
10327SOL    HW131880   2.508   1.837   1.680
10327SOL    HW231881   2.365   1.768   1.642
10328SOL     OW31882   5.756   2.895   1.063
10328SOL    HW131883   5.770   2.797   1.075
10328SOL    HW231884   5.658   2.915   1.063
10329SOL     OW31885   3.435   0.291   4.075
10329SOL    HW131886   3.336   0.303   4.076
10329SOL    HW231887   3.459   0.213   4.018
10330SOL     OW31888   4.541   0.164   2.407
10330SOL    HW131889   4.607   0.220   2.358
10330SOL    HW231890   4.569   0.154   2.502
10331SOL     OW31891   0.257   1.388   5.168
10331SOL    HW131892   0.309   1.322   5.114
10331SOL    HW231893   0.275   1.374   5.265
10332SOL     OW31894   6.104   0.871   0.908
10332SOL    HW131895   6.120   0.844   0.813
10332SOL    HW231896   6.063   0.962   0.911
10333SOL     OW31897   6.208   4.112   4.468
10333SOL    HW131898   6.137   4.179   4.449
10333SOL    HW231899   6.267   4.146   4.541
10334SOL     OW31900   4.054   6.182   3.744
10334SOL    HW131901   4.111   6.252   3.786
10334SOL    HW231902   3.980   6.225   3.692
10335SOL     OW31903   3.027   4.487   6.558
10335SOL    HW131904   2.962   4.562   6.547
10335SOL    HW231905   3.105   4.502   6.497
10336SOL     OW31906   6.639   6.575   2.879
10336SOL    HW131907   6.663   6.632   2.958
10336SOL    HW231908   6.664   6.622   2.795
10337SOL     OW31909   0.043   6.853   5.904
10337SOL    HW131910   6.970   6.818   5.934
10337SOL    HW231911   0.053   6.836   5.806
10338SOL     OW31912   2.176   6.345   2.479
10338SOL    HW131913   2.257   6.384   2.522
10338SOL    HW231914   2.106   6.328   2.549
10339SOL     OW31915   3.452   5.030   0.005
10339SOL    HW131916   3.392   5.048   0.083
10339SOL    HW231917   3.500   4.944   0.019
10340SOL     OW31918   2.159   5.277   0.950
10340SOL    HW131919   2.195   5.193   0.991
10340SOL    HW231920   2.171   5.353   1.014
10341SOL     OW31921   2.242   3.622   1.524
10341SOL    HW131922   2.336   3.622   1.560
10341SOL    HW231923   2.178   3.610   1.599
10342SOL     OW31924   1.016   6.903   5.632
10342SOL    HW131925   1.015   7.003   5.642
10342SOL    HW231926   0.930   6.866   5.667
10343SOL     OW31927   3.357   5.618   0.202
10343SOL    HW131928   3.355   5.602   0.301
10343SOL    HW231929   3.273   5.582   0.161
10344SOL     OW31930   4.631   4.103   1.693
10344SOL    HW131931   4.565   4.177   1.705
10344SOL    HW231932   4.686   4.093   1.775
10345SOL     OW31933   1.590   1.254   6.837
10345SOL    HW131934   1.490   1.264   6.844
10345SOL    HW231935   1.633   1.300   6.915
10346SOL     OW31936   6.356   0.040   1.592
10346SOL    HW131937   6.448   0.023   1.627
10346SOL    HW231938   6.345   7.011   1.503
10347SOL     OW31939   4.815   2.198   2.714
10347SOL    HW131940   4.796   2.250   2.631
10347SOL    HW231941   4.910   2.164   2.712
10348SOL     OW31942   6.312   1.470   0.573
10348SOL    HW131943   6.298   1.522   0.657
10348SOL    HW231944   6.337   1.376   0.596
10349SOL     OW31945   0.093   1.251   1.339
10349SOL    HW131946   0.003   1.209   1.331
10349SOL    HW231947   0.112   1.305   1.257
10350SOL     OW31948   2.004   6.828   5.254
10350SOL    HW131949   1.954   6.749   5.219
10350SOL    HW231950   2.050   6.875   5.179
10351SOL     OW31951   4.348   5.193   6.028
10351SOL    HW131952   4.264   5.247   6.027
10351SOL    HW231953   4.386   5.193   6.120
10352SOL     OW31954   4.627   2.304   6.470
10352SOL    HW131955   4.547   2.276   6.523
10352SOL    HW231956   4.665   2.389   6.509
10353SOL     OW31957   0.205   2.847   5.720
10353SOL    HW131958   0.268   2.771   5.735
10353SOL    HW231959   0.172   2.844   5.625
10354SOL     OW31960   5.812   2.508   2.034
10354SOL    HW131961   5.874   2.558   1.973
10354SOL    HW231962   5.717   2.529   2.010
10355SOL     OW31963   1.612   6.998   2.454
10355SOL    HW131964   1.593   0.053   2.522
10355SOL    HW231965   1.588   0.016   2.363
10356SOL     OW31966   0.201   4.467   6.083
10356SOL    HW131967   0.157   4.470   6.173
10356SOL    HW231968   0.131   4.463   6.012
10357SOL     OW31969   3.126   3.418   6.532
10357SOL    HW131970   3.028   3.419   6.511
10357SOL    HW231971   3.177   3.441   6.449
10358SOL     OW31972   6.326   3.195   3.417
10358SOL    HW131973   6.253   3.129   3.438
10358SOL    HW231974   6.386   3.156   3.347
10359SOL     OW31975   6.913   1.573   1.297
10359SOL    HW131976   6.901   1.659   1.248
10359SOL    HW231977   6.831   1.517   1.287
10360SOL     OW31978   4.170   5.875   2.189
10360SOL    HW131979   4.231   5.930   2.246
10360SOL    HW231980   4.215   5.789   2.164
10361SOL     OW31981   2.560   0.746   2.910
10361SOL    HW131982   2.580   0.676   2.841
10361SOL    HW231983   2.625   0.821   2.902
10362SOL     OW31984   0.690   5.235   3.811
10362SOL    HW131985   0.645   5.165   3.754
10362SOL    HW231986   0.721   5.193   3.896
10363SOL     OW31987   4.594   2.343   0.957
10363SOL    HW131988   4.675   2.297   0.921
10363SOL    HW231989   4.532   2.275   0.996
10364SOL     OW31990   3.906   3.652   2.457
10364SOL    HW131991   3.862   3.572   2.416
10364SOL    HW231992   3.984   3.622   2.513
10365SOL     OW31993   4.988   4.383   5.365
10365SOL    HW131994   4.952   4.451   5.302
10365SOL    HW231995   4.961   4.291   5.335
10366SOL     OW31996   4.498   0.236   4.026
10366SOL    HW131997   4.507   0.161   3.960
10366SOL    HW231998   4.548   0.316   3.992
10367SOL     OW31999   6.695   1.595   1.745
10367SOL    HW132000   6.661   1.504   1.767
10367SOL    HW232001   6.663   1.622   1.655
10368SOL     OW32002   2.134   0.517   1.995
10368SOL    HW132003   2.055   0.498   2.054
10368SOL    HW232004   2.135   0.614   1.972
10369SOL     OW32005   4.314   1.274   5.174
10369SOL    HW132006   4.409   1.279   5.142
10369SOL    HW232007   4.275   1.186   5.146
10370SOL     OW32008   5.764   1.522   5.320
10370SOL    HW132009   5.776   1.437   5.370
10370SOL    HW232010   5.672   1.526   5.281
10371SOL     OW32011   1.964   5.657   4.073
10371SOL    HW132012   2.033   5.586   4.078
10371SOL    HW232013   1.907   5.643   3.991
10372SOL     OW32014   1.569   0.995   0.797
10372SOL    HW132015   1.631   0.965   0.724
10372SOL    HW232016   1.483   1.024   0.757
10373SOL     OW32017   1.568   6.853   4.710
10373SOL    HW132018   1.499   6.921   4.685
10373SOL    HW232019   1.540   6.764   4.676
10374SOL     OW32020   3.926   1.296   3.188
10374SOL    HW132021   3.931   1.396   3.183
10374SOL    HW232022   3.980   1.256   3.114
10375SOL     OW32023   2.749   1.586   6.317
10375SOL    HW132024   2.704   1.638   6.389
10375SOL    HW232025   2.726   1.626   6.228
10376SOL     OW32026   1.462   5.781   3.656
10376SOL    HW132027   1.432   5.709   3.593
10376SOL    HW232028   1.445   5.871   3.616
10377SOL     OW32029   6.842   1.213   3.829
10377SOL    HW132030   6.904   1.135   3.820
10377SOL    HW232031   6.820   1.248   3.738
10378SOL     OW32032   6.304   0.312   5.781
10378SOL    HW132033   6.275   0.273   5.694
10378SOL    HW232034   6.225   0.341   5.833
10379SOL     OW32035   3.079   6.550   4.288
10379SOL    HW132036   3.002   6.516   4.343
10379SOL    HW232037   3.115   6.475   4.232
10380SOL     OW32038   0.641   2.206   4.602
10380SOL    HW132039   0.664   2.295   4.563
10380SOL    HW232040   0.725   2.159   4.631
10381SOL     OW32041   4.361   4.063   0.523
10381SOL    HW132042   4.277   4.016   0.499
10381SOL    HW232043   4.433   4.039   0.458
10382SOL     OW32044   2.185   4.841   0.699
10382SOL    HW132045   2.085   4.849   0.691
10382SOL    HW232046   2.219   4.780   0.628
10383SOL     OW32047   6.653   3.792   0.665
10383SOL    HW132048   6.556   3.782   0.689
10383SOL    HW232049   6.709   3.764   0.742
10384SOL     OW32050   0.208   0.177   0.782
10384SOL    HW132051   0.233   0.215   0.871
10384SOL    HW232052   0.173   0.084   0.794
10385SOL     OW32053   3.430   6.834   5.848
10385SOL    HW132054   3.362   6.864   5.915
10385SOL    HW232055   3.506   6.791   5.896
10386SOL     OW32056   6.235   2.003   5.624
10386SOL    HW132057   6.310   2.009   5.690
10386SOL    HW232058   6.186   1.916   5.638
10387SOL     OW32059   4.572   1.784   2.805
10387SOL    HW132060   4.536   1.745   2.890
10387SOL    HW232061   4.664   1.749   2.789
10388SOL     OW32062   2.109   6.109   2.064
10388SOL    HW132063   2.016   6.103   2.098
10388SOL    HW232064   2.160   6.176   2.117
10389SOL     OW32065   0.311   6.694   1.085
10389SOL    HW132066   0.397   6.690   1.136
10389SOL    HW232067   0.307   6.617   1.021
10390SOL     OW32068   1.905   2.459   1.761
10390SOL    HW132069   1.899   2.359   1.768
10390SOL    HW232070   1.991   2.490   1.800
10391SOL     OW32071   0.770   5.475   3.923
10391SOL    HW132072   0.691   5.502   3.978
10391SOL    HW232073   0.749   5.393   3.871
10392SOL     OW32074   0.066   4.139   6.831
10392SOL    HW132075   0.116   4.052   6.834
10392SOL    HW232076   0.132   4.214   6.826
10393SOL     OW32077   2.050   2.357   2.175
10393SOL    HW132078   1.963   2.319   2.143
10393SOL    HW232079   2.124   2.327   2.115
10394SOL     OW32080   2.251   6.100   4.652
10394SOL    HW132081   2.306   6.022   4.620
10394SOL    HW232082   2.236   6.092   4.750
10395SOL     OW32083   6.900   1.034   3.246
10395SOL    HW132084   6.966   0.970   3.208
10395SOL    HW232085   6.946   1.118   3.274
10396SOL     OW32086   2.678   0.418   3.838
10396SOL    HW132087   2.594   0.380   3.877
10396SOL    HW232088   2.707   0.498   3.890
10397SOL     OW32089   3.007   1.820   3.849
10397SOL    HW132090   2.996   1.919   3.851
10397SOL    HW232091   3.057   1.791   3.931
10398SOL     OW32092   5.478   2.205   0.680
10398SOL    HW132093   5.534   2.168   0.606
10398SOL    HW232094   5.384   2.217   0.648
10399SOL     OW32095   4.201   1.983   4.543
10399SOL    HW132096   4.248   1.979   4.632
10399SOL    HW232097   4.104   1.964   4.556
10400SOL     OW32098   3.832   5.793   0.959
10400SOL    HW132099   3.764   5.731   0.920
10400SOL    HW232100   3.912   5.796   0.899
10401SOL     OW32101   0.173   0.100   2.441
10401SOL    HW132102   0.204   0.146   2.524
10401SOL    HW232103   0.219   0.011   2.433
10402SOL     OW32104   0.136   2.503   5.746
10402SOL    HW132105   0.157   2.406   5.737
10402SOL    HW232106   0.039   2.515   5.766
10403SOL     OW32107   5.235   0.819   2.689
10403SOL    HW132108   5.314   0.859   2.735
10403SOL    HW232109   5.155   0.877   2.704
10404SOL     OW32110   0.143   6.775   3.990
10404SOL    HW132111   0.204   6.717   3.936
10404SOL    HW232112   0.188   6.862   4.008
10405SOL     OW32113   1.111   5.736   5.058
10405SOL    HW132114   1.153   5.717   5.147
10405SOL    HW232115   1.041   5.667   5.040
10406SOL     OW32116   2.158   3.276   5.163
10406SOL    HW132117   2.172   3.195   5.220
10406SOL    HW232118   2.212   3.352   5.199
10407SOL     OW32119   2.323   0.691   6.502
10407SOL    HW132120   2.410   0.709   6.455
10407SOL    HW232121   2.292   0.775   6.547
10408SOL     OW32122   3.473   6.233   1.987
10408SOL    HW132123   3.570   6.208   1.980
10408SOL    HW232124   3.450   6.300   1.916
10409SOL     OW32125   0.153   4.010   1.020
10409SOL    HW132126   0.068   3.991   0.971
10409SOL    HW232127   0.199   4.088   0.978
10410SOL     OW32128   5.488   1.931   1.207
10410SOL    HW132129   5.428   1.977   1.142
10410SOL    HW232130   5.434   1.896   1.283
10411SOL     OW32131   4.097   5.587   4.686
10411SOL    HW132132   4.121   5.647   4.609
10411SOL    HW232133   4.165   5.514   4.693
10412SOL     OW32134   0.119   1.011   0.918
10412SOL    HW132135   0.149   0.990   1.012
10412SOL    HW232136   0.090   0.927   0.873
10413SOL     OW32137   6.821   2.451   1.381
10413SOL    HW132138   6.822   2.353   1.362
10413SOL    HW232139   6.737   2.476   1.427
10414SOL     OW32140   4.190   6.285   5.866
10414SOL    HW132141   4.236   6.214   5.812
10414SOL    HW232142   4.169   6.249   5.957
10415SOL     OW32143   2.408   4.388   4.046
10415SOL    HW132144   2.500   4.349   4.039
10415SOL    HW232145   2.342   4.325   4.004
10416SOL     OW32146   6.368   0.434   5.038
10416SOL    HW132147   6.389   0.495   5.114
10416SOL    HW232148   6.310   0.359   5.070
10417SOL     OW32149   4.518   4.476   4.154
10417SOL    HW132150   4.440   4.537   4.170
10417SOL    HW232151   4.517   4.446   4.058
10418SOL     OW32152   6.095   3.979   5.727
10418SOL    HW132153   6.161   4.054   5.725
10418SOL    HW232154   6.017   4.001   5.668
10419SOL     OW32155   3.214   0.300   5.259
10419SOL    HW132156   3.157   0.368   5.213
10419SOL    HW232157   3.309   0.333   5.263
10420SOL     OW32158   6.540   3.501   3.819
10420SOL    HW132159   6.489   3.490   3.904
10420SOL    HW232160   6.505   3.437   3.750
10421SOL     OW32161   1.453   3.317   4.913
10421SOL    HW132162   1.493   3.307   4.822
10421SOL    HW232163   1.460   3.413   4.942
10422SOL     OW32164   6.810   3.446   5.651
10422SOL    HW132165   6.760   3.454   5.737
10422SOL    HW232166   6.902   3.485   5.663
10423SOL     OW32167   4.521   4.853   5.081
10423SOL    HW132168   4.552   4.891   4.993
10423SOL    HW232169   4.499   4.928   5.143
10424SOL     OW32170   4.117   2.702   0.138
10424SOL    HW132171   4.186   2.723   0.207
10424SOL    HW232172   4.075   2.614   0.159
10425SOL     OW32173   0.907   5.867   2.491
10425SOL    HW132174   0.897   5.828   2.399
10425SOL    HW232175   1.001   5.856   2.522
10426SOL     OW32176   5.455   3.797   5.597
10426SOL    HW132177   5.391   3.872   5.578
10426SOL    HW232178   5.427   3.751   5.681
10427SOL     OW32179   4.939   6.813   6.820
10427SOL    HW132180   5.036   6.837   6.825
10427SOL    HW232181   4.923   6.757   6.739
10428SOL     OW32182   2.693   1.798   4.143
10428SOL    HW132183   2.712   1.841   4.231
10428SOL    HW232184   2.677   1.868   4.073
10429SOL     OW32185   0.742   4.145   3.172
10429SOL    HW132186   0.647   4.119   3.158
10429SOL    HW232187   0.801   4.090   3.112
10430SOL     OW32188   3.809   6.402   4.608
10430SOL    HW132189   3.899   6.362   4.593
10430SOL    HW232190   3.761   6.350   4.678
10431SOL     OW32191   3.070   0.727   4.305
10431SOL    HW132192   3.001   0.727   4.377
10431SOL    HW232193   3.024   0.728   4.215
10432SOL     OW32194   0.509   1.905   5.829
10432SOL    HW132195   0.599   1.928   5.794
10432SOL    HW232196   0.509   1.811   5.863
10433SOL     OW32197   0.046   6.136   2.723
10433SOL    HW132198   6.996   6.121   2.650
10433SOL    HW232199   0.066   6.048   2.768
10434SOL     OW32200   4.249   6.386   4.803
10434SOL    HW132201   4.218   6.426   4.716
10434SOL    HW232202   4.171   6.348   4.851
10435SOL     OW32203   2.074   1.943   6.612
10435SOL    HW132204   1.986   1.977   6.578
10435SOL    HW232205   2.144   1.955   6.541
10436SOL     OW32206   6.118   4.016   4.112
10436SOL    HW132207   6.210   4.050   4.131
10436SOL    HW232208   6.106   4.007   4.013
10437SOL     OW32209   6.103   4.850   4.976
10437SOL    HW132210   6.124   4.943   5.006
10437SOL    HW232211   6.004   4.837   4.974
10438SOL     OW32212   0.630   5.992   5.895
10438SOL    HW132213   0.561   5.920   5.887
10438SOL    HW232214   0.597   6.062   5.959
10439SOL     OW32215   5.567   0.942   4.792
10439SOL    HW132216   5.550   1.002   4.714
10439SOL    HW232217   5.650   0.972   4.839
10440SOL     OW32218   0.162   6.708   6.688
10440SOL    HW132219   0.109   6.729   6.605
10440SOL    HW232220   0.225   6.783   6.706
10441SOL     OW32221   2.997   1.254   1.189
10441SOL    HW132222   2.915   1.274   1.241
10441SOL    HW232223   3.059   1.197   1.243
10442SOL     OW32224   4.052   6.855   5.249
10442SOL    HW132225   4.105   6.891   5.172
10442SOL    HW232226   3.964   6.902   5.253
10443SOL     OW32227   6.113   2.702   3.187
10443SOL    HW132228   6.045   2.750   3.132
10443SOL    HW232229   6.173   2.769   3.230
10444SOL     OW32230   3.730   5.528   2.226
10444SOL    HW132231   3.827   5.512   2.205
10444SOL    HW232232   3.684   5.440   2.238
10445SOL     OW32233   0.607   3.764   2.571
10445SOL    HW132234   0.515   3.748   2.606
10445SOL    HW232235   0.675   3.732   2.638
10446SOL     OW32236   1.979   3.695   6.487
10446SOL    HW132237   1.954   3.784   6.449
10446SOL    HW232238   2.075   3.695   6.512
10447SOL     OW32239   6.897   0.831   2.503
10447SOL    HW132240   6.984   0.853   2.459
10447SOL    HW232241   6.886   0.887   2.585
10448SOL     OW32242   3.347   0.581   2.499
10448SOL    HW132243   3.388   0.660   2.545
10448SOL    HW232244   3.333   0.507   2.566
10449SOL     OW32245   2.618   5.659   6.715
10449SOL    HW132246   2.604   5.669   6.617
10449SOL    HW232247   2.576   5.737   6.763
10450SOL     OW32248   6.862   1.652   6.694
10450SOL    HW132249   6.885   1.638   6.791
10450SOL    HW232250   6.784   1.594   6.670
10451SOL     OW32251   3.169   7.001   3.023
10451SOL    HW132252   3.181   0.032   3.110
10451SOL    HW232253   3.152   6.904   3.039
10452SOL     OW32254   6.861   3.173   3.013
10452SOL    HW132255   6.826   3.210   3.099
10452SOL    HW232256   6.820   3.084   2.996
10453SOL     OW32257   4.791   6.449   1.462
10453SOL    HW132258   4.797   6.442   1.363
10453SOL    HW232259   4.720   6.387   1.496
10454SOL     OW32260   4.941   1.620   0.528
10454SOL    HW132261   5.036   1.593   0.544
10454SOL    HW232262   4.939   1.702   0.471
10455SOL     OW32263   0.226   6.071   3.735
10455SOL    HW132264   0.136   6.040   3.705
10455SOL    HW232265   0.225   6.169   3.751
10456SOL     OW32266   0.722   5.806   0.817
10456SOL    HW132267   0.741   5.902   0.797
10456SOL    HW232268   0.765   5.749   0.748
10457SOL     OW32269   4.224   2.982   0.512
10457SOL    HW132270   4.315   2.965   0.551
10457SOL    HW232271   4.189   2.898   0.472
10458SOL     OW32272   6.369   0.109   6.859
10458SOL    HW132273   6.315   0.106   6.775
10458SOL    HW232274   6.458   0.065   6.843
10459SOL     OW32275   4.217   5.498   1.530
10459SOL    HW132276   4.221   5.442   1.447
10459SOL    HW232277   4.127   5.540   1.537
10460SOL     OW32278   1.391   3.984   2.138
10460SOL    HW132279   1.418   3.906   2.083
10460SOL    HW232280   1.356   3.953   2.227
10461SOL     OW32281   5.893   4.670   5.246
10461SOL    HW132282   5.909   4.636   5.153
10461SOL    HW232283   5.944   4.754   5.260
10462SOL     OW32284   5.866   2.370   3.071
10462SOL    HW132285   5.871   2.423   3.155
10462SOL    HW232286   5.775   2.379   3.031
10463SOL     OW32287   4.020   1.892   5.837
10463SOL    HW132288   3.954   1.904   5.912
10463SOL    HW232289   4.025   1.794   5.814
10464SOL     OW32290   5.804   6.337   1.945
10464SOL    HW132291   5.734   6.403   1.973
10464SOL    HW232292   5.895   6.375   1.963
10465SOL     OW32293   4.745   5.735   1.387
10465SOL    HW132294   4.721   5.693   1.475
10465SOL    HW232295   4.701   5.824   1.379
10466SOL     OW32296   4.986   4.927   5.331
10466SOL    HW132297   5.032   4.865   5.267
10466SOL    HW232298   5.024   5.019   5.321
10467SOL     OW32299   1.484   2.478   0.628
10467SOL    HW132300   1.393   2.464   0.590
10467SOL    HW232301   1.495   2.423   0.711
10468SOL     OW32302   4.053   4.837   3.560
10468SOL    HW132303   4.009   4.809   3.475
10468SOL    HW232304   4.116   4.766   3.591
10469SOL     OW32305   4.511   4.196   6.031
10469SOL    HW132306   4.571   4.269   6.063
10469SOL    HW232307   4.506   4.200   5.931
10470SOL     OW32308   2.126   1.391   3.393
10470SOL    HW132309   2.125   1.305   3.342
10470SOL    HW232310   2.192   1.386   3.467
10471SOL     OW32311   2.385   0.027   0.576
10471SOL    HW132312   2.447   6.993   0.516
10471SOL    HW232313   2.309   0.063   0.523
10472SOL     OW32314   3.291   5.641   0.493
10472SOL    HW132315   3.295   5.672   0.588
10472SOL    HW232316   3.195   5.628   0.466
10473SOL     OW32317   6.469   6.538   6.001
10473SOL    HW132318   6.392   6.602   6.001
10473SOL    HW232319   6.509   6.534   5.909
10474SOL     OW32320   4.103   0.969   4.136
10474SOL    HW132321   4.043   1.010   4.068
10474SOL    HW232322   4.151   0.892   4.095
10475SOL     OW32323   3.435   6.774   1.683
10475SOL    HW132324   3.442   6.700   1.617
10475SOL    HW232325   3.345   6.773   1.726
10476SOL     OW32326   5.570   6.617   5.900
10476SOL    HW132327   5.524   6.543   5.949
10476SOL    HW232328   5.605   6.684   5.966
10477SOL     OW32329   6.871   1.046   5.072
10477SOL    HW132330   6.920   1.102   5.005
10477SOL    HW232331   6.851   0.957   5.032
10478SOL     OW32332   6.711   6.765   6.850
10478SOL    HW132333   6.776   6.706   6.801
10478SOL    HW232334   6.754   6.800   6.933
10479SOL     OW32335   6.847   1.841   2.030
10479SOL    HW132336   6.895   1.786   1.962
10479SOL    HW232337   6.760   1.796   2.054
10480SOL     OW32338   0.931   1.060   2.172
10480SOL    HW132339   0.871   1.140   2.171
10480SOL    HW232340   0.929   1.017   2.262
10481SOL     OW32341   2.147   6.248   3.711
10481SOL    HW132342   2.185   6.255   3.803
10481SOL    HW232343   2.052   6.218   3.716
10482SOL     OW32344   6.267   5.333   4.599
10482SOL    HW132345   6.349   5.308   4.546
10482SOL    HW232346   6.267   5.432   4.615
10483SOL     OW32347   5.500   5.269   0.733
10483SOL    HW132348   5.534   5.308   0.647
10483SOL    HW232349   5.402   5.287   0.741
10484SOL     OW32350   5.577   1.461   2.039
10484SOL    HW132351   5.626   1.374   2.029
10484SOL    HW232352   5.642   1.536   2.033
10485SOL     OW32353   3.348   4.243   0.084
10485SOL    HW132354   3.270   4.189   0.115
10485SOL    HW232355   3.319   4.308   0.015
10486SOL     OW32356   0.369   0.501   0.723
10486SOL    HW132357   0.329   0.534   0.808
10486SOL    HW232358   0.441   0.435   0.743
10487SOL     OW32359   4.941   0.401   1.914
10487SOL    HW132360   4.845   0.411   1.889
10487SOL    HW232361   4.996   0.470   1.866
10488SOL     OW32362   3.424   1.617   5.405
10488SOL    HW132363   3.475   1.659   5.330
10488SOL    HW232364   3.474   1.629   5.490
10489SOL     OW32365   0.713   6.802   5.321
10489SOL    HW132366   0.721   6.897   5.290
10489SOL    HW232367   0.718   6.799   5.420
10490SOL     OW32368   5.846   1.948   0.749
10490SOL    HW132369   5.854   1.863   0.698
10490SOL    HW232370   5.895   2.021   0.702
10491SOL     OW32371   1.796   2.847   0.236
10491SOL    HW132372   1.712   2.822   0.284
10491SOL    HW232373   1.821   2.774   0.173
10492SOL     OW32374   5.897   4.153   5.574
10492SOL    HW132375   5.952   4.230   5.606
10492SOL    HW232376   5.802   4.166   5.599
10493SOL     OW32377   3.572   0.796   1.882
10493SOL    HW132378   3.605   0.879   1.927
10493SOL    HW232379   3.646   0.729   1.877
10494SOL     OW32380   5.741   4.030   5.837
10494SOL    HW132381   5.712   3.996   5.748
10494SOL    HW232382   5.831   3.993   5.859
10495SOL     OW32383   2.492   6.893   6.950
10495SOL    HW132384   2.511   6.940   6.865
10495SOL    HW232385   2.575   6.888   7.006
10496SOL     OW32386   0.100   4.646   6.475
10496SOL    HW132387   0.033   4.613   6.542
10496SOL    HW232388   0.128   4.739   6.499
10497SOL     OW32389   2.231   6.845   2.165
10497SOL    HW132390   2.282   6.912   2.219
10497SOL    HW232391   2.230   6.873   2.069
10498SOL     OW32392   3.114   5.634   1.336
10498SOL    HW132393   3.198   5.689   1.335
10498SOL    HW232394   3.125   5.558   1.401
10499SOL     OW32395   3.429   6.691   2.683
10499SOL    HW132396   3.433   6.623   2.609
10499SOL    HW232397   3.337   6.732   2.686
10500SOL     OW32398   6.962   1.570   6.133
10500SOL    HW132399   0.020   1.608   6.189
10500SOL    HW232400   6.953   1.624   6.050
10501SOL     OW32401   2.148   5.885   2.953
10501SOL    HW132402   2.143   5.809   3.018
10501SOL    HW232403   2.130   5.851   2.861
10502SOL     OW32404   2.691   0.344   0.889
10502SOL    HW132405   2.605   0.304   0.923
10502SOL    HW232406   2.735   0.279   0.827
10503SOL     OW32407   4.442   2.899   0.663
10503SOL    HW132408   4.393   2.833   0.720
10503SOL    HW232409   4.502   2.850   0.599
10504SOL     OW32410   1.495   1.560   6.753
10504SOL    HW132411   1.434   1.481   6.760
10504SOL    HW232412   1.587   1.530   6.731
10505SOL     OW32413   5.359   6.148   0.368
10505SOL    HW132414   5.364   6.071   0.431
10505SOL    HW232415   5.360   6.114   0.274
10506SOL     OW32416   0.186   5.065   0.334
10506SOL    HW132417   0.273   5.070   0.284
10506SOL    HW232418   0.184   5.136   0.404
10507SOL     OW32419   2.036   0.328   0.164
10507SOL    HW132420   2.013   0.414   0.210
10507SOL    HW232421   1.962   0.303   0.103
10508SOL     OW32422   6.356   6.679   4.698
10508SOL    HW132423   6.381   6.672   4.795
10508SOL    HW232424   6.439   6.670   4.642
10509SOL     OW32425   0.843   5.804   4.249
10509SOL    HW132426   0.938   5.833   4.260
10509SOL    HW232427   0.840   5.725   4.188
10510SOL     OW32428   4.648   6.073   6.184
10510SOL    HW132429   4.623   6.047   6.090
10510SOL    HW232430   4.690   5.994   6.229
10511SOL     OW32431   4.122   1.403   1.912
10511SOL    HW132432   4.205   1.359   1.944
10511SOL    HW232433   4.117   1.397   1.812
10512SOL     OW32434   4.033   0.405   5.760
10512SOL    HW132435   3.982   0.333   5.713
10512SOL    HW232436   4.020   0.492   5.712
10513SOL     OW32437   6.203   2.677   4.439
10513SOL    HW132438   6.128   2.697   4.376
10513SOL    HW232439   6.277   2.742   4.424
10514SOL     OW32440   6.721   3.896   0.415
10514SOL    HW132441   6.691   3.879   0.509
10514SOL    HW232442   6.808   3.851   0.399
10515SOL     OW32443   0.708   3.485   2.927
10515SOL    HW132444   0.722   3.526   3.017
10515SOL    HW232445   0.624   3.432   2.927
10516SOL     OW32446   3.905   0.985   0.602
10516SOL    HW132447   3.868   1.019   0.516
10516SOL    HW232448   3.857   0.901   0.629
10517SOL     OW32449   0.693   2.638   2.366
10517SOL    HW132450   0.614   2.578   2.379
10517SOL    HW232451   0.770   2.605   2.420
10518SOL     OW32452   0.730   5.471   6.450
10518SOL    HW132453   0.720   5.400   6.380
10518SOL    HW232454   0.737   5.561   6.406
10519SOL     OW32455   2.259   3.125   6.761
10519SOL    HW132456   2.256   3.071   6.677
10519SOL    HW232457   2.343   3.180   6.762
10520SOL     OW32458   0.937   2.867   6.690
10520SOL    HW132459   0.839   2.888   6.689
10520SOL    HW232460   0.972   2.867   6.597
10521SOL     OW32461   6.105   6.270   2.067
10521SOL    HW132462   6.123   6.262   2.165
10521SOL    HW232463   6.156   6.347   2.029
10522SOL     OW32464   6.949   0.623   5.891
10522SOL    HW132465   6.960   0.713   5.849
10522SOL    HW232466   6.976   0.628   5.987
10523SOL     OW32467   0.100   4.960   3.821
10523SOL    HW132468   0.038   5.037   3.807
10523SOL    HW232469   0.075   4.886   3.758
10524SOL     OW32470   1.791   0.681   4.689
10524SOL    HW132471   1.837   0.750   4.745
10524SOL    HW232472   1.716   0.640   4.741
10525SOL     OW32473   3.644   6.468   6.307
10525SOL    HW132474   3.686   6.427   6.226
10525SOL    HW232475   3.658   6.408   6.386
10526SOL     OW32476   1.019   6.652   3.759
10526SOL    HW132477   1.043   6.617   3.669
10526SOL    HW232478   0.920   6.665   3.764
10527SOL     OW32479   6.647   1.415   5.061
10527SOL    HW132480   6.617   1.466   4.980
10527SOL    HW232481   6.732   1.455   5.095
10528SOL     OW32482   1.899   3.620   6.059
10528SOL    HW132483   1.843   3.687   6.108
10528SOL    HW232484   1.961   3.668   5.996
10529SOL     OW32485   2.460   5.773   3.972
10529SOL    HW132486   2.411   5.841   4.027
10529SOL    HW232487   2.406   5.750   3.892
10530SOL     OW32488   2.235   0.250   6.438
10530SOL    HW132489   2.302   0.282   6.505
10530SOL    HW232490   2.282   0.202   6.364
10531SOL     OW32491   1.331   2.919   3.858
10531SOL    HW132492   1.330   2.989   3.928
10531SOL    HW232493   1.385   2.950   3.780
10532SOL     OW32494   1.289   5.021   5.677
10532SOL    HW132495   1.221   5.053   5.611
10532SOL    HW232496   1.356   4.963   5.631
10533SOL     OW32497   2.650   1.311   4.819
10533SOL    HW132498   2.611   1.353   4.901
10533SOL    HW232499   2.747   1.337   4.811
10534SOL     OW32500   6.174   5.846   1.389
10534SOL    HW132501   6.132   5.758   1.366
10534SOL    HW232502   6.211   5.842   1.482
10535SOL     OW32503   0.804   2.238   0.925
10535SOL    HW132504   0.723   2.212   0.977
10535SOL    HW232505   0.886   2.214   0.977
10536SOL     OW32506   3.852   0.475   2.969
10536SOL    HW132507   3.753   0.463   2.959
10536SOL    HW232508   3.875   0.572   2.963
10537SOL     OW32509   4.189   5.131   4.310
10537SOL    HW132510   4.100   5.156   4.271
10537SOL    HW232511   4.260   5.147   4.242
10538SOL     OW32512   4.832   1.910   0.434
10538SOL    HW132513   4.796   1.948   0.519
10538SOL    HW232514   4.769   1.840   0.400
10539SOL     OW32515   0.413   3.992   0.556
10539SOL    HW132516   0.492   3.952   0.510
10539SOL    HW232517   0.432   4.087   0.579
10540SOL     OW32518   1.631   2.722   4.937
10540SOL    HW132519   1.631   2.821   4.920
10540SOL    HW232520   1.692   2.701   5.013
10541SOL     OW32521   3.731   4.052   2.441
10541SOL    HW132522   3.647   4.027   2.491
10541SOL    HW232523   3.760   4.144   2.469
10542SOL     OW32524   6.852   0.512   5.480
10542SOL    HW132525   6.832   0.424   5.439
10542SOL    HW232526   6.795   0.524   5.562
10543SOL     OW32527   0.549   0.957   5.164
10543SOL    HW132528   0.617   0.930   5.232
10543SOL    HW232529   0.593   0.970   5.076
10544SOL     OW32530   2.124   6.503   2.061
10544SOL    HW132531   2.162   6.495   1.969
10544SOL    HW232532   2.035   6.548   2.057
10545SOL     OW32533   5.995   1.332   2.557
10545SOL    HW132534   6.051   1.261   2.598
10545SOL    HW232535   5.932   1.291   2.491
10546SOL     OW32536   2.066   0.863   7.011
10546SOL    HW132537   1.973   0.877   6.978
10546SOL    HW232538   2.072   0.775   0.042
10547SOL     OW32539   6.085   2.915   2.275
10547SOL    HW132540   6.147   2.966   2.216
10547SOL    HW232541   6.014   2.873   2.219
10548SOL     OW32542   5.413   4.467   4.583
10548SOL    HW132543   5.373   4.376   4.566
10548SOL    HW232544   5.353   4.518   4.645
10549SOL     OW32545   7.011   6.807   1.993
10549SOL    HW132546   6.958   6.856   2.062
10549SOL    HW232547   0.067   6.868   1.957
10550SOL     OW32548   4.263   5.867   4.032
10550SOL    HW132549   4.176   5.886   3.986
10550SOL    HW232550   4.245   5.815   4.116
10551SOL     OW32551   1.420   2.690   6.284
10551SOL    HW132552   1.455   2.597   6.278
10551SOL    HW232553   1.366   2.700   6.368
10552SOL     OW32554   3.300   1.594   6.574
10552SOL    HW132555   3.375   1.584   6.509
10552SOL    HW232556   3.213   1.588   6.526
10553SOL     OW32557   0.700   5.002   1.564
10553SOL    HW132558   0.618   5.055   1.541
10553SOL    HW232559   0.692   4.910   1.525
10554SOL     OW32560   5.511   5.211   0.164
10554SOL    HW132561   5.549   5.119   0.176
10554SOL    HW232562   5.414   5.210   0.187
10555SOL     OW32563   1.873   3.426   0.562
10555SOL    HW132564   1.850   3.438   0.658
10555SOL    HW232565   1.972   3.415   0.552
10556SOL     OW32566   2.197   1.945   5.523
10556SOL    HW132567   2.210   2.041   5.499
10556SOL    HW232568   2.272   1.914   5.581
10557SOL     OW32569   2.408   2.719   2.973
10557SOL    HW132570   2.362   2.690   2.890
10557SOL    HW232571   2.363   2.801   3.009
10558SOL     OW32572   3.886   1.027   3.923
10558SOL    HW132573   3.848   0.957   3.984
10558SOL    HW232574   3.835   1.112   3.935
10559SOL     OW32575   5.041   0.444   1.074
10559SOL    HW132576   5.136   0.415   1.086
10559SOL    HW232577   5.026   0.470   0.978
10560SOL     OW32578   3.576   6.035   3.341
10560SOL    HW132579   3.640   6.000   3.409
10560SOL    HW232580   3.512   6.098   3.386
10561SOL     OW32581   3.336   4.168   0.443
10561SOL    HW132582   3.329   4.266   0.428
10561SOL    HW232583   3.329   4.149   0.541
10562SOL     OW32584   4.692   5.626   0.376
10562SOL    HW132585   4.593   5.618   0.365
10562SOL    HW232586   4.719   5.721   0.363
10563SOL     OW32587   0.752   1.355   3.642
10563SOL    HW132588   0.717   1.261   3.645
10563SOL    HW232589   0.766   1.383   3.547
10564SOL     OW32590   5.524   6.395   1.725
10564SOL    HW132591   5.605   6.452   1.709
10564SOL    HW232592   5.466   6.397   1.644
10565SOL     OW32593   0.076   0.665   6.113
10565SOL    HW132594   0.157   0.718   6.088
10565SOL    HW232595   0.100   0.598   6.183
10566SOL     OW32596   3.793   2.537   0.073
10566SOL    HW132597   3.830   2.591   7.013
10566SOL    HW232598   3.867   2.493   0.122
10567SOL     OW32599   3.305   2.082   4.317
10567SOL    HW132600   3.291   2.123   4.227
10567SOL    HW232601   3.262   2.138   4.387
10568SOL     OW32602   6.205   2.035   1.459
10568SOL    HW132603   6.207   1.987   1.371
10568SOL    HW232604   6.270   2.111   1.457
10569SOL     OW32605   5.495   2.014   1.985
10569SOL    HW132606   5.538   2.073   2.053
10569SOL    HW232607   5.478   1.924   2.024
10570SOL     OW32608   1.776   4.928   3.226
10570SOL    HW132609   1.728   5.002   3.178
10570SOL    HW232610   1.760   4.842   3.178
10571SOL     OW32611   6.858   5.151   5.491
10571SOL    HW132612   6.919   5.101   5.431
10571SOL    HW232613   6.809   5.221   5.438
10572SOL     OW32614   6.965   3.674   3.734
10572SOL    HW132615   6.918   3.611   3.796
10572SOL    HW232616   6.911   3.758   3.725
10573SOL     OW32617   4.387   0.082   5.292
10573SOL    HW132618   4.446   0.022   5.238
10573SOL    HW232619   4.344   0.029   5.366
10574SOL     OW32620   1.316   1.035   3.596
10574SOL    HW132621   1.244   1.009   3.659
10574SOL    HW232622   1.403   1.044   3.645
10575SOL     OW32623   6.418   1.516   3.216
10575SOL    HW132624   6.397   1.533   3.312
10575SOL    HW232625   6.334   1.502   3.164
10576SOL     OW32626   0.073   6.220   5.044
10576SOL    HW132627   0.014   6.169   5.108
10576SOL    HW232628   0.084   6.313   5.077
10577SOL     OW32629   1.801   2.957   0.604
10577SOL    HW132630   1.708   2.947   0.639
10577SOL    HW232631   1.801   3.019   0.526
10578SOL     OW32632   5.454   0.906   2.808
10578SOL    HW132633   5.484   1.000   2.822
10578SOL    HW232634   5.533   0.850   2.779
10579SOL     OW32635   4.231   2.062   0.999
10579SOL    HW132636   4.172   2.138   0.971
10579SOL    HW232637   4.206   2.032   1.091
10580SOL     OW32638   6.979   0.433   0.245
10580SOL    HW132639   0.001   0.526   0.238
10580SOL    HW232640   6.889   0.431   0.202
10581SOL     OW32641   6.986   7.007   3.323
10581SOL    HW132642   6.909   6.970   3.271
10581SOL    HW232643   6.982   0.091   3.321
10582SOL     OW32644   5.315   4.952   6.630
10582SOL    HW132645   5.414   4.945   6.643
10582SOL    HW232646   5.290   5.048   6.617
10583SOL     OW32647   4.246   1.518   5.266
10583SOL    HW132648   4.264   1.420   5.261
10583SOL    HW232649   4.184   1.536   5.342
10584SOL     OW32650   6.978   6.420   1.341
10584SOL    HW132651   6.990   6.516   1.317
10584SOL    HW232652   0.006   6.403   1.429
10585SOL     OW32653   2.367   2.795   6.228
10585SOL    HW132654   2.286   2.822   6.280
10585SOL    HW232655   2.443   2.857   6.251
10586SOL     OW32656   0.144   4.584   4.888
10586SOL    HW132657   0.141   4.650   4.812
10586SOL    HW232658   0.141   4.491   4.851
10587SOL     OW32659   6.115   3.645   6.983
10587SOL    HW132660   6.201   3.657   0.018
10587SOL    HW232661   6.050   3.715   7.011
10588SOL     OW32662   0.284   3.661   3.384
10588SOL    HW132663   0.294   3.682   3.287
10588SOL    HW232664   0.189   3.637   3.404
10589SOL     OW32665   6.092   1.032   4.319
10589SOL    HW132666   6.026   1.011   4.247
10589SOL    HW232667   6.061   0.992   4.405
10590SOL     OW32668   1.257   0.049   1.602
10590SOL    HW132669   1.217   0.031   1.692
10590SOL    HW232670   1.185   0.060   1.535
10591SOL     OW32671   1.267   1.530   6.430
10591SOL    HW132672   1.215   1.528   6.516
10591SOL    HW232673   1.332   1.605   6.433
10592SOL     OW32674   5.672   3.563   1.468
10592SOL    HW132675   5.661   3.604   1.558
10592SOL    HW232676   5.766   3.575   1.437
10593SOL     OW32677   2.460   5.074   0.391
10593SOL    HW132678   2.514   5.089   0.308
10593SOL    HW232679   2.499   5.128   0.466
10594SOL     OW32680   4.892   0.019   2.249
10594SOL    HW132681   4.981   0.009   2.293
10594SOL    HW232682   4.898   7.008   2.153
10595SOL     OW32683   3.571   6.859   5.502
10595SOL    HW132684   3.522   6.776   5.528
10595SOL    HW232685   3.669   6.843   5.509
10596SOL     OW32686   4.295   0.640   6.971
10596SOL    HW132687   4.327   0.562   0.008
10596SOL    HW232688   4.214   0.680   7.015
10597SOL     OW32689   3.846   1.340   5.134
10597SOL    HW132690   3.885   1.251   5.159
10597SOL    HW232691   3.874   1.364   5.041
10598SOL     OW32692   2.999   2.608   0.328
10598SOL    HW132693   3.006   2.615   0.229
10598SOL    HW232694   3.069   2.544   0.362
10599SOL     OW32695   4.933   2.492   6.406
10599SOL    HW132696   5.030   2.499   6.385
10599SOL    HW232697   4.909   2.554   6.480
10600SOL     OW32698   2.060   2.519   0.634
10600SOL    HW132699   2.031   2.612   0.613
10600SOL    HW232700   2.128   2.522   0.708
10601SOL     OW32701   1.644   4.629   6.059
10601SOL    HW132702   1.730   4.580   6.073
10601SOL    HW232703   1.613   4.667   6.146
10602SOL     OW32704   3.862   1.663   3.334
10602SOL    HW132705   3.917   1.744   3.355
10602SOL    HW232706   3.885   1.629   3.244
10603SOL     OW32707   3.174   5.869   3.879
10603SOL    HW132708   3.091   5.825   3.846
10603SOL    HW232709   3.218   5.811   3.947
10604SOL     OW32710   6.173   4.486   5.401
10604SOL    HW132711   6.158   4.583   5.422
10604SOL    HW232712   6.085   4.438   5.399
10605SOL     OW32713   2.196   5.625   0.955
10605SOL    HW132714   2.118   5.565   0.938
10605SOL    HW232715   2.193   5.659   1.049
10606SOL     OW32716   6.915   0.709   2.069
10606SOL    HW132717   6.996   0.701   2.011
10606SOL    HW232718   6.941   0.754   2.155
10607SOL     OW32719   4.156   4.671   6.127
10607SOL    HW132720   4.247   4.656   6.086
10607SOL    HW232721   4.151   4.764   6.163
10608SOL     OW32722   5.058   2.098   5.438
10608SOL    HW132723   5.062   2.187   5.483
10608SOL    HW232724   5.098   2.104   5.346
10609SOL     OW32725   3.118   6.599   1.093
10609SOL    HW132726   3.081   6.597   1.186
10609SOL    HW232727   3.058   6.652   1.034
10610SOL     OW32728   1.344   2.916   5.739
10610SOL    HW132729   1.355   2.970   5.656
10610SOL    HW232730   1.374   2.970   5.818
10611SOL     OW32731   4.136   3.728   5.741
10611SOL    HW132732   4.168   3.643   5.700
10611SOL    HW232733   4.068   3.770   5.681
10612SOL     OW32734   2.719   0.921   5.388
10612SOL    HW132735   2.769   0.904   5.303
10612SOL    HW232736   2.703   0.834   5.435
10613SOL     OW32737   6.180   6.948   5.381
10613SOL    HW132738   6.265   6.998   5.368
10613SOL    HW232739   6.193   6.852   5.355
10614SOL     OW32740   6.216   1.901   4.322
10614SOL    HW132741   6.227   1.953   4.238
10614SOL    HW232742   6.217   1.964   4.400
10615SOL     OW32743   3.177   6.549   5.882
10615SOL    HW132744   3.262   6.557   5.934
10615SOL    HW232745   3.164   6.455   5.853
10616SOL     OW32746   2.710   6.277   0.640
10616SOL    HW132747   2.686   6.235   0.728
10616SOL    HW232748   2.628   6.287   0.584
10617SOL     OW32749   2.568   2.324   1.257
10617SOL    HW132750   2.585   2.309   1.354
10617SOL    HW232751   2.641   2.381   1.218
10618SOL     OW32752   6.919   3.793   6.516
10618SOL    HW132753   6.953   3.821   6.426
10618SOL    HW232754   6.958   3.704   6.540
10619SOL     OW32755   0.064   4.246   2.315
10619SOL    HW132756   0.053   4.312   2.242
10619SOL    HW232757   7.009   4.260   2.384
10620SOL     OW32758   1.495   5.306   5.373
10620SOL    HW132759   1.536   5.320   5.282
10620SOL    HW232760   1.433   5.381   5.393
10621SOL     OW32761   1.498   6.185   1.806
10621SOL    HW132762   1.557   6.231   1.740
10621SOL    HW232763   1.447   6.253   1.859
10622SOL     OW32764   4.996   1.010   0.975
10622SOL    HW132765   4.908   1.057   0.969
10622SOL    HW232766   5.009   0.975   1.068
10623SOL     OW32767   0.081   4.358   4.732
10623SOL    HW132768   0.027   4.407   4.664
10623SOL    HW232769   0.032   4.276   4.761
10624SOL     OW32770   0.551   1.715   4.982
10624SOL    HW132771   0.618   1.767   5.035
10624SOL    HW232772   0.509   1.774   4.913
10625SOL     OW32773   0.534   4.191   0.017
10625SOL    HW132774   0.445   4.233   0.039
10625SOL    HW232775   0.535   4.165   6.937
10626SOL     OW32776   2.307   3.200   0.911
10626SOL    HW132777   2.224   3.193   0.966
10626SOL    HW232778   2.306   3.131   0.838
10627SOL     OW32779   5.693   6.435   0.716
10627SOL    HW132780   5.772   6.457   0.658
10627SOL    HW232781   5.636   6.516   0.727
10628SOL     OW32782   4.434   5.758   0.264
10628SOL    HW132783   4.456   5.818   0.187
10628SOL    HW232784   4.350   5.708   0.244
10629SOL     OW32785   2.785   4.854   5.066
10629SOL    HW132786   2.814   4.758   5.064
10629SOL    HW232787   2.687   4.859   5.084
10630SOL     OW32788   6.545   1.515   4.015
10630SOL    HW132789   6.501   1.426   4.002
10630SOL    HW232790   6.600   1.513   4.099
10631SOL     OW32791   2.542   5.314   4.673
10631SOL    HW132792   2.529   5.240   4.608
10631SOL    HW232793   2.479   5.302   4.750
10632SOL     OW32794   6.149   1.871   3.930
10632SOL    HW132795   6.102   1.920   4.004
10632SOL    HW232796   6.227   1.820   3.968
10633SOL     OW32797   2.742   3.710   1.740
10633SOL    HW132798   2.787   3.665   1.818
10633SOL    HW232799   2.664   3.655   1.711
10634SOL     OW32800   2.859   5.347   1.035
10634SOL    HW132801   2.910   5.433   1.034
10634SOL    HW232802   2.768   5.362   1.072
10635SOL     OW32803   3.637   1.342   1.284
10635SOL    HW132804   3.558   1.285   1.306
10635SOL    HW232805   3.648   1.347   1.184
10636SOL     OW32806   0.907   1.318   1.674
10636SOL    HW132807   0.875   1.395   1.619
10636SOL    HW232808   1.003   1.300   1.653
10637SOL     OW32809   2.661   4.758   5.712
10637SOL    HW132810   2.685   4.748   5.809
10637SOL    HW232811   2.715   4.694   5.658
10638SOL     OW32812   0.001   5.292   3.023
10638SOL    HW132813   6.928   5.302   2.979
10638SOL    HW232814   0.065   5.248   2.959
10639SOL     OW32815   0.960   3.397   2.683
10639SOL    HW132816   0.932   3.454   2.605
10639SOL    HW232817   0.882   3.383   2.744
10640SOL     OW32818   3.503   0.292   5.719
10640SOL    HW132819   3.445   0.220   5.756
10640SOL    HW232820   3.549   0.340   5.793
10641SOL     OW32821   3.738   2.286   0.064
10641SOL    HW132822   3.803   2.285   7.003
10641SOL    HW232823   3.735   2.378   0.103
10642SOL     OW32824   6.616   3.163   1.808
10642SOL    HW132825   6.702   3.216   1.809
10642SOL    HW232826   6.620   3.094   1.880
10643SOL     OW32827   2.424   5.279   5.388
10643SOL    HW132828   2.520   5.259   5.405
10643SOL    HW232829   2.370   5.252   5.467
10644SOL     OW32830   5.445   2.519   3.401
10644SOL    HW132831   5.475   2.562   3.486
10644SOL    HW232832   5.447   2.586   3.327
10645SOL     OW32833   1.146   1.600   5.196
10645SOL    HW132834   1.059   1.612   5.147
10645SOL    HW232835   1.135   1.531   5.267
10646SOL     OW32836   0.086   1.153   6.251
10646SOL    HW132837   0.041   1.066   6.268
10646SOL    HW232838   0.026   1.228   6.280
10647SOL     OW32839   3.251   5.497   6.813
10647SOL    HW132840   3.265   5.402   6.842
10647SOL    HW232841   3.289   5.509   6.721
10648SOL     OW32842   5.228   4.246   5.995
10648SOL    HW132843   5.312   4.282   5.956
10648SOL    HW232844   5.151   4.269   5.937
10649SOL     OW32845   0.554   4.187   3.554
10649SOL    HW132846   0.523   4.253   3.623
10649SOL    HW232847   0.523   4.217   3.463
10650SOL     OW32848   1.238   5.996   3.342
10650SOL    HW132849   1.153   5.987   3.289
10650SOL    HW232850   1.218   5.980   3.439
10651SOL     OW32851   4.758   6.996   5.964
10651SOL    HW132852   4.739   0.072   5.929
10651SOL    HW232853   4.830   6.954   5.909
10652SOL     OW32854   3.768   6.815   6.232
10652SOL    HW132855   3.843   6.879   6.245
10652SOL    HW232856   3.798   6.722   6.252
10653SOL     OW32857   5.554   3.683   4.143
10653SOL    HW132858   5.587   3.768   4.101
10653SOL    HW232859   5.572   3.687   4.242
10654SOL     OW32860   4.147   1.294   0.638
10654SOL    HW132861   4.076   1.269   0.704
10654SOL    HW232862   4.157   1.221   0.571
10655SOL     OW32863   2.754   5.613   1.372
10655SOL    HW132864   2.849   5.609   1.341
10655SOL    HW232865   2.712   5.523   1.361
10656SOL     OW32866   6.621   2.534   1.525
10656SOL    HW132867   6.622   2.480   1.609
10656SOL    HW232868   6.645   2.629   1.547
10657SOL     OW32869   6.637   0.704   6.334
10657SOL    HW132870   6.546   0.739   6.314
10657SOL    HW232871   6.680   0.672   6.249
10658SOL     OW32872   6.114   3.909   4.991
10658SOL    HW132873   6.155   3.976   4.929
10658SOL    HW232874   6.027   3.944   5.025
10659SOL     OW32875   0.129   6.195   0.620
10659SOL    HW132876   0.074   6.189   0.703
10659SOL    HW232877   0.101   6.275   0.567
10660SOL     OW32878   5.459   4.154   6.840
10660SOL    HW132879   5.508   4.085   6.787
10660SOL    HW232880   5.425   4.112   6.924
10661SOL     OW32881   6.994   6.326   2.902
10661SOL    HW132882   0.046   6.338   2.974
10661SOL    HW232883   7.013   6.243   2.851
10662SOL     OW32884   5.536   0.503   2.437
10662SOL    HW132885   5.488   0.433   2.384
10662SOL    HW232886   5.505   0.499   2.532
10663SOL     OW32887   0.421   0.632   1.936
10663SOL    HW132888   0.508   0.674   1.959
10663SOL    HW232889   0.346   0.693   1.963
10664SOL     OW32890   1.610   5.041   4.891
10664SOL    HW132891   1.549   5.105   4.844
10664SOL    HW232892   1.593   4.949   4.858
10665SOL     OW32893   0.400   0.892   0.858
10665SOL    HW132894   0.352   0.962   0.910
10665SOL    HW232895   0.334   0.828   0.818
10666SOL     OW32896   3.214   4.009   0.258
10666SOL    HW132897   3.232   4.083   0.322
10666SOL    HW232898   3.238   3.922   0.300
10667SOL     OW32899   4.073   2.977   5.413
10667SOL    HW132900   4.159   2.929   5.393
10667SOL    HW232901   4.004   2.952   5.345
10668SOL     OW32902   1.510   1.876   5.193
10668SOL    HW132903   1.555   1.821   5.263
10668SOL    HW232904   1.501   1.970   5.225
10669SOL     OW32905   6.109   6.717   1.127
10669SOL    HW132906   6.062   6.791   1.175
10669SOL    HW232907   6.191   6.753   1.083
10670SOL     OW32908   4.787   3.867   5.171
10670SOL    HW132909   4.763   3.925   5.093
10670SOL    HW232910   4.811   3.776   5.138
10671SOL     OW32911   2.652   1.870   2.761
10671SOL    HW132912   2.628   1.952   2.813
10671SOL    HW232913   2.575   1.844   2.703
10672SOL     OW32914   6.592   2.445   0.724
10672SOL    HW132915   6.665   2.469   0.787
10672SOL    HW232916   6.626   2.379   0.656
10673SOL     OW32917   1.303   1.215   0.155
10673SOL    HW132918   1.226   1.214   0.092
10673SOL    HW232919   1.359   1.297   0.139
10674SOL     OW32920   2.962   4.427   1.065
10674SOL    HW132921   2.888   4.377   1.019
10674SOL    HW232922   2.924   4.484   1.138
10675SOL     OW32923   1.896   0.628   5.665
10675SOL    HW132924   1.811   0.581   5.691
10675SOL    HW232925   1.945   0.572   5.598
10676SOL     OW32926   6.272   6.293   5.993
10676SOL    HW132927   6.331   6.372   6.008
10676SOL    HW232928   6.287   6.257   5.901
10677SOL     OW32929   0.918   0.509   1.844
10677SOL    HW132930   1.009   0.482   1.814
10677SOL    HW232931   0.874   0.434   1.893
10678SOL     OW32932   3.516   5.465   1.943
10678SOL    HW132933   3.574   5.528   1.994
10678SOL    HW232934   3.420   5.490   1.953
10679SOL     OW32935   5.318   4.502   5.687
10679SOL    HW132936   5.278   4.529   5.599
10679SOL    HW232937   5.340   4.405   5.685
10680SOL     OW32938   2.643   1.662   3.885
10680SOL    HW132939   2.634   1.694   3.979
10680SOL    HW232940   2.717   1.594   3.880
10681SOL     OW32941   0.262   3.926   0.121
10681SOL    HW132942   0.255   3.942   0.023
10681SOL    HW232943   0.307   4.004   0.165
10682SOL     OW32944   2.088   2.413   3.488
10682SOL    HW132945   2.174   2.406   3.436
10682SOL    HW232946   2.106   2.392   3.584
10683SOL     OW32947   3.592   2.118   3.842
10683SOL    HW132948   3.662   2.127   3.771
10683SOL    HW232949   3.612   2.182   3.916
10684SOL     OW32950   4.873   3.547   0.886
10684SOL    HW132951   4.837   3.640   0.899
10684SOL    HW232952   4.840   3.511   0.799
10685SOL     OW32953   6.268   4.400   2.365
10685SOL    HW132954   6.354   4.357   2.339
10685SOL    HW232955   6.213   4.418   2.284
10686SOL     OW32956   3.488   5.115   6.650
10686SOL    HW132957   3.521   5.164   6.570
10686SOL    HW232958   3.412   5.166   6.691
10687SOL     OW32959   0.073   5.031   1.948
10687SOL    HW132960   0.014   5.006   1.871
10687SOL    HW232961   0.103   5.126   1.937
10688SOL     OW32962   6.857   4.689   2.920
10688SOL    HW132963   6.763   4.663   2.940
10688SOL    HW232964   6.859   4.778   2.874
10689SOL     OW32965   0.488   0.195   3.955
10689SOL    HW132966   0.551   0.118   3.957
10689SOL    HW232967   0.499   0.249   4.039
10690SOL     OW32968   6.148   5.212   3.994
10690SOL    HW132969   6.147   5.312   3.984
10690SOL    HW232970   6.180   5.188   4.085
10691SOL     OW32971   0.070   1.173   2.563
10691SOL    HW132972   0.109   1.164   2.654
10691SOL    HW232973   0.031   1.265   2.553
10692SOL     OW32974   3.765   4.903   3.117
10692SOL    HW132975   3.672   4.888   3.149
10692SOL    HW232976   3.772   4.878   3.020
10693SOL     OW32977   1.798   0.436   1.653
10693SOL    HW132978   1.746   0.479   1.727
10693SOL    HW232979   1.861   0.368   1.691
10694SOL     OW32980   3.864   6.213   1.772
10694SOL    HW132981   3.828   6.164   1.693
10694SOL    HW232982   3.952   6.255   1.748
10695SOL     OW32983   5.779   2.188   2.302
10695SOL    HW132984   5.706   2.206   2.367
10695SOL    HW232985   5.844   2.264   2.304
10696SOL     OW32986   6.792   4.540   2.464
10696SOL    HW132987   6.861   4.577   2.526
10696SOL    HW232988   6.717   4.605   2.454
10697SOL     OW32989   0.105   6.287   4.272
10697SOL    HW132990   0.073   6.215   4.333
10697SOL    HW232991   0.055   6.372   4.292
10698SOL     OW32992   3.947   6.491   3.906
10698SOL    HW132993   3.895   6.406   3.893
10698SOL    HW232994   4.038   6.481   3.866
10699SOL     OW32995   4.600   2.035   2.673
10699SOL    HW132996   4.678   2.089   2.705
10699SOL    HW232997   4.594   1.951   2.727
10700SOL     OW32998   1.082   0.110   0.456
10700SOL    HW132999   1.027   0.177   0.406
10700SOL    HW233000   1.174   0.146   0.470
10701SOL     OW33001   3.743   6.206   0.189
10701SOL    HW133002   3.708   6.265   0.261
10701SOL    HW233003   3.820   6.153   0.224
10702SOL     OW33004   6.707   2.556   2.949
10702SOL    HW133005   6.803   2.531   2.942
10702SOL    HW233006   6.671   2.530   3.039
10703SOL     OW33007   4.008   3.145   3.997
10703SOL    HW133008   4.035   3.229   4.044
10703SOL    HW233009   3.997   3.071   4.063
10704SOL     OW33010   5.684   5.711   1.526
10704SOL    HW133011   5.638   5.799   1.519
10704SOL    HW233012   5.753   5.714   1.598
10705SOL     OW33013   6.886   4.084   1.352
10705SOL    HW133014   6.787   4.089   1.358
10705SOL    HW233015   6.919   4.002   1.398
10706SOL     OW33016   4.744   6.484   1.916
10706SOL    HW133017   4.807   6.445   1.848
10706SOL    HW233018   4.663   6.427   1.924
10707SOL     OW33019   0.259   0.259   4.870
10707SOL    HW133020   0.253   0.265   4.969
10707SOL    HW233021   0.350   0.228   4.843
10708SOL     OW33022   4.803   0.700   2.427
10708SOL    HW133023   4.746   0.736   2.501
10708SOL    HW233024   4.898   0.695   2.458
10709SOL     OW33025   6.687   1.209   5.228
10709SOL    HW133026   6.655   1.266   5.153
10709SOL    HW233027   6.728   1.126   5.191
10710SOL     OW33028   0.947   6.654   5.007
10710SOL    HW133029   0.918   6.723   4.942
10710SOL    HW233030   0.987   6.576   4.959
10711SOL     OW33031   2.314   6.973   3.754
10711SOL    HW133032   2.259   7.008   3.830
10711SOL    HW233033   2.261   6.976   3.669
10712SOL     OW33034   4.012   0.186   2.532
10712SOL    HW133035   3.964   0.140   2.607
10712SOL    HW233036   3.958   0.180   2.449
10713SOL     OW33037   1.619   4.277   2.342
10713SOL    HW133038   1.608   4.202   2.407
10713SOL    HW233039   1.607   4.242   2.249
10714SOL     OW33040   6.722   2.623   4.997
10714SOL    HW133041   6.642   2.564   4.993
10714SOL    HW233042   6.709   2.693   5.067
10715SOL     OW33043   4.222   0.897   2.691
10715SOL    HW133044   4.300   0.896   2.628
10715SOL    HW233045   4.209   0.806   2.730
10716SOL     OW33046   0.221   2.980   3.325
10716SOL    HW133047   0.316   2.954   3.306
10716SOL    HW233048   0.179   2.910   3.382
10717SOL     OW33049   0.868   2.503   0.844
10717SOL    HW133050   0.856   2.412   0.884
10717SOL    HW233051   0.955   2.542   0.874
10718SOL     OW33052   6.293   4.783   0.114
10718SOL    HW133053   6.321   4.853   0.048
10718SOL    HW233054   6.362   4.774   0.185
10719SOL     OW33055   4.298   5.734   1.647
10719SOL    HW133056   4.297   5.638   1.619
10719SOL    HW233057   4.259   5.790   1.574
10720SOL     OW33058   0.046   4.240   6.300
10720SOL    HW133059   6.989   4.308   6.292
10720SOL    HW233060   0.091   4.251   6.389
10721SOL     OW33061   6.443   2.276   4.344
10721SOL    HW133062   6.534   2.314   4.359
10721SOL    HW233063   6.384   2.298   4.422
10722SOL     OW33064   7.012   3.218   0.804
10722SOL    HW133065   7.002   3.271   0.720
10722SOL    HW233066   6.989   3.123   0.787
10723SOL     OW33067   5.924   3.894   6.765
10723SOL    HW133068   5.847   3.957   6.765
10723SOL    HW233069   5.943   3.863   6.858
10724SOL     OW33070   3.346   0.352   6.093
10724SOL    HW133071   3.433   0.324   6.053
10724SOL    HW233072   3.311   0.278   6.152
10725SOL     OW33073   0.073   4.861   4.144
10725SOL    HW133074   0.072   4.829   4.049
10725SOL    HW233075   0.006   4.934   4.155
10726SOL     OW33076   5.812   6.843   5.190
10726SOL    HW133077   5.783   6.752   5.220
10726SOL    HW233078   5.758   6.913   5.238
10727SOL     OW33079   1.899   5.000   5.051
10727SOL    HW133080   1.900   4.948   4.966
10727SOL    HW233081   1.804   5.023   5.075
10728SOL     OW33082   6.176   6.484   2.449
10728SOL    HW133083   6.275   6.481   2.433
10728SOL    HW233084   6.132   6.410   2.397
10729SOL     OW33085   6.398   1.653   2.949
10729SOL    HW133086   6.424   1.727   2.887
10729SOL    HW233087   6.452   1.572   2.928
10730SOL     OW33088   2.677   6.304   1.490
10730SOL    HW133089   2.759   6.361   1.485
10730SOL    HW233090   2.684   6.242   1.568
10731SOL     OW33091   2.568   5.366   6.893
10731SOL    HW133092   2.503   5.399   6.825
10731SOL    HW233093   2.646   5.323   6.848
10732SOL     OW33094   6.221   0.551   2.633
10732SOL    HW133095   6.253   0.625   2.574
10732SOL    HW233096   6.253   0.567   2.726
10733SOL     OW33097   5.608   2.432   0.345
10733SOL    HW133098   5.619   2.448   0.247
10733SOL    HW233099   5.672   2.491   0.396
10734SOL     OW33100   1.140   0.877   6.896
10734SOL    HW133101   1.132   0.812   6.821
10734SOL    HW233102   1.057   0.873   6.952
10735SOL     OW33103   1.357   4.692   2.094
10735SOL    HW133104   1.413   4.730   2.021
10735SOL    HW233105   1.396   4.717   2.183
10736SOL     OW33106   0.908   0.841   3.299
10736SOL    HW133107   0.960   0.924   3.321
10736SOL    HW233108   0.967   0.761   3.310
10737SOL     OW33109   0.390   2.596   0.792
10737SOL    HW133110   0.360   2.560   0.880
10737SOL    HW233111   0.477   2.553   0.766
10738SOL     OW33112   2.410   0.009   2.652
10738SOL    HW133113   2.506   7.008   2.632
10738SOL    HW233114   2.387   6.987   2.742
10739SOL     OW33115   6.953   1.392   2.846
10739SOL    HW133116   7.002   1.474   2.874
10739SOL    HW233117   6.884   1.369   2.915
10740SOL     OW33118   1.394   5.661   5.677
10740SOL    HW133119   1.392   5.705   5.767
10740SOL    HW233120   1.401   5.732   5.606
10741SOL     OW33121   1.077   1.522   3.311
10741SOL    HW133122   1.136   1.475   3.244
10741SOL    HW233123   1.112   1.615   3.325
10742SOL     OW33124   6.038   6.732   2.100
10742SOL    HW133125   6.055   6.830   2.105
10742SOL    HW233126   6.119   6.683   2.132
10743SOL     OW33127   2.459   2.634   3.705
10743SOL    HW133128   2.401   2.714   3.694
10743SOL    HW233129   2.505   2.614   3.618
10744SOL     OW33130   3.227   1.618   2.441
10744SOL    HW133131   3.222   1.567   2.527
10744SOL    HW233132   3.316   1.664   2.435
10745SOL     OW33133   1.765   4.641   6.990
10745SOL    HW133134   1.844   4.702   6.994
10745SOL    HW233135   1.759   4.601   6.898
10746SOL     OW33136   1.750   5.634   1.313
10746SOL    HW133137   1.833   5.639   1.257
10746SOL    HW233138   1.687   5.706   1.285
10747SOL     OW33139   5.232   1.386   3.344
10747SOL    HW133140   5.331   1.367   3.345
10747SOL    HW233141   5.184   1.308   3.386
10748SOL     OW33142   5.883   5.908   0.929
10748SOL    HW133143   5.831   5.825   0.905
10748SOL    HW233144   5.956   5.883   0.992
10749SOL     OW33145   0.353   4.988   3.108
10749SOL    HW133146   0.294   5.070   3.108
10749SOL    HW233147   0.297   4.907   3.127
10750SOL     OW33148   4.618   4.454   4.611
10750SOL    HW133149   4.718   4.451   4.607
10750SOL    HW233150   4.589   4.448   4.707
10751SOL     OW33151   1.010   3.390   5.025
10751SOL    HW133152   1.054   3.312   4.981
10751SOL    HW233153   0.974   3.362   5.114
10752SOL     OW33154   6.314   3.958   6.435
10752SOL    HW133155   6.246   3.899   6.480
10752SOL    HW233156   6.322   4.044   6.484
10753SOL     OW33157   6.371   0.019   3.742
10753SOL    HW133158   6.417   0.019   3.831
10753SOL    HW233159   6.329   0.109   3.727
10754SOL     OW33160   1.907   2.419   2.442
10754SOL    HW133161   1.830   2.360   2.465
10754SOL    HW233162   1.911   2.431   2.343
10755SOL     OW33163   6.994   1.869   0.524
10755SOL    HW133164   6.940   1.787   0.505
10755SOL    HW233165   0.023   1.859   0.613
10756SOL     OW33166   6.220   3.106   0.900
10756SOL    HW133167   6.208   3.008   0.913
10756SOL    HW233168   6.131   3.151   0.900
10757SOL     OW33169   0.257   3.448   0.472
10757SOL    HW133170   0.269   3.362   0.522
10757SOL    HW233171   0.252   3.428   0.374
10758SOL     OW33172   0.578   6.037   5.318
10758SOL    HW133173   0.588   6.008   5.414
10758SOL    HW233174   0.496   5.996   5.279
10759SOL     OW33175   1.941   2.877   6.847
10759SOL    HW133176   1.876   2.824   6.900
10759SOL    HW233177   2.001   2.815   6.796
10760SOL     OW33178   0.310   6.473   0.939
10760SOL    HW133179   0.383   6.442   0.878
10760SOL    HW233180   0.269   6.395   0.986
10761SOL     OW33181   0.988   2.602   6.430
10761SOL    HW133182   1.059   2.582   6.361
10761SOL    HW233183   1.023   2.579   6.521
10762SOL     OW33184   4.524   0.853   4.854
10762SOL    HW133185   4.578   0.929   4.892
10762SOL    HW233186   4.456   0.824   4.922
10763SOL     OW33187   4.024   0.239   1.147
10763SOL    HW133188   3.928   0.235   1.119
10763SOL    HW233189   4.078   0.180   1.087
10764SOL     OW33190   5.023   1.599   6.364
10764SOL    HW133191   4.968   1.681   6.377
10764SOL    HW233192   4.999   1.531   6.433
10765SOL     OW33193   5.563   1.670   1.678
10765SOL    HW133194   5.630   1.663   1.605
10765SOL    HW233195   5.495   1.740   1.654
10766SOL     OW33196   2.899   3.479   0.590
10766SOL    HW133197   2.956   3.560   0.574
10766SOL    HW233198   2.878   3.471   0.687
10767SOL     OW33199   1.456   0.251   0.757
10767SOL    HW133200   1.403   0.166   0.762
10767SOL    HW233201   1.542   0.239   0.806
10768SOL     OW33202   5.216   5.696   0.281
10768SOL    HW133203   5.201   5.609   0.234
10768SOL    HW233204   5.312   5.720   0.275
10769SOL     OW33205   3.048   5.209   5.426
10769SOL    HW133206   2.991   5.129   5.407
10769SOL    HW233207   3.002   5.291   5.392
10770SOL     OW33208   5.462   0.365   5.072
10770SOL    HW133209   5.363   0.359   5.084
10770SOL    HW233210   5.505   0.387   5.160
10771SOL     OW33211   4.420   0.359   5.231
10771SOL    HW133212   4.399   0.262   5.225
10771SOL    HW233213   4.396   0.392   5.322
10772SOL     OW33214   6.915   0.239   3.336
10772SOL    HW133215   6.897   0.312   3.402
10772SOL    HW233216   6.837   0.228   3.275
10773SOL     OW33217   6.452   4.965   0.003
10773SOL    HW133218   6.455   5.001   6.926
10773SOL    HW233219   6.532   4.996   0.054
10774SOL     OW33220   1.079   2.654   0.951
10774SOL    HW133221   1.175   2.630   0.935
10774SOL    HW233222   1.071   2.701   1.039
10775SOL     OW33223   2.222   4.467   0.711
10775SOL    HW133224   2.285   4.523   0.658
10775SOL    HW233225   2.175   4.402   0.652
10776SOL     OW33226   0.665   6.528   1.388
10776SOL    HW133227   0.597   6.577   1.441
10776SOL    HW233228   0.626   6.498   1.301
10777SOL     OW33229   4.080   0.067   3.263
10777SOL    HW133230   4.087   6.995   3.215
10777SOL    HW233231   3.985   0.098   3.261
10778SOL     OW33232   6.421   6.636   4.420
10778SOL    HW133233   6.336   6.589   4.443
10778SOL    HW233234   6.410   6.686   4.334
10779SOL     OW33235   0.225   4.908   2.742
10779SOL    HW133236   0.245   4.929   2.646
10779SOL    HW233237   0.283   4.833   2.773
10780SOL     OW33238   0.539   5.891   3.452
10780SOL    HW133239   0.620   5.912   3.506
10780SOL    HW233240   0.464   5.951   3.479
10781SOL     OW33241   4.636   1.830   4.370
10781SOL    HW133242   4.536   1.818   4.375
10781SOL    HW233243   4.662   1.912   4.420
10782SOL     OW33244   6.630   2.379   3.628
10782SOL    HW133245   6.589   2.357   3.717
10782SOL    HW233246   6.634   2.479   3.618
10783SOL     OW33247   1.878   3.269   2.539
10783SOL    HW133248   1.789   3.263   2.583
10783SOL    HW233249   1.876   3.218   2.453
10784SOL     OW33250   2.356   6.935   0.909
10784SOL    HW133251   2.306   6.919   0.994
10784SOL    HW233252   2.407   0.005   0.916
10785SOL     OW33253   1.985   4.945   1.315
10785SOL    HW133254   2.035   4.858   1.315
10785SOL    HW233255   2.048   5.019   1.292
10786SOL     OW33256   5.333   3.052   1.996
10786SOL    HW133257   5.397   3.066   2.071
10786SOL    HW233258   5.279   2.970   2.013
10787SOL     OW33259   3.850   1.442   4.896
10787SOL    HW133260   3.790   1.405   4.825
10787SOL    HW233261   3.896   1.524   4.862
10788SOL     OW33262   2.409   4.043   7.000
10788SOL    HW133263   2.400   3.944   7.008
10788SOL    HW233264   2.373   4.086   0.067
10789SOL     OW33265   5.397   1.111   0.635
10789SOL    HW133266   5.403   1.209   0.653
10789SOL    HW233267   5.417   1.059   0.718
10790SOL     OW33268   0.632   0.604   5.484
10790SOL    HW133269   0.546   0.588   5.532
10790SOL    HW233270   0.637   0.545   5.403
10791SOL     OW33271   1.331   1.798   1.796
10791SOL    HW133272   1.336   1.781   1.894
10791SOL    HW233273   1.423   1.808   1.759
10792SOL     OW33274   3.289   3.170   1.699
10792SOL    HW133275   3.273   3.221   1.784
10792SOL    HW233276   3.384   3.180   1.671
10793SOL     OW33277   5.488   2.464   3.778
10793SOL    HW133278   5.567   2.525   3.774
10793SOL    HW233279   5.511   2.384   3.835
10794SOL     OW33280   3.563   3.974   1.918
10794SOL    HW133281   3.481   4.026   1.894
10794SOL    HW233282   3.544   3.918   1.999
10795SOL     OW33283   6.358   4.315   2.998
10795SOL    HW133284   6.323   4.393   3.051
10795SOL    HW233285   6.309   4.232   3.024
10796SOL     OW33286   3.582   0.002   6.261
10796SOL    HW133287   3.649   6.946   6.245
10796SOL    HW233288   3.609   0.085   6.211
10797SOL     OW33289   3.912   2.588   0.589
10797SOL    HW133290   3.843   2.559   0.522
10797SOL    HW233291   3.871   2.650   0.655
10798SOL     OW33292   2.143   0.123   0.476
10798SOL    HW133293   2.130   0.219   0.500
10798SOL    HW233294   2.092   0.065   0.540
10799SOL     OW33295   3.834   2.002   2.174
10799SOL    HW133296   3.818   1.914   2.129
10799SOL    HW233297   3.800   2.075   2.114
10800SOL     OW33298   1.829   5.816   0.284
10800SOL    HW133299   1.879   5.902   0.271
10800SOL    HW233300   1.837   5.788   0.380
10801SOL     OW33301   1.175   0.608   3.836
10801SOL    HW133302   1.225   0.694   3.829
10801SOL    HW233303   1.160   0.571   3.745
10802SOL     OW33304   2.352   2.700   4.809
10802SOL    HW133305   2.371   2.796   4.829
10802SOL    HW233306   2.347   2.687   4.710
10803SOL     OW33307   5.154   4.559   4.752
10803SOL    HW133308   5.075   4.511   4.789
10803SOL    HW233309   5.123   4.636   4.695
10804SOL     OW33310   6.960   4.703   1.098
10804SOL    HW133311   6.924   4.637   1.033
10804SOL    HW233312   7.015   4.656   1.167
10805SOL     OW33313   3.537   0.447   6.700
10805SOL    HW133314   3.577   0.491   6.780
10805SOL    HW233315   3.453   0.399   6.727
10806SOL     OW33316   5.637   3.974   0.112
10806SOL    HW133317   5.601   3.948   0.202
10806SOL    HW233318   5.574   3.941   0.041
10807SOL     OW33319   3.622   6.788   3.357
10807SOL    HW133320   3.701   6.784   3.418
10807SOL    HW233321   3.624   6.872   3.304
10808SOL     OW33322   6.639   4.060   0.198
10808SOL    HW133323   6.703   4.107   0.137
10808SOL    HW233324   6.689   4.000   0.260
10809SOL     OW33325   2.805   0.577   4.053
10809SOL    HW133326   2.883   0.527   4.015
10809SOL    HW233327   2.823   0.675   4.047
10810SOL     OW33328   1.090   1.770   6.118
10810SOL    HW133329   1.003   1.769   6.069
10810SOL    HW233330   1.103   1.859   6.162
10811SOL     OW33331   3.727   5.094   5.105
10811SOL    HW133332   3.661   5.083   5.031
10811SOL    HW233333   3.679   5.109   5.191
10812SOL     OW33334   0.411   3.916   1.829
10812SOL    HW133335   0.391   3.868   1.915
10812SOL    HW233336   0.379   3.860   1.753
10813SOL     OW33337   3.051   6.219   0.159
10813SOL    HW133338   3.032   6.317   0.151
10813SOL    HW233339   2.971   6.167   0.127
10814SOL     OW33340   1.103   0.705   5.399
10814SOL    HW133341   1.184   0.715   5.456
10814SOL    HW233342   1.074   0.795   5.366
10815SOL     OW33343   4.927   5.136   3.459
10815SOL    HW133344   4.941   5.049   3.411
10815SOL    HW233345   4.866   5.193   3.406
10816SOL     OW33346   1.920   1.636   2.532
10816SOL    HW133347   2.019   1.629   2.517
10816SOL    HW233348   1.902   1.705   2.602
10817SOL     OW33349   5.889   6.679   2.974
10817SOL    HW133350   5.913   6.762   2.923
10817SOL    HW233351   5.794   6.655   2.956
10818SOL     OW33352   5.820   2.308   5.477
10818SOL    HW133353   5.844   2.217   5.442
10818SOL    HW233354   5.838   2.376   5.406
10819SOL     OW33355   0.813   4.053   6.765
10819SOL    HW133356   0.740   4.008   6.817
10819SOL    HW233357   0.851   4.128   6.819
10820SOL     OW33358   6.760   6.823   4.322
10820SOL    HW133359   6.728   6.779   4.237
10820SOL    HW233360   6.830   6.890   4.300
10821SOL     OW33361   5.960   6.836   2.747
10821SOL    HW133362   6.048   6.880   2.762
10821SOL    HW233363   5.967   6.773   2.669
10822SOL     OW33364   1.594   2.579   2.681
10822SOL    HW133365   1.531   2.652   2.705
10822SOL    HW233366   1.677   2.619   2.641
10823SOL     OW33367   1.810   5.243   1.282
10823SOL    HW133368   1.773   5.179   1.350
10823SOL    HW233369   1.903   5.269   1.308
10824SOL     OW33370   4.960   6.789   3.602
10824SOL    HW133371   4.911   6.826   3.681
10824SOL    HW233372   4.895   6.757   3.533
10825SOL     OW33373   2.717   0.619   0.951
10825SOL    HW133374   2.801   0.619   1.006
10825SOL    HW233375   2.689   0.524   0.933
10826SOL     OW33376   6.752   3.474   2.997
10826SOL    HW133377   6.685   3.449   2.927
10826SOL    HW233378   6.720   3.441   3.086
10827SOL     OW33379   5.936   3.561   3.942
10827SOL    HW133380   5.892   3.474   3.963
10827SOL    HW233381   5.884   3.609   3.871
10828SOL     OW33382   1.371   5.820   2.327
10828SOL    HW133383   1.283   5.832   2.282
10828SOL    HW233384   1.360   5.834   2.426
10829SOL     OW33385   3.107   3.488   1.035
10829SOL    HW133386   3.088   3.412   1.096
10829SOL    HW233387   3.153   3.562   1.086
10830SOL     OW33388   5.175   2.255   3.275
10830SOL    HW133389   5.106   2.240   3.345
10830SOL    HW233390   5.266   2.236   3.312
10831SOL     OW33391   4.904   6.714   1.552
10831SOL    HW133392   4.991   6.667   1.541
10831SOL    HW233393   4.829   6.648   1.545
10832SOL     OW33394   6.963   2.643   1.186
10832SOL    HW133395   6.935   2.574   1.253
10832SOL    HW233396   6.924   2.620   1.096
10833SOL     OW33397   1.185   0.548   3.575
10833SOL    HW133398   1.109   0.556   3.511
10833SOL    HW233399   1.270   0.574   3.529
10834SOL     OW33400   1.229   1.733   5.877
10834SOL    HW133401   1.212   1.812   5.818
10834SOL    HW233402   1.195   1.752   5.969
10835SOL     OW33403   5.366   1.575   0.889
10835SOL    HW133404   5.398   1.625   0.809
10835SOL    HW233405   5.444   1.555   0.949
10836SOL     OW33406   0.189   1.504   5.803
10836SOL    HW133407   0.159   1.418   5.846
10836SOL    HW233408   0.124   1.530   5.732
10837SOL     OW33409   0.257   4.594   0.189
10837SOL    HW133410   0.317   4.674   0.192
10837SOL    HW233411   0.167   4.620   0.225
10838SOL     OW33412   5.778   6.989   4.216
10838SOL    HW133413   5.783   6.946   4.306
10838SOL    HW233414   5.860   0.028   4.201
10839SOL     OW33415   2.761   2.922   0.808
10839SOL    HW133416   2.752   2.951   0.712
10839SOL    HW233417   2.687   2.860   0.831
10840SOL     OW33418   3.688   5.957   1.365
10840SOL    HW133419   3.687   5.882   1.299
10840SOL    HW233420   3.594   5.989   1.381
10841SOL     OW33421   3.058   5.907   6.204
10841SOL    HW133422   3.032   5.811   6.213
10841SOL    HW233423   3.108   5.920   6.119
10842SOL     OW33424   6.176   3.861   1.133
10842SOL    HW133425   6.263   3.899   1.103
10842SOL    HW233426   6.101   3.907   1.086
10843SOL     OW33427   0.432   1.779   1.960
10843SOL    HW133428   0.344   1.734   1.978
10843SOL    HW233429   0.506   1.715   1.977
10844SOL     OW33430   0.721   6.667   4.394
10844SOL    HW133431   0.625   6.689   4.381
10844SOL    HW233432   0.746   6.681   4.490
10845SOL     OW33433   1.973   0.788   1.216
10845SOL    HW133434   1.951   0.756   1.308
10845SOL    HW233435   1.899   0.764   1.154
10846SOL     OW33436   4.315   2.653   0.774
10846SOL    HW133437   4.358   2.584   0.833
10846SOL    HW233438   4.260   2.715   0.829
10847SOL     OW33439   2.405   1.800   6.862
10847SOL    HW133440   2.502   1.821   6.852
10847SOL    HW233441   2.352   1.885   6.858
10848SOL     OW33442   3.148   2.453   6.429
10848SOL    HW133443   3.071   2.389   6.425
10848SOL    HW233444   3.182   2.468   6.336
10849SOL     OW33445   4.060   4.942   3.829
10849SOL    HW133446   4.064   4.868   3.762
10849SOL    HW233447   4.046   5.029   3.782
10850SOL     OW33448   4.155   6.666   6.726
10850SOL    HW133449   4.072   6.701   6.683
10850SOL    HW233450   4.226   6.735   6.723
10851SOL     OW33451   2.756   2.424   6.471
10851SOL    HW133452   2.812   2.404   6.551
10851SOL    HW233453   2.744   2.340   6.417
10852SOL     OW33454   0.619   0.103   6.143
10852SOL    HW133455   0.579   0.020   6.106
10852SOL    HW233456   0.629   0.095   6.242
10853SOL     OW33457   3.904   1.837   4.907
10853SOL    HW133458   3.831   1.902   4.930
10853SOL    HW233459   3.935   1.791   4.990
10854SOL     OW33460   6.495   0.264   6.343
10854SOL    HW133461   6.449   0.294   6.259
10854SOL    HW233462   6.495   0.339   6.410
10855SOL     OW33463   2.823   6.327   2.676
10855SOL    HW133464   2.781   6.405   2.629
10855SOL    HW233465   2.909   6.355   2.717
10856SOL     OW33466   5.916   0.853   1.483
10856SOL    HW133467   5.996   0.912   1.468
10856SOL    HW233468   5.860   0.852   1.400
10857SOL     OW33469   5.344   3.113   3.575
10857SOL    HW133470   5.319   3.019   3.598
10857SOL    HW233471   5.284   3.176   3.625
10858SOL     OW33472   1.529   2.765   6.706
10858SOL    HW133473   1.621   2.728   6.694
10858SOL    HW233474   1.519   2.848   6.650
10859SOL     OW33475   1.861   4.193   3.682
10859SOL    HW133476   1.766   4.221   3.671
10859SOL    HW233477   1.912   4.217   3.599
10860SOL     OW33478   6.744   1.469   6.225
10860SOL    HW133479   6.837   1.494   6.198
10860SOL    HW233480   6.688   1.552   6.230
10861SOL     OW33481   3.627   2.720   1.880
10861SOL    HW133482   3.627   2.760   1.971
10861SOL    HW233483   3.630   2.620   1.887
10862SOL     OW33484   2.646   1.653   6.559
10862SOL    HW133485   2.690   1.582   6.615
10862SOL    HW233486   2.553   1.668   6.592
10863SOL     OW33487   3.456   1.161   2.602
10863SOL    HW133488   3.425   1.164   2.506
10863SOL    HW233489   3.495   1.250   2.626
10864SOL     OW33490   2.471   4.423   1.325
10864SOL    HW133491   2.438   4.333   1.298
10864SOL    HW233492   2.425   4.493   1.270
10865SOL     OW33493   5.939   2.515   3.294
10865SOL    HW133494   6.001   2.464   3.353
10865SOL    HW233495   5.992   2.575   3.233
10866SOL     OW33496   5.657   3.322   1.073
10866SOL    HW133497   5.741   3.325   1.128
10866SOL    HW233498   5.674   3.271   0.989
10867SOL     OW33499   2.608   3.158   0.448
10867SOL    HW133500   2.638   3.244   0.407
10867SOL    HW233501   2.688   3.098   0.459
10868SOL     OW33502   1.334   2.043   3.071
10868SOL    HW133503   1.349   1.977   2.997
10868SOL    HW233504   1.330   2.135   3.033
10869NA      NA33505   0.568   2.381   6.260
10870NA      NA33506   4.401   4.660   5.153
10871NA      NA33507   2.365   4.529   2.236
10872NA      NA33508   5.159   4.701   3.541
10873NA      NA33509   4.257   2.321   5.220
10874NA      NA33510   3.409   4.195   1.461
10875NA      NA33511   1.091   4.622   0.177
10876NA      NA33512   4.108   4.280   1.560
10877NA      NA33513   4.652   4.444   0.868
10878NA      NA33514   3.455   0.864   5.342
10879NA      NA33515   5.568   5.536   1.351
10880NA      NA33516   1.014   0.638   5.786
10881NA      NA33517   4.988   4.830   1.999
10882NA      NA33518   3.490   3.011   0.978
   7.01584   7.01584   7.01584
