Generated by trjconv : CNT in water t= 329.00000
33518
    1C        C    1   2.836   2.762   4.746
    1C        C    2   2.889   2.712   4.867
    1C        C    3   2.837   2.769   4.984
    1C        C    4   2.837   2.769   4.258
    1C        C    5   2.890   2.721   4.380
    1C        C    6   2.839   2.769   4.503
    1C        C    7   3.009   2.640   4.625
    1C        C    8   2.892   2.718   4.624
    1C        C    9   3.074   2.605   4.746
    1C        C   10   3.006   2.634   4.867
    1C        C   11   3.177   2.488   4.970
    1C        C   12   3.059   2.563   4.976
    1C        C   13   2.845   2.769   3.771
    1C        C   14   2.895   2.719   3.893
    1C        C   15   2.844   2.769   4.016
    1C        C   16   3.017   2.648   4.137
    1C        C   17   2.898   2.725   4.139
    1C        C   18   3.076   2.613   4.261
    1C        C   19   3.008   2.642   4.381
    1C        C   20   3.205   2.563   4.502
    1C        C   21   3.071   2.607   4.503
    1C        C   22   3.276   2.538   4.622
    1C        C   23   3.204   2.549   4.743
    1C        C   24   3.411   2.487   4.864
    1C        C   25   3.268   2.500   4.860
    1C        C   26   3.487   2.480   4.981
    1C        C   27   2.851   2.771   3.282
    1C        C   28   2.906   2.729   3.405
    1C        C   29   2.852   2.774   3.528
    1C        C   30   3.015   2.637   3.647
    1C        C   31   2.904   2.725   3.650
    1C        C   32   3.075   2.603   3.770
    1C        C   33   3.011   2.638   3.891
    1C        C   34   3.205   2.556   4.012
    1C        C   35   3.072   2.606   4.014
    1C        C   36   3.272   2.532   4.134
    1C        C   37   3.206   2.557   4.256
    1C        C   38   3.411   2.512   4.380
    1C        C   39   3.272   2.540   4.380
    1C        C   40   3.484   2.502   4.501
    1C        C   41   3.413   2.506   4.623
    1C        C   42   3.627   2.485   4.743
    1C        C   43   3.485   2.484   4.743
    1C        C   44   3.701   2.488   4.864
    1C        C   45   3.626   2.477   4.982
    1C        C   46   2.835   2.751   2.791
    1C        C   47   2.889   2.706   2.914
    1C        C   48   2.844   2.761   3.036
    1C        C   49   3.010   2.635   3.158
    1C        C   50   2.894   2.716   3.160
    1C        C   51   3.075   2.601   3.279
    1C        C   52   3.019   2.645   3.401
    1C        C   53   3.204   2.544   3.525
    1C        C   54   3.074   2.602   3.524
    1C        C   55   3.273   2.526   3.647
    1C        C   56   3.207   2.551   3.769
    1C        C   57   3.413   2.505   3.890
    1C        C   58   3.275   2.537   3.891
    1C        C   59   3.481   2.500   4.014
    1C        C   60   3.411   2.508   4.137
    1C        C   61   3.623   2.503   4.258
    1C        C   62   3.482   2.509   4.259
    1C        C   63   3.696   2.510   4.379
    1C        C   64   3.625   2.510   4.501
    1C        C   65   3.834   2.541   4.620
    1C        C   66   3.697   2.507   4.622
    1C        C   67   3.903   2.559   4.742
    1C        C   68   3.837   2.523   4.861
    1C        C   69   4.047   2.585   4.975
    1C        C   70   3.918   2.531   4.976
    1C        C   71   2.824   2.735   2.306
    1C        C   72   2.878   2.688   2.428
    1C        C   73   2.824   2.737   2.548
    1C        C   74   3.005   2.623   2.669
    1C        C   75   2.887   2.702   2.670
    1C        C   76   3.065   2.588   2.792
    1C        C   77   3.005   2.626   2.914
    1C        C   78   3.203   2.550   3.033
    1C        C   79   3.070   2.598   3.036
    1C        C   80   3.271   2.531   3.156
    1C        C   81   3.204   2.544   3.280
    1C        C   82   3.409   2.492   3.401
    1C        C   83   3.271   2.521   3.403
    1C        C   84   3.481   2.488   3.522
    1C        C   85   3.411   2.498   3.645
    1C        C   86   3.623   2.500   3.766
    1C        C   87   3.482   2.494   3.767
    1C        C   88   3.690   2.509   3.890
    1C        C   89   3.622   2.501   4.014
    1C        C   90   3.830   2.546   4.132
    1C        C   91   3.693   2.512   4.135
    1C        C   92   3.899   2.566   4.253
    1C        C   93   3.834   2.541   4.376
    1C        C   94   4.023   2.634   4.495
    1C        C   95   3.901   2.564   4.498
    1C        C   96   4.086   2.671   4.617
    1C        C   97   4.028   2.627   4.738
    1C        C   98   4.185   2.767   4.856
    1C        C   99   4.097   2.654   4.860
    1C        C  100   4.214   2.840   4.972
    1C        C  101   2.816   2.725   2.070
    1C        C  102   2.984   2.583   2.189
    1C        C  103   2.873   2.674   2.187
    1C        C  104   3.059   2.567   2.308
    1C        C  105   2.999   2.614   2.427
    1C        C  106   3.196   2.530   2.547
    1C        C  107   3.069   2.591   2.547
    1C        C  108   3.264   2.514   2.670
    1C        C  109   3.197   2.537   2.792
    1C        C  110   3.407   2.488   2.913
    1C        C  111   3.269   2.517   2.913
    1C        C  112   3.479   2.487   3.035
    1C        C  113   3.409   2.504   3.156
    1C        C  114   3.621   2.493   3.276
    1C        C  115   3.479   2.489   3.278
    1C        C  116   3.691   2.504   3.398
    1C        C  117   3.623   2.490   3.521
    1C        C  118   3.828   2.543   3.645
    1C        C  119   3.693   2.502   3.643
    1C        C  120   3.894   2.569   3.767
    1C        C  121   3.827   2.544   3.889
    1C        C  122   4.022   2.635   4.010
    1C        C  123   3.896   2.569   4.009
    1C        C  124   4.083   2.672   4.132
    1C        C  125   4.022   2.636   4.255
    1C        C  126   4.194   2.764   4.374
    1C        C  127   4.086   2.673   4.375
    1C        C  128   4.242   2.818   4.495
    1C        C  129   4.191   2.765   4.616
    1C        C  130   4.328   2.931   4.736
    1C        C  131   4.244   2.816   4.736
    1C        C  132   4.351   3.005   4.854
    1C        C  133   4.286   2.959   4.969
    1C        C  134   3.170   2.467   2.077
    1C        C  135   3.035   2.506   2.080
    1C        C  136   3.256   2.478   2.187
    1C        C  137   3.192   2.515   2.307
    1C        C  138   3.402   2.470   2.426
    1C        C  139   3.264   2.498   2.427
    1C        C  140   3.475   2.472   2.547
    1C        C  141   3.404   2.491   2.668
    1C        C  142   3.616   2.490   2.790
    1C        C  143   3.475   2.482   2.790
    1C        C  144   3.689   2.498   2.911
    1C        C  145   3.620   2.488   3.034
    1C        C  146   3.829   2.532   3.152
    1C        C  147   3.693   2.495   3.155
    1C        C  148   3.894   2.561   3.274
    1C        C  149   3.828   2.538   3.397
    1C        C  150   4.017   2.629   3.519
    1C        C  151   3.893   2.561   3.521
    1C        C  152   4.079   2.663   3.641
    1C        C  153   4.021   2.632   3.766
    1C        C  154   4.191   2.759   3.886
    1C        C  155   4.082   2.670   3.887
    1C        C  156   4.244   2.808   4.007
    1C        C  157   4.194   2.759   4.130
    1C        C  158   4.336   2.919   4.249
    1C        C  159   4.247   2.809   4.251
    1C        C  160   4.374   2.982   4.370
    1C        C  161   4.329   2.929   4.493
    1C        C  162   4.437   3.113   4.611
    1C        C  163   4.371   2.989   4.614
    1C        C  164   4.468   3.183   4.730
    1C        C  165   4.432   3.121   4.852
    1C        C  166   4.516   3.317   4.970
    1C        C  167   4.484   3.182   4.966
    1C        C  168   3.473   2.441   2.070
    1C        C  169   3.396   2.457   2.186
    1C        C  170   3.615   2.465   2.303
    1C        C  171   3.473   2.457   2.305
    1C        C  172   3.688   2.481   2.422
    1C        C  173   3.615   2.482   2.544
    1C        C  174   3.819   2.536   2.663
    1C        C  175   3.684   2.496   2.666
    1C        C  176   3.887   2.558   2.785
    1C        C  177   3.828   2.526   2.909
    1C        C  178   4.021   2.621   3.028
    1C        C  179   3.896   2.555   3.029
    1C        C  180   4.081   2.658   3.151
    1C        C  181   4.019   2.627   3.274
    1C        C  182   4.193   2.748   3.395
    1C        C  183   4.077   2.666   3.396
    1C        C  184   4.242   2.798   3.517
    1C        C  185   4.191   2.750   3.640
    1C        C  186   4.332   2.909   3.762
    1C        C  187   4.244   2.799   3.761
    1C        C  188   4.368   2.977   3.881
    1C        C  189   4.329   2.921   4.004
    1C        C  190   4.438   3.104   4.125
    1C        C  191   4.369   2.980   4.126
    1C        C  192   4.470   3.168   4.246
    1C        C  193   4.445   3.104   4.369
    1C        C  194   4.504   3.313   4.490
    1C        C  195   4.468   3.176   4.489
    1C        C  196   4.523   3.386   4.608
    1C        C  197   4.510   3.319   4.732
    1C        C  198   4.554   3.532   4.847
    1C        C  199   4.531   3.391   4.852
    1C        C  200   4.581   3.617   4.959
    1C        C  201   3.610   2.414   2.071
    1C        C  202   3.824   2.507   2.181
    1C        C  203   3.689   2.459   2.182
    1C        C  204   3.891   2.541   2.301
    1C        C  205   3.826   2.514   2.424
    1C        C  206   4.017   2.616   2.540
    1C        C  207   3.890   2.554   2.542
    1C        C  208   4.073   2.661   2.662
    1C        C  209   4.014   2.619   2.783
    1C        C  210   4.186   2.748   2.906
    1C        C  211   4.074   2.662   2.904
    1C        C  212   4.242   2.794   3.027
    1C        C  213   4.194   2.743   3.149
    1C        C  214   4.329   2.906   3.269
    1C        C  215   4.246   2.792   3.271
    1C        C  216   4.360   2.970   3.391
    1C        C  217   4.324   2.914   3.515
    1C        C  218   4.428   3.096   3.633
    1C        C  219   4.363   2.971   3.638
    1C        C  220   4.459   3.165   3.753
    1C        C  221   4.433   3.103   3.878
    1C        C  222   4.497   3.303   4.001
    1C        C  223   4.462   3.166   4.000
    1C        C  224   4.509   3.376   4.121
    1C        C  225   4.501   3.306   4.244
    1C        C  226   4.515   3.519   4.362
    1C        C  227   4.512   3.378   4.365
    1C        C  228   4.518   3.595   4.482
    1C        C  229   4.532   3.527   4.605
    1C        C  230   4.509   3.742   4.722
    1C        C  231   4.537   3.603   4.724
    1C        C  232   4.495   3.819   4.839
    1C        C  233   4.545   3.752   4.951
    1C        C  234   4.015   2.609   2.060
    1C        C  235   3.892   2.545   2.064
    1C        C  236   4.080   2.645   2.179
    1C        C  237   4.017   2.606   2.299
    1C        C  238   4.198   2.728   2.418
    1C        C  239   4.083   2.644   2.418
    1C        C  240   4.249   2.779   2.540
    1C        C  241   4.190   2.741   2.662
    1C        C  242   4.331   2.901   2.779
    1C        C  243   4.240   2.793   2.783
    1C        C  244   4.371   2.961   2.901
    1C        C  245   4.330   2.905   3.024
    1C        C  246   4.428   3.093   3.145
    1C        C  247   4.367   2.965   3.147
    1C        C  248   4.452   3.158   3.268
    1C        C  249   4.421   3.098   3.392
    1C        C  250   4.490   3.301   3.508
    1C        C  251   4.452   3.165   3.513
    1C        C  252   4.508   3.369   3.631
    1C        C  253   4.494   3.301   3.754
    1C        C  254   4.511   3.512   3.874
    1C        C  255   4.504   3.371   3.877
    1C        C  256   4.515   3.586   3.994
    1C        C  257   4.511   3.518   4.118
    1C        C  258   4.489   3.729   4.239
    1C        C  259   4.511   3.589   4.239
    1C        C  260   4.470   3.803   4.358
    1C        C  261   4.488   3.733   4.480
    1C        C  262   4.427   3.938   4.600
    1C        C  263   4.477   3.806   4.600
    1C        C  264   4.399   4.009   4.719
    1C        C  265   4.434   3.947   4.840
    1C        C  266   4.315   4.126   4.952
    1C        C  267   4.396   4.014   4.958
    1C        C  268   4.260   2.768   2.057
    1C        C  269   4.193   2.729   2.174
    1C        C  270   4.342   2.884   2.296
    1C        C  271   4.247   2.778   2.295
    1C        C  272   4.380   2.947   2.416
    1C        C  273   4.338   2.889   2.537
    1C        C  274   4.438   3.082   2.655
    1C        C  275   4.374   2.956   2.656
    1C        C  276   4.464   3.149   2.776
    1C        C  277   4.436   3.086   2.899
    1C        C  278   4.495   3.290   3.021
    1C        C  279   4.458   3.154   3.022
    1C        C  280   4.503   3.365   3.141
    1C        C  281   4.486   3.295   3.262
    1C        C  282   4.512   3.507   3.387
    1C        C  283   4.502   3.366   3.383
    1C        C  284   4.509   3.580   3.508
    1C        C  285   4.516   3.510   3.631
    1C        C  286   4.487   3.723   3.748
    1C        C  287   4.507   3.583   3.752
    1C        C  288   4.469   3.791   3.870
    1C        C  289   4.491   3.725   3.993
    1C        C  290   4.423   3.926   4.113
    1C        C  291   4.473   3.795   4.115
    1C        C  292   4.389   3.994   4.233
    1C        C  293   4.419   3.934   4.357
    1C        C  294   4.325   4.126   4.475
    1C        C  295   4.394   4.003   4.479
    1C        C  296   4.282   4.187   4.595
    1C        C  297   4.322   4.129   4.717
    1C        C  298   4.199   4.314   4.832
    1C        C  299   4.280   4.196   4.835
    1C        C  300   4.168   4.400   4.942
    1C        C  301   4.343   2.879   2.061
    1C        C  302   4.464   3.065   2.176
    1C        C  303   4.394   2.941   2.176
    1C        C  304   4.474   3.143   2.295
    1C        C  305   4.439   3.076   2.414
    1C        C  306   4.504   3.282   2.533
    1C        C  307   4.471   3.145   2.533
    1C        C  308   4.505   3.357   2.653
    1C        C  309   4.495   3.287   2.776
    1C        C  310   4.510   3.499   2.897
    1C        C  311   4.507   3.358   2.897
    1C        C  312   4.511   3.572   3.017
    1C        C  313   4.515   3.505   3.142
    1C        C  314   4.481   3.713   3.262
    1C        C  315   4.514   3.576   3.264
    1C        C  316   4.468   3.786   3.382
    1C        C  317   4.487   3.719   3.505
    1C        C  318   4.424   3.924   3.623
    1C        C  319   4.474   3.792   3.625
    1C        C  320   4.387   3.985   3.746
    1C        C  321   4.415   3.921   3.869
    1C        C  322   4.316   4.109   3.988
    1C        C  323   4.385   3.986   3.991
    1C        C  324   4.278   4.172   4.109
    1C        C  325   4.318   4.116   4.232
    1C        C  326   4.182   4.281   4.350
    1C        C  327   4.279   4.179   4.353
    1C        C  328   4.132   4.338   4.469
    1C        C  329   4.187   4.292   4.590
    1C        C  330   4.025   4.436   4.711
    1C        C  331   4.141   4.354   4.708
    1C        C  332   3.969   4.493   4.828
    1C        C  333   4.052   4.478   4.939
    1C        C  334   4.544   3.265   2.060
    1C        C  335   4.527   3.126   2.062
    1C        C  336   4.536   3.348   2.172
    1C        C  337   4.511   3.281   2.293
    1C        C  338   4.528   3.496   2.411
    1C        C  339   4.517   3.355   2.413
    1C        C  340   4.523   3.568   2.532
    1C        C  341   4.519   3.497   2.654
    1C        C  342   4.486   3.709   2.771
    1C        C  343   4.511   3.570   2.775
    1C        C  344   4.476   3.780   2.893
    1C        C  345   4.490   3.712   3.015
    1C        C  346   4.429   3.916   3.137
    1C        C  347   4.466   3.779   3.138
    1C        C  348   4.397   3.986   3.256
    1C        C  349   4.425   3.921   3.378
    1C        C  350   4.320   4.106   3.497
    1C        C  351   4.396   3.987   3.500
    1C        C  352   4.274   4.159   3.619
    1C        C  353   4.312   4.104   3.743
    1C        C  354   4.174   4.264   3.863
    1C        C  355   4.273   4.164   3.865
    1C        C  356   4.119   4.311   3.985
    1C        C  357   4.174   4.268   4.108
    1C        C  358   4.004   4.397   4.230
    1C        C  359   4.125   4.323   4.228
    1C        C  360   3.946   4.442   4.350
    1C        C  361   4.012   4.413   4.471
    1C        C  362   3.826   4.518   4.591
    1C        C  363   3.953   4.457   4.591
    1C        C  364   3.759   4.552   4.710
    1C        C  365   3.837   4.545   4.828
    1C        C  366   3.624   4.589   4.949
    1C        C  367   3.762   4.577   4.942
    1C        C  368   4.507   3.562   2.051
    1C        C  369   4.525   3.489   2.169
    1C        C  370   4.502   3.705   2.283
    1C        C  371   4.521   3.565   2.288
    1C        C  372   4.485   3.775   2.404
    1C        C  373   4.496   3.707   2.527
    1C        C  374   4.428   3.910   2.647
    1C        C  375   4.478   3.778   2.647
    1C        C  376   4.396   3.974   2.769
    1C        C  377   4.432   3.915   2.892
    1C        C  378   4.324   4.096   3.008
    1C        C  379   4.403   3.979   3.014
    1C        C  380   4.275   4.155   3.127
    1C        C  381   4.318   4.103   3.251
    1C        C  382   4.174   4.258   3.374
    1C        C  383   4.274   4.158   3.373
    1C        C  384   4.117   4.300   3.496
    1C        C  385   4.172   4.258   3.619
    1C        C  386   4.002   4.385   3.740
    1C        C  387   4.119   4.306   3.740
    1C        C  388   3.940   4.422   3.862
    1C        C  389   4.002   4.389   3.985
    1C        C  390   3.815   4.489   4.104
    1C        C  391   3.944   4.431   4.107
    1C        C  392   3.748   4.515   4.226
    1C        C  393   3.816   4.499   4.349
    1C        C  394   3.613   4.553   4.473
    1C        C  395   3.753   4.531   4.471
    1C        C  396   3.542   4.567   4.594
    1C        C  397   3.618   4.566   4.713
    1C        C  398   3.407   4.551   4.837
    1C        C  399   3.546   4.575   4.833
    1C        C  400   3.339   4.504   4.950
    1C        C  401   4.504   3.701   2.046
    1C        C  402   4.449   3.914   2.165
    1C        C  403   4.488   3.778   2.163
    1C        C  404   4.409   3.978   2.284
    1C        C  405   4.434   3.907   2.403
    1C        C  406   4.323   4.090   2.523
    1C        C  407   4.403   3.974   2.524
    1C        C  408   4.275   4.145   2.644
    1C        C  409   4.315   4.090   2.767
    1C        C  410   4.167   4.244   2.884
    1C        C  411   4.271   4.148   2.888
    1C        C  412   4.116   4.294   3.006
    1C        C  413   4.171   4.251   3.129
    1C        C  414   3.999   4.374   3.251
    1C        C  415   4.121   4.302   3.251
    1C        C  416   3.936   4.407   3.373
    1C        C  417   3.999   4.378   3.496
    1C        C  418   3.808   4.470   3.616
    1C        C  419   3.939   4.417   3.618
    1C        C  420   3.744   4.500   3.738
    1C        C  421   3.812   4.481   3.860
    1C        C  422   3.607   4.532   3.984
    1C        C  423   3.746   4.507   3.982
    1C        C  424   3.538   4.542   4.107
    1C        C  425   3.609   4.538   4.229
    1C        C  426   3.400   4.544   4.353
    1C        C  427   3.541   4.552   4.352
    1C        C  428   3.327   4.542   4.474
    1C        C  429   3.401   4.552   4.594
    1C        C  430   3.192   4.521   4.719
    1C        C  431   3.332   4.544   4.717
    1C        C  432   3.121   4.498   4.840
    1C        C  433   3.201   4.489   4.955
    1C        C  434   4.385   4.118   2.049
    1C        C  435   4.449   3.994   2.050
    1C        C  436   4.304   4.165   2.157
    1C        C  437   4.336   4.100   2.280
    1C        C  438   4.176   4.241   2.398
    1C        C  439   4.285   4.151   2.401
    1C        C  440   4.115   4.283   2.519
    1C        C  441   4.171   4.242   2.641
    1C        C  442   4.002   4.374   2.761
    1C        C  443   4.115   4.290   2.762
    1C        C  444   3.938   4.404   2.884
    1C        C  445   3.997   4.370   3.007
    1C        C  446   3.805   4.462   3.127
    1C        C  447   3.935   4.406   3.129
    1C        C  448   3.740   4.492   3.248
    1C        C  449   3.808   4.468   3.369
    1C        C  450   3.604   4.519   3.494
    1C        C  451   3.742   4.491   3.492
    1C        C  452   3.535   4.531   3.616
    1C        C  453   3.606   4.530   3.739
    1C        C  454   3.395   4.539   3.863
    1C        C  455   3.536   4.539   3.862
    1C        C  456   3.325   4.532   3.986
    1C        C  457   3.397   4.542   4.107
    1C        C  458   3.193   4.498   4.232
    1C        C  459   3.330   4.532   4.231
    1C        C  460   3.124   4.483   4.355
    1C        C  461   3.190   4.508   4.477
    1C        C  462   2.992   4.437   4.599
    1C        C  463   3.121   4.494   4.600
    1C        C  464   2.932   4.397   4.720
    1C        C  465   2.989   4.443   4.842
    1C        C  466   2.801   4.331   4.953
    1C        C  467   2.904   4.426   4.956
    1C        C  468   4.121   4.286   2.042
    1C        C  469   4.189   4.250   2.159
    1C        C  470   4.002   4.368   2.274
    1C        C  471   4.121   4.289   2.277
    1C        C  472   3.936   4.397   2.395
    1C        C  473   3.997   4.360   2.517
    1C        C  474   3.810   4.461   2.641
    1C        C  475   3.940   4.407   2.638
    1C        C  476   3.739   4.479   2.762
    1C        C  477   3.807   4.457   2.883
    1C        C  478   3.600   4.514   3.006
    1C        C  479   3.738   4.483   3.004
    1C        C  480   3.529   4.524   3.127
    1C        C  481   3.601   4.515   3.249
    1C        C  482   3.392   4.533   3.375
    1C        C  483   3.533   4.526   3.372
    1C        C  484   3.321   4.526   3.497
    1C        C  485   3.394   4.532   3.618
    1C        C  486   3.186   4.501   3.743
    1C        C  487   3.324   4.532   3.741
    1C        C  488   3.121   4.478   3.866
    1C        C  489   3.188   4.500   3.988
    1C        C  490   2.999   4.410   4.111
    1C        C  491   3.122   4.480   4.112
    1C        C  492   2.939   4.377   4.235
    1C        C  493   2.997   4.422   4.356
    1C        C  494   2.827   4.300   4.480
    1C        C  495   2.932   4.393   4.478
    1C        C  496   2.776   4.249   4.602
    1C        C  497   2.825   4.303   4.722
    1C        C  498   2.663   4.158   4.840
    1C        C  499   2.758   4.262   4.839
    1C        C  500   2.591   4.114   4.953
    1C        C  501   3.995   4.345   2.038
    1C        C  502   3.806   4.455   2.153
    1C        C  503   3.933   4.395   2.154
    1C        C  504   3.738   4.474   2.275
    1C        C  505   3.806   4.450   2.397
    1C        C  506   3.602   4.508   2.521
    1C        C  507   3.740   4.477   2.519
    1C        C  508   3.529   4.517   2.642
    1C        C  509   3.601   4.509   2.763
    1C        C  510   3.388   4.531   2.885
    1C        C  511   3.529   4.523   2.884
    1C        C  512   3.318   4.522   3.007
    1C        C  513   3.388   4.530   3.130
    1C        C  514   3.183   4.494   3.254
    1C        C  515   3.320   4.529   3.254
    1C        C  516   3.116   4.470   3.376
    1C        C  517   3.182   4.498   3.498
    1C        C  518   2.994   4.410   3.624
    1C        C  519   3.118   4.477   3.622
    1C        C  520   2.937   4.369   3.746
    1C        C  521   2.997   4.411   3.867
    1C        C  522   2.830   4.281   3.995
    1C        C  523   2.939   4.370   3.990
    1C        C  524   2.786   4.228   4.118
    1C        C  525   2.833   4.285   4.239
    1C        C  526   2.691   4.129   4.361
    1C        C  527   2.779   4.239   4.361
    1C        C  528   2.649   4.073   4.484
    1C        C  529   2.694   4.134   4.603
    1C        C  530   2.585   3.951   4.728
    1C        C  531   2.643   4.081   4.724
    1C        C  532   2.538   3.895   4.850
    1C        C  533   2.522   3.992   4.954
    1C        C  534   3.612   4.554   2.037
    1C        C  535   3.743   4.504   2.037
    1C        C  536   3.532   4.531   2.154
    1C        C  537   3.600   4.510   2.277
    1C        C  538   3.389   4.512   2.399
    1C        C  539   3.530   4.514   2.399
    1C        C  540   3.317   4.507   2.521
    1C        C  541   3.388   4.513   2.643
    1C        C  542   3.179   4.485   2.763
    1C        C  543   3.316   4.519   2.764
    1C        C  544   3.113   4.465   2.886
    1C        C  545   3.180   4.489   3.008
    1C        C  546   2.994   4.397   3.134
    1C        C  547   3.117   4.467   3.132
    1C        C  548   2.931   4.365   3.256
    1C        C  549   2.991   4.405   3.378
    1C        C  550   2.824   4.282   3.504
    1C        C  551   2.932   4.373   3.502
    1C        C  552   2.774   4.229   3.625
    1C        C  553   2.826   4.280   3.746
    1C        C  554   2.697   4.119   3.874
    1C        C  555   2.784   4.230   3.871
    1C        C  556   2.659   4.059   3.996
    1C        C  557   2.695   4.120   4.118
    1C        C  558   2.594   3.937   4.241
    1C        C  559   2.653   4.065   4.241
    1C        C  560   2.571   3.875   4.366
    1C        C  561   2.593   3.944   4.487
    1C        C  562   2.529   3.741   4.614
    1C        C  563   2.564   3.878   4.609
    1C        C  564   2.516   3.674   4.737
    1C        C  565   2.513   3.754   4.855
    1C        C  566   2.525   3.543   4.976
    1C        C  567   2.520   3.682   4.974
    1C        C  568   3.326   4.469   2.038
    1C        C  569   3.392   4.508   2.155
    1C        C  570   3.179   4.481   2.277
    1C        C  571   3.319   4.507   2.277
    1C        C  572   3.110   4.457   2.398
    1C        C  573   3.178   4.480   2.520
    1C        C  574   2.982   4.403   2.645
    1C        C  575   3.110   4.463   2.642
    1C        C  576   2.926   4.363   2.768
    1C        C  577   2.989   4.396   2.890
    1C        C  578   2.819   4.272   3.012
    1C        C  579   2.934   4.355   3.013
    1C        C  580   2.775   4.221   3.136
    1C        C  581   2.824   4.273   3.258
    1C        C  582   2.694   4.112   3.382
    1C        C  583   2.777   4.227   3.383
    1C        C  584   2.657   4.052   3.504
    1C        C  585   2.694   4.113   3.626
    1C        C  586   2.598   3.930   3.752
    1C        C  587   2.664   4.055   3.752
    1C        C  588   2.572   3.866   3.875
    1C        C  589   2.599   3.931   3.998
    1C        C  590   2.535   3.730   4.125
    1C        C  591   2.569   3.868   4.121
    1C        C  592   2.523   3.667   4.251
    1C        C  593   2.534   3.738   4.372
    1C        C  594   2.505   3.528   4.496
    1C        C  595   2.515   3.668   4.493
    1C        C  596   2.516   3.458   4.618
    1C        C  597   2.518   3.532   4.738
    1C        C  598   2.527   3.321   4.861
    1C        C  599   2.522   3.462   4.861
    1C        C  600   2.526   3.244   4.978
    1C        C  601   3.189   4.447   2.041
    1C        C  602   2.979   4.391   2.156
    1C        C  603   3.111   4.447   2.157
    1C        C  604   2.919   4.358   2.280
    1C        C  605   2.983   4.396   2.401
    1C        C  606   2.814   4.270   2.524
    1C        C  607   2.923   4.360   2.524
    1C        C  608   2.763   4.222   2.646
    1C        C  609   2.818   4.272   2.766
    1C        C  610   2.681   4.113   2.890
    1C        C  611   2.769   4.223   2.889
    1C        C  612   2.647   4.053   3.014
    1C        C  613   2.690   4.108   3.136
    1C        C  614   2.594   3.924   3.266
    1C        C  615   2.652   4.053   3.261
    1C        C  616   2.570   3.859   3.389
    1C        C  617   2.598   3.924   3.511
    1C        C  618   2.528   3.724   3.635
    1C        C  619   2.569   3.859   3.633
    1C        C  620   2.514   3.660   3.761
    1C        C  621   2.530   3.731   3.882
    1C        C  622   2.507   3.519   4.007
    1C        C  623   2.523   3.659   4.004
    1C        C  624   2.507   3.452   4.131
    1C        C  625   2.506   3.526   4.251
    1C        C  626   2.528   3.317   4.377
    1C        C  627   2.506   3.456   4.374
    1C        C  628   2.546   3.245   4.497
    1C        C  629   2.529   3.317   4.617
    1C        C  630   2.591   3.115   4.739
    1C        C  631   2.542   3.249   4.740
    1C        C  632   2.612   3.048   4.863
    1C        C  633   2.559   3.108   4.981
    1C        C  634   2.780   4.297   2.047
    1C        C  635   2.891   4.381   2.044
    1C        C  636   2.751   4.223   2.162
    1C        C  637   2.809   4.268   2.282
    1C        C  638   2.673   4.106   2.406
    1C        C  639   2.759   4.218   2.405
    1C        C  640   2.640   4.046   2.529
    1C        C  641   2.685   4.104   2.650
    1C        C  642   2.581   3.919   2.775
    1C        C  643   2.640   4.048   2.771
    1C        C  644   2.558   3.857   2.900
    1C        C  645   2.586   3.926   3.020
    1C        C  646   2.532   3.723   3.145
    1C        C  647   2.566   3.860   3.143
    1C        C  648   2.517   3.654   3.268
    1C        C  649   2.530   3.723   3.390
    1C        C  650   2.501   3.514   3.516
    1C        C  651   2.512   3.655   3.513
    1C        C  652   2.501   3.448   3.641
    1C        C  653   2.502   3.520   3.763
    1C        C  654   2.519   3.308   3.888
    1C        C  655   2.501   3.448   3.885
    1C        C  656   2.537   3.239   4.010
    1C        C  657   2.529   3.312   4.131
    1C        C  658   2.600   3.116   4.254
    1C        C  659   2.545   3.246   4.255
    1C        C  660   2.631   3.054   4.377
    1C        C  661   2.595   3.112   4.500
    1C        C  662   2.699   2.926   4.625
    1C        C  663   2.621   3.044   4.621
    1C        C  664   2.748   2.875   4.746
    1C        C  665   2.690   2.927   4.865
    1C        C  666   2.739   2.868   4.982
    1C        C  667   2.682   4.018   2.047
    1C        C  668   2.687   4.097   2.162
    1C        C  669   2.587   3.911   2.288
    1C        C  670   2.642   4.042   2.284
    1C        C  671   2.557   3.847   2.410
    1C        C  672   2.579   3.918   2.530
    1C        C  673   2.516   3.717   2.656
    1C        C  674   2.555   3.853   2.653
    1C        C  675   2.508   3.649   2.780
    1C        C  676   2.522   3.720   2.901
    1C        C  677   2.507   3.511   3.028
    1C        C  678   2.511   3.652   3.025
    1C        C  679   2.508   3.440   3.150
    1C        C  680   2.507   3.513   3.271
    1C        C  681   2.528   3.303   3.398
    1C        C  682   2.507   3.443   3.394
    1C        C  683   2.548   3.240   3.523
    1C        C  684   2.523   3.308   3.644
    1C        C  685   2.592   3.108   3.769
    1C        C  686   2.538   3.238   3.766
    1C        C  687   2.622   3.044   3.892
    1C        C  688   2.579   3.104   4.012
    1C        C  689   2.709   2.934   4.133
    1C        C  690   2.623   3.046   4.133
    1C        C  691   2.751   2.881   4.257
    1C        C  692   2.704   2.933   4.380
    1C        C  693   2.743   2.873   4.502
    1C        C  694   2.631   3.888   2.052
    1C        C  695   2.529   3.701   2.171
    1C        C  696   2.581   3.832   2.171
    1C        C  697   2.510   3.635   2.295
    1C        C  698   2.525   3.709   2.414
    1C        C  699   2.484   3.503   2.543
    1C        C  700   2.503   3.643   2.537
    1C        C  701   2.500   3.433   2.665
    1C        C  702   2.503   3.508   2.785
    1C        C  703   2.526   3.297   2.909
    1C        C  704   2.505   3.437   2.907
    1C        C  705   2.544   3.231   3.032
    1C        C  706   2.523   3.300   3.154
    1C        C  707   2.591   3.101   3.276
    1C        C  708   2.537   3.232   3.277
    1C        C  709   2.627   3.044   3.401
    1C        C  710   2.600   3.109   3.524
    1C        C  711   2.707   2.928   3.645
    1C        C  712   2.627   3.045   3.647
    1C        C  713   2.753   2.876   3.768
    1C        C  714   2.709   2.933   3.890
    1C        C  715   2.751   2.875   4.012
    1C        C  716   2.443   3.495   2.062
    1C        C  717   2.487   3.628   2.059
    1C        C  718   2.460   3.418   2.182
    1C        C  719   2.483   3.496   2.299
    1C        C  720   2.509   3.290   2.424
    1C        C  721   2.484   3.429   2.423
    1C        C  722   2.534   3.221   2.545
    1C        C  723   2.523   3.294   2.665
    1C        C  724   2.589   3.094   2.788
    1C        C  725   2.535   3.225   2.788
    1C        C  726   2.624   3.033   2.910
    1C        C  727   2.588   3.097   3.031
    1C        C  728   2.706   2.923   3.157
    1C        C  729   2.621   3.036   3.155
    1C        C  730   2.751   2.872   3.280
    1C        C  731   2.708   2.929   3.402
    1C        C  732   2.747   2.868   3.524
    1C        C  733   2.484   3.195   2.069
    1C        C  734   2.485   3.277   2.183
    1C        C  735   2.578   3.084   2.304
    1C        C  736   2.525   3.216   2.304
    1C        C  737   2.614   3.020   2.425
    1C        C  738   2.584   3.089   2.544
    1C        C  739   2.691   2.908   2.667
    1C        C  740   2.613   3.026   2.667
    1C        C  741   2.737   2.853   2.789
    1C        C  742   2.701   2.914   2.911
    1C        C  743   2.749   2.866   3.035
    1C        C  744   2.538   3.067   2.072
    1C        C  745   2.687   2.900   2.183
    1C        C  746   2.605   3.014   2.184
    1C        C  747   2.731   2.843   2.304
    1C        C  748   2.685   2.898   2.426
    1C        C  749   2.735   2.847   2.548
    1C        C  750   2.738   2.840   2.067
    1C        C  751   3.630   2.290   1.992
    1C        O  752   3.609   2.173   2.033
    1C        O  753   3.635   2.276   1.853
    1C        C  754   4.609   3.053   1.963
    1C        O  755   4.583   3.029   1.842
    1C        O  756   4.737   3.002   1.990
    1C        C  757   4.426   4.212   1.941
    1C        O  758   4.515   4.297   1.969
    1C        O  759   4.434   4.172   1.807
    1C        C  760   3.589   4.669   1.947
    1C        O  761   3.654   4.775   1.970
    1C        O  762   3.494   4.671   1.845
    1C        C  763   2.864   4.494   1.951
    1C        O  764   2.891   4.488   1.828
    1C        O  765   2.807   4.613   1.998
    1C        C  766   2.376   3.446   1.940
    1C        O  767   2.434   3.406   1.836
    1C        O  768   2.240   3.463   1.910
    1C        C  769   4.696   3.586   5.047
    1C        O  770   4.680   3.561   5.169
    1C        O  771   4.829   3.609   5.009
    1C        C  772   4.283   4.467   5.007
    1C        O  773   4.309   4.460   5.130
    1C        O  774   4.377   4.546   4.940
    1C        C  775   4.142   2.515   5.066
    1C        O  776   4.149   2.390   5.073
    1C        O  777   4.142   2.551   5.201
    1C        C  778   2.867   4.541   5.041
    1C        O  779   2.781   4.625   5.004
    1C        O  780   2.953   4.609   5.128
    1C        C  781   2.468   3.031   5.069
    1C        O  782   2.353   3.004   5.024
    1C        O  783   2.481   3.028   5.207
    1C        C  784   2.397   3.996   5.033
    1C        O  785   2.304   4.078   5.007
    1C        O  786   2.416   3.985   5.171
    1C        C  787   2.957   2.408   2.001
    1C        O  788   2.981   2.357   1.888
    1C        O  789   2.879   2.318   2.073
    1C        C  790   3.170   2.355   5.035
    1C        O  791   3.117   2.256   4.978
    1C        O  792   3.146   2.346   5.172
    1C        H  793   4.322   2.998   5.062
    1C        H  794   4.149   2.835   5.056
    1C        H  795   4.512   3.125   5.053
    1C        H  796   4.523   3.365   5.066
    1C        H  797   4.520   3.794   5.047
    1C        H  798   4.431   3.992   5.057
    1C        H  799   4.253   4.146   5.037
    1C        H  800   4.041   4.552   5.016
    1C        H  801   3.808   4.563   5.037
    1C        H  802   3.582   4.646   5.029
    1C        H  803   3.386   4.513   5.046
    1C        H  804   3.152   4.504   5.049
    1C        H  805   3.902   2.452   5.046
    1C        H  806   3.670   2.495   5.078
    1C        H  807   2.982   2.537   5.045
    1C        H  808   3.436   2.474   5.075
    1C        H  809   2.906   2.780   5.064
    1C        H  810   2.743   2.923   5.073
    1C        H  811   2.467   3.282   5.059
    1C        H  812   2.595   3.508   5.049
    1C        H  813   2.491   3.725   5.068
    1C        H  814   2.585   4.191   5.027
    1C        H  815   2.770   4.291   5.047
    1C        H  816   2.757   2.897   1.979
    1C        H  817   2.800   2.655   1.990
    1C        H  818   3.209   2.434   1.983
    1C        H  819   3.432   2.454   1.972
    1C        H  820   3.843   2.547   1.969
    1C        H  821   4.065   2.614   1.965
    1C        H  822   4.308   2.686   2.008
    1C        H  823   4.364   2.919   1.963
    1C        H  824   4.612   3.298   1.983
    1C        H  825   4.492   3.504   1.962
    1C        H  826   4.471   3.741   1.953
    1C        H  827   3.803   4.539   1.956
    1C        H  828   3.972   4.398   1.948
    1C        H  829   4.167   4.252   1.952
    1C        H  830   4.537   3.988   1.989
    1C        H  831   2.632   3.838   1.958
    1C        H  832   2.704   4.059   1.950
    1C        H  833   2.702   4.305   1.974
    1C        H  834   3.386   4.439   1.954
    1C        H  835   3.133   4.482   1.956
    1C        H  836   2.554   3.019   1.978
    1C        H  837   2.406   3.216   1.999
    1C        H  838   2.491   3.679   1.965
    2V3OU   H29  839   2.805   3.547   3.519
    2V3OU   C27  840   2.790   3.502   3.620
    2V3OU   H27  841   2.731   3.567   3.689
    2V3OU   H28  842   2.741   3.403   3.600
    2V3OU   O11  843   2.912   3.475   3.690
    2V3OU   C15  844   2.927   3.399   3.804
    2V3OU   C13  845   3.055   3.374   3.856
    2V3OU   C14  846   3.077   3.264   3.939
    2V3OU   C16  847   2.977   3.181   3.990
    2V3OU    H6  848   2.988   3.097   4.060
    2V3OU   C12  849   3.213   3.230   3.987
    2V3OU    O2  850   3.238   3.126   4.052
    2V3OU   C10  851   3.324   3.311   3.935
    2V3OU    C8  852   3.455   3.268   3.953
    2V3OU   O10  853   3.486   3.151   4.015
    2V3OU   H26  854   3.400   3.109   4.030
    2V3OU    C6  855   3.565   3.348   3.906
    2V3OU    C5  856   3.537   3.464   3.836
    2V3OU    C4  857   3.702   3.289   3.906
    2V3OU    H4  858   3.723   3.230   4.000
    2V3OU    H5  859   3.709   3.217   3.820
    2V3OU    C2  860   3.813   3.394   3.898
    2V3OU    O6  861   3.805   3.472   4.017
    2V3OU   H21  862   3.761   3.553   3.985
    2V3OU    C3  863   3.782   3.492   3.785
    2V3OU    H2  864   3.856   3.576   3.783
    2V3OU    H3  865   3.782   3.442   3.685
    2V3OU   C25  866   3.950   3.326   3.892
    2V3OU    O7  867   4.002   3.288   3.787
    2V3OU   C26  868   4.031   3.289   4.016
    2V3OU   H22  869   4.064   3.386   4.061
    2V3OU   H23  870   4.120   3.227   3.986
    2V3OU    O8  871   3.960   3.208   4.106
    2V3OU   H24  872   3.919   3.267   4.172
    2V3OU    C1  873   3.646   3.560   3.797
    2V3OU    H1  874   3.624   3.615   3.700
    2V3OU    O3  875   3.655   3.654   3.904
    2V3OU   C19  876   3.615   3.790   3.882
    2V3OU    H9  877   3.520   3.799   3.823
    2V3OU    O4  878   3.712   3.854   3.801
    2V3OU   C20  879   3.845   3.872   3.850
    2V3OU   H10  880   3.906   3.778   3.864
    2V3OU   C24  881   3.606   3.853   4.021
    2V3OU   H16  882   3.534   3.785   4.074
    2V3OU   H17  883   3.566   3.958   4.025
    2V3OU   C23  884   3.745   3.872   4.081
    2V3OU   H15  885   3.787   3.768   4.099
    2V3OU    N1  886   3.735   3.954   4.200
    2V3OU   H19  887   3.808   3.928   4.262
    2V3OU   H20  888   3.646   3.934   4.241
    2V3OU   C21  889   3.846   3.943   3.985
    2V3OU   H11  890   3.952   3.929   4.021
    2V3OU    O5  891   3.826   4.084   3.984
    2V3OU   H18  892   3.788   4.101   4.072
    2V3OU   C22  893   3.911   3.948   3.735
    2V3OU   H12  894   3.852   4.039   3.707
    2V3OU   H13  895   3.915   3.882   3.645
    2V3OU   H14  896   4.019   3.964   3.762
    2V3OU   C11  897   3.160   3.474   3.830
    2V3OU    O1  898   3.129   3.583   3.778
    2V3OU    C9  899   3.297   3.426   3.857
    2V3OU    C7  900   3.402   3.502   3.807
    2V3OU    O9  901   3.386   3.622   3.742
    2V3OU   H25  902   3.289   3.626   3.730
    2V3OU   C17  903   2.827   3.316   3.859
    2V3OU    H7  904   2.731   3.350   3.818
    2V3OU   C18  905   2.848   3.214   3.950
    2V3OU    H8  906   2.784   3.171   4.029
    3SOL     OW  907   2.727   4.242   5.803
    3SOL    HW1  908   2.761   4.302   5.732
    3SOL    HW2  909   2.784   4.251   5.885
    4SOL     OW  910   6.637   0.034   6.567
    4SOL    HW1  911   6.567   6.981   6.569
    4SOL    HW2  912   6.599   0.119   6.531
    5SOL     OW  913   4.899   2.289   2.435
    5SOL    HW1  914   4.860   2.375   2.400
    5SOL    HW2  915   4.838   2.213   2.412
    6SOL     OW  916   4.743   2.088   2.383
    6SOL    HW1  917   4.669   2.066   2.320
    6SOL    HW2  918   4.715   2.066   2.477
    7SOL     OW  919   1.140   4.064   4.121
    7SOL    HW1  920   1.164   4.028   4.032
    7SOL    HW2  921   1.117   3.989   4.183
    8SOL     OW  922   2.884   1.967   5.179
    8SOL    HW1  923   2.971   1.945   5.134
    8SOL    HW2  924   2.863   2.064   5.165
    9SOL     OW  925   6.030   2.150   5.969
    9SOL    HW1  926   5.968   2.121   5.896
    9SOL    HW2  927   6.117   2.101   5.961
   10SOL     OW  928   2.725   4.731   4.520
   10SOL    HW1  929   2.656   4.669   4.484
   10SOL    HW2  930   2.698   4.762   4.611
   11SOL     OW  931   2.078   0.925   6.499
   11SOL    HW1  932   2.013   0.895   6.569
   11SOL    HW2  933   2.157   0.863   6.498
   12SOL     OW  934   2.835   4.853   4.069
   12SOL    HW1  935   2.777   4.895   4.000
   12SOL    HW2  936   2.929   4.847   4.034
   13SOL     OW  937   3.788   6.298   3.468
   13SOL    HW1  938   3.862   6.334   3.411
   13SOL    HW2  939   3.773   6.358   3.546
   14SOL     OW  940   3.907   3.942   6.590
   14SOL    HW1  941   3.849   4.024   6.595
   14SOL    HW2  942   3.993   3.959   6.638
   15SOL     OW  943   0.948   6.865   7.014
   15SOL    HW1  944   0.905   6.828   6.931
   15SOL    HW2  945   0.980   6.958   6.996
   16SOL     OW  946   5.700   2.785   6.622
   16SOL    HW1  947   5.789   2.764   6.581
   16SOL    HW2  948   5.686   2.728   6.703
   17SOL     OW  949   4.984   0.411   6.231
   17SOL    HW1  950   4.955   0.374   6.319
   17SOL    HW2  951   4.919   0.481   6.201
   18SOL     OW  952   3.728   0.780   4.519
   18SOL    HW1  953   3.644   0.828   4.546
   18SOL    HW2  954   3.784   0.763   4.600
   19SOL     OW  955   0.682   2.540   2.070
   19SOL    HW1  956   0.632   2.457   2.044
   19SOL    HW2  957   0.775   2.516   2.096
   20SOL     OW  958   4.982   2.303   5.392
   20SOL    HW1  959   5.007   2.351   5.476
   20SOL    HW2  960   4.940   2.367   5.327
   21SOL     OW  961   2.761   0.491   3.028
   21SOL    HW1  962   2.667   0.461   3.014
   21SOL    HW2  963   2.784   0.561   2.961
   22SOL     OW  964   1.209   6.565   0.224
   22SOL    HW1  965   1.153   6.522   0.295
   22SOL    HW2  966   1.276   6.500   0.190
   23SOL     OW  967   4.103   5.236   2.472
   23SOL    HW1  968   4.043   5.183   2.532
   23SOL    HW2  969   4.120   5.185   2.388
   24SOL     OW  970   3.623   0.621   2.419
   24SOL    HW1  971   3.713   0.579   2.416
   24SOL    HW2  972   3.615   0.689   2.346
   25SOL     OW  973   1.789   0.117   3.819
   25SOL    HW1  974   1.875   0.103   3.869
   25SOL    HW2  975   1.802   0.189   3.750
   26SOL     OW  976   6.829   2.159   0.046
   26SOL    HW1  977   6.787   2.205   0.124
   26SOL    HW2  978   6.781   2.185   6.980
   27SOL     OW  979   2.051   1.365   2.115
   27SOL    HW1  980   2.037   1.304   2.037
   27SOL    HW2  981   1.968   1.420   2.129
   28SOL     OW  982   0.101   1.107   4.812
   28SOL    HW1  983   0.014   1.059   4.797
   28SOL    HW2  984   0.176   1.051   4.778
   29SOL     OW  985   6.981   0.961   0.828
   29SOL    HW1  986   6.983   1.044   0.772
   29SOL    HW2  987   7.004   0.882   0.772
   30SOL     OW  988   4.409   0.599   5.139
   30SOL    HW1  989   4.405   0.500   5.124
   30SOL    HW2  990   4.492   0.635   5.096
   31SOL     OW  991   0.704   2.097   5.648
   31SOL    HW1  992   0.794   2.056   5.637
   31SOL    HW2  993   0.656   2.095   5.560
   32SOL     OW  994   1.305   1.714   2.231
   32SOL    HW1  995   1.303   1.615   2.214
   32SOL    HW2  996   1.399   1.747   2.227
   33SOL     OW  997   1.133   4.523   5.342
   33SOL    HW1  998   1.196   4.444   5.343
   33SOL    HW2  999   1.108   4.546   5.436
   34SOL     OW 1000   2.622   5.422   4.907
   34SOL    HW1 1001   2.641   5.360   4.831
   34SOL    HW2 1002   2.704   5.431   4.963
   35SOL     OW 1003   4.234   2.338   5.544
   35SOL    HW1 1004   4.213   2.264   5.609
   35SOL    HW2 1005   4.298   2.402   5.586
   36SOL     OW 1006   4.687   1.535   4.038
   36SOL    HW1 1007   4.747   1.578   4.106
   36SOL    HW2 1008   4.593   1.564   4.054
   37SOL     OW 1009   1.678   1.827   5.231
   37SOL    HW1 1010   1.714   1.894   5.295
   37SOL    HW2 1011   1.754   1.782   5.184
   38SOL     OW 1012   1.915   3.759   1.794
   38SOL    HW1 1013   1.904   3.778   1.891
   38SOL    HW2 1014   2.010   3.732   1.776
   39SOL     OW 1015   5.935   4.625   6.083
   39SOL    HW1 1016   5.996   4.700   6.058
   39SOL    HW2 1017   5.917   4.568   6.003
   40SOL     OW 1018   3.551   2.000   0.081
   40SOL    HW1 1019   3.490   1.963   0.011
   40SOL    HW2 1020   3.529   2.096   0.097
   41SOL     OW 1021   6.439   3.625   2.901
   41SOL    HW1 1022   6.360   3.630   2.840
   41SOL    HW2 1023   6.508   3.563   2.862
   42SOL     OW 1024   3.317   5.851   4.636
   42SOL    HW1 1025   3.404   5.816   4.670
   42SOL    HW2 1026   3.308   5.948   4.660
   43SOL     OW 1027   4.228   0.630   5.586
   43SOL    HW1 1028   4.314   0.582   5.570
   43SOL    HW2 1029   4.153   0.564   5.594
   44SOL     OW 1030   5.996   2.050   5.236
   44SOL    HW1 1031   5.984   2.016   5.143
   44SOL    HW2 1032   6.069   2.119   5.238
   45SOL     OW 1033   4.267   5.401   1.660
   45SOL    HW1 1034   4.354   5.351   1.657
   45SOL    HW2 1035   4.274   5.473   1.729
   46SOL     OW 1036   1.106   2.353   4.258
   46SOL    HW1 1037   1.157   2.296   4.193
   46SOL    HW2 1038   1.163   2.431   4.285
   47SOL     OW 1039   4.129   4.270   1.464
   47SOL    HW1 1040   4.109   4.232   1.374
   47SOL    HW2 1041   4.061   4.238   1.530
   48SOL     OW 1042   6.508   2.432   6.760
   48SOL    HW1 1043   6.517   2.529   6.782
   48SOL    HW2 1044   6.437   2.419   6.690
   49SOL     OW 1045   5.229   2.324   1.688
   49SOL    HW1 1046   5.197   2.417   1.672
   49SOL    HW2 1047   5.259   2.314   1.783
   50SOL     OW 1048   6.335   1.569   5.514
   50SOL    HW1 1049   6.340   1.559   5.613
   50SOL    HW2 1050   6.268   1.505   5.477
   51SOL     OW 1051   2.016   6.313   2.679
   51SOL    HW1 1052   2.089   6.331   2.613
   51SOL    HW2 1053   1.944   6.382   2.669
   52SOL     OW 1054   5.595   2.853   1.856
   52SOL    HW1 1055   5.657   2.797   1.911
   52SOL    HW2 1056   5.508   2.863   1.903
   53SOL     OW 1057   5.589   0.411   3.359
   53SOL    HW1 1058   5.650   0.464   3.418
   53SOL    HW2 1059   5.632   0.324   3.335
   54SOL     OW 1060   5.014   6.853   0.419
   54SOL    HW1 1061   5.077   6.839   0.495
   54SOL    HW2 1062   4.997   6.951   0.408
   55SOL     OW 1063   2.064   2.473   5.082
   55SOL    HW1 1064   2.063   2.447   4.986
   55SOL    HW2 1065   2.158   2.487   5.112
   56SOL     OW 1066   1.033   1.819   0.994
   56SOL    HW1 1067   1.004   1.792   0.902
   56SOL    HW2 1068   1.080   1.907   0.990
   57SOL     OW 1069   3.753   1.486   0.548
   57SOL    HW1 1070   3.794   1.543   0.620
   57SOL    HW2 1071   3.786   1.392   0.559
   58SOL     OW 1072   0.768   6.215   5.764
   58SOL    HW1 1073   0.837   6.220   5.691
   58SOL    HW2 1074   0.682   6.253   5.731
   59SOL     OW 1075   6.906   3.823   6.198
   59SOL    HW1 1076   6.877   3.796   6.290
   59SOL    HW2 1077   6.884   3.749   6.134
   60SOL     OW 1078   4.966   2.549   3.590
   60SOL    HW1 1079   4.989   2.487   3.515
   60SOL    HW2 1080   4.867   2.548   3.604
   61SOL     OW 1081   6.848   0.963   4.810
   61SOL    HW1 1082   6.759   0.922   4.831
   61SOL    HW2 1083   6.906   0.895   4.765
   62SOL     OW 1084   2.333   0.986   1.918
   62SOL    HW1 1085   2.332   1.063   1.854
   62SOL    HW2 1086   2.304   0.903   1.871
   63SOL     OW 1087   4.299   0.385   3.534
   63SOL    HW1 1088   4.325   0.289   3.528
   63SOL    HW2 1089   4.217   0.395   3.590
   64SOL     OW 1090   0.592   3.148   6.405
   64SOL    HW1 1091   0.553   3.100   6.327
   64SOL    HW2 1092   0.614   3.082   6.477
   65SOL     OW 1093   1.466   6.442   5.782
   65SOL    HW1 1094   1.375   6.409   5.809
   65SOL    HW2 1095   1.460   6.539   5.760
   66SOL     OW 1096   3.212   0.090   3.637
   66SOL    HW1 1097   3.234   0.038   3.555
   66SOL    HW2 1098   3.270   0.171   3.643
   67SOL     OW 1099   0.309   3.289   6.170
   67SOL    HW1 1100   0.294   3.270   6.073
   67SOL    HW2 1101   0.383   3.356   6.180
   68SOL     OW 1102   0.006   1.894   6.194
   68SOL    HW1 1103   6.931   1.926   6.176
   68SOL    HW2 1104   0.005   1.833   6.273
   69SOL     OW 1105   1.686   2.848   5.026
   69SOL    HW1 1106   1.781   2.864   5.054
   69SOL    HW2 1107   1.624   2.893   5.091
   70SOL     OW 1108   5.268   5.217   4.570
   70SOL    HW1 1109   5.203   5.192   4.498
   70SOL    HW2 1110   5.250   5.162   4.652
   71SOL     OW 1111   4.800   1.415   3.269
   71SOL    HW1 1112   4.814   1.418   3.170
   71SOL    HW2 1113   4.873   1.362   3.312
   72SOL     OW 1114   0.434   1.485   3.256
   72SOL    HW1 1115   0.360   1.551   3.241
   72SOL    HW2 1116   0.516   1.517   3.207
   73SOL     OW 1117   3.035   0.620   1.071
   73SOL    HW1 1118   3.096   0.649   0.998
   73SOL    HW2 1119   2.963   0.561   1.034
   74SOL     OW 1120   2.620   1.403   6.347
   74SOL    HW1 1121   2.673   1.355   6.416
   74SOL    HW2 1122   2.668   1.488   6.321
   75SOL     OW 1123   4.109   1.429   1.690
   75SOL    HW1 1124   4.058   1.498   1.639
   75SOL    HW2 1125   4.136   1.466   1.779
   76SOL     OW 1126   2.121   3.641   5.884
   76SOL    HW1 1127   2.219   3.630   5.867
   76SOL    HW2 1128   2.102   3.736   5.907
   77SOL     OW 1129   1.577   5.836   3.248
   77SOL    HW1 1130   1.625   5.796   3.326
   77SOL    HW2 1131   1.636   5.906   3.206
   78SOL     OW 1132   4.131   1.345   1.264
   78SOL    HW1 1133   4.182   1.373   1.182
   78SOL    HW2 1134   4.188   1.361   1.345
   79SOL     OW 1135   2.822   5.905   1.803
   79SOL    HW1 1136   2.723   5.920   1.797
   79SOL    HW2 1137   2.842   5.808   1.794
   80SOL     OW 1138   4.656   1.277   4.657
   80SOL    HW1 1139   4.675   1.372   4.679
   80SOL    HW2 1140   4.557   1.264   4.649
   81SOL     OW 1141   1.880   6.661   1.323
   81SOL    HW1 1142   1.820   6.716   1.265
   81SOL    HW2 1143   1.953   6.718   1.360
   82SOL     OW 1144   6.753   5.825   1.224
   82SOL    HW1 1145   6.819   5.766   1.177
   82SOL    HW2 1146   6.801   5.903   1.265
   83SOL     OW 1147   0.949   1.430   6.288
   83SOL    HW1 1148   0.999   1.409   6.204
   83SOL    HW2 1149   0.948   1.350   6.348
   84SOL     OW 1150   6.446   4.352   3.588
   84SOL    HW1 1151   6.512   4.342   3.513
   84SOL    HW2 1152   6.471   4.430   3.645
   85SOL     OW 1153   1.393   0.957   3.473
   85SOL    HW1 1154   1.391   0.921   3.379
   85SOL    HW2 1155   1.301   0.982   3.500
   86SOL     OW 1156   0.024   1.264   6.765
   86SOL    HW1 1157   0.078   1.348   6.765
   86SOL    HW2 1158   6.969   1.271   6.697
   87SOL     OW 1159   3.601   4.036   0.603
   87SOL    HW1 1160   3.503   4.023   0.585
   87SOL    HW2 1161   3.641   3.949   0.634
   88SOL     OW 1162   3.150   2.188   6.482
   88SOL    HW1 1163   3.077   2.175   6.415
   88SOL    HW2 1164   3.185   2.281   6.476
   89SOL     OW 1165   3.536   3.743   0.498
   89SOL    HW1 1166   3.445   3.758   0.536
   89SOL    HW2 1167   3.530   3.746   0.398
   90SOL     OW 1168   4.342   4.656   2.265
   90SOL    HW1 1169   4.411   4.698   2.206
   90SOL    HW2 1170   4.272   4.614   2.209
   91SOL     OW 1171   6.023   4.859   5.959
   91SOL    HW1 1172   5.992   4.954   5.967
   91SOL    HW2 1173   5.949   4.804   5.920
   92SOL     OW 1174   5.246   4.216   0.622
   92SOL    HW1 1175   5.247   4.151   0.546
   92SOL    HW2 1176   5.230   4.167   0.707
   93SOL     OW 1177   3.131   3.456   6.822
   93SOL    HW1 1178   3.053   3.505   6.783
   93SOL    HW2 1179   3.107   3.360   6.835
   94SOL     OW 1180   2.079   5.973   0.812
   94SOL    HW1 1181   2.049   5.885   0.848
   94SOL    HW2 1182   1.999   6.027   0.786
   95SOL     OW 1183   1.374   0.921   3.204
   95SOL    HW1 1184   1.276   0.918   3.225
   95SOL    HW2 1185   1.394   1.000   3.148
   96SOL     OW 1186   4.878   5.478   6.457
   96SOL    HW1 1187   4.814   5.493   6.382
   96SOL    HW2 1188   4.855   5.394   6.505
   97SOL     OW 1189   2.214   3.839   5.270
   97SOL    HW1 1190   2.294   3.877   5.224
   97SOL    HW2 1191   2.156   3.793   5.203
   98SOL     OW 1192   1.174   1.428   0.722
   98SOL    HW1 1193   1.173   1.328   0.722
   98SOL    HW2 1194   1.264   1.461   0.752
   99SOL     OW 1195   3.692   4.043   2.369
   99SOL    HW1 1196   3.719   3.991   2.288
   99SOL    HW2 1197   3.612   4.099   2.348
  100SOL     OW 1198   6.988   0.168   4.356
  100SOL    HW1 1199   0.006   0.182   4.263
  100SOL    HW2 1200   0.026   0.100   4.404
  101SOL     OW 1201   0.515   5.564   2.331
  101SOL    HW1 1202   0.473   5.483   2.372
  101SOL    HW2 1203   0.538   5.630   2.403
  102SOL     OW 1204   3.327   5.747   2.342
  102SOL    HW1 1205   3.383   5.821   2.379
  102SOL    HW2 1206   3.382   5.665   2.333
  103SOL     OW 1207   1.560   2.030   2.686
  103SOL    HW1 1208   1.581   2.127   2.671
  103SOL    HW2 1209   1.609   1.974   2.620
  104SOL     OW 1210   1.926   4.776   1.667
  104SOL    HW1 1211   1.951   4.791   1.763
  104SOL    HW2 1212   1.919   4.864   1.621
  105SOL     OW 1213   5.156   1.522   5.902
  105SOL    HW1 1214   5.179   1.553   5.994
  105SOL    HW2 1215   5.227   1.458   5.870
  106SOL     OW 1216   4.452   5.828   2.503
  106SOL    HW1 1217   4.536   5.851   2.552
  106SOL    HW2 1218   4.464   5.851   2.406
  107SOL     OW 1219   6.982   0.827   6.776
  107SOL    HW1 1220   0.011   0.885   6.843
  107SOL    HW2 1221   6.945   0.884   6.703
  108SOL     OW 1222   3.703   0.077   5.568
  108SOL    HW1 1223   3.770   0.052   5.638
  108SOL    HW2 1224   3.611   0.070   5.606
  109SOL     OW 1225   2.480   0.658   2.466
  109SOL    HW1 1226   2.492   0.561   2.484
  109SOL    HW2 1227   2.564   0.696   2.428
  110SOL     OW 1228   2.334   5.301   4.373
  110SOL    HW1 1229   2.370   5.207   4.372
  110SOL    HW2 1230   2.259   5.307   4.438
  111SOL     OW 1231   1.454   1.638   3.227
  111SOL    HW1 1232   1.554   1.643   3.225
  111SOL    HW2 1233   1.423   1.634   3.323
  112SOL     OW 1234   5.068   6.726   0.191
  112SOL    HW1 1235   5.042   6.776   0.274
  112SOL    HW2 1236   5.071   6.789   0.114
  113SOL     OW 1237   0.390   6.164   2.606
  113SOL    HW1 1238   0.455   6.220   2.657
  113SOL    HW2 1239   0.364   6.084   2.661
  114SOL     OW 1240   1.366   5.905   2.022
  114SOL    HW1 1241   1.293   5.918   1.955
  114SOL    HW2 1242   1.450   5.878   1.976
  115SOL     OW 1243   5.730   0.587   3.502
  115SOL    HW1 1244   5.804   0.609   3.566
  115SOL    HW2 1245   5.646   0.631   3.533
  116SOL     OW 1246   0.155   5.992   1.370
  116SOL    HW1 1247   0.213   5.997   1.451
  116SOL    HW2 1248   0.080   5.928   1.387
  117SOL     OW 1249   1.760   0.511   0.291
  117SOL    HW1 1250   1.682   0.506   0.354
  117SOL    HW2 1251   1.732   0.476   0.202
  118SOL     OW 1252   1.868   2.376   3.195
  118SOL    HW1 1253   1.932   2.446   3.164
  118SOL    HW2 1254   1.833   2.400   3.286
  119SOL     OW 1255   0.619   0.294   6.522
  119SOL    HW1 1256   0.542   0.311   6.461
  119SOL    HW2 1257   0.592   0.228   6.592
  120SOL     OW 1258   5.080   0.166   4.151
  120SOL    HW1 1259   5.174   0.192   4.171
  120SOL    HW2 1260   5.047   0.218   4.073
  121SOL     OW 1261   1.532   3.901   0.216
  121SOL    HW1 1262   1.449   3.954   0.200
  121SOL    HW2 1263   1.508   3.805   0.229
  122SOL     OW 1264   1.582   3.468   6.956
  122SOL    HW1 1265   1.645   3.513   6.893
  122SOL    HW2 1266   1.489   3.499   6.939
  123SOL     OW 1267   1.091   1.130   2.121
  123SOL    HW1 1268   1.176   1.078   2.130
  123SOL    HW2 1269   1.097   1.190   2.041
  124SOL     OW 1270   3.325   2.323   0.831
  124SOL    HW1 1271   3.254   2.260   0.800
  124SOL    HW2 1272   3.376   2.282   0.906
  125SOL     OW 1273   3.148   2.715   0.630
  125SOL    HW1 1274   3.178   2.811   0.635
  125SOL    HW2 1275   3.080   2.705   0.557
  126SOL     OW 1276   3.795   3.451   3.114
  126SOL    HW1 1277   3.738   3.506   3.053
  126SOL    HW2 1278   3.793   3.489   3.206
  127SOL     OW 1279   6.690   6.357   6.163
  127SOL    HW1 1280   6.692   6.283   6.097
  127SOL    HW2 1281   6.651   6.324   6.250
  128SOL     OW 1282   5.301   2.939   1.983
  128SOL    HW1 1283   5.332   2.990   2.063
  128SOL    HW2 1284   5.288   3.001   1.906
  129SOL     OW 1285   3.075   4.310   0.644
  129SOL    HW1 1286   3.132   4.297   0.726
  129SOL    HW2 1287   3.025   4.225   0.626
  130SOL     OW 1288   6.353   0.623   4.817
  130SOL    HW1 1289   6.296   0.674   4.882
  130SOL    HW2 1290   6.444   0.663   4.814
  131SOL     OW 1291   5.956   0.835   4.674
  131SOL    HW1 1292   5.925   0.892   4.750
  131SOL    HW2 1293   5.904   0.750   4.673
  132SOL     OW 1294   3.189   3.216   1.560
  132SOL    HW1 1295   3.287   3.238   1.555
  132SOL    HW2 1296   3.155   3.239   1.651
  133SOL     OW 1297   5.426   1.529   3.745
  133SOL    HW1 1298   5.372   1.445   3.737
  133SOL    HW2 1299   5.364   1.607   3.757
  134SOL     OW 1300   0.845   0.197   2.783
  134SOL    HW1 1301   0.888   0.108   2.768
  134SOL    HW2 1302   0.747   0.191   2.761
  135SOL     OW 1303   5.404   3.119   3.942
  135SOL    HW1 1304   5.413   3.169   4.028
  135SOL    HW2 1305   5.329   3.054   3.949
  136SOL     OW 1306   2.047   6.332   4.411
  136SOL    HW1 1307   2.051   6.239   4.447
  136SOL    HW2 1308   1.957   6.371   4.431
  137SOL     OW 1309   4.618   1.132   4.142
  137SOL    HW1 1310   4.554   1.195   4.186
  137SOL    HW2 1311   4.711   1.165   4.155
  138SOL     OW 1312   0.717   4.333   3.479
  138SOL    HW1 1313   0.713   4.347   3.380
  138SOL    HW2 1314   0.699   4.420   3.525
  139SOL     OW 1315   2.701   5.783   6.164
  139SOL    HW1 1316   2.706   5.774   6.263
  139SOL    HW2 1317   2.650   5.705   6.126
  140SOL     OW 1318   1.537   6.751   2.782
  140SOL    HW1 1319   1.506   6.842   2.810
  140SOL    HW2 1320   1.572   6.702   2.861
  141SOL     OW 1321   6.818   2.688   6.239
  141SOL    HW1 1322   6.779   2.773   6.205
  141SOL    HW2 1323   6.806   2.683   6.338
  142SOL     OW 1324   2.216   3.732   1.792
  142SOL    HW1 1325   2.214   3.638   1.827
  142SOL    HW2 1326   2.299   3.746   1.737
  143SOL     OW 1327   5.747   5.647   0.837
  143SOL    HW1 1328   5.845   5.654   0.856
  143SOL    HW2 1329   5.696   5.683   0.915
  144SOL     OW 1330   2.398   4.743   4.724
  144SOL    HW1 1331   2.485   4.738   4.773
  144SOL    HW2 1332   2.347   4.658   4.739
  145SOL     OW 1333   1.511   5.550   1.695
  145SOL    HW1 1334   1.413   5.531   1.687
  145SOL    HW2 1335   1.524   5.646   1.720
  146SOL     OW 1336   4.990   1.036   5.914
  146SOL    HW1 1337   4.942   1.095   5.850
  146SOL    HW2 1338   5.060   1.088   5.963
  147SOL     OW 1339   5.168   1.327   5.465
  147SOL    HW1 1340   5.105   1.378   5.524
  147SOL    HW2 1341   5.248   1.383   5.444
  148SOL     OW 1342   0.901   5.875   1.284
  148SOL    HW1 1343   0.834   5.813   1.324
  148SOL    HW2 1344   0.969   5.900   1.353
  149SOL     OW 1345   3.411   1.498   4.499
  149SOL    HW1 1346   3.330   1.440   4.489
  149SOL    HW2 1347   3.464   1.496   4.414
  150SOL     OW 1348   4.616   0.331   6.200
  150SOL    HW1 1349   4.536   0.382   6.168
  150SOL    HW2 1350   4.598   0.296   6.292
  151SOL     OW 1351   4.057   0.828   1.679
  151SOL    HW1 1352   4.135   0.890   1.680
  151SOL    HW2 1353   4.031   0.805   1.773
  152SOL     OW 1354   6.423   1.491   0.567
  152SOL    HW1 1355   6.513   1.529   0.549
  152SOL    HW2 1356   6.357   1.530   0.502
  153SOL     OW 1357   2.693   0.453   3.305
  153SOL    HW1 1358   2.720   0.502   3.222
  153SOL    HW2 1359   2.765   0.463   3.374
  154SOL     OW 1360   6.705   2.979   0.769
  154SOL    HW1 1361   6.652   2.996   0.852
  154SOL    HW2 1362   6.707   2.881   0.750
  155SOL     OW 1363   1.085   0.013   2.498
  155SOL    HW1 1364   1.065   0.083   2.430
  155SOL    HW2 1365   1.024   6.953   2.484
  156SOL     OW 1366   5.888   1.144   0.165
  156SOL    HW1 1367   5.936   1.228   0.139
  156SOL    HW2 1368   5.935   1.101   0.242
  157SOL     OW 1369   5.475   2.695   0.206
  157SOL    HW1 1370   5.519   2.706   0.117
  157SOL    HW2 1371   5.514   2.615   0.252
  158SOL     OW 1372   1.709   2.053   1.246
  158SOL    HW1 1373   1.769   2.025   1.170
  158SOL    HW2 1374   1.652   2.129   1.216
  159SOL     OW 1375   4.307   4.980   1.199
  159SOL    HW1 1376   4.231   5.038   1.229
  159SOL    HW2 1377   4.291   4.886   1.228
  160SOL     OW 1378   6.243   0.111   1.341
  160SOL    HW1 1379   6.245   0.034   1.277
  160SOL    HW2 1380   6.302   0.184   1.308
  161SOL     OW 1381   1.859   0.068   2.187
  161SOL    HW1 1382   1.841   0.024   2.275
  161SOL    HW2 1383   1.923   0.144   2.201
  162SOL     OW 1384   2.674   0.082   0.176
  162SOL    HW1 1385   2.667   0.002   0.116
  162SOL    HW2 1386   2.686   0.164   0.121
  163SOL     OW 1387   0.519   4.585   2.849
  163SOL    HW1 1388   0.555   4.526   2.776
  163SOL    HW2 1389   0.555   4.678   2.838
  164SOL     OW 1390   0.763   2.909   3.141
  164SOL    HW1 1391   0.666   2.928   3.123
  164SOL    HW2 1392   0.795   2.966   3.217
  165SOL     OW 1393   6.046   5.421   0.943
  165SOL    HW1 1394   6.106   5.500   0.952
  165SOL    HW2 1395   5.991   5.430   0.861
  166SOL     OW 1396   6.579   3.471   1.967
  166SOL    HW1 1397   6.518   3.429   1.900
  166SOL    HW2 1398   6.528   3.495   2.049
  167SOL     OW 1399   5.929   1.844   6.046
  167SOL    HW1 1400   5.964   1.919   6.102
  167SOL    HW2 1401   5.856   1.879   5.986
  168SOL     OW 1402   3.989   1.899   1.607
  168SOL    HW1 1403   4.067   1.857   1.559
  168SOL    HW2 1404   3.986   1.997   1.585
  169SOL     OW 1405   5.965   3.027   0.254
  169SOL    HW1 1406   6.028   3.059   0.325
  169SOL    HW2 1407   5.912   2.950   0.289
  170SOL     OW 1408   6.945   5.802   2.801
  170SOL    HW1 1409   7.017   5.816   2.733
  170SOL    HW2 1410   6.855   5.810   2.756
  171SOL     OW 1411   1.766   3.553   6.765
  171SOL    HW1 1412   1.739   3.603   6.683
  171SOL    HW2 1413   1.859   3.578   6.790
  172SOL     OW 1414   6.739   2.454   2.277
  172SOL    HW1 1415   6.744   2.401   2.362
  172SOL    HW2 1416   6.684   2.405   2.210
  173SOL     OW 1417   5.884   1.041   4.887
  173SOL    HW1 1418   5.940   1.110   4.842
  173SOL    HW2 1419   5.933   1.005   4.967
  174SOL     OW 1420   4.861   5.181   4.428
  174SOL    HW1 1421   4.769   5.151   4.454
  174SOL    HW2 1422   4.885   5.261   4.483
  175SOL     OW 1423   3.306   0.754   1.754
  175SOL    HW1 1424   3.341   0.776   1.663
  175SOL    HW2 1425   3.263   0.835   1.794
  176SOL     OW 1426   5.234   4.262   3.149
  176SOL    HW1 1427   5.319   4.213   3.131
  176SOL    HW2 1428   5.156   4.205   3.123
  177SOL     OW 1429   5.325   2.456   4.881
  177SOL    HW1 1430   5.353   2.550   4.900
  177SOL    HW2 1431   5.288   2.450   4.788
  178SOL     OW 1432   3.335   4.848   4.984
  178SOL    HW1 1433   3.353   4.870   5.080
  178SOL    HW2 1434   3.247   4.800   4.977
  179SOL     OW 1435   4.115   0.035   6.709
  179SOL    HW1 1436   4.173   0.038   6.628
  179SOL    HW2 1437   4.161   7.002   6.782
  180SOL     OW 1438   2.630   6.927   0.577
  180SOL    HW1 1439   2.560   6.870   0.535
  180SOL    HW2 1440   2.589   7.011   0.613
  181SOL     OW 1441   3.544   3.082   5.725
  181SOL    HW1 1442   3.462   3.077   5.668
  181SOL    HW2 1443   3.528   3.142   5.802
  182SOL     OW 1444   4.938   2.928   6.928
  182SOL    HW1 1445   4.991   2.960   7.006
  182SOL    HW2 1446   4.840   2.933   6.950
  183SOL     OW 1447   4.061   2.167   3.535
  183SOL    HW1 1448   4.076   2.257   3.495
  183SOL    HW2 1449   4.149   2.128   3.563
  184SOL     OW 1450   0.589   6.654   3.857
  184SOL    HW1 1451   0.502   6.604   3.857
  184SOL    HW2 1452   0.604   6.695   3.767
  185SOL     OW 1453   0.772   1.240   3.973
  185SOL    HW1 1454   0.825   1.296   3.909
  185SOL    HW2 1455   0.776   1.145   3.943
  186SOL     OW 1456   5.789   0.069   4.469
  186SOL    HW1 1457   5.883   0.100   4.459
  186SOL    HW2 1458   5.751   0.104   4.554
  187SOL     OW 1459   4.944   6.223   2.544
  187SOL    HW1 1460   4.974   6.166   2.468
  187SOL    HW2 1461   4.852   6.258   2.525
  188SOL     OW 1462   0.737   2.761   3.427
  188SOL    HW1 1463   0.673   2.835   3.407
  188SOL    HW2 1464   0.688   2.685   3.470
  189SOL     OW 1465   0.879   4.917   6.806
  189SOL    HW1 1466   0.843   4.823   6.810
  189SOL    HW2 1467   0.885   4.947   6.711
  190SOL     OW 1468   6.308   4.953   6.723
  190SOL    HW1 1469   6.267   5.012   6.793
  190SOL    HW2 1470   6.348   5.010   6.651
  191SOL     OW 1471   6.415   1.231   5.754
  191SOL    HW1 1472   6.385   1.320   5.722
  191SOL    HW2 1473   6.460   1.182   5.679
  192SOL     OW 1474   0.065   4.750   1.805
  192SOL    HW1 1475   0.056   4.842   1.843
  192SOL    HW2 1476   0.023   4.747   1.714
  193SOL     OW 1477   5.007   4.078   5.378
  193SOL    HW1 1478   4.952   4.088   5.296
  193SOL    HW2 1479   5.022   3.980   5.396
  194SOL     OW 1480   4.020   6.600   3.064
  194SOL    HW1 1481   4.100   6.540   3.066
  194SOL    HW2 1482   4.021   6.653   2.979
  195SOL     OW 1483   1.749   0.993   3.287
  195SOL    HW1 1484   1.821   1.028   3.348
  195SOL    HW2 1485   1.746   1.049   3.204
  196SOL     OW 1486   3.290   6.866   0.175
  196SOL    HW1 1487   3.296   6.966   0.175
  196SOL    HW2 1488   3.372   6.828   0.218
  197SOL     OW 1489   3.049   6.033   0.017
  197SOL    HW1 1490   3.016   6.120   6.997
  197SOL    HW2 1491   3.069   6.045   0.114
  198SOL     OW 1492   4.640   6.620   1.425
  198SOL    HW1 1493   4.647   6.660   1.334
  198SOL    HW2 1494   4.565   6.662   1.475
  199SOL     OW 1495   6.628   1.111   2.848
  199SOL    HW1 1496   6.647   1.031   2.904
  199SOL    HW2 1497   6.714   1.158   2.827
  200SOL     OW 1498   0.970   4.267   2.536
  200SOL    HW1 1499   1.043   4.246   2.601
  200SOL    HW2 1500   0.967   4.366   2.521
  201SOL     OW 1501   3.404   6.810   5.792
  201SOL    HW1 1502   3.480   6.753   5.762
  201SOL    HW2 1503   3.354   6.764   5.866
  202SOL     OW 1504   4.720   0.516   5.164
  202SOL    HW1 1505   4.691   0.546   5.073
  202SOL    HW2 1506   4.820   0.513   5.168
  203SOL     OW 1507   4.846   2.263   4.715
  203SOL    HW1 1508   4.880   2.302   4.801
  203SOL    HW2 1509   4.818   2.337   4.654
  204SOL     OW 1510   0.855   0.366   6.619
  204SOL    HW1 1511   0.766   0.322   6.613
  204SOL    HW2 1512   0.890   0.384   6.527
  205SOL     OW 1513   0.919   1.463   1.860
  205SOL    HW1 1514   0.970   1.377   1.857
  205SOL    HW2 1515   0.970   1.533   1.810
  206SOL     OW 1516   0.562   4.696   2.571
  206SOL    HW1 1517   0.546   4.713   2.474
  206SOL    HW2 1518   0.537   4.777   2.624
  207SOL     OW 1519   3.765   0.572   4.983
  207SOL    HW1 1520   3.797   0.629   5.059
  207SOL    HW2 1521   3.686   0.518   5.012
  208SOL     OW 1522   4.871   3.404   6.235
  208SOL    HW1 1523   4.916   3.335   6.178
  208SOL    HW2 1524   4.939   3.470   6.267
  209SOL     OW 1525   1.292   5.713   6.119
  209SOL    HW1 1526   1.347   5.718   6.035
  209SOL    HW2 1527   1.225   5.639   6.110
  210SOL     OW 1528   4.262   1.829   2.561
  210SOL    HW1 1529   4.232   1.892   2.489
  210SOL    HW2 1530   4.210   1.744   2.555
  211SOL     OW 1531   0.971   6.274   4.001
  211SOL    HW1 1532   1.056   6.313   4.036
  211SOL    HW2 1533   0.908   6.348   3.978
  212SOL     OW 1534   2.300   4.188   2.234
  212SOL    HW1 1535   2.334   4.160   2.144
  212SOL    HW2 1536   2.321   4.285   2.249
  213SOL     OW 1537   4.170   0.869   6.646
  213SOL    HW1 1538   4.247   0.805   6.636
  213SOL    HW2 1539   4.168   0.903   6.740
  214SOL     OW 1540   3.122   6.080   2.604
  214SOL    HW1 1541   3.155   6.073   2.510
  214SOL    HW2 1542   3.023   6.093   2.604
  215SOL     OW 1543   3.084   4.147   1.848
  215SOL    HW1 1544   3.032   4.071   1.809
  215SOL    HW2 1545   3.038   4.181   1.930
  216SOL     OW 1546   1.508   6.920   4.954
  216SOL    HW1 1547   1.431   6.947   4.895
  216SOL    HW2 1548   1.506   6.975   5.037
  217SOL     OW 1549   2.127   2.635   4.765
  217SOL    HW1 1550   2.047   2.679   4.723
  217SOL    HW2 1551   2.175   2.702   4.822
  218SOL     OW 1552   1.114   2.663   5.315
  218SOL    HW1 1553   1.070   2.642   5.403
  218SOL    HW2 1554   1.127   2.578   5.264
  219SOL     OW 1555   3.815   5.369   6.131
  219SOL    HW1 1556   3.813   5.376   6.231
  219SOL    HW2 1557   3.776   5.452   6.091
  220SOL     OW 1558   3.311   6.013   6.684
  220SOL    HW1 1559   3.363   5.973   6.608
  220SOL    HW2 1560   3.217   6.029   6.655
  221SOL     OW 1561   6.598   3.877   2.556
  221SOL    HW1 1562   6.677   3.816   2.551
  221SOL    HW2 1563   6.603   3.944   2.481
  222SOL     OW 1564   1.940   4.927   5.472
  222SOL    HW1 1565   2.017   4.900   5.531
  222SOL    HW2 1566   1.875   4.982   5.525
  223SOL     OW 1567   0.112   4.196   0.584
  223SOL    HW1 1568   0.178   4.258   0.627
  223SOL    HW2 1569   0.151   4.158   0.500
  224SOL     OW 1570   2.679   2.424   3.629
  224SOL    HW1 1571   2.679   2.465   3.720
  224SOL    HW2 1572   2.646   2.330   3.635
  225SOL     OW 1573   5.225   1.341   6.235
  225SOL    HW1 1574   5.226   1.440   6.219
  225SOL    HW2 1575   5.154   1.319   6.301
  226SOL     OW 1576   0.459   6.671   0.279
  226SOL    HW1 1577   0.553   6.670   0.245
  226SOL    HW2 1578   0.439   6.585   0.325
  227SOL     OW 1579   1.250   4.392   2.435
  227SOL    HW1 1580   1.157   4.410   2.405
  227SOL    HW2 1581   1.260   4.419   2.531
  228SOL     OW 1582   2.716   6.162   3.876
  228SOL    HW1 1583   2.734   6.257   3.848
  228SOL    HW2 1584   2.635   6.128   3.828
  229SOL     OW 1585   6.053   5.660   0.465
  229SOL    HW1 1586   6.124   5.649   0.396
  229SOL    HW2 1587   5.976   5.600   0.444
  230SOL     OW 1588   3.379   4.900   3.592
  230SOL    HW1 1589   3.406   4.857   3.677
  230SOL    HW2 1590   3.455   4.956   3.557
  231SOL     OW 1591   5.894   2.139   5.699
  231SOL    HW1 1592   5.850   2.215   5.651
  231SOL    HW2 1593   5.903   2.061   5.637
  232SOL     OW 1594   0.773   4.357   6.255
  232SOL    HW1 1595   0.753   4.439   6.308
  232SOL    HW2 1596   0.760   4.376   6.157
  233SOL     OW 1597   2.295   1.310   4.742
  233SOL    HW1 1598   2.196   1.297   4.745
  233SOL    HW2 1599   2.320   1.359   4.658
  234SOL     OW 1600   2.778   5.957   5.140
  234SOL    HW1 1601   2.806   6.005   5.057
  234SOL    HW2 1602   2.859   5.931   5.193
  235SOL     OW 1603   3.043   3.337   3.095
  235SOL    HW1 1604   3.039   3.299   3.003
  235SOL    HW2 1605   2.969   3.404   3.107
  236SOL     OW 1606   5.929   2.655   6.538
  236SOL    HW1 1607   5.961   2.691   6.625
  236SOL    HW2 1608   5.935   2.725   6.468
  237SOL     OW 1609   0.291   7.015   0.619
  237SOL    HW1 1610   0.348   6.981   0.544
  237SOL    HW2 1611   0.263   0.091   0.600
  238SOL     OW 1612   6.512   2.873   0.366
  238SOL    HW1 1613   6.450   2.876   0.444
  238SOL    HW2 1614   6.501   2.785   0.319
  239SOL     OW 1615   6.705   4.696   0.068
  239SOL    HW1 1616   6.783   4.758   0.070
  239SOL    HW2 1617   6.718   4.629   7.012
  240SOL     OW 1618   0.407   3.084   5.320
  240SOL    HW1 1619   0.395   3.071   5.419
  240SOL    HW2 1620   0.318   3.084   5.275
  241SOL     OW 1621   0.624   0.743   3.740
  241SOL    HW1 1622   0.589   0.835   3.758
  241SOL    HW2 1623   0.563   0.675   3.780
  242SOL     OW 1624   1.893   2.855   5.608
  242SOL    HW1 1625   1.858   2.762   5.621
  242SOL    HW2 1626   1.816   2.918   5.597
  243SOL     OW 1627   4.883   0.199   5.517
  243SOL    HW1 1628   4.963   0.189   5.458
  243SOL    HW2 1629   4.826   0.274   5.483
  244SOL     OW 1630   4.776   2.906   4.349
  244SOL    HW1 1631   4.839   2.847   4.399
  244SOL    HW2 1632   4.703   2.851   4.310
  245SOL     OW 1633   6.813   2.829   4.498
  245SOL    HW1 1634   6.849   2.895   4.563
  245SOL    HW2 1635   6.808   2.739   4.541
  246SOL     OW 1636   5.770   3.563   3.348
  246SOL    HW1 1637   5.803   3.510   3.270
  246SOL    HW2 1638   5.673   3.541   3.365
  247SOL     OW 1639   2.140   2.018   2.838
  247SOL    HW1 1640   2.064   2.069   2.879
  247SOL    HW2 1641   2.162   1.939   2.896
  248SOL     OW 1642   4.635   2.690   4.223
  248SOL    HW1 1643   4.679   2.648   4.143
  248SOL    HW2 1644   4.536   2.692   4.209
  249SOL     OW 1645   3.978   0.410   5.247
  249SOL    HW1 1646   4.007   0.506   5.240
  249SOL    HW2 1647   3.911   0.401   5.321
  250SOL     OW 1648   4.818   2.101   5.443
  250SOL    HW1 1649   4.814   2.067   5.349
  250SOL    HW2 1650   4.870   2.186   5.445
  251SOL     OW 1651   4.036   4.668   6.299
  251SOL    HW1 1652   3.971   4.742   6.285
  251SOL    HW2 1653   4.126   4.697   6.266
  252SOL     OW 1654   6.951   1.371   5.898
  252SOL    HW1 1655   6.908   1.363   5.988
  252SOL    HW2 1656   7.000   1.286   5.877
  253SOL     OW 1657   2.724   4.523   0.240
  253SOL    HW1 1658   2.716   4.433   0.197
  253SOL    HW2 1659   2.708   4.594   0.172
  254SOL     OW 1660   6.720   2.875   4.048
  254SOL    HW1 1661   6.764   2.943   4.106
  254SOL    HW2 1662   6.626   2.904   4.029
  255SOL     OW 1663   2.609   2.061   3.744
  255SOL    HW1 1664   2.593   1.962   3.752
  255SOL    HW2 1665   2.525   2.106   3.714
  256SOL     OW 1666   6.415   4.459   6.802
  256SOL    HW1 1667   6.383   4.510   6.881
  256SOL    HW2 1668   6.363   4.373   6.794
  257SOL     OW 1669   3.360   5.233   5.630
  257SOL    HW1 1670   3.401   5.150   5.670
  257SOL    HW2 1671   3.281   5.261   5.684
  258SOL     OW 1672   5.130   3.695   4.813
  258SOL    HW1 1673   5.166   3.757   4.883
  258SOL    HW2 1674   5.040   3.727   4.784
  259SOL     OW 1675   1.838   2.950   2.574
  259SOL    HW1 1676   1.801   2.857   2.571
  259SOL    HW2 1677   1.817   2.998   2.489
  260SOL     OW 1678   4.623   0.752   0.909
  260SOL    HW1 1679   4.561   0.736   0.832
  260SOL    HW2 1680   4.569   0.766   0.992
  261SOL     OW 1681   0.250   3.823   0.989
  261SOL    HW1 1682   0.314   3.842   0.914
  261SOL    HW2 1683   0.242   3.724   1.000
  262SOL     OW 1684   0.688   3.792   1.912
  262SOL    HW1 1685   0.702   3.884   1.948
  262SOL    HW2 1686   0.721   3.724   1.977
  263SOL     OW 1687   0.171   1.713   4.049
  263SOL    HW1 1688   0.106   1.721   4.124
  263SOL    HW2 1689   0.261   1.745   4.079
  264SOL     OW 1690   6.419   4.060   5.683
  264SOL    HW1 1691   6.516   4.080   5.673
  264SOL    HW2 1692   6.374   4.137   5.729
  265SOL     OW 1693   5.135   3.946   3.498
  265SOL    HW1 1694   5.134   3.869   3.562
  265SOL    HW2 1695   5.220   3.944   3.445
  266SOL     OW 1696   3.502   2.957   6.538
  266SOL    HW1 1697   3.539   2.918   6.453
  266SOL    HW2 1698   3.402   2.951   6.536
  267SOL     OW 1699   0.363   3.001   7.006
  267SOL    HW1 1700   0.457   2.971   6.991
  267SOL    HW2 1701   0.310   2.927   0.031
  268SOL     OW 1702   4.928   5.511   4.984
  268SOL    HW1 1703   4.999   5.510   4.913
  268SOL    HW2 1704   4.900   5.417   5.004
  269SOL     OW 1705   1.558   1.788   0.714
  269SOL    HW1 1706   1.609   1.722   0.659
  269SOL    HW2 1707   1.509   1.851   0.654
  270SOL     OW 1708   6.314   0.925   1.652
  270SOL    HW1 1709   6.225   0.956   1.684
  270SOL    HW2 1710   6.328   0.829   1.678
  271SOL     OW 1711   2.936   1.540   0.601
  271SOL    HW1 1712   2.968   1.633   0.621
  271SOL    HW2 1713   2.851   1.523   0.652
  272SOL     OW 1714   3.605   5.287   4.078
  272SOL    HW1 1715   3.601   5.254   4.172
  272SOL    HW2 1716   3.696   5.270   4.040
  273SOL     OW 1717   1.573   5.615   5.731
  273SOL    HW1 1718   1.509   5.546   5.696
  273SOL    HW2 1719   1.628   5.575   5.804
  274SOL     OW 1720   4.755   2.558   3.994
  274SOL    HW1 1721   4.736   2.466   4.028
  274SOL    HW2 1722   4.693   2.579   3.918
  275SOL     OW 1723   0.998   6.023   6.411
  275SOL    HW1 1724   1.057   5.967   6.470
  275SOL    HW2 1725   1.040   6.031   6.321
  276SOL     OW 1726   6.634   5.379   4.186
  276SOL    HW1 1727   6.662   5.474   4.201
  276SOL    HW2 1728   6.685   5.342   4.108
  277SOL     OW 1729   3.494   1.173   6.285
  277SOL    HW1 1730   3.414   1.225   6.315
  277SOL    HW2 1731   3.522   1.109   6.356
  278SOL     OW 1732   5.960   3.567   2.094
  278SOL    HW1 1733   5.944   3.469   2.098
  278SOL    HW2 1734   6.006   3.590   2.008
  279SOL     OW 1735   6.140   3.360   3.979
  279SOL    HW1 1736   6.238   3.343   3.978
  279SOL    HW2 1737   6.095   3.290   4.034
  280SOL     OW 1738   4.492   0.079   3.632
  280SOL    HW1 1739   4.505   7.014   3.687
  280SOL    HW2 1740   4.399   0.080   3.595
  281SOL     OW 1741   2.936   5.173   3.637
  281SOL    HW1 1742   2.851   5.213   3.669
  281SOL    HW2 1743   2.988   5.138   3.714
  282SOL     OW 1744   3.668   2.640   5.592
  282SOL    HW1 1745   3.679   2.704   5.668
  282SOL    HW2 1746   3.688   2.548   5.623
  283SOL     OW 1747   5.666   0.200   5.333
  283SOL    HW1 1748   5.610   0.142   5.393
  283SOL    HW2 1749   5.732   0.252   5.387
  284SOL     OW 1750   1.206   4.307   4.650
  284SOL    HW1 1751   1.155   4.313   4.564
  284SOL    HW2 1752   1.284   4.369   4.647
  285SOL     OW 1753   5.547   5.830   0.341
  285SOL    HW1 1754   5.539   5.929   0.345
  285SOL    HW2 1755   5.468   5.792   0.292
  286SOL     OW 1756   4.289   4.913   5.484
  286SOL    HW1 1757   4.334   4.825   5.468
  286SOL    HW2 1758   4.199   4.897   5.524
  287SOL     OW 1759   1.602   5.521   7.000
  287SOL    HW1 1760   1.543   5.508   0.062
  287SOL    HW2 1761   1.678   5.456   7.004
  288SOL     OW 1762   3.938   0.970   0.454
  288SOL    HW1 1763   3.917   0.893   0.514
  288SOL    HW2 1764   3.978   0.937   0.369
  289SOL     OW 1765   1.523   5.141   5.736
  289SOL    HW1 1766   1.478   5.054   5.756
  289SOL    HW2 1767   1.506   5.206   5.810
  290SOL     OW 1768   4.380   0.800   3.555
  290SOL    HW1 1769   4.282   0.791   3.571
  290SOL    HW2 1770   4.418   0.867   3.619
  291SOL     OW 1771   4.366   1.294   3.731
  291SOL    HW1 1772   4.306   1.358   3.779
  291SOL    HW2 1773   4.397   1.223   3.794
  292SOL     OW 1774   4.716   1.371   3.812
  292SOL    HW1 1775   4.736   1.448   3.750
  292SOL    HW2 1776   4.705   1.406   3.905
  293SOL     OW 1777   4.312   6.292   1.292
  293SOL    HW1 1778   4.327   6.253   1.201
  293SOL    HW2 1779   4.219   6.272   1.322
  294SOL     OW 1780   6.646   5.911   6.655
  294SOL    HW1 1781   6.592   5.996   6.654
  294SOL    HW2 1782   6.743   5.934   6.657
  295SOL     OW 1783   1.864   2.561   5.607
  295SOL    HW1 1784   1.902   2.588   5.519
  295SOL    HW2 1785   1.827   2.468   5.600
  296SOL     OW 1786   6.683   2.502   1.347
  296SOL    HW1 1787   6.627   2.425   1.318
  296SOL    HW2 1788   6.694   2.500   1.446
  297SOL     OW 1789   3.810   5.169   3.557
  297SOL    HW1 1790   3.710   5.164   3.553
  297SOL    HW2 1791   3.847   5.081   3.586
  298SOL     OW 1792   4.447   0.319   0.090
  298SOL    HW1 1793   4.426   0.307   0.187
  298SOL    HW2 1794   4.542   0.350   0.080
  299SOL     OW 1795   4.080   1.897   0.382
  299SOL    HW1 1796   4.076   1.989   0.341
  299SOL    HW2 1797   4.009   1.840   0.341
  300SOL     OW 1798   3.860   0.471   2.345
  300SOL    HW1 1799   3.913   0.433   2.421
  300SOL    HW2 1800   3.836   0.397   2.281
  301SOL     OW 1801   5.069   0.883   1.173
  301SOL    HW1 1802   5.082   0.786   1.151
  301SOL    HW2 1803   5.110   0.938   1.100
  302SOL     OW 1804   0.893   0.973   2.177
  302SOL    HW1 1805   0.959   1.044   2.150
  302SOL    HW2 1806   0.838   0.947   2.098
  303SOL     OW 1807   6.575   5.962   1.745
  303SOL    HW1 1808   6.563   6.038   1.680
  303SOL    HW2 1809   6.510   5.889   1.723
  304SOL     OW 1810   2.224   6.222   6.452
  304SOL    HW1 1811   2.233   6.314   6.489
  304SOL    HW2 1812   2.199   6.159   6.526
  305SOL     OW 1813   1.450   2.713   0.468
  305SOL    HW1 1814   1.486   2.621   0.453
  305SOL    HW2 1815   1.526   2.776   0.486
  306SOL     OW 1816   0.326   1.682   2.898
  306SOL    HW1 1817   0.399   1.636   2.848
  306SOL    HW2 1818   0.338   1.665   2.996
  307SOL     OW 1819   4.081   4.181   0.078
  307SOL    HW1 1820   3.996   4.209   0.122
  307SOL    HW2 1821   4.137   4.130   0.143
  308SOL     OW 1822   5.814   2.945   4.065
  308SOL    HW1 1823   5.803   2.964   3.967
  308SOL    HW2 1824   5.733   2.978   4.114
  309SOL     OW 1825   1.589   6.084   0.872
  309SOL    HW1 1826   1.603   6.078   0.773
  309SOL    HW2 1827   1.559   6.176   0.896
  310SOL     OW 1828   5.132   6.744   4.306
  310SOL    HW1 1829   5.121   6.778   4.399
  310SOL    HW2 1830   5.085   6.805   4.242
  311SOL     OW 1831   2.576   5.041   2.739
  311SOL    HW1 1832   2.658   5.089   2.708
  311SOL    HW2 1833   2.595   4.993   2.824
  312SOL     OW 1834   3.617   1.998   3.775
  312SOL    HW1 1835   3.599   1.998   3.873
  312SOL    HW2 1836   3.615   1.904   3.741
  313SOL     OW 1837   3.138   4.051   2.873
  313SOL    HW1 1838   3.218   4.109   2.882
  313SOL    HW2 1839   3.105   4.025   2.964
  314SOL     OW 1840   2.089   4.752   4.902
  314SOL    HW1 1841   2.081   4.685   4.829
  314SOL    HW2 1842   2.053   4.840   4.870
  315SOL     OW 1843   0.792   2.226   4.153
  315SOL    HW1 1844   0.725   2.202   4.223
  315SOL    HW2 1845   0.875   2.173   4.166
  316SOL     OW 1846   4.038   0.969   4.581
  316SOL    HW1 1847   3.968   0.972   4.509
  316SOL    HW2 1848   4.011   1.029   4.656
  317SOL     OW 1849   0.648   1.527   1.709
  317SOL    HW1 1850   0.666   1.497   1.616
  317SOL    HW2 1851   0.728   1.507   1.767
  318SOL     OW 1852   6.349   0.360   6.552
  318SOL    HW1 1853   6.444   0.340   6.527
  318SOL    HW2 1854   6.302   0.274   6.572
  319SOL     OW 1855   0.029   2.389   3.972
  319SOL    HW1 1856   0.051   2.308   3.918
  319SOL    HW2 1857   6.949   2.391   3.992
  320SOL     OW 1858   6.165   3.072   0.054
  320SOL    HW1 1859   6.140   3.018   6.992
  320SOL    HW2 1860   6.184   3.012   0.131
  321SOL     OW 1861   4.144   2.132   0.237
  321SOL    HW1 1862   4.210   2.144   0.310
  321SOL    HW2 1863   4.109   2.221   0.207
  322SOL     OW 1864   3.666   2.906   4.583
  322SOL    HW1 1865   3.583   2.917   4.528
  322SOL    HW2 1866   3.641   2.900   4.680
  323SOL     OW 1867   1.153   2.401   5.185
  323SOL    HW1 1868   1.225   2.421   5.119
  323SOL    HW2 1869   1.193   2.368   5.271
  324SOL     OW 1870   2.654   0.191   3.186
  324SOL    HW1 1871   2.657   0.281   3.228
  324SOL    HW2 1872   2.567   0.178   3.139
  325SOL     OW 1873   0.853   3.629   2.846
  325SOL    HW1 1874   0.855   3.567   2.767
  325SOL    HW2 1875   0.897   3.585   2.924
  326SOL     OW 1876   0.845   4.094   6.217
  326SOL    HW1 1877   0.901   4.071   6.138
  326SOL    HW2 1878   0.844   4.193   6.229
  327SOL     OW 1879   2.493   4.534   3.045
  327SOL    HW1 1880   2.593   4.534   3.049
  327SOL    HW2 1881   2.456   4.585   3.123
  328SOL     OW 1882   2.409   4.824   1.569
  328SOL    HW1 1883   2.421   4.828   1.669
  328SOL    HW2 1884   2.318   4.790   1.548
  329SOL     OW 1885   2.535   3.801   5.837
  329SOL    HW1 1886   2.470   3.770   5.907
  329SOL    HW2 1887   2.575   3.721   5.791
  330SOL     OW 1888   3.396   6.180   0.441
  330SOL    HW1 1889   3.339   6.204   0.519
  330SOL    HW2 1890   3.474   6.126   0.472
  331SOL     OW 1891   5.423   5.506   0.735
  331SOL    HW1 1892   5.455   5.543   0.648
  331SOL    HW2 1893   5.323   5.504   0.737
  332SOL     OW 1894   6.062   2.284   4.431
  332SOL    HW1 1895   6.162   2.284   4.421
  332SOL    HW2 1896   6.024   2.208   4.380
  333SOL     OW 1897   4.010   0.431   4.970
  333SOL    HW1 1898   3.931   0.483   4.937
  333SOL    HW2 1899   4.002   0.417   5.069
  334SOL     OW 1900   3.436   2.282   0.208
  334SOL    HW1 1901   3.459   2.341   0.130
  334SOL    HW2 1902   3.357   2.226   0.185
  335SOL     OW 1903   3.490   0.577   6.844
  335SOL    HW1 1904   3.467   0.545   6.752
  335SOL    HW2 1905   3.406   0.607   6.890
  336SOL     OW 1906   2.928   0.710   3.461
  336SOL    HW1 1907   2.886   0.625   3.493
  336SOL    HW2 1908   2.972   0.694   3.373
  337SOL     OW 1909   0.311   3.215   5.895
  337SOL    HW1 1910   0.212   3.201   5.904
  337SOL    HW2 1911   0.359   3.133   5.926
  338SOL     OW 1912   3.345   2.489   1.455
  338SOL    HW1 1913   3.267   2.552   1.454
  338SOL    HW2 1914   3.344   2.436   1.540
  339SOL     OW 1915   4.699   5.494   4.779
  339SOL    HW1 1916   4.763   5.501   4.856
  339SOL    HW2 1917   4.688   5.398   4.753
  340SOL     OW 1918   4.837   3.181   4.691
  340SOL    HW1 1919   4.935   3.179   4.707
  340SOL    HW2 1920   4.795   3.252   4.747
  341SOL     OW 1921   5.762   6.859   4.788
  341SOL    HW1 1922   5.712   6.834   4.871
  341SOL    HW2 1923   5.699   6.901   4.722
  342SOL     OW 1924   5.111   3.254   0.557
  342SOL    HW1 1925   5.043   3.187   0.587
  342SOL    HW2 1926   5.129   3.243   0.460
  343SOL     OW 1927   0.114   6.310   2.137
  343SOL    HW1 1928   0.099   6.358   2.050
  343SOL    HW2 1929   0.080   6.366   2.212
  344SOL     OW 1930   0.802   3.078   1.950
  344SOL    HW1 1931   0.836   3.005   2.008
  344SOL    HW2 1932   0.748   3.039   1.875
  345SOL     OW 1933   5.826   2.382   4.093
  345SOL    HW1 1934   5.734   2.398   4.058
  345SOL    HW2 1935   5.855   2.460   4.148
  346SOL     OW 1936   1.748   0.430   2.319
  346SOL    HW1 1937   1.838   0.472   2.319
  346SOL    HW2 1938   1.719   0.412   2.225
  347SOL     OW 1939   3.224   5.583   0.328
  347SOL    HW1 1940   3.128   5.558   0.314
  347SOL    HW2 1941   3.256   5.639   0.252
  348SOL     OW 1942   4.873   4.121   2.884
  348SOL    HW1 1943   4.785   4.157   2.852
  348SOL    HW2 1944   4.933   4.104   2.807
  349SOL     OW 1945   6.494   4.692   2.048
  349SOL    HW1 1946   6.442   4.777   2.058
  349SOL    HW2 1947   6.566   4.690   2.118
  350SOL     OW 1948   2.457   2.656   1.002
  350SOL    HW1 1949   2.497   2.655   1.093
  350SOL    HW2 1950   2.526   2.631   0.934
  351SOL     OW 1951   2.090   3.224   0.602
  351SOL    HW1 1952   2.152   3.182   0.536
  351SOL    HW2 1953   2.107   3.322   0.606
  352SOL     OW 1954   3.562   6.844   3.795
  352SOL    HW1 1955   3.537   6.755   3.835
  352SOL    HW2 1956   3.508   6.916   3.838
  353SOL     OW 1957   2.926   0.188   6.909
  353SOL    HW1 1958   2.891   0.237   6.829
  353SOL    HW2 1959   2.876   0.217   6.990
  354SOL     OW 1960   4.512   2.200   1.529
  354SOL    HW1 1961   4.557   2.124   1.483
  354SOL    HW2 1962   4.547   2.207   1.623
  355SOL     OW 1963   1.694   4.172   2.947
  355SOL    HW1 1964   1.770   4.161   3.011
  355SOL    HW2 1965   1.614   4.123   2.982
  356SOL     OW 1966   2.399   0.813   5.794
  356SOL    HW1 1967   2.446   0.884   5.741
  356SOL    HW2 1968   2.374   0.738   5.734
  357SOL     OW 1969   6.541   6.122   5.336
  357SOL    HW1 1970   6.578   6.112   5.429
  357SOL    HW2 1971   6.442   6.109   5.337
  358SOL     OW 1972   4.866   6.470   1.188
  358SOL    HW1 1973   4.958   6.510   1.185
  358SOL    HW2 1974   4.799   6.542   1.207
  359SOL     OW 1975   3.256   1.483   2.292
  359SOL    HW1 1976   3.251   1.583   2.287
  359SOL    HW2 1977   3.319   1.457   2.365
  360SOL     OW 1978   1.688   3.986   5.322
  360SOL    HW1 1979   1.601   3.969   5.276
  360SOL    HW2 1980   1.763   3.948   5.268
  361SOL     OW 1981   6.699   6.606   3.158
  361SOL    HW1 1982   6.797   6.624   3.157
  361SOL    HW2 1983   6.681   6.515   3.118
  362SOL     OW 1984   3.291   2.855   1.851
  362SOL    HW1 1985   3.206   2.830   1.804
  362SOL    HW2 1986   3.369   2.835   1.791
  363SOL     OW 1987   6.138   4.437   3.295
  363SOL    HW1 1988   6.225   4.396   3.266
  363SOL    HW2 1989   6.153   4.492   3.377
  364SOL     OW 1990   0.163   5.281   6.625
  364SOL    HW1 1991   0.224   5.207   6.599
  364SOL    HW2 1992   0.149   5.342   6.546
  365SOL     OW 1993   5.067   0.164   1.383
  365SOL    HW1 1994   5.107   0.112   1.459
  365SOL    HW2 1995   4.973   0.135   1.369
  366SOL     OW 1996   6.046   1.876   6.614
  366SOL    HW1 1997   5.996   1.963   6.613
  366SOL    HW2 1998   6.039   1.833   6.524
  367SOL     OW 1999   5.839   2.380   0.166
  367SOL    HW1 2000   5.928   2.387   0.211
  367SOL    HW2 2001   5.842   2.306   0.098
  368SOL     OW 2002   0.358   2.512   5.355
  368SOL    HW1 2003   0.326   2.421   5.331
  368SOL    HW2 2004   0.447   2.529   5.311
  369SOL     OW 2005   5.871   5.153   2.388
  369SOL    HW1 2006   5.905   5.070   2.432
  369SOL    HW2 2007   5.776   5.139   2.358
  370SOL     OW 2008   1.228   1.691   4.622
  370SOL    HW1 2009   1.260   1.616   4.679
  370SOL    HW2 2010   1.210   1.771   4.680
  371SOL     OW 2011   1.738   4.516   6.493
  371SOL    HW1 2012   1.700   4.597   6.448
  371SOL    HW2 2013   1.670   4.443   6.495
  372SOL     OW 2014   1.854   6.828   5.801
  372SOL    HW1 2015   1.882   6.846   5.895
  372SOL    HW2 2016   1.893   6.897   5.740
  373SOL     OW 2017   5.747   6.099   4.983
  373SOL    HW1 2018   5.804   6.122   4.903
  373SOL    HW2 2019   5.655   6.078   4.952
  374SOL     OW 2020   2.791   2.368   3.345
  374SOL    HW1 2021   2.764   2.388   3.439
  374SOL    HW2 2022   2.862   2.298   3.345
  375SOL     OW 2023   0.824   3.901   4.105
  375SOL    HW1 2024   0.767   3.965   4.157
  375SOL    HW2 2025   0.904   3.876   4.160
  376SOL     OW 2026   1.334   1.277   5.107
  376SOL    HW1 2027   1.261   1.286   5.039
  376SOL    HW2 2028   1.315   1.198   5.165
  377SOL     OW 2029   1.364   1.924   0.558
  377SOL    HW1 2030   1.373   2.004   0.499
  377SOL    HW2 2031   1.267   1.902   0.569
  378SOL     OW 2032   4.391   1.883   0.236
  378SOL    HW1 2033   4.344   1.944   0.299
  378SOL    HW2 2034   4.324   1.825   0.189
  379SOL     OW 2035   5.466   2.283   0.839
  379SOL    HW1 2036   5.425   2.331   0.762
  379SOL    HW2 2037   5.559   2.315   0.853
  380SOL     OW 2038   3.076   1.494   0.923
  380SOL    HW1 2039   3.144   1.443   0.975
  380SOL    HW2 2040   3.111   1.512   0.831
  381SOL     OW 2041   1.822   3.466   3.860
  381SOL    HW1 2042   1.813   3.543   3.797
  381SOL    HW2 2043   1.901   3.482   3.920
  382SOL     OW 2044   5.724   0.670   0.465
  382SOL    HW1 2045   5.736   0.628   0.555
  382SOL    HW2 2046   5.633   0.649   0.430
  383SOL     OW 2047   3.444   3.255   6.496
  383SOL    HW1 2048   3.434   3.206   6.582
  383SOL    HW2 2049   3.476   3.192   6.425
  384SOL     OW 2050   6.701   5.430   4.449
  384SOL    HW1 2051   6.646   5.396   4.373
  384SOL    HW2 2052   6.797   5.431   4.423
  385SOL     OW 2053   3.022   4.821   4.969
  385SOL    HW1 2054   3.010   4.740   5.026
  385SOL    HW2 2055   2.933   4.862   4.949
  386SOL     OW 2056   3.013   5.809   4.264
  386SOL    HW1 2057   3.105   5.823   4.301
  386SOL    HW2 2058   3.011   5.727   4.207
  387SOL     OW 2059   0.900   5.763   2.857
  387SOL    HW1 2060   0.823   5.821   2.885
  387SOL    HW2 2061   0.879   5.667   2.878
  388SOL     OW 2062   1.270   2.174   6.037
  388SOL    HW1 2063   1.261   2.089   5.985
  388SOL    HW2 2064   1.270   2.153   6.135
  389SOL     OW 2065   3.844   3.939   1.783
  389SOL    HW1 2066   3.904   3.935   1.862
  389SOL    HW2 2067   3.770   4.004   1.800
  390SOL     OW 2068   2.574   1.411   2.185
  390SOL    HW1 2069   2.641   1.405   2.259
  390SOL    HW2 2070   2.620   1.401   2.097
  391SOL     OW 2071   2.505   1.801   6.480
  391SOL    HW1 2072   2.558   1.886   6.475
  391SOL    HW2 2073   2.459   1.796   6.568
  392SOL     OW 2074   2.044   4.735   0.787
  392SOL    HW1 2075   2.070   4.831   0.797
  392SOL    HW2 2076   2.116   4.687   0.735
  393SOL     OW 2077   0.924   3.971   6.477
  393SOL    HW1 2078   0.876   4.044   6.526
  393SOL    HW2 2079   0.949   4.004   6.386
  394SOL     OW 2080   6.677   1.217   0.211
  394SOL    HW1 2081   6.639   1.228   0.303
  394SOL    HW2 2082   6.602   1.206   0.145
  395SOL     OW 2083   5.144   3.730   3.180
  395SOL    HW1 2084   5.093   3.761   3.100
  395SOL    HW2 2085   5.089   3.742   3.262
  396SOL     OW 2086   3.675   4.225   1.746
  396SOL    HW1 2087   3.667   4.186   1.837
  396SOL    HW2 2088   3.645   4.320   1.747
  397SOL     OW 2089   4.858   2.175   5.800
  397SOL    HW1 2090   4.863   2.271   5.771
  397SOL    HW2 2091   4.764   2.142   5.788
  398SOL     OW 2092   0.412   6.419   2.280
  398SOL    HW1 2093   0.378   6.327   2.298
  398SOL    HW2 2094   0.376   6.451   2.193
  399SOL     OW 2095   5.481   6.267   2.395
  399SOL    HW1 2096   5.542   6.259   2.317
  399SOL    HW2 2097   5.532   6.305   2.473
  400SOL     OW 2098   6.188   6.805   5.976
  400SOL    HW1 2099   6.201   6.900   5.948
  400SOL    HW2 2100   6.229   6.744   5.908
  401SOL     OW 2101   4.778   0.424   5.427
  401SOL    HW1 2102   4.756   0.471   5.342
  401SOL    HW2 2103   4.805   0.491   5.496
  402SOL     OW 2104   5.701   0.169   3.293
  402SOL    HW1 2105   5.642   0.115   3.232
  402SOL    HW2 2106   5.791   0.127   3.297
  403SOL     OW 2107   3.836   1.994   4.248
  403SOL    HW1 2108   3.894   2.039   4.316
  403SOL    HW2 2109   3.753   1.959   4.292
  404SOL     OW 2110   1.255   5.292   4.960
  404SOL    HW1 2111   1.324   5.314   5.029
  404SOL    HW2 2112   1.216   5.376   4.923
  405SOL     OW 2113   1.809   3.318   1.600
  405SOL    HW1 2114   1.723   3.278   1.567
  405SOL    HW2 2115   1.870   3.245   1.630
  406SOL     OW 2116   1.153   4.293   4.905
  406SOL    HW1 2117   1.175   4.296   4.808
  406SOL    HW2 2118   1.205   4.362   4.954
  407SOL     OW 2119   1.202   0.979   3.969
  407SOL    HW1 2120   1.279   0.983   3.905
  407SOL    HW2 2121   1.131   0.919   3.932
  408SOL     OW 2122   1.233   2.660   3.008
  408SOL    HW1 2123   1.203   2.755   3.012
  408SOL    HW2 2124   1.289   2.638   3.088
  409SOL     OW 2125   6.783   2.737   1.258
  409SOL    HW1 2126   6.760   2.803   1.330
  409SOL    HW2 2127   6.754   2.645   1.286
  410SOL     OW 2128   1.617   1.350   1.810
  410SOL    HW1 2129   1.678   1.282   1.771
  410SOL    HW2 2130   1.608   1.335   1.909
  411SOL     OW 2131   5.387   0.079   0.928
  411SOL    HW1 2132   5.321   0.098   1.001
  411SOL    HW2 2133   5.475   0.120   0.952
  412SOL     OW 2134   4.350   6.205   3.551
  412SOL    HW1 2135   4.356   6.116   3.596
  412SOL    HW2 2136   4.417   6.210   3.477
  413SOL     OW 2137   4.979   4.376   1.764
  413SOL    HW1 2138   4.910   4.343   1.829
  413SOL    HW2 2139   4.940   4.377   1.672
  414SOL     OW 2140   3.423   5.365   3.573
  414SOL    HW1 2141   3.407   5.275   3.531
  414SOL    HW2 2142   3.413   5.358   3.672
  415SOL     OW 2143   1.040   5.842   6.778
  415SOL    HW1 2144   0.994   5.757   6.801
  415SOL    HW2 2145   0.982   5.919   6.805
  416SOL     OW 2146   5.296   6.196   4.287
  416SOL    HW1 2147   5.342   6.284   4.283
  416SOL    HW2 2148   5.237   6.192   4.368
  417SOL     OW 2149   3.030   5.051   0.272
  417SOL    HW1 2150   3.079   5.099   0.199
  417SOL    HW2 2151   3.082   4.969   0.298
  418SOL     OW 2152   3.994   6.531   0.612
  418SOL    HW1 2153   3.895   6.525   0.596
  418SOL    HW2 2154   4.043   6.501   0.531
  419SOL     OW 2155   1.734   0.791   1.520
  419SOL    HW1 2156   1.722   0.744   1.433
  419SOL    HW2 2157   1.684   0.877   1.518
  420SOL     OW 2158   5.526   1.151   6.965
  420SOL    HW1 2159   5.452   1.210   6.932
  420SOL    HW2 2160   5.522   1.145   0.046
  421SOL     OW 2161   0.065   4.271   6.148
  421SOL    HW1 2162   7.004   4.317   6.188
  421SOL    HW2 2163   0.035   4.189   6.098
  422SOL     OW 2164   6.045   3.467   0.931
  422SOL    HW1 2165   6.020   3.373   0.907
  422SOL    HW2 2166   6.133   3.490   0.889
  423SOL     OW 2167   1.157   2.027   6.828
  423SOL    HW1 2168   1.213   2.026   6.745
  423SOL    HW2 2169   1.088   1.955   6.823
  424SOL     OW 2170   2.066   4.348   1.101
  424SOL    HW1 2171   2.140   4.342   1.168
  424SOL    HW2 2172   2.053   4.444   1.074
  425SOL     OW 2173   5.695   1.511   3.084
  425SOL    HW1 2174   5.629   1.452   3.037
  425SOL    HW2 2175   5.787   1.472   3.077
  426SOL     OW 2176   4.151   1.603   4.541
  426SOL    HW1 2177   4.110   1.693   4.560
  426SOL    HW2 2178   4.250   1.613   4.530
  427SOL     OW 2179   4.598   5.781   3.106
  427SOL    HW1 2180   4.675   5.717   3.103
  427SOL    HW2 2181   4.605   5.845   3.029
  428SOL     OW 2182   4.148   0.127   4.691
  428SOL    HW1 2183   4.096   0.051   4.729
  428SOL    HW2 2184   4.106   0.158   4.606
  429SOL     OW 2185   1.470   3.252   1.235
  429SOL    HW1 2186   1.561   3.293   1.241
  429SOL    HW2 2187   1.473   3.174   1.173
  430SOL     OW 2188   0.105   0.457   5.558
  430SOL    HW1 2189   0.067   0.510   5.634
  430SOL    HW2 2190   0.155   0.379   5.594
  431SOL     OW 2191   3.432   6.814   0.605
  431SOL    HW1 2192   3.380   6.733   0.580
  431SOL    HW2 2193   3.370   6.890   0.622
  432SOL     OW 2194   6.450   1.388   0.816
  432SOL    HW1 2195   6.463   1.440   0.900
  432SOL    HW2 2196   6.442   1.450   0.738
  433SOL     OW 2197   2.733   6.282   5.014
  433SOL    HW1 2198   2.755   6.281   5.112
  433SOL    HW2 2199   2.635   6.299   5.002
  434SOL     OW 2200   3.325   5.876   3.184
  434SOL    HW1 2201   3.283   5.799   3.136
  434SOL    HW2 2202   3.258   5.919   3.244
  435SOL     OW 2203   5.164   2.689   6.301
  435SOL    HW1 2204   5.261   2.671   6.285
  435SOL    HW2 2205   5.109   2.629   6.243
  436SOL     OW 2206   2.754   6.379   1.064
  436SOL    HW1 2207   2.753   6.465   1.114
  436SOL    HW2 2208   2.772   6.303   1.127
  437SOL     OW 2209   1.317   0.899   0.394
  437SOL    HW1 2210   1.320   0.972   0.325
  437SOL    HW2 2211   1.282   0.937   0.480
  438SOL     OW 2212   1.860   3.887   3.170
  438SOL    HW1 2213   1.949   3.887   3.125
  438SOL    HW2 2214   1.843   3.797   3.210
  439SOL     OW 2215   5.968   4.917   2.873
  439SOL    HW1 2216   6.028   4.929   2.952
  439SOL    HW2 2217   5.998   4.978   2.799
  440SOL     OW 2218   1.812   1.354   5.320
  440SOL    HW1 2219   1.890   1.415   5.313
  440SOL    HW2 2220   1.843   1.259   5.312
  441SOL     OW 2221   0.957   2.477   4.593
  441SOL    HW1 2222   0.974   2.404   4.527
  441SOL    HW2 2223   0.964   2.565   4.548
  442SOL     OW 2224   3.612   5.332   5.860
  442SOL    HW1 2225   3.681   5.401   5.837
  442SOL    HW2 2226   3.524   5.377   5.876
  443SOL     OW 2227   6.151   3.986   4.312
  443SOL    HW1 2228   6.129   4.030   4.400
  443SOL    HW2 2229   6.246   3.958   4.312
  444SOL     OW 2230   5.023   1.495   5.628
  444SOL    HW1 2231   5.058   1.497   5.722
  444SOL    HW2 2232   4.998   1.587   5.600
  445SOL     OW 2233   0.677   5.553   2.907
  445SOL    HW1 2234   0.618   5.628   2.877
  445SOL    HW2 2235   0.699   5.495   2.828
  446SOL     OW 2236   3.832   5.431   3.657
  446SOL    HW1 2237   3.879   5.437   3.745
  446SOL    HW2 2238   3.839   5.338   3.621
  447SOL     OW 2239   0.316   2.723   6.422
  447SOL    HW1 2240   0.296   2.820   6.438
  447SOL    HW2 2241   0.251   2.668   6.474
  448SOL     OW 2242   1.815   0.741   3.327
  448SOL    HW1 2243   1.773   0.828   3.301
  448SOL    HW2 2244   1.914   0.746   3.311
  449SOL     OW 2245   3.949   1.346   4.129
  449SOL    HW1 2246   3.996   1.312   4.211
  449SOL    HW2 2247   4.005   1.328   4.048
  450SOL     OW 2248   1.462   5.540   3.470
  450SOL    HW1 2249   1.466   5.570   3.565
  450SOL    HW2 2250   1.371   5.560   3.432
  451SOL     OW 2251   1.224   2.486   3.472
  451SOL    HW1 2252   1.286   2.542   3.527
  451SOL    HW2 2253   1.130   2.498   3.505
  452SOL     OW 2254   6.053   6.184   0.884
  452SOL    HW1 2255   6.039   6.248   0.809
  452SOL    HW2 2256   6.091   6.233   0.963
  453SOL     OW 2257   3.531   1.113   5.447
  453SOL    HW1 2258   3.447   1.166   5.434
  453SOL    HW2 2259   3.574   1.139   5.533
  454SOL     OW 2260   6.680   4.867   6.357
  454SOL    HW1 2261   6.682   4.772   6.388
  454SOL    HW2 2262   6.745   4.879   6.282
  455SOL     OW 2263   5.999   2.770   3.457
  455SOL    HW1 2264   6.094   2.751   3.433
  455SOL    HW2 2265   5.938   2.720   3.396
  456SOL     OW 2266   6.086   6.183   3.969
  456SOL    HW1 2267   6.084   6.249   3.893
  456SOL    HW2 2268   6.078   6.231   4.056
  457SOL     OW 2269   1.399   2.296   4.143
  457SOL    HW1 2270   1.356   2.213   4.107
  457SOL    HW2 2271   1.494   2.277   4.167
  458SOL     OW 2272   4.226   5.756   3.557
  458SOL    HW1 2273   4.239   5.811   3.475
  458SOL    HW2 2274   4.184   5.669   3.532
  459SOL     OW 2275   2.032   6.396   5.239
  459SOL    HW1 2276   2.106   6.463   5.240
  459SOL    HW2 2277   1.976   6.408   5.321
  460SOL     OW 2278   1.661   6.590   3.719
  460SOL    HW1 2279   1.661   6.538   3.633
  460SOL    HW2 2280   1.605   6.542   3.787
  461SOL     OW 2281   6.679   6.741   5.910
  461SOL    HW1 2282   6.733   6.754   5.993
  461SOL    HW2 2283   6.587   6.779   5.925
  462SOL     OW 2284   3.752   3.321   6.630
  462SOL    HW1 2285   3.763   3.240   6.687
  462SOL    HW2 2286   3.659   3.357   6.641
  463SOL     OW 2287   5.652   6.082   3.327
  463SOL    HW1 2288   5.647   6.042   3.419
  463SOL    HW2 2289   5.657   6.182   3.335
  464SOL     OW 2290   2.729   1.273   4.881
  464SOL    HW1 2291   2.673   1.256   4.800
  464SOL    HW2 2292   2.826   1.263   4.857
  465SOL     OW 2293   0.979   2.941   6.476
  465SOL    HW1 2294   1.034   2.947   6.393
  465SOL    HW2 2295   0.913   2.866   6.467
  466SOL     OW 2296   0.935   6.428   2.793
  466SOL    HW1 2297   0.991   6.395   2.716
  466SOL    HW2 2298   0.979   6.404   2.879
  467SOL     OW 2299   2.094   1.146   0.735
  467SOL    HW1 2300   2.099   1.064   0.678
  467SOL    HW2 2301   2.022   1.206   0.702
  468SOL     OW 2302   3.573   0.329   6.045
  468SOL    HW1 2303   3.608   0.261   6.108
  468SOL    HW2 2304   3.647   0.365   5.989
  469SOL     OW 2305   2.980   2.981   6.700
  469SOL    HW1 2306   3.053   3.034   6.657
  469SOL    HW2 2307   2.904   2.971   6.636
  470SOL     OW 2308   4.524   6.866   1.815
  470SOL    HW1 2309   4.433   6.832   1.842
  470SOL    HW2 2310   4.586   6.858   1.893
  471SOL     OW 2311   2.357   2.364   3.823
  471SOL    HW1 2312   2.441   2.389   3.872
  471SOL    HW2 2313   2.379   2.294   3.754
  472SOL     OW 2314   4.599   3.218   6.313
  472SOL    HW1 2315   4.677   3.186   6.368
  472SOL    HW2 2316   4.614   3.194   6.217
  473SOL     OW 2317   1.185   3.178   3.103
  473SOL    HW1 2318   1.153   3.229   3.183
  473SOL    HW2 2319   1.279   3.148   3.117
  474SOL     OW 2320   4.926   5.640   4.263
  474SOL    HW1 2321   4.853   5.708   4.260
  474SOL    HW2 2322   4.986   5.651   4.184
  475SOL     OW 2323   5.662   1.002   6.340
  475SOL    HW1 2324   5.564   0.986   6.335
  475SOL    HW2 2325   5.697   0.972   6.429
  476SOL     OW 2326   0.113   3.592   3.433
  476SOL    HW1 2327   0.125   3.686   3.464
  476SOL    HW2 2328   0.201   3.554   3.406
  477SOL     OW 2329   1.716   6.056   3.543
  477SOL    HW1 2330   1.794   6.012   3.588
  477SOL    HW2 2331   1.631   6.016   3.577
  478SOL     OW 2332   3.450   5.746   1.905
  478SOL    HW1 2333   3.511   5.824   1.891
  478SOL    HW2 2334   3.361   5.777   1.937
  479SOL     OW 2335   4.298   1.988   5.821
  479SOL    HW1 2336   4.342   1.919   5.877
  479SOL    HW2 2337   4.251   1.944   5.744
  480SOL     OW 2338   2.677   0.645   6.809
  480SOL    HW1 2339   2.646   0.685   6.723
  480SOL    HW2 2340   2.609   0.661   6.880
  481SOL     OW 2341   2.216   6.874   0.913
  481SOL    HW1 2342   2.305   6.832   0.896
  481SOL    HW2 2343   2.155   6.807   0.956
  482SOL     OW 2344   4.128   5.080   2.263
  482SOL    HW1 2345   4.075   4.996   2.278
  482SOL    HW2 2346   4.226   5.058   2.266
  483SOL     OW 2347   6.868   1.566   2.729
  483SOL    HW1 2348   6.815   1.650   2.735
  483SOL    HW2 2349   6.954   1.577   2.779
  484SOL     OW 2350   2.011   3.499   4.636
  484SOL    HW1 2351   2.075   3.534   4.703
  484SOL    HW2 2352   1.921   3.486   4.679
  485SOL     OW 2353   3.359   5.221   3.082
  485SOL    HW1 2354   3.339   5.165   3.162
  485SOL    HW2 2355   3.409   5.303   3.110
  486SOL     OW 2356   6.692   1.316   6.859
  486SOL    HW1 2357   6.670   1.228   6.901
  486SOL    HW2 2358   6.660   1.390   6.918
  487SOL     OW 2359   0.723   0.748   2.467
  487SOL    HW1 2360   0.743   0.650   2.465
  487SOL    HW2 2361   0.679   0.771   2.553
  488SOL     OW 2362   1.110   1.635   1.760
  488SOL    HW1 2363   1.111   1.710   1.826
  488SOL    HW2 2364   1.106   1.672   1.667
  489SOL     OW 2365   4.020   6.184   5.985
  489SOL    HW1 2366   3.955   6.258   6.003
  489SOL    HW2 2367   4.064   6.200   5.896
  490SOL     OW 2368   6.946   6.401   2.827
  490SOL    HW1 2369   6.916   6.488   2.789
  490SOL    HW2 2370   6.902   6.326   2.778
  491SOL     OW 2371   1.164   3.262   2.763
  491SOL    HW1 2372   1.200   3.295   2.676
  491SOL    HW2 2373   1.168   3.162   2.765
  492SOL     OW 2374   1.553   0.805   5.145
  492SOL    HW1 2375   1.646   0.767   5.144
  492SOL    HW2 2376   1.492   0.744   5.095
  493SOL     OW 2377   4.995   6.032   5.628
  493SOL    HW1 2378   4.899   6.039   5.654
  493SOL    HW2 2379   5.017   6.103   5.561
  494SOL     OW 2380   0.471   6.823   6.819
  494SOL    HW1 2381   0.434   6.773   6.898
  494SOL    HW2 2382   0.400   6.832   6.749
  495SOL     OW 2383   4.843   5.873   3.677
  495SOL    HW1 2384   4.848   5.914   3.768
  495SOL    HW2 2385   4.779   5.924   3.621
  496SOL     OW 2386   4.964   3.021   2.083
  496SOL    HW1 2387   5.022   3.010   2.003
  496SOL    HW2 2388   4.869   3.011   2.057
  497SOL     OW 2389   2.706   1.179   4.182
  497SOL    HW1 2390   2.704   1.168   4.281
  497SOL    HW2 2391   2.655   1.262   4.157
  498SOL     OW 2392   1.148   4.190   1.470
  498SOL    HW1 2393   1.087   4.192   1.390
  498SOL    HW2 2394   1.162   4.096   1.499
  499SOL     OW 2395   1.574   5.952   4.615
  499SOL    HW1 2396   1.634   5.885   4.570
  499SOL    HW2 2397   1.580   5.942   4.714
  500SOL     OW 2398   7.010   2.956   5.459
  500SOL    HW1 2399   6.951   3.033   5.436
  500SOL    HW2 2400   0.055   2.983   5.532
  501SOL     OW 2401   3.206   6.042   0.775
  501SOL    HW1 2402   3.185   6.019   0.870
  501SOL    HW2 2403   3.246   5.963   0.730
  502SOL     OW 2404   0.764   4.056   6.903
  502SOL    HW1 2405   0.729   3.963   6.912
  502SOL    HW2 2406   0.688   4.120   6.898
  503SOL     OW 2407   0.333   5.744   6.909
  503SOL    HW1 2408   0.328   5.762   7.007
  503SOL    HW2 2409   0.359   5.829   6.861
  504SOL     OW 2410   1.509   5.082   2.169
  504SOL    HW1 2411   1.415   5.117   2.170
  504SOL    HW2 2412   1.567   5.145   2.117
  505SOL     OW 2413   2.971   6.105   5.332
  505SOL    HW1 2414   3.016   6.049   5.262
  505SOL    HW2 2415   3.018   6.094   5.419
  506SOL     OW 2416   2.930   5.046   4.282
  506SOL    HW1 2417   2.852   5.074   4.337
  506SOL    HW2 2418   2.900   4.983   4.211
  507SOL     OW 2419   3.170   6.785   3.265
  507SOL    HW1 2420   3.154   6.862   3.204
  507SOL    HW2 2421   3.231   6.814   3.339
  508SOL     OW 2422   0.087   3.829   2.288
  508SOL    HW1 2423   0.012   3.763   2.290
  508SOL    HW2 2424   0.164   3.790   2.238
  509SOL     OW 2425   3.291   1.390   1.063
  509SOL    HW1 2426   3.309   1.362   1.157
  509SOL    HW2 2427   3.351   1.340   1.001
  510SOL     OW 2428   6.406   4.588   6.558
  510SOL    HW1 2429   6.410   4.530   6.639
  510SOL    HW2 2430   6.312   4.591   6.524
  511SOL     OW 2431   1.276   1.533   5.916
  511SOL    HW1 2432   1.177   1.529   5.924
  511SOL    HW2 2433   1.303   1.618   5.871
  512SOL     OW 2434   6.629   3.095   0.092
  512SOL    HW1 2435   6.645   3.001   0.061
  512SOL    HW2 2436   6.622   3.097   0.191
  513SOL     OW 2437   5.792   0.007   2.876
  513SOL    HW1 2438   5.823   7.008   2.783
  513SOL    HW2 2439   5.857   6.983   2.941
  514SOL     OW 2440   6.388   2.077   4.019
  514SOL    HW1 2441   6.447   2.120   3.950
  514SOL    HW2 2442   6.433   2.082   4.108
  515SOL     OW 2443   1.048   0.352   6.192
  515SOL    HW1 2444   0.951   0.354   6.214
  515SOL    HW2 2445   1.096   0.290   6.254
  516SOL     OW 2446   2.550   4.582   2.049
  516SOL    HW1 2447   2.492   4.651   2.007
  516SOL    HW2 2448   2.646   4.605   2.033
  517SOL     OW 2449   4.831   5.822   1.331
  517SOL    HW1 2450   4.785   5.847   1.416
  517SOL    HW2 2451   4.899   5.892   1.308
  518SOL     OW 2452   3.041   2.200   3.320
  518SOL    HW1 2453   3.018   2.258   3.242
  518SOL    HW2 2454   3.054   2.106   3.290
  519SOL     OW 2455   0.142   6.813   4.772
  519SOL    HW1 2456   0.236   6.779   4.768
  519SOL    HW2 2457   0.143   6.907   4.807
  520SOL     OW 2458   5.859   4.257   0.394
  520SOL    HW1 2459   5.891   4.163   0.403
  520SOL    HW2 2460   5.937   4.318   0.384
  521SOL     OW 2461   6.570   5.380   4.969
  521SOL    HW1 2462   6.540   5.469   4.934
  521SOL    HW2 2463   6.524   5.307   4.918
  522SOL     OW 2464   3.553   3.380   4.482
  522SOL    HW1 2465   3.455   3.376   4.464
  522SOL    HW2 2466   3.592   3.459   4.435
  523SOL     OW 2467   0.296   5.683   1.640
  523SOL    HW1 2468   0.327   5.759   1.697
  523SOL    HW2 2469   0.215   5.642   1.681
  524SOL     OW 2470   0.289   1.818   2.317
  524SOL    HW1 2471   0.293   1.849   2.222
  524SOL    HW2 2472   0.337   1.883   2.376
  525SOL     OW 2473   2.179   3.304   5.587
  525SOL    HW1 2474   2.122   3.382   5.614
  525SOL    HW2 2475   2.126   3.220   5.596
  526SOL     OW 2476   4.078   6.577   3.685
  526SOL    HW1 2477   4.145   6.539   3.621
  526SOL    HW2 2478   4.049   6.668   3.653
  527SOL     OW 2479   5.979   2.594   6.965
  527SOL    HW1 2480   6.003   2.500   6.942
  527SOL    HW2 2481   5.930   2.596   0.034
  528SOL     OW 2482   0.660   2.495   3.845
  528SOL    HW1 2483   0.573   2.540   3.863
  528SOL    HW2 2484   0.731   2.533   3.904
  529SOL     OW 2485   1.107   6.759   4.720
  529SOL    HW1 2486   1.203   6.781   4.702
  529SOL    HW2 2487   1.057   6.755   4.633
  530SOL     OW 2488   3.721   3.201   4.273
  530SOL    HW1 2489   3.722   3.109   4.234
  530SOL    HW2 2490   3.640   3.211   4.331
  531SOL     OW 2491   0.226   1.975   3.536
  531SOL    HW1 2492   0.301   1.919   3.572
  531SOL    HW2 2493   0.256   2.070   3.530
  532SOL     OW 2494   1.112   2.749   6.657
  532SOL    HW1 2495   1.152   2.732   6.567
  532SOL    HW2 2496   1.171   2.812   6.708
  533SOL     OW 2497   4.002   6.595   4.321
  533SOL    HW1 2498   4.070   6.521   4.319
  533SOL    HW2 2499   4.013   6.648   4.405
  534SOL     OW 2500   5.161   6.565   2.272
  534SOL    HW1 2501   5.069   6.592   2.301
  534SOL    HW2 2502   5.221   6.560   2.353
  535SOL     OW 2503   0.603   3.611   4.823
  535SOL    HW1 2504   0.633   3.518   4.804
  535SOL    HW2 2505   0.552   3.613   4.909
  536SOL     OW 2506   6.605   5.118   1.850
  536SOL    HW1 2507   6.570   5.053   1.782
  536SOL    HW2 2508   6.670   5.072   1.910
  537SOL     OW 2509   2.848   6.395   4.581
  537SOL    HW1 2510   2.759   6.352   4.570
  537SOL    HW2 2511   2.847   6.487   4.540
  538SOL     OW 2512   1.125   4.389   3.266
  538SOL    HW1 2513   1.218   4.352   3.266
  538SOL    HW2 2514   1.085   4.378   3.357
  539SOL     OW 2515   1.665   5.989   1.311
  539SOL    HW1 2516   1.614   5.927   1.252
  539SOL    HW2 2517   1.761   5.960   1.314
  540SOL     OW 2518   1.469   0.686   3.075
  540SOL    HW1 2519   1.455   0.781   3.104
  540SOL    HW2 2520   1.559   0.655   3.106
  541SOL     OW 2521   5.104   5.808   4.133
  541SOL    HW1 2522   5.122   5.905   4.118
  541SOL    HW2 2523   5.152   5.777   4.216
  542SOL     OW 2524   5.902   6.617   6.830
  542SOL    HW1 2525   5.897   6.525   6.870
  542SOL    HW2 2526   5.854   6.617   6.742
  543SOL     OW 2527   1.482   3.968   5.168
  543SOL    HW1 2528   1.532   4.007   5.091
  543SOL    HW2 2529   1.392   4.011   5.173
  544SOL     OW 2530   2.806   4.026   0.047
  544SOL    HW1 2531   2.775   3.941   0.004
  544SOL    HW2 2532   2.749   4.046   0.127
  545SOL     OW 2533   2.559   1.654   1.725
  545SOL    HW1 2534   2.518   1.672   1.814
  545SOL    HW2 2535   2.657   1.670   1.729
  546SOL     OW 2536   2.302   2.878   0.510
  546SOL    HW1 2537   2.239   2.852   0.437
  546SOL    HW2 2538   2.350   2.962   0.484
  547SOL     OW 2539   3.084   0.904   0.152
  547SOL    HW1 2540   3.074   1.000   0.180
  547SOL    HW2 2541   3.148   0.898   0.076
  548SOL     OW 2542   3.420   3.645   2.776
  548SOL    HW1 2543   3.480   3.700   2.718
  548SOL    HW2 2544   3.338   3.622   2.724
  549SOL     OW 2545   5.031   2.750   1.324
  549SOL    HW1 2546   4.973   2.689   1.377
  549SOL    HW2 2547   4.993   2.762   1.233
  550SOL     OW 2548   0.001   5.438   3.689
  550SOL    HW1 2549   6.961   5.487   3.754
  550SOL    HW2 2550   6.971   5.432   3.601
  551SOL     OW 2551   0.773   0.489   2.533
  551SOL    HW1 2552   0.861   0.445   2.512
  551SOL    HW2 2553   0.699   0.434   2.496
  552SOL     OW 2554   5.311   4.243   0.034
  552SOL    HW1 2555   5.283   4.327   7.005
  552SOL    HW2 2556   5.239   4.175   0.027
  553SOL     OW 2557   2.452   6.480   2.582
  553SOL    HW1 2558   2.540   6.442   2.609
  553SOL    HW2 2559   2.466   6.566   2.533
  554SOL     OW 2560   5.578   0.440   6.271
  554SOL    HW1 2561   5.481   0.457   6.254
  554SOL    HW2 2562   5.588   0.381   6.351
  555SOL     OW 2563   1.837   5.292   3.550
  555SOL    HW1 2564   1.770   5.267   3.620
  555SOL    HW2 2565   1.872   5.383   3.569
  556SOL     OW 2566   4.605   2.516   3.329
  556SOL    HW1 2567   4.604   2.551   3.235
  556SOL    HW2 2568   4.538   2.442   3.338
  557SOL     OW 2569   0.215   5.162   0.641
  557SOL    HW1 2570   0.139   5.222   0.616
  557SOL    HW2 2571   0.255   5.124   0.558
  558SOL     OW 2572   3.011   3.195   4.353
  558SOL    HW1 2573   2.913   3.178   4.351
  558SOL    HW2 2574   3.053   3.146   4.429
  559SOL     OW 2575   6.627   6.084   6.955
  559SOL    HW1 2576   6.684   6.165   6.973
  559SOL    HW2 2577   6.680   6.001   6.975
  560SOL     OW 2578   4.747   4.571   0.069
  560SOL    HW1 2579   4.760   4.487   0.121
  560SOL    HW2 2580   4.837   4.612   0.049
  561SOL     OW 2581   0.097   1.367   0.605
  561SOL    HW1 2582   0.179   1.338   0.655
  561SOL    HW2 2583   0.032   1.291   0.603
  562SOL     OW 2584   4.903   0.659   5.885
  562SOL    HW1 2585   4.999   0.679   5.862
  562SOL    HW2 2586   4.878   0.569   5.850
  563SOL     OW 2587   2.167   0.739   3.695
  563SOL    HW1 2588   2.141   0.693   3.610
  563SOL    HW2 2589   2.248   0.796   3.678
  564SOL     OW 2590   1.823   2.078   6.674
  564SOL    HW1 2591   1.757   2.064   6.600
  564SOL    HW2 2592   1.823   2.174   6.702
  565SOL     OW 2593   3.851   3.040   5.501
  565SOL    HW1 2594   3.767   3.012   5.456
  565SOL    HW2 2595   3.843   3.135   5.532
  566SOL     OW 2596   6.383   5.176   3.778
  566SOL    HW1 2597   6.462   5.122   3.804
  566SOL    HW2 2598   6.325   5.192   3.858
  567SOL     OW 2599   3.087   3.269   1.818
  567SOL    HW1 2600   3.150   3.285   1.894
  567SOL    HW2 2601   3.006   3.221   1.852
  568SOL     OW 2602   4.834   1.470   6.993
  568SOL    HW1 2603   4.755   1.505   6.942
  568SOL    HW2 2604   4.914   1.467   6.934
  569SOL     OW 2605   1.402   2.445   6.815
  569SOL    HW1 2606   1.413   2.395   6.901
  569SOL    HW2 2607   1.309   2.482   6.810
  570SOL     OW 2608   3.020   6.281   6.881
  570SOL    HW1 2609   3.095   6.280   6.815
  570SOL    HW2 2610   3.016   6.371   6.925
  571SOL     OW 2611   3.277   0.436   2.217
  571SOL    HW1 2612   3.366   0.390   2.222
  571SOL    HW2 2613   3.205   0.372   2.245
  572SOL     OW 2614   2.964   4.839   5.754
  572SOL    HW1 2615   2.952   4.842   5.654
  572SOL    HW2 2616   2.892   4.892   5.798
  573SOL     OW 2617   5.326   2.093   5.769
  573SOL    HW1 2618   5.335   1.993   5.775
  573SOL    HW2 2619   5.409   2.132   5.729
  574SOL     OW 2620   3.269   2.077   3.854
  574SOL    HW1 2621   3.243   2.145   3.786
  574SOL    HW2 2622   3.348   2.026   3.821
  575SOL     OW 2623   5.374   3.612   1.093
  575SOL    HW1 2624   5.382   3.533   1.032
  575SOL    HW2 2625   5.278   3.637   1.102
  576SOL     OW 2626   1.004   2.174   2.882
  576SOL    HW1 2627   1.085   2.115   2.872
  576SOL    HW2 2628   1.034   2.270   2.887
  577SOL     OW 2629   1.310   1.294   2.399
  577SOL    HW1 2630   1.255   1.211   2.384
  577SOL    HW2 2631   1.283   1.364   2.333
  578SOL     OW 2632   6.648   5.447   3.260
  578SOL    HW1 2633   6.579   5.376   3.272
  578SOL    HW2 2634   6.704   5.452   3.342
  579SOL     OW 2635   1.593   2.712   1.917
  579SOL    HW1 2636   1.634   2.628   1.882
  579SOL    HW2 2637   1.641   2.791   1.877
  580SOL     OW 2638   6.848   5.190   6.756
  580SOL    HW1 2639   6.795   5.106   6.745
  580SOL    HW2 2640   6.939   5.167   6.791
  581SOL     OW 2641   2.954   3.379   2.689
  581SOL    HW1 2642   2.906   3.379   2.602
  581SOL    HW2 2643   2.935   3.464   2.738
  582SOL     OW 2644   4.896   0.044   1.715
  582SOL    HW1 2645   4.903   0.003   1.806
  582SOL    HW2 2646   4.838   7.005   1.657
  583SOL     OW 2647   2.969   5.255   5.479
  583SOL    HW1 2648   2.912   5.225   5.555
  583SOL    HW2 2649   2.984   5.353   5.484
  584SOL     OW 2650   2.526   3.993   6.205
  584SOL    HW1 2651   2.481   4.034   6.126
  584SOL    HW2 2652   2.623   3.981   6.187
  585SOL     OW 2653   5.552   3.111   5.916
  585SOL    HW1 2654   5.524   3.135   5.823
  585SOL    HW2 2655   5.536   3.189   5.977
  586SOL     OW 2656   3.718   2.056   6.221
  586SOL    HW1 2657   3.767   2.128   6.270
  586SOL    HW2 2658   3.710   1.975   6.280
  587SOL     OW 2659   3.645   0.890   5.389
  587SOL    HW1 2660   3.593   0.975   5.399
  587SOL    HW2 2661   3.716   0.885   5.460
  588SOL     OW 2662   2.454   4.702   1.078
  588SOL    HW1 2663   2.440   4.645   0.997
  588SOL    HW2 2664   2.372   4.700   1.134
  589SOL     OW 2665   3.052   5.474   1.565
  589SOL    HW1 2666   3.123   5.419   1.608
  589SOL    HW2 2667   2.962   5.433   1.584
  590SOL     OW 2668   4.885   3.447   2.833
  590SOL    HW1 2669   4.875   3.379   2.905
  590SOL    HW2 2670   4.881   3.402   2.743
  591SOL     OW 2671   3.672   5.678   3.830
  591SOL    HW1 2672   3.594   5.673   3.767
  591SOL    HW2 2673   3.724   5.593   3.826
  592SOL     OW 2674   3.459   0.501   1.710
  592SOL    HW1 2675   3.501   0.491   1.620
  592SOL    HW2 2676   3.378   0.559   1.702
  593SOL     OW 2677   4.579   2.576   3.070
  593SOL    HW1 2678   4.507   2.518   3.032
  593SOL    HW2 2679   4.601   2.649   3.006
  594SOL     OW 2680   5.130   2.336   6.931
  594SOL    HW1 2681   5.114   2.344   0.012
  594SOL    HW2 2682   5.190   2.410   6.901
  595SOL     OW 2683   5.654   6.804   3.729
  595SOL    HW1 2684   5.724   6.859   3.684
  595SOL    HW2 2685   5.563   6.837   3.702
  596SOL     OW 2686   1.803   4.148   3.211
  596SOL    HW1 2687   1.808   4.051   3.187
  596SOL    HW2 2688   1.708   4.173   3.230
  597SOL     OW 2689   3.861   6.990   6.643
  597SOL    HW1 2690   3.954   7.011   6.673
  597SOL    HW2 2691   3.824   6.916   6.700
  598SOL     OW 2692   2.840   3.941   5.947
  598SOL    HW1 2693   2.791   3.995   5.878
  598SOL    HW2 2694   2.870   3.855   5.907
  599SOL     OW 2695   1.885   6.600   2.708
  599SOL    HW1 2696   1.824   6.581   2.786
  599SOL    HW2 2697   1.968   6.643   2.742
  600SOL     OW 2698   1.089   1.092   0.612
  600SOL    HW1 2699   1.189   1.096   0.605
  600SOL    HW2 2700   1.048   1.116   0.524
  601SOL     OW 2701   3.013   6.542   4.008
  601SOL    HW1 2702   3.073   6.606   3.960
  601SOL    HW2 2703   2.936   6.592   4.046
  602SOL     OW 2704   2.060   2.853   6.246
  602SOL    HW1 2705   2.077   2.807   6.333
  602SOL    HW2 2706   2.032   2.948   6.263
  603SOL     OW 2707   3.524   1.428   3.698
  603SOL    HW1 2708   3.620   1.400   3.690
  603SOL    HW2 2709   3.499   1.433   3.795
  604SOL     OW 2710   0.568   3.394   1.488
  604SOL    HW1 2711   0.559   3.364   1.583
  604SOL    HW2 2712   0.665   3.402   1.465
  605SOL     OW 2713   6.850   6.275   2.518
  605SOL    HW1 2714   6.771   6.335   2.506
  605SOL    HW2 2715   6.849   6.203   2.448
  606SOL     OW 2716   4.868   0.676   6.606
  606SOL    HW1 2717   4.947   0.620   6.627
  606SOL    HW2 2718   4.787   0.637   6.650
  607SOL     OW 2719   5.756   0.761   5.609
  607SOL    HW1 2720   5.759   0.690   5.679
  607SOL    HW2 2721   5.827   0.829   5.628
  608SOL     OW 2722   3.339   6.262   6.405
  608SOL    HW1 2723   3.269   6.255   6.334
  608SOL    HW2 2724   3.387   6.175   6.413
  609SOL     OW 2725   4.000   3.224   3.487
  609SOL    HW1 2726   4.064   3.171   3.432
  609SOL    HW2 2727   4.007   3.196   3.583
  610SOL     OW 2728   5.034   3.278   2.024
  610SOL    HW1 2729   4.991   3.301   1.937
  610SOL    HW2 2730   5.003   3.187   2.053
  611SOL     OW 2731   3.292   0.144   0.178
  611SOL    HW1 2732   3.369   0.207   0.184
  611SOL    HW2 2733   3.210   0.186   0.218
  612SOL     OW 2734   3.469   6.547   6.029
  612SOL    HW1 2735   3.497   6.451   6.037
  612SOL    HW2 2736   3.532   6.605   6.080
  613SOL     OW 2737   4.041   6.619   5.840
  613SOL    HW1 2738   4.009   6.594   5.931
  613SOL    HW2 2739   3.976   6.681   5.797
  614SOL     OW 2740   4.480   4.648   1.253
  614SOL    HW1 2741   4.413   4.591   1.300
  614SOL    HW2 2742   4.470   4.636   1.154
  615SOL     OW 2743   0.352   2.319   1.349
  615SOL    HW1 2744   0.344   2.279   1.258
  615SOL    HW2 2745   0.324   2.253   1.418
  616SOL     OW 2746   0.323   2.357   3.789
  616SOL    HW1 2747   0.348   2.446   3.829
  616SOL    HW2 2748   0.349   2.284   3.851
  617SOL     OW 2749   6.363   3.340   6.289
  617SOL    HW1 2750   6.386   3.250   6.325
  617SOL    HW2 2751   6.393   3.411   6.352
  618SOL     OW 2752   6.324   2.818   6.689
  618SOL    HW1 2753   6.397   2.801   6.622
  618SOL    HW2 2754   6.236   2.790   6.651
  619SOL     OW 2755   4.720   0.330   0.038
  619SOL    HW1 2756   4.776   0.256   0.074
  619SOL    HW2 2757   4.776   0.413   0.028
  620SOL     OW 2758   5.093   2.263   1.986
  620SOL    HW1 2759   5.161   2.336   1.990
  620SOL    HW2 2760   5.012   2.290   2.037
  621SOL     OW 2761   2.108   6.666   5.465
  621SOL    HW1 2762   2.042   6.593   5.484
  621SOL    HW2 2763   2.061   6.755   5.469
  622SOL     OW 2764   0.901   1.317   4.389
  622SOL    HW1 2765   0.942   1.274   4.309
  622SOL    HW2 2766   0.839   1.252   4.433
  623SOL     OW 2767   1.715   6.140   5.967
  623SOL    HW1 2768   1.757   6.160   6.055
  623SOL    HW2 2769   1.777   6.165   5.893
  624SOL     OW 2770   0.145   1.874   1.166
  624SOL    HW1 2771   0.129   1.931   1.086
  624SOL    HW2 2772   0.157   1.779   1.137
  625SOL     OW 2773   2.032   2.209   1.767
  625SOL    HW1 2774   2.019   2.113   1.740
  625SOL    HW2 2775   2.031   2.267   1.685
  626SOL     OW 2776   1.006   5.752   3.198
  626SOL    HW1 2777   0.929   5.811   3.177
  626SOL    HW2 2778   1.090   5.794   3.165
  627SOL     OW 2779   6.734   6.120   0.719
  627SOL    HW1 2780   6.716   6.027   0.751
  627SOL    HW2 2781   6.783   6.171   0.791
  628SOL     OW 2782   5.409   5.680   5.520
  628SOL    HW1 2783   5.374   5.761   5.567
  628SOL    HW2 2784   5.412   5.698   5.422
  629SOL     OW 2785   0.763   0.676   6.427
  629SOL    HW1 2786   0.681   0.652   6.480
  629SOL    HW2 2787   0.784   0.773   6.441
  630SOL     OW 2788   0.548   1.513   0.521
  630SOL    HW1 2789   0.562   1.564   0.437
  630SOL    HW2 2790   0.600   1.556   0.595
  631SOL     OW 2791   3.696   1.385   5.573
  631SOL    HW1 2792   3.725   1.480   5.569
  631SOL    HW2 2793   3.599   1.379   5.550
  632SOL     OW 2794   4.147   1.761   1.407
  632SOL    HW1 2795   4.223   1.699   1.425
  632SOL    HW2 2796   4.082   1.716   1.345
  633SOL     OW 2797   2.941   4.054   6.597
  633SOL    HW1 2798   2.987   4.107   6.669
  633SOL    HW2 2799   3.006   4.037   6.522
  634SOL     OW 2800   3.913   3.943   2.860
  634SOL    HW1 2801   3.874   3.972   2.772
  634SOL    HW2 2802   3.953   3.852   2.850
  635SOL     OW 2803   4.718   5.946   0.825
  635SOL    HW1 2804   4.627   5.983   0.843
  635SOL    HW2 2805   4.711   5.875   0.755
  636SOL     OW 2806   3.559   6.788   0.282
  636SOL    HW1 2807   3.572   6.875   0.331
  636SOL    HW2 2808   3.581   6.801   0.186
  637SOL     OW 2809   0.241   3.178   3.282
  637SOL    HW1 2810   0.165   3.243   3.286
  637SOL    HW2 2811   0.210   3.088   3.312
  638SOL     OW 2812   5.791   3.359   3.165
  638SOL    HW1 2813   5.819   3.331   3.073
  638SOL    HW2 2814   5.731   3.289   3.204
  639SOL     OW 2815   4.874   3.734   2.736
  639SOL    HW1 2816   4.830   3.651   2.772
  639SOL    HW2 2817   4.945   3.708   2.671
  640SOL     OW 2818   0.325   5.091   3.947
  640SOL    HW1 2819   0.307   5.003   3.904
  640SOL    HW2 2820   0.268   5.161   3.903
  641SOL     OW 2821   0.879   4.850   5.457
  641SOL    HW1 2822   0.792   4.812   5.426
  641SOL    HW2 2823   0.875   4.867   5.555
  642SOL     OW 2824   0.023   3.627   4.209
  642SOL    HW1 2825   0.095   3.645   4.276
  642SOL    HW2 2826   0.061   3.633   4.116
  643SOL     OW 2827   6.377   0.056   6.186
  643SOL    HW1 2828   6.287   0.099   6.183
  643SOL    HW2 2829   6.441   0.108   6.130
  644SOL     OW 2830   1.192   6.855   4.094
  644SOL    HW1 2831   1.275   6.802   4.114
  644SOL    HW2 2832   1.208   6.912   4.013
  645SOL     OW 2833   4.190   0.232   4.955
  645SOL    HW1 2834   4.205   0.189   4.865
  645SOL    HW2 2835   4.133   0.313   4.944
  646SOL     OW 2836   3.065   0.313   4.353
  646SOL    HW1 2837   3.047   0.217   4.331
  646SOL    HW2 2838   3.044   0.370   4.274
  647SOL     OW 2839   4.862   2.003   4.785
  647SOL    HW1 2840   4.836   2.092   4.748
  647SOL    HW2 2841   4.825   1.930   4.727
  648SOL     OW 2842   0.585   3.667   3.918
  648SOL    HW1 2843   0.546   3.695   4.006
  648SOL    HW2 2844   0.651   3.735   3.887
  649SOL     OW 2845   1.917   3.951   1.123
  649SOL    HW1 2846   1.983   3.914   1.188
  649SOL    HW2 2847   1.863   4.022   1.168
  650SOL     OW 2848   5.960   4.295   0.828
  650SOL    HW1 2849   6.039   4.353   0.810
  650SOL    HW2 2850   5.886   4.350   0.867
  651SOL     OW 2851   1.461   6.582   6.597
  651SOL    HW1 2852   1.362   6.580   6.614
  651SOL    HW2 2853   1.509   6.595   6.684
  652SOL     OW 2854   5.271   6.893   4.012
  652SOL    HW1 2855   5.182   6.905   4.056
  652SOL    HW2 2856   5.270   6.935   3.922
  653SOL     OW 2857   1.409   5.703   0.072
  653SOL    HW1 2858   1.350   5.760   0.015
  653SOL    HW2 2859   1.495   5.686   0.023
  654SOL     OW 2860   0.701   6.106   0.291
  654SOL    HW1 2861   0.682   6.015   0.329
  654SOL    HW2 2862   0.755   6.159   0.356
  655SOL     OW 2863   0.043   5.965   0.993
  655SOL    HW1 2864   7.012   6.020   1.060
  655SOL    HW2 2865   7.005   5.886   0.967
  656SOL     OW 2866   2.327   5.899   0.906
  656SOL    HW1 2867   2.250   5.949   0.865
  656SOL    HW2 2868   2.378   5.853   0.833
  657SOL     OW 2869   2.592   3.598   1.202
  657SOL    HW1 2870   2.679   3.549   1.213
  657SOL    HW2 2871   2.581   3.663   1.277
  658SOL     OW 2872   1.261   3.475   6.768
  658SOL    HW1 2873   1.176   3.523   6.746
  658SOL    HW2 2874   1.269   3.393   6.711
  659SOL     OW 2875   1.990   6.341   4.960
  659SOL    HW1 2876   1.890   6.341   4.958
  659SOL    HW2 2877   2.022   6.322   5.053
  660SOL     OW 2878   6.366   4.049   2.653
  660SOL    HW1 2879   6.289   4.041   2.590
  660SOL    HW2 2880   6.447   4.004   2.615
  661SOL     OW 2881   4.864   3.806   3.599
  661SOL    HW1 2882   4.958   3.818   3.630
  661SOL    HW2 2883   4.864   3.780   3.503
  662SOL     OW 2884   4.136   0.188   5.203
  662SOL    HW1 2885   4.088   0.271   5.233
  662SOL    HW2 2886   4.149   0.191   5.104
  663SOL     OW 2887   1.304   3.630   6.973
  663SOL    HW1 2888   1.292   3.727   6.954
  663SOL    HW2 2889   1.270   3.577   6.896
  664SOL     OW 2890   0.526   5.412   6.713
  664SOL    HW1 2891   0.570   5.493   6.750
  664SOL    HW2 2892   0.455   5.439   6.648
  665SOL     OW 2893   4.520   5.057   0.766
  665SOL    HW1 2894   4.435   5.012   0.792
  665SOL    HW2 2895   4.501   5.131   0.702
  666SOL     OW 2896   4.966   1.860   2.732
  666SOL    HW1 2897   5.052   1.883   2.777
  666SOL    HW2 2898   4.976   1.870   2.633
  667SOL     OW 2899   6.603   4.316   3.330
  667SOL    HW1 2900   6.623   4.218   3.321
  667SOL    HW2 2901   6.527   4.340   3.271
  668SOL     OW 2902   5.309   6.073   6.774
  668SOL    HW1 2903   5.345   5.990   6.731
  668SOL    HW2 2904   5.221   6.097   6.732
  669SOL     OW 2905   3.785   6.047   3.617
  669SOL    HW1 2906   3.767   6.120   3.551
  669SOL    HW2 2907   3.883   6.039   3.633
  670SOL     OW 2908   3.032   3.279   1.179
  670SOL    HW1 2909   3.095   3.220   1.229
  670SOL    HW2 2910   3.080   3.321   1.101
  671SOL     OW 2911   2.778   5.846   6.682
  671SOL    HW1 2912   2.718   5.857   6.761
  671SOL    HW2 2913   2.867   5.809   6.712
  672SOL     OW 2914   0.727   4.692   1.883
  672SOL    HW1 2915   0.814   4.742   1.886
  672SOL    HW2 2916   0.657   4.743   1.933
  673SOL     OW 2917   6.325   0.285   1.599
  673SOL    HW1 2918   6.270   0.330   1.529
  673SOL    HW2 2919   6.303   0.188   1.602
  674SOL     OW 2920   0.277   3.782   4.825
  674SOL    HW1 2921   0.177   3.784   4.828
  674SOL    HW2 2922   0.308   3.688   4.834
  675SOL     OW 2923   0.423   0.785   5.024
  675SOL    HW1 2924   0.344   0.757   4.970
  675SOL    HW2 2925   0.462   0.869   4.985
  676SOL     OW 2926   4.272   5.842   2.911
  676SOL    HW1 2927   4.222   5.911   2.963
  676SOL    HW2 2928   4.238   5.841   2.817
  677SOL     OW 2929   6.006   1.442   6.620
  677SOL    HW1 2930   5.939   1.516   6.625
  677SOL    HW2 2931   6.091   1.477   6.581
  678SOL     OW 2932   1.064   1.419   4.971
  678SOL    HW1 2933   0.990   1.355   4.993
  678SOL    HW2 2934   1.025   1.509   4.953
  679SOL     OW 2935   4.936   1.598   4.310
  679SOL    HW1 2936   4.967   1.576   4.218
  679SOL    HW2 2937   5.014   1.594   4.373
  680SOL     OW 2938   5.496   5.070   6.442
  680SOL    HW1 2939   5.412   5.046   6.490
  680SOL    HW2 2940   5.486   5.049   6.345
  681SOL     OW 2941   5.671   6.476   1.474
  681SOL    HW1 2942   5.735   6.400   1.477
  681SOL    HW2 2943   5.660   6.507   1.380
  682SOL     OW 2944   1.969   6.786   0.302
  682SOL    HW1 2945   1.964   6.857   0.232
  682SOL    HW2 2946   1.996   6.699   0.259
  683SOL     OW 2947   3.487   2.461   6.726
  683SOL    HW1 2948   3.443   2.538   6.681
  683SOL    HW2 2949   3.539   2.408   6.658
  684SOL     OW 2950   6.214   0.911   6.865
  684SOL    HW1 2951   6.253   0.822   6.887
  684SOL    HW2 2952   6.129   0.924   6.915
  685SOL     OW 2953   4.511   0.935   4.010
  685SOL    HW1 2954   4.477   0.870   4.078
  685SOL    HW2 2955   4.560   1.009   4.056
  686SOL     OW 2956   5.923   3.086   3.342
  686SOL    HW1 2957   5.913   3.051   3.434
  686SOL    HW2 2958   5.870   3.030   3.278
  687SOL     OW 2959   0.328   3.468   4.755
  687SOL    HW1 2960   0.334   3.370   4.773
  687SOL    HW2 2961   0.419   3.506   4.742
  688SOL     OW 2962   1.474   2.599   6.586
  688SOL    HW1 2963   1.548   2.538   6.556
  688SOL    HW2 2964   1.432   2.562   6.669
  689SOL     OW 2965   0.077   4.413   6.475
  689SOL    HW1 2966   0.167   4.415   6.432
  689SOL    HW2 2967   0.083   4.367   6.564
  690SOL     OW 2968   0.734   3.868   3.830
  690SOL    HW1 2969   0.787   3.913   3.902
  690SOL    HW2 2970   0.756   3.909   3.742
  691SOL     OW 2971   2.567   0.351   6.481
  691SOL    HW1 2972   2.542   0.256   6.463
  691SOL    HW2 2973   2.634   0.382   6.413
  692SOL     OW 2974   3.562   6.208   3.316
  692SOL    HW1 2975   3.631   6.217   3.388
  692SOL    HW2 2976   3.475   6.180   3.357
  693SOL     OW 2977   6.205   0.720   3.349
  693SOL    HW1 2978   6.278   0.767   3.300
  693SOL    HW2 2979   6.210   0.741   3.446
  694SOL     OW 2980   3.525   6.264   2.454
  694SOL    HW1 2981   3.592   6.309   2.514
  694SOL    HW2 2982   3.501   6.325   2.379
  695SOL     OW 2983   4.426   5.143   5.423
  695SOL    HW1 2984   4.436   5.158   5.325
  695SOL    HW2 2985   4.383   5.053   5.438
  696SOL     OW 2986   3.034   5.200   2.299
  696SOL    HW1 2987   2.983   5.241   2.375
  696SOL    HW2 2988   2.970   5.153   2.238
  697SOL     OW 2989   2.153   3.018   4.550
  697SOL    HW1 2990   2.182   3.056   4.638
  697SOL    HW2 2991   2.139   3.092   4.484
  698SOL     OW 2992   5.854   0.282   6.929
  698SOL    HW1 2993   5.845   0.247   0.004
  698SOL    HW2 2994   5.767   0.271   6.881
  699SOL     OW 2995   1.069   4.339   6.654
  699SOL    HW1 2996   0.977   4.300   6.650
  699SOL    HW2 2997   1.074   4.417   6.592
  700SOL     OW 2998   2.727   1.476   3.645
  700SOL    HW1 2999   2.749   1.574   3.642
  700SOL    HW2 3000   2.793   1.429   3.703
  701SOL     OW 3001   5.701   3.484   5.319
  701SOL    HW1 3002   5.643   3.405   5.299
  701SOL    HW2 3003   5.706   3.543   5.238
  702SOL     OW 3004   6.672   6.621   6.216
  702SOL    HW1 3005   6.747   6.687   6.207
  702SOL    HW2 3006   6.702   6.531   6.185
  703SOL     OW 3007   3.647   3.848   6.284
  703SOL    HW1 3008   3.733   3.853   6.233
  703SOL    HW2 3009   3.666   3.820   6.378
  704SOL     OW 3010   1.734   1.408   6.212
  704SOL    HW1 3011   1.833   1.422   6.211
  704SOL    HW2 3012   1.696   1.436   6.124
  705SOL     OW 3013   6.228   6.805   3.287
  705SOL    HW1 3014   6.248   6.887   3.233
  705SOL    HW2 3015   6.283   6.729   3.253
  706SOL     OW 3016   4.104   2.235   4.234
  706SOL    HW1 3017   4.087   2.280   4.321
  706SOL    HW2 3018   4.171   2.288   4.181
  707SOL     OW 3019   4.672   0.029   2.514
  707SOL    HW1 3020   4.669   0.078   2.601
  707SOL    HW2 3021   4.714   0.087   2.445
  708SOL     OW 3022   4.007   0.827   1.211
  708SOL    HW1 3023   4.025   0.906   1.270
  708SOL    HW2 3024   4.048   0.745   1.251
  709SOL     OW 3025   0.984   5.267   0.589
  709SOL    HW1 3026   1.066   5.303   0.543
  709SOL    HW2 3027   0.916   5.340   0.597
  710SOL     OW 3028   3.956   3.076   2.577
  710SOL    HW1 3029   3.992   3.111   2.663
  710SOL    HW2 3030   3.996   3.128   2.501
  711SOL     OW 3031   0.127   2.439   6.091
  711SOL    HW1 3032   0.072   2.437   6.174
  711SOL    HW2 3033   0.107   2.358   6.036
  712SOL     OW 3034   3.482   4.006   1.287
  712SOL    HW1 3035   3.510   4.099   1.309
  712SOL    HW2 3036   3.443   3.962   1.368
  713SOL     OW 3037   3.280   2.687   6.655
  713SOL    HW1 3038   3.220   2.636   6.717
  713SOL    HW2 3039   3.241   2.777   6.637
  714SOL     OW 3040   6.292   4.671   4.295
  714SOL    HW1 3041   6.277   4.579   4.333
  714SOL    HW2 3042   6.214   4.696   4.237
  715SOL     OW 3043   5.848   6.152   0.101
  715SOL    HW1 3044   5.871   6.217   0.173
  715SOL    HW2 3045   5.835   6.061   0.141
  716SOL     OW 3046   1.323   0.155   0.645
  716SOL    HW1 3047   1.400   0.217   0.631
  716SOL    HW2 3048   1.254   0.199   0.702
  717SOL     OW 3049   5.777   4.422   6.233
  717SOL    HW1 3050   5.707   4.490   6.254
  717SOL    HW2 3051   5.863   4.468   6.212
  718SOL     OW 3052   4.657   2.240   6.290
  718SOL    HW1 3053   4.721   2.186   6.236
  718SOL    HW2 3054   4.660   2.209   6.385
  719SOL     OW 3055   6.726   1.859   1.419
  719SOL    HW1 3056   6.784   1.931   1.457
  719SOL    HW2 3057   6.630   1.880   1.438
  720SOL     OW 3058   3.633   0.561   6.289
  720SOL    HW1 3059   3.542   0.598   6.305
  720SOL    HW2 3060   3.655   0.493   6.359
  721SOL     OW 3061   2.330   0.624   4.299
  721SOL    HW1 3062   2.239   0.637   4.258
  721SOL    HW2 3063   2.376   0.548   4.252
  722SOL     OW 3064   2.976   0.061   4.317
  722SOL    HW1 3065   3.054   0.031   4.262
  722SOL    HW2 3066   2.892   0.021   4.281
  723SOL     OW 3067   2.155   3.645   3.063
  723SOL    HW1 3068   2.163   3.743   3.045
  723SOL    HW2 3069   2.245   3.607   3.086
  724SOL     OW 3070   1.375   2.713   4.734
  724SOL    HW1 3071   1.354   2.665   4.649
  724SOL    HW2 3072   1.303   2.780   4.753
  725SOL     OW 3073   3.880   6.022   0.864
  725SOL    HW1 3074   3.929   5.970   0.934
  725SOL    HW2 3075   3.945   6.068   0.804
  726SOL     OW 3076   4.295   4.774   0.686
  726SOL    HW1 3077   4.368   4.738   0.628
  726SOL    HW2 3078   4.281   4.871   0.665
  727SOL     OW 3079   5.573   5.635   6.185
  727SOL    HW1 3080   5.478   5.637   6.216
  727SOL    HW2 3081   5.634   5.624   6.263
  728SOL     OW 3082   6.507   3.700   4.996
  728SOL    HW1 3083   6.534   3.661   5.084
  728SOL    HW2 3084   6.420   3.661   4.968
  729SOL     OW 3085   0.984   1.888   0.255
  729SOL    HW1 3086   0.956   1.794   0.270
  729SOL    HW2 3087   1.082   1.891   0.233
  730SOL     OW 3088   5.405   1.860   2.980
  730SOL    HW1 3089   5.403   1.960   2.985
  730SOL    HW2 3090   5.448   1.832   2.894
  731SOL     OW 3091   5.559   3.985   5.500
  731SOL    HW1 3092   5.574   4.059   5.566
  731SOL    HW2 3093   5.647   3.947   5.473
  732SOL     OW 3094   0.802   2.777   0.975
  732SOL    HW1 3095   0.826   2.873   0.956
  732SOL    HW2 3096   0.713   2.773   1.020
  733SOL     OW 3097   5.934   5.847   5.571
  733SOL    HW1 3098   5.932   5.947   5.562
  733SOL    HW2 3099   5.990   5.808   5.497
  734SOL     OW 3100   6.666   4.735   2.284
  734SOL    HW1 3101   6.637   4.640   2.295
  734SOL    HW2 3102   6.642   4.787   2.366
  735SOL     OW 3103   3.760   2.774   0.573
  735SOL    HW1 3104   3.690   2.827   0.525
  735SOL    HW2 3105   3.823   2.734   0.506
  736SOL     OW 3106   0.099   0.330   2.912
  736SOL    HW1 3107   0.182   0.298   2.958
  736SOL    HW2 3108   0.124   0.404   2.849
  737SOL     OW 3109   5.017   2.432   5.969
  737SOL    HW1 3110   4.981   2.469   6.054
  737SOL    HW2 3111   4.946   2.434   5.899
  738SOL     OW 3112   1.860   3.987   2.343
  738SOL    HW1 3113   1.833   3.897   2.310
  738SOL    HW2 3114   1.940   4.018   2.292
  739SOL     OW 3115   4.042   0.294   3.906
  739SOL    HW1 3116   4.021   0.353   3.984
  739SOL    HW2 3117   4.042   0.198   3.936
  740SOL     OW 3118   4.864   0.689   0.829
  740SOL    HW1 3119   4.775   0.725   0.859
  740SOL    HW2 3120   4.928   0.764   0.815
  741SOL     OW 3121   2.125   6.767   3.484
  741SOL    HW1 3122   2.168   6.853   3.511
  741SOL    HW2 3123   2.194   6.707   3.443
  742SOL     OW 3124   1.889   6.252   1.741
  742SOL    HW1 3125   1.823   6.246   1.816
  742SOL    HW2 3126   1.851   6.309   1.667
  743SOL     OW 3127   0.476   4.417   4.546
  743SOL    HW1 3128   0.398   4.450   4.492
  743SOL    HW2 3129   0.476   4.317   4.546
  744SOL     OW 3130   5.383   0.431   6.701
  744SOL    HW1 3131   5.299   0.485   6.705
  744SOL    HW2 3132   5.461   0.489   6.726
  745SOL     OW 3133   0.913   5.206   4.669
  745SOL    HW1 3134   0.856   5.214   4.587
  745SOL    HW2 3135   0.907   5.290   4.723
  746SOL     OW 3136   0.149   5.411   6.335
  746SOL    HW1 3137   0.098   5.326   6.323
  746SOL    HW2 3138   0.191   5.438   6.248
  747SOL     OW 3139   4.039   6.621   4.822
  747SOL    HW1 3140   4.029   6.539   4.879
  747SOL    HW2 3141   4.060   6.700   4.880
  748SOL     OW 3142   3.490   5.231   2.329
  748SOL    HW1 3143   3.501   5.254   2.233
  748SOL    HW2 3144   3.468   5.134   2.338
  749SOL     OW 3145   6.265   4.708   5.136
  749SOL    HW1 3146   6.359   4.720   5.168
  749SOL    HW2 3147   6.216   4.645   5.197
  750SOL     OW 3148   2.200   2.325   0.938
  750SOL    HW1 3149   2.287   2.330   0.890
  750SOL    HW2 3150   2.179   2.229   0.959
  751SOL     OW 3151   3.898   2.353   6.286
  751SOL    HW1 3152   3.952   2.359   6.202
  751SOL    HW2 3153   3.953   2.388   6.362
  752SOL     OW 3154   3.413   1.411   2.510
  752SOL    HW1 3155   3.452   1.326   2.544
  752SOL    HW2 3156   3.467   1.488   2.544
  753SOL     OW 3157   1.778   3.306   4.706
  753SOL    HW1 3158   1.687   3.346   4.699
  753SOL    HW2 3159   1.794   3.274   4.799
  754SOL     OW 3160   5.221   3.008   5.606
  754SOL    HW1 3161   5.270   3.063   5.538
  754SOL    HW2 3162   5.130   2.986   5.571
  755SOL     OW 3163   1.465   4.449   5.875
  755SOL    HW1 3164   1.501   4.527   5.823
  755SOL    HW2 3165   1.501   4.364   5.838
  756SOL     OW 3166   3.600   0.387   1.020
  756SOL    HW1 3167   3.574   0.383   0.924
  756SOL    HW2 3168   3.584   0.479   1.056
  757SOL     OW 3169   0.929   6.949   4.082
  757SOL    HW1 3170   1.027   6.930   4.088
  757SOL    HW2 3171   0.878   6.864   4.073
  758SOL     OW 3172   3.878   6.909   1.910
  758SOL    HW1 3173   3.822   6.964   1.848
  758SOL    HW2 3174   3.916   6.967   1.981
  759SOL     OW 3175   0.940   1.099   1.095
  759SOL    HW1 3176   0.868   1.042   1.134
  759SOL    HW2 3177   0.975   1.160   1.165
  760SOL     OW 3178   5.235   0.291   5.421
  760SOL    HW1 3179   5.252   0.199   5.386
  760SOL    HW2 3180   5.262   0.358   5.352
  761SOL     OW 3181   5.484   3.239   5.686
  761SOL    HW1 3182   5.509   3.203   5.596
  761SOL    HW2 3183   5.408   3.304   5.675
  762SOL     OW 3184   2.775   0.495   5.068
  762SOL    HW1 3185   2.870   0.519   5.048
  762SOL    HW2 3186   2.720   0.509   4.985
  763SOL     OW 3187   4.125   4.630   6.621
  763SOL    HW1 3188   4.050   4.617   6.557
  763SOL    HW2 3189   4.211   4.605   6.577
  764SOL     OW 3190   5.161   1.166   4.796
  764SOL    HW1 3191   5.093   1.205   4.733
  764SOL    HW2 3192   5.130   1.178   4.890
  765SOL     OW 3193   1.060   6.352   1.206
  765SOL    HW1 3194   1.020   6.265   1.176
  765SOL    HW2 3195   0.991   6.424   1.203
  766SOL     OW 3196   2.323   4.002   6.905
  766SOL    HW1 3197   2.270   4.030   6.825
  766SOL    HW2 3198   2.407   4.055   6.910
  767SOL     OW 3199   6.228   6.014   2.032
  767SOL    HW1 3200   6.225   5.920   1.998
  767SOL    HW2 3201   6.172   6.021   2.114
  768SOL     OW 3202   1.911   6.496   1.542
  768SOL    HW1 3203   1.996   6.452   1.512
  768SOL    HW2 3204   1.873   6.550   1.467
  769SOL     OW 3205   3.137   0.807   4.518
  769SOL    HW1 3206   3.115   0.727   4.573
  769SOL    HW2 3207   3.148   0.887   4.578
  770SOL     OW 3208   2.183   3.959   3.039
  770SOL    HW1 3209   2.183   4.010   3.125
  770SOL    HW2 3210   2.214   4.019   2.965
  771SOL     OW 3211   2.320   5.447   2.544
  771SOL    HW1 3212   2.417   5.421   2.552
  771SOL    HW2 3213   2.285   5.474   2.634
  772SOL     OW 3214   5.351   5.085   0.503
  772SOL    HW1 3215   5.293   5.026   0.447
  772SOL    HW2 3216   5.294   5.148   0.556
  773SOL     OW 3217   0.365   4.011   4.673
  773SOL    HW1 3218   0.392   3.994   4.578
  773SOL    HW2 3219   0.367   3.926   4.724
  774SOL     OW 3220   1.709   1.662   1.404
  774SOL    HW1 3221   1.797   1.680   1.361
  774SOL    HW2 3222   1.635   1.692   1.343
  775SOL     OW 3223   0.614   2.372   2.679
  775SOL    HW1 3224   0.541   2.318   2.721
  775SOL    HW2 3225   0.624   2.459   2.727
  776SOL     OW 3226   0.682   6.589   6.003
  776SOL    HW1 3227   0.582   6.595   5.998
  776SOL    HW2 3228   0.722   6.672   5.965
  777SOL     OW 3229   2.837   5.237   1.285
  777SOL    HW1 3230   2.819   5.235   1.186
  777SOL    HW2 3231   2.833   5.332   1.317
  778SOL     OW 3232   3.219   1.472   2.917
  778SOL    HW1 3233   3.247   1.531   2.993
  778SOL    HW2 3234   3.182   1.528   2.843
  779SOL     OW 3235   0.585   2.871   2.510
  779SOL    HW1 3236   0.644   2.932   2.561
  779SOL    HW2 3237   0.509   2.841   2.568
  780SOL     OW 3238   6.406   3.972   3.410
  780SOL    HW1 3239   6.460   3.979   3.326
  780SOL    HW2 3240   6.315   3.939   3.388
  781SOL     OW 3241   5.805   0.930   0.389
  781SOL    HW1 3242   5.781   0.835   0.410
  781SOL    HW2 3243   5.820   0.941   0.291
  782SOL     OW 3244   1.458   4.043   6.889
  782SOL    HW1 3245   1.479   4.134   6.854
  782SOL    HW2 3246   1.409   4.051   6.976
  783SOL     OW 3247   3.805   5.288   1.119
  783SOL    HW1 3248   3.762   5.261   1.032
  783SOL    HW2 3249   3.761   5.372   1.152
  784SOL     OW 3250   5.229   6.470   0.204
  784SOL    HW1 3251   5.200   6.433   0.292
  784SOL    HW2 3252   5.184   6.558   0.189
  785SOL     OW 3253   0.638   2.614   2.786
  785SOL    HW1 3254   0.572   2.690   2.785
  785SOL    HW2 3255   0.710   2.633   2.852
  786SOL     OW 3256   1.121   0.943   1.242
  786SOL    HW1 3257   1.099   0.885   1.321
  786SOL    HW2 3258   1.041   0.947   1.181
  787SOL     OW 3259   3.469   0.089   6.720
  787SOL    HW1 3260   3.496   0.123   6.810
  787SOL    HW2 3261   3.388   0.140   6.689
  788SOL     OW 3262   4.049   3.027   5.244
  788SOL    HW1 3263   4.008   3.060   5.159
  788SOL    HW2 3264   3.999   2.947   5.276
  789SOL     OW 3265   5.434   3.971   0.607
  789SOL    HW1 3266   5.493   4.007   0.679
  789SOL    HW2 3267   5.374   3.901   0.645
  790SOL     OW 3268   1.759   1.255   4.315
  790SOL    HW1 3269   1.793   1.348   4.306
  790SOL    HW2 3270   1.694   1.251   4.391
  791SOL     OW 3271   3.661   5.113   4.310
  791SOL    HW1 3272   3.687   5.044   4.242
  791SOL    HW2 3273   3.608   5.071   4.383
  792SOL     OW 3274   0.783   0.241   1.699
  792SOL    HW1 3275   0.736   0.154   1.711
  792SOL    HW2 3276   0.804   0.254   1.602
  793SOL     OW 3277   4.651   5.112   3.653
  793SOL    HW1 3278   4.737   5.162   3.644
  793SOL    HW2 3279   4.597   5.153   3.727
  794SOL     OW 3280   3.223   3.520   5.348
  794SOL    HW1 3281   3.183   3.604   5.312
  794SOL    HW2 3282   3.178   3.441   5.306
  795SOL     OW 3283   3.824   6.390   4.447
  795SOL    HW1 3284   3.833   6.489   4.457
  795SOL    HW2 3285   3.742   6.368   4.394
  796SOL     OW 3286   1.106   1.697   6.579
  796SOL    HW1 3287   1.172   1.683   6.505
  796SOL    HW2 3288   1.021   1.648   6.558
  797SOL     OW 3289   5.153   2.865   1.614
  797SOL    HW1 3290   5.084   2.872   1.542
  797SOL    HW2 3291   5.242   2.888   1.576
  798SOL     OW 3292   4.497   0.263   2.111
  798SOL    HW1 3293   4.422   0.285   2.173
  798SOL    HW2 3294   4.565   0.336   2.114
  799SOL     OW 3295   6.230   0.758   5.605
  799SOL    HW1 3296   6.224   0.852   5.640
  799SOL    HW2 3297   6.233   0.694   5.682
  800SOL     OW 3298   5.161   2.101   2.672
  800SOL    HW1 3299   5.217   2.092   2.755
  800SOL    HW2 3300   5.082   2.158   2.691
  801SOL     OW 3301   1.416   3.333   4.265
  801SOL    HW1 3302   1.327   3.362   4.229
  801SOL    HW2 3303   1.487   3.352   4.198
  802SOL     OW 3304   4.475   1.074   0.437
  802SOL    HW1 3305   4.421   1.129   0.501
  802SOL    HW2 3306   4.414   1.014   0.386
  803SOL     OW 3307   0.060   6.861   5.387
  803SOL    HW1 3308   0.108   6.796   5.446
  803SOL    HW2 3309   0.072   6.953   5.423
  804SOL     OW 3310   5.344   5.455   6.672
  804SOL    HW1 3311   5.415   5.518   6.640
  804SOL    HW2 3312   5.263   5.464   6.615
  805SOL     OW 3313   3.245   1.243   5.465
  805SOL    HW1 3314   3.242   1.325   5.523
  805SOL    HW2 3315   3.171   1.181   5.491
  806SOL     OW 3316   5.267   1.458   4.128
  806SOL    HW1 3317   5.350   1.508   4.105
  806SOL    HW2 3318   5.274   1.364   4.093
  807SOL     OW 3319   1.119   2.004   4.633
  807SOL    HW1 3320   1.103   2.100   4.611
  807SOL    HW2 3321   1.037   1.951   4.609
  808SOL     OW 3322   4.330   3.180   6.382
  808SOL    HW1 3323   4.306   3.193   6.479
  808SOL    HW2 3324   4.429   3.167   6.374
  809SOL     OW 3325   0.116   5.314   2.171
  809SOL    HW1 3326   0.080   5.284   2.083
  809SOL    HW2 3327   0.131   5.413   2.169
  810SOL     OW 3328   3.617   3.072   1.112
  810SOL    HW1 3329   3.548   3.080   1.039
  810SOL    HW2 3330   3.604   2.987   1.162
  811SOL     OW 3331   3.625   5.891   5.295
  811SOL    HW1 3332   3.635   5.793   5.313
  811SOL    HW2 3333   3.716   5.931   5.281
  812SOL     OW 3334   0.389   1.580   1.654
  812SOL    HW1 3335   0.379   1.649   1.582
  812SOL    HW2 3336   0.486   1.565   1.672
  813SOL     OW 3337   3.518   6.267   5.591
  813SOL    HW1 3338   3.482   6.233   5.504
  813SOL    HW2 3339   3.442   6.282   5.654
  814SOL     OW 3340   5.870   6.443   2.582
  814SOL    HW1 3341   5.771   6.445   2.593
  814SOL    HW2 3342   5.901   6.531   2.544
  815SOL     OW 3343   0.279   4.175   2.968
  815SOL    HW1 3344   0.301   4.242   2.896
  815SOL    HW2 3345   0.362   4.128   2.997
  816SOL     OW 3346   6.163   6.500   0.191
  816SOL    HW1 3347   6.116   6.586   0.171
  816SOL    HW2 3348   6.228   6.514   0.265
  817SOL     OW 3349   2.012   3.498   1.500
  817SOL    HW1 3350   1.925   3.449   1.511
  817SOL    HW2 3351   2.081   3.456   1.559
  818SOL     OW 3352   6.222   2.715   1.797
  818SOL    HW1 3353   6.126   2.741   1.805
  818SOL    HW2 3354   6.247   2.656   1.874
  819SOL     OW 3355   5.851   2.991   3.006
  819SOL    HW1 3356   5.900   2.918   2.958
  819SOL    HW2 3357   5.901   3.077   2.995
  820SOL     OW 3358   2.777   2.770   5.869
  820SOL    HW1 3359   2.690   2.819   5.875
  820SOL    HW2 3360   2.800   2.754   5.774
  821SOL     OW 3361   1.251   3.791   0.954
  821SOL    HW1 3362   1.334   3.821   1.001
  821SOL    HW2 3363   1.226   3.857   0.883
  822SOL     OW 3364   1.809   4.436   5.289
  822SOL    HW1 3365   1.829   4.365   5.358
  822SOL    HW2 3366   1.894   4.482   5.264
  823SOL     OW 3367   5.326   4.128   6.329
  823SOL    HW1 3368   5.232   4.162   6.336
  823SOL    HW2 3369   5.390   4.205   6.336
  824SOL     OW 3370   5.514   1.109   5.359
  824SOL    HW1 3371   5.579   1.115   5.284
  824SOL    HW2 3372   5.449   1.185   5.353
  825SOL     OW 3373   1.111   4.277   1.115
  825SOL    HW1 3374   1.090   4.193   1.165
  825SOL    HW2 3375   1.199   4.268   1.068
  826SOL     OW 3376   5.210   3.075   5.318
  826SOL    HW1 3377   5.299   3.036   5.296
  826SOL    HW2 3378   5.141   3.040   5.255
  827SOL     OW 3379   3.659   4.548   5.720
  827SOL    HW1 3380   3.576   4.587   5.681
  827SOL    HW2 3381   3.658   4.449   5.705
  828SOL     OW 3382   5.029   6.846   6.420
  828SOL    HW1 3383   4.942   6.838   6.470
  828SOL    HW2 3384   5.020   6.915   6.349
  829SOL     OW 3385   2.902   3.587   3.283
  829SOL    HW1 3386   2.933   3.661   3.343
  829SOL    HW2 3387   2.926   3.499   3.324
  830SOL     OW 3388   4.401   4.349   6.738
  830SOL    HW1 3389   4.455   4.266   6.738
  830SOL    HW2 3390   4.442   4.416   6.801
  831SOL     OW 3391   5.443   0.949   6.494
  831SOL    HW1 3392   5.425   0.867   6.548
  831SOL    HW2 3393   5.396   0.942   6.406
  832SOL     OW 3394   3.201   0.836   2.094
  832SOL    HW1 3395   3.263   0.764   2.122
  832SOL    HW2 3396   3.117   0.831   2.148
  833SOL     OW 3397   0.381   3.945   5.697
  833SOL    HW1 3398   0.469   3.931   5.653
  833SOL    HW2 3399   0.351   4.039   5.682
  834SOL     OW 3400   3.404   3.967   0.838
  834SOL    HW1 3401   3.350   3.896   0.884
  834SOL    HW2 3402   3.369   3.980   0.746
  835SOL     OW 3403   3.507   0.460   4.982
  835SOL    HW1 3404   3.436   0.505   4.929
  835SOL    HW2 3405   3.529   0.372   4.941
  836SOL     OW 3406   3.809   6.428   6.709
  836SOL    HW1 3407   3.763   6.505   6.754
  836SOL    HW2 3408   3.878   6.390   6.771
  837SOL     OW 3409   5.422   6.694   0.343
  837SOL    HW1 3410   5.494   6.678   0.411
  837SOL    HW2 3411   5.382   6.607   0.315
  838SOL     OW 3412   2.008   0.544   4.537
  838SOL    HW1 3413   1.981   0.532   4.442
  838SOL    HW2 3414   2.024   0.455   4.579
  839SOL     OW 3415   2.647   2.357   1.982
  839SOL    HW1 3416   2.659   2.422   1.907
  839SOL    HW2 3417   2.734   2.345   2.029
  840SOL     OW 3418   5.536   6.756   0.012
  840SOL    HW1 3419   5.485   6.817   0.073
  840SOL    HW2 3420   5.634   6.768   0.027
  841SOL     OW 3421   4.573   4.939   0.151
  841SOL    HW1 3422   4.522   4.917   0.234
  841SOL    HW2 3423   4.546   4.876   0.077
  842SOL     OW 3424   3.976   6.388   4.933
  842SOL    HW1 3425   3.911   6.368   4.860
  842SOL    HW2 3426   4.014   6.302   4.968
  843SOL     OW 3427   1.730   1.563   0.815
  843SOL    HW1 3428   1.682   1.616   0.884
  843SOL    HW2 3429   1.826   1.553   0.841
  844SOL     OW 3430   6.161   0.772   0.717
  844SOL    HW1 3431   6.122   0.863   0.727
  844SOL    HW2 3432   6.255   0.772   0.751
  845SOL     OW 3433   5.693   4.160   4.771
  845SOL    HW1 3434   5.748   4.086   4.811
  845SOL    HW2 3435   5.705   4.159   4.672
  846SOL     OW 3436   2.174   1.907   6.914
  846SOL    HW1 3437   2.124   1.831   6.873
  846SOL    HW2 3438   2.211   1.879   7.002
  847SOL     OW 3439   1.428   3.019   0.733
  847SOL    HW1 3440   1.497   3.012   0.660
  847SOL    HW2 3441   1.338   2.996   0.696
  848SOL     OW 3442   5.837   0.570   6.243
  848SOL    HW1 3443   5.751   0.525   6.269
  848SOL    HW2 3444   5.817   0.645   6.179
  849SOL     OW 3445   0.453   4.577   5.958
  849SOL    HW1 3446   0.424   4.672   5.958
  849SOL    HW2 3447   0.393   4.523   6.017
  850SOL     OW 3448   5.282   1.084   3.611
  850SOL    HW1 3449   5.260   0.988   3.629
  850SOL    HW2 3450   5.380   1.098   3.626
  851SOL     OW 3451   0.604   1.775   2.215
  851SOL    HW1 3452   0.557   1.860   2.191
  851SOL    HW2 3453   0.631   1.779   2.312
  852SOL     OW 3454   1.390   2.120   0.383
  852SOL    HW1 3455   1.341   2.205   0.399
  852SOL    HW2 3456   1.487   2.139   0.368
  853SOL     OW 3457   1.856   4.250   2.592
  853SOL    HW1 3458   1.893   4.323   2.535
  853SOL    HW2 3459   1.885   4.262   2.687
  854SOL     OW 3460   4.579   6.145   1.915
  854SOL    HW1 3461   4.491   6.166   1.956
  854SOL    HW2 3462   4.616   6.227   1.871
  855SOL     OW 3463   0.332   0.435   1.669
  855SOL    HW1 3464   0.285   0.505   1.724
  855SOL    HW2 3465   0.417   0.409   1.714
  856SOL     OW 3466   1.247   1.409   5.351
  856SOL    HW1 3467   1.306   1.372   5.279
  856SOL    HW2 3468   1.159   1.435   5.312
  857SOL     OW 3469   6.057   4.488   2.336
  857SOL    HW1 3470   6.042   4.454   2.243
  857SOL    HW2 3471   6.137   4.548   2.338
  858SOL     OW 3472   3.046   3.921   1.177
  858SOL    HW1 3473   2.959   3.948   1.219
  858SOL    HW2 3474   3.054   3.822   1.177
  859SOL     OW 3475   4.784   5.846   5.978
  859SOL    HW1 3476   4.855   5.775   5.974
  859SOL    HW2 3477   4.695   5.803   5.992
  860SOL     OW 3478   4.300   3.816   1.042
  860SOL    HW1 3479   4.203   3.836   1.031
  860SOL    HW2 3480   4.312   3.749   1.115
  861SOL     OW 3481   2.631   0.439   3.692
  861SOL    HW1 3482   2.594   0.353   3.727
  861SOL    HW2 3483   2.555   0.500   3.668
  862SOL     OW 3484   0.249   4.049   5.913
  862SOL    HW1 3485   0.306   4.102   5.976
  862SOL    HW2 3486   0.307   3.991   5.856
  863SOL     OW 3487   0.263   0.263   0.489
  863SOL    HW1 3488   0.201   0.337   0.515
  863SOL    HW2 3489   0.342   0.263   0.551
  864SOL     OW 3490   4.154   4.841   3.349
  864SOL    HW1 3491   4.161   4.810   3.444
  864SOL    HW2 3492   4.201   4.776   3.289
  865SOL     OW 3493   1.649   5.955   6.241
  865SOL    HW1 3494   1.694   5.997   6.162
  865SOL    HW2 3495   1.610   6.026   6.299
  866SOL     OW 3496   1.429   2.150   2.207
  866SOL    HW1 3497   1.373   2.075   2.241
  866SOL    HW2 3498   1.416   2.161   2.109
  867SOL     OW 3499   3.823   3.495   0.606
  867SOL    HW1 3500   3.864   3.445   0.682
  867SOL    HW2 3501   3.725   3.507   0.622
  868SOL     OW 3502   5.960   0.076   1.179
  868SOL    HW1 3503   5.963   0.175   1.161
  868SOL    HW2 3504   6.054   0.041   1.180
  869SOL     OW 3505   6.333   5.635   2.855
  869SOL    HW1 3506   6.388   5.567   2.902
  869SOL    HW2 3507   6.364   5.645   2.761
  870SOL     OW 3508   4.793   3.199   1.066
  870SOL    HW1 3509   4.720   3.161   1.122
  870SOL    HW2 3510   4.880   3.157   1.092
  871SOL     OW 3511   5.061   3.470   3.161
  871SOL    HW1 3512   5.116   3.543   3.121
  871SOL    HW2 3513   4.976   3.509   3.197
  872SOL     OW 3514   5.581   4.408   3.654
  872SOL    HW1 3515   5.653   4.360   3.605
  872SOL    HW2 3516   5.621   4.461   3.728
  873SOL     OW 3517   5.496   6.532   4.174
  873SOL    HW1 3518   5.555   6.593   4.121
  873SOL    HW2 3519   5.544   6.500   4.255
  874SOL     OW 3520   0.922   4.831   5.725
  874SOL    HW1 3521   0.848   4.770   5.754
  874SOL    HW2 3522   0.996   4.828   5.791
  875SOL     OW 3523   3.984   2.870   0.726
  875SOL    HW1 3524   4.012   2.954   0.679
  875SOL    HW2 3525   3.906   2.829   0.678
  876SOL     OW 3526   0.757   5.321   3.063
  876SOL    HW1 3527   0.669   5.274   3.072
  876SOL    HW2 3528   0.754   5.385   2.986
  877SOL     OW 3529   4.273   3.301   6.674
  877SOL    HW1 3530   4.202   3.351   6.625
  877SOL    HW2 3531   4.321   3.363   6.736
  878SOL     OW 3532   4.439   5.758   5.721
  878SOL    HW1 3533   4.500   5.778   5.645
  878SOL    HW2 3534   4.410   5.844   5.764
  879SOL     OW 3535   2.904   2.053   2.142
  879SOL    HW1 3536   2.849   2.007   2.212
  879SOL    HW2 3537   2.885   2.152   2.146
  880SOL     OW 3538   2.917   3.693   5.843
  880SOL    HW1 3539   2.841   3.639   5.806
  880SOL    HW2 3540   3.003   3.653   5.813
  881SOL     OW 3541   4.605   4.202   5.362
  881SOL    HW1 3542   4.665   4.234   5.289
  881SOL    HW2 3543   4.510   4.225   5.340
  882SOL     OW 3544   1.481   1.739   4.144
  882SOL    HW1 3545   1.416   1.701   4.078
  882SOL    HW2 3546   1.432   1.777   4.222
  883SOL     OW 3547   4.730   5.243   6.154
  883SOL    HW1 3548   4.774   5.266   6.067
  883SOL    HW2 3549   4.684   5.154   6.145
  884SOL     OW 3550   0.187   4.110   0.343
  884SOL    HW1 3551   0.107   4.085   0.289
  884SOL    HW2 3552   0.241   4.028   0.363
  885SOL     OW 3553   5.040   5.716   6.519
  885SOL    HW1 3554   5.041   5.660   6.602
  885SOL    HW2 3555   4.984   5.671   6.449
  886SOL     OW 3556   3.405   0.399   0.754
  886SOL    HW1 3557   3.489   0.376   0.705
  886SOL    HW2 3558   3.329   0.404   0.689
  887SOL     OW 3559   4.245   6.857   4.121
  887SOL    HW1 3560   4.247   6.957   4.128
  887SOL    HW2 3561   4.256   6.817   4.212
  888SOL     OW 3562   6.075   5.675   2.567
  888SOL    HW1 3563   6.135   5.619   2.625
  888SOL    HW2 3564   6.122   5.759   2.540
  889SOL     OW 3565   1.922   6.447   5.493
  889SOL    HW1 3566   1.852   6.376   5.495
  889SOL    HW2 3567   1.928   6.491   5.583
  890SOL     OW 3568   2.321   4.733   2.042
  890SOL    HW1 3569   2.323   4.716   2.140
  890SOL    HW2 3570   2.227   4.720   2.008
  891SOL     OW 3571   6.585   4.080   1.030
  891SOL    HW1 3572   6.562   4.143   1.105
  891SOL    HW2 3573   6.602   3.989   1.068
  892SOL     OW 3574   4.077   3.972   6.370
  892SOL    HW1 3575   4.028   4.007   6.450
  892SOL    HW2 3576   4.028   3.892   6.334
  893SOL     OW 3577   1.962   1.055   2.666
  893SOL    HW1 3578   1.867   1.026   2.677
  893SOL    HW2 3579   1.966   1.138   2.611
  894SOL     OW 3580   1.214   2.520   4.004
  894SOL    HW1 3581   1.224   2.434   4.054
  894SOL    HW2 3582   1.253   2.509   3.912
  895SOL     OW 3583   1.233   5.861   4.810
  895SOL    HW1 3584   1.270   5.833   4.721
  895SOL    HW2 3585   1.260   5.793   4.879
  896SOL     OW 3586   5.556   0.199   1.821
  896SOL    HW1 3587   5.610   0.162   1.745
  896SOL    HW2 3588   5.583   0.153   1.906
  897SOL     OW 3589   4.939   0.980   0.245
  897SOL    HW1 3590   4.873   1.038   0.292
  897SOL    HW2 3591   4.896   0.938   0.165
  898SOL     OW 3592   3.990   5.652   2.643
  898SOL    HW1 3593   3.899   5.692   2.643
  898SOL    HW2 3594   4.059   5.724   2.633
  899SOL     OW 3595   0.046   4.802   0.354
  899SOL    HW1 3596   0.075   4.793   0.259
  899SOL    HW2 3597   0.057   4.714   0.401
  900SOL     OW 3598   4.861   6.047   1.681
  900SOL    HW1 3599   4.763   6.028   1.673
  900SOL    HW2 3600   4.888   6.112   1.610
  901SOL     OW 3601   0.850   0.906   5.768
  901SOL    HW1 3602   0.799   0.839   5.822
  901SOL    HW2 3603   0.875   0.983   5.825
  902SOL     OW 3604   0.204   2.316   6.948
  902SOL    HW1 3605   0.284   2.357   6.905
  902SOL    HW2 3606   0.137   2.293   6.877
  903SOL     OW 3607   6.788   3.664   6.397
  903SOL    HW1 3608   6.708   3.682   6.455
  903SOL    HW2 3609   6.800   3.565   6.387
  904SOL     OW 3610   1.671   2.582   3.963
  904SOL    HW1 3611   1.685   2.501   3.906
  904SOL    HW2 3612   1.685   2.559   4.059
  905SOL     OW 3613   4.482   3.428   6.447
  905SOL    HW1 3614   4.515   3.353   6.391
  905SOL    HW2 3615   4.406   3.474   6.400
  906SOL     OW 3616   0.745   3.647   5.941
  906SOL    HW1 3617   0.728   3.669   6.037
  906SOL    HW2 3618   0.802   3.565   5.935
  907SOL     OW 3619   5.974   3.232   2.988
  907SOL    HW1 3620   6.041   3.260   3.057
  907SOL    HW2 3621   6.000   3.270   2.899
  908SOL     OW 3622   1.918   6.213   3.187
  908SOL    HW1 3623   1.943   6.211   3.284
  908SOL    HW2 3624   1.858   6.135   3.167
  909SOL     OW 3625   2.361   6.552   1.960
  909SOL    HW1 3626   2.439   6.580   1.905
  909SOL    HW2 3627   2.277   6.559   1.905
  910SOL     OW 3628   2.310   0.513   0.699
  910SOL    HW1 3629   2.406   0.486   0.706
  910SOL    HW2 3630   2.305   0.611   0.677
  911SOL     OW 3631   6.971   5.408   1.073
  911SOL    HW1 3632   6.992   5.365   1.161
  911SOL    HW2 3633   0.013   5.371   1.002
  912SOL     OW 3634   6.323   0.930   4.882
  912SOL    HW1 3635   6.327   0.881   4.795
  912SOL    HW2 3636   6.231   0.924   4.920
  913SOL     OW 3637   1.983   0.421   3.229
  913SOL    HW1 3638   1.917   0.352   3.257
  913SOL    HW2 3639   1.938   0.491   3.174
  914SOL     OW 3640   3.174   5.844   4.947
  914SOL    HW1 3641   3.112   5.881   4.878
  914SOL    HW2 3642   3.212   5.757   4.914
  915SOL     OW 3643   1.585   3.005   7.010
  915SOL    HW1 3644   1.625   3.067   6.942
  915SOL    HW2 3645   1.620   3.028   0.083
  916SOL     OW 3646   1.827   2.627   1.667
  916SOL    HW1 3647   1.772   2.670   1.596
  916SOL    HW2 3648   1.876   2.548   1.628
  917SOL     OW 3649   5.398   0.351   1.505
  917SOL    HW1 3650   5.488   0.384   1.535
  917SOL    HW2 3651   5.337   0.344   1.583
  918SOL     OW 3652   2.596   6.609   6.635
  918SOL    HW1 3653   2.628   6.692   6.681
  918SOL    HW2 3654   2.612   6.530   6.695
  919SOL     OW 3655   6.666   5.438   2.189
  919SOL    HW1 3656   6.614   5.520   2.212
  919SOL    HW2 3657   6.756   5.442   2.234
  920SOL     OW 3658   1.564   6.137   3.288
  920SOL    HW1 3659   1.546   6.233   3.271
  920SOL    HW2 3660   1.633   6.128   3.360
  921SOL     OW 3661   4.620   4.309   3.911
  921SOL    HW1 3662   4.555   4.342   3.979
  921SOL    HW2 3663   4.596   4.346   3.821
  922SOL     OW 3664   3.197   2.880   6.142
  922SOL    HW1 3665   3.109   2.925   6.127
  922SOL    HW2 3666   3.186   2.809   6.212
  923SOL     OW 3667   2.747   4.588   6.531
  923SOL    HW1 3668   2.819   4.655   6.549
  923SOL    HW2 3669   2.709   4.604   6.440
  924SOL     OW 3670   6.337   2.654   2.260
  924SOL    HW1 3671   6.285   2.568   2.251
  924SOL    HW2 3672   6.333   2.685   2.355
  925SOL     OW 3673   6.913   1.717   5.819
  925SOL    HW1 3674   6.879   1.721   5.913
  925SOL    HW2 3675   7.004   1.675   5.818
  926SOL     OW 3676   6.449   0.943   0.128
  926SOL    HW1 3677   6.508   0.946   0.209
  926SOL    HW2 3678   6.371   0.883   0.145
  927SOL     OW 3679   5.422   4.481   3.420
  927SOL    HW1 3680   5.471   4.472   3.507
  927SOL    HW2 3681   5.469   4.429   3.349
  928SOL     OW 3682   1.898   6.757   0.562
  928SOL    HW1 3683   1.945   6.749   0.473
  928SOL    HW2 3684   1.822   6.821   0.554
  929SOL     OW 3685   0.553   1.363   0.906
  929SOL    HW1 3686   0.586   1.448   0.866
  929SOL    HW2 3687   0.476   1.328   0.852
  930SOL     OW 3688   5.499   5.848   4.944
  930SOL    HW1 3689   5.562   5.794   4.888
  930SOL    HW2 3690   5.532   5.851   5.038
  931SOL     OW 3691   5.828   3.695   2.628
  931SOL    HW1 3692   5.793   3.724   2.538
  931SOL    HW2 3693   5.861   3.775   2.678
  932SOL     OW 3694   2.763   6.756   2.446
  932SOL    HW1 3695   2.691   6.699   2.407
  932SOL    HW2 3696   2.746   6.852   2.422
  933SOL     OW 3697   0.553   5.751   3.108
  933SOL    HW1 3698   0.562   5.652   3.103
  933SOL    HW2 3699   0.459   5.777   3.085
  934SOL     OW 3700   1.652   0.776   4.808
  934SOL    HW1 3701   1.555   0.794   4.796
  934SOL    HW2 3702   1.664   0.684   4.848
  935SOL     OW 3703   4.874   3.665   5.533
  935SOL    HW1 3704   4.871   3.598   5.607
  935SOL    HW2 3705   4.936   3.633   5.461
  936SOL     OW 3706   1.746   1.215   5.783
  936SOL    HW1 3707   1.782   1.288   5.841
  936SOL    HW2 3708   1.742   1.130   5.835
  937SOL     OW 3709   4.919   1.299   4.583
  937SOL    HW1 3710   4.941   1.265   4.491
  937SOL    HW2 3711   4.827   1.270   4.608
  938SOL     OW 3712   0.387   5.484   6.469
  938SOL    HW1 3713   0.320   5.455   6.401
  938SOL    HW2 3714   0.354   5.567   6.515
  939SOL     OW 3715   4.645   1.188   5.506
  939SOL    HW1 3716   4.565   1.128   5.514
  939SOL    HW2 3717   4.632   1.249   5.427
  940SOL     OW 3718   0.608   3.510   2.532
  940SOL    HW1 3719   0.636   3.462   2.615
  940SOL    HW2 3720   0.508   3.512   2.527
  941SOL     OW 3721   6.641   0.685   4.297
  941SOL    HW1 3722   6.594   0.601   4.324
  941SOL    HW2 3723   6.740   0.675   4.313
  942SOL     OW 3724   4.889   0.377   4.050
  942SOL    HW1 3725   4.850   0.305   4.107
  942SOL    HW2 3726   4.822   0.450   4.037
  943SOL     OW 3727   1.267   3.493   3.807
  943SOL    HW1 3728   1.295   3.556   3.733
  943SOL    HW2 3729   1.224   3.545   3.880
  944SOL     OW 3730   6.548   3.792   5.603
  944SOL    HW1 3731   6.568   3.814   5.508
  944SOL    HW2 3732   6.585   3.863   5.662
  945SOL     OW 3733   6.675   4.123   5.669
  945SOL    HW1 3734   6.728   4.142   5.752
  945SOL    HW2 3735   6.729   4.149   5.589
  946SOL     OW 3736   4.715   2.878   5.921
  946SOL    HW1 3737   4.697   2.969   5.958
  946SOL    HW2 3738   4.762   2.823   5.990
  947SOL     OW 3739   3.338   3.263   4.379
  947SOL    HW1 3740   3.369   3.210   4.458
  947SOL    HW2 3741   3.343   3.206   4.297
  948SOL     OW 3742   3.894   0.310   0.554
  948SOL    HW1 3743   3.950   0.381   0.512
  948SOL    HW2 3744   3.923   0.220   0.521
  949SOL     OW 3745   0.370   6.270   6.503
  949SOL    HW1 3746   0.404   6.180   6.480
  949SOL    HW2 3747   0.439   6.339   6.481
  950SOL     OW 3748   4.186   5.105   1.591
  950SOL    HW1 3749   4.270   5.151   1.564
  950SOL    HW2 3750   4.202   5.006   1.595
  951SOL     OW 3751   1.293   1.016   2.711
  951SOL    HW1 3752   1.304   1.116   2.713
  951SOL    HW2 3753   1.373   0.974   2.669
  952SOL     OW 3754   6.092   1.889   2.436
  952SOL    HW1 3755   6.147   1.846   2.364
  952SOL    HW2 3756   6.043   1.967   2.398
  953SOL     OW 3757   5.195   5.816   5.059
  953SOL    HW1 3758   5.198   5.809   5.158
  953SOL    HW2 3759   5.271   5.765   5.019
  954SOL     OW 3760   5.091   5.508   0.775
  954SOL    HW1 3761   5.081   5.497   0.874
  954SOL    HW2 3762   5.032   5.583   0.744
  955SOL     OW 3763   0.172   5.001   3.666
  955SOL    HW1 3764   0.205   5.072   3.603
  955SOL    HW2 3765   0.098   5.038   3.722
  956SOL     OW 3766   0.373   2.041   2.469
  956SOL    HW1 3767   0.458   2.066   2.514
  956SOL    HW2 3768   0.297   2.094   2.508
  957SOL     OW 3769   1.009   4.875   4.554
  957SOL    HW1 3770   1.013   4.943   4.627
  957SOL    HW2 3771   0.914   4.848   4.539
  958SOL     OW 3772   4.549   2.533   2.004
  958SOL    HW1 3773   4.599   2.501   1.924
  958SOL    HW2 3774   4.601   2.605   2.049
  959SOL     OW 3775   2.976   4.962   3.407
  959SOL    HW1 3776   2.954   4.882   3.462
  959SOL    HW2 3777   2.953   5.045   3.458
  960SOL     OW 3778   6.943   5.849   3.527
  960SOL    HW1 3779   7.005   5.784   3.572
  960SOL    HW2 3780   6.956   5.843   3.428
  961SOL     OW 3781   4.945   0.113   3.456
  961SOL    HW1 3782   5.033   0.160   3.463
  961SOL    HW2 3783   4.872   0.180   3.442
  962SOL     OW 3784   1.290   0.837   4.184
  962SOL    HW1 3785   1.274   0.908   4.252
  962SOL    HW2 3786   1.285   0.878   4.092
  963SOL     OW 3787   6.298   1.784   6.057
  963SOL    HW1 3788   6.242   1.705   6.032
  963SOL    HW2 3789   6.270   1.863   6.002
  964SOL     OW 3790   6.094   4.224   0.608
  964SOL    HW1 3791   6.019   4.216   0.673
  964SOL    HW2 3792   6.163   4.287   0.643
  965SOL     OW 3793   5.355   1.512   1.216
  965SOL    HW1 3794   5.274   1.459   1.188
  965SOL    HW2 3795   5.338   1.609   1.202
  966SOL     OW 3796   5.780   2.104   2.229
  966SOL    HW1 3797   5.803   2.020   2.180
  966SOL    HW2 3798   5.731   2.166   2.167
  967SOL     OW 3799   2.581   5.208   1.563
  967SOL    HW1 3800   2.558   5.192   1.659
  967SOL    HW2 3801   2.501   5.187   1.506
  968SOL     OW 3802   4.163   2.207   2.553
  968SOL    HW1 3803   4.216   2.218   2.469
  968SOL    HW2 3804   4.072   2.170   2.530
  969SOL     OW 3805   3.779   5.973   6.746
  969SOL    HW1 3806   3.726   6.056   6.727
  969SOL    HW2 3807   3.850   5.961   6.677
  970SOL     OW 3808   4.930   1.267   5.280
  970SOL    HW1 3809   4.988   1.265   5.361
  970SOL    HW2 3810   4.984   1.292   5.200
  971SOL     OW 3811   0.016   2.017   3.196
  971SOL    HW1 3812   0.114   2.000   3.186
  971SOL    HW2 3813   7.006   1.991   3.288
  972SOL     OW 3814   5.577   4.193   1.503
  972SOL    HW1 3815   5.645   4.212   1.573
  972SOL    HW2 3816   5.620   4.139   1.430
  973SOL     OW 3817   6.699   4.526   6.825
  973SOL    HW1 3818   6.634   4.461   6.786
  973SOL    HW2 3819   6.778   4.536   6.765
  974SOL     OW 3820   5.299   0.281   1.741
  974SOL    HW1 3821   5.235   0.309   1.812
  974SOL    HW2 3822   5.387   0.257   1.782
  975SOL     OW 3823   1.758   5.838   6.620
  975SOL    HW1 3824   1.701   5.837   6.702
  975SOL    HW2 3825   1.753   5.750   6.574
  976SOL     OW 3826   6.633   3.237   2.587
  976SOL    HW1 3827   6.688   3.183   2.524
  976SOL    HW2 3828   6.619   3.186   2.672
  977SOL     OW 3829   1.617   0.765   3.537
  977SOL    HW1 3830   1.683   0.743   3.465
  977SOL    HW2 3831   1.525   0.761   3.499
  978SOL     OW 3832   4.630   4.348   5.684
  978SOL    HW1 3833   4.625   4.314   5.590
  978SOL    HW2 3834   4.565   4.297   5.741
  979SOL     OW 3835   6.910   2.463   1.197
  979SOL    HW1 3836   6.901   2.562   1.213
  979SOL    HW2 3837   6.877   2.413   1.276
  980SOL     OW 3838   3.937   1.982   3.796
  980SOL    HW1 3839   3.872   1.996   3.721
  980SOL    HW2 3840   3.970   2.070   3.829
  981SOL     OW 3841   1.285   1.657   5.489
  981SOL    HW1 3842   1.280   1.573   5.436
  981SOL    HW2 3843   1.328   1.729   5.434
  982SOL     OW 3844   2.729   1.997   3.276
  982SOL    HW1 3845   2.807   1.938   3.295
  982SOL    HW2 3846   2.721   2.066   3.347
  983SOL     OW 3847   5.733   1.797   4.334
  983SOL    HW1 3848   5.795   1.818   4.410
  983SOL    HW2 3849   5.644   1.839   4.350
  984SOL     OW 3850   2.804   1.528   4.062
  984SOL    HW1 3851   2.790   1.471   3.982
  984SOL    HW2 3852   2.895   1.569   4.058
  985SOL     OW 3853   5.059   4.859   6.682
  985SOL    HW1 3854   4.965   4.849   6.648
  985SOL    HW2 3855   5.090   4.771   6.720
  986SOL     OW 3856   5.539   3.879   0.354
  986SOL    HW1 3857   5.492   3.916   0.435
  986SOL    HW2 3858   5.482   3.895   0.273
  987SOL     OW 3859   4.509   6.555   1.770
  987SOL    HW1 3860   4.457   6.591   1.692
  987SOL    HW2 3861   4.572   6.626   1.803
  988SOL     OW 3862   3.349   2.891   2.863
  988SOL    HW1 3863   3.314   2.921   2.952
  988SOL    HW2 3864   3.325   2.959   2.794
  989SOL     OW 3865   6.140   1.207   5.924
  989SOL    HW1 3866   6.215   1.247   5.871
  989SOL    HW2 3867   6.057   1.262   5.911
  990SOL     OW 3868   4.396   0.627   2.107
  990SOL    HW1 3869   4.331   0.629   2.030
  990SOL    HW2 3870   4.451   0.711   2.105
  991SOL     OW 3871   1.636   2.357   5.065
  991SOL    HW1 3872   1.549   2.397   5.037
  991SOL    HW2 3873   1.696   2.429   5.102
  992SOL     OW 3874   0.234   2.755   1.890
  992SOL    HW1 3875   0.228   2.855   1.900
  992SOL    HW2 3876   0.330   2.729   1.879
  993SOL     OW 3877   1.250   4.576   1.773
  993SOL    HW1 3878   1.243   4.522   1.857
  993SOL    HW2 3879   1.213   4.523   1.696
  994SOL     OW 3880   3.419   4.163   2.383
  994SOL    HW1 3881   3.425   4.262   2.392
  994SOL    HW2 3882   3.435   4.121   2.473
  995SOL     OW 3883   3.575   2.737   6.037
  995SOL    HW1 3884   3.497   2.752   5.976
  995SOL    HW2 3885   3.555   2.662   6.099
  996SOL     OW 3886   1.809   4.336   4.460
  996SOL    HW1 3887   1.760   4.274   4.399
  996SOL    HW2 3888   1.850   4.409   4.406
  997SOL     OW 3889   0.623   0.778   2.731
  997SOL    HW1 3890   0.597   0.842   2.803
  997SOL    HW2 3891   0.676   0.703   2.770
  998SOL     OW 3892   3.845   6.313   4.700
  998SOL    HW1 3893   3.882   6.221   4.693
  998SOL    HW2 3894   3.862   6.363   4.615
  999SOL     OW 3895   5.096   4.732   2.024
  999SOL    HW1 3896   5.174   4.722   2.087
  999SOL    HW2 3897   5.048   4.818   2.044
 1000SOL     OW 3898   0.797   0.951   1.412
 1000SOL    HW1 3899   0.855   0.877   1.446
 1000SOL    HW2 3900   0.713   0.912   1.374
 1001SOL     OW 3901   5.925   6.946   0.964
 1001SOL    HW1 3902   5.904   6.849   0.979
 1001SOL    HW2 3903   5.920   6.995   1.052
 1002SOL     OW 3904   6.223   1.591   0.123
 1002SOL    HW1 3905   6.292   1.651   0.082
 1002SOL    HW2 3906   6.249   1.495   0.108
 1003SOL     OW 3907   2.132   6.160   1.832
 1003SOL    HW1 3908   2.053   6.207   1.793
 1003SOL    HW2 3909   2.105   6.069   1.863
 1004SOL     OW 3910   0.340   0.175   1.609
 1004SOL    HW1 3911   0.316   0.269   1.635
 1004SOL    HW2 3912   0.345   0.168   1.509
 1005SOL     OW 3913   0.915   2.448   3.202
 1005SOL    HW1 3914   0.899   2.417   3.296
 1005SOL    HW2 3915   1.011   2.430   3.178
 1006SOL     OW 3916   1.336   4.734   1.102
 1006SOL    HW1 3917   1.285   4.815   1.132
 1006SOL    HW2 3918   1.427   4.761   1.072
 1007SOL     OW 3919   5.476   6.900   4.601
 1007SOL    HW1 3920   5.491   6.974   4.535
 1007SOL    HW2 3921   5.472   6.812   4.554
 1008SOL     OW 3922   2.144   3.253   4.725
 1008SOL    HW1 3923   2.138   3.313   4.806
 1008SOL    HW2 3924   2.135   3.308   4.642
 1009SOL     OW 3925   0.247   5.576   4.475
 1009SOL    HW1 3926   0.209   5.484   4.477
 1009SOL    HW2 3927   0.345   5.572   4.495
 1010SOL     OW 3928   3.702   2.497   5.957
 1010SOL    HW1 3929   3.794   2.503   5.996
 1010SOL    HW2 3930   3.656   2.585   5.967
 1011SOL     OW 3931   2.648   5.323   2.329
 1011SOL    HW1 3932   2.625   5.368   2.415
 1011SOL    HW2 3933   2.586   5.246   2.314
 1012SOL     OW 3934   0.157   0.406   0.750
 1012SOL    HW1 3935   0.121   0.436   0.662
 1012SOL    HW2 3936   0.238   0.461   0.772
 1013SOL     OW 3937   1.168   1.333   6.103
 1013SOL    HW1 3938   1.196   1.351   6.198
 1013SOL    HW2 3939   1.221   1.257   6.067
 1014SOL     OW 3940   5.114   6.153   6.589
 1014SOL    HW1 3941   5.074   6.079   6.644
 1014SOL    HW2 3942   5.089   6.241   6.629
 1015SOL     OW 3943   2.113   6.568   4.917
 1015SOL    HW1 3944   2.051   6.625   4.970
 1015SOL    HW2 3945   2.078   6.474   4.914
 1016SOL     OW 3946   3.783   3.281   0.003
 1016SOL    HW1 3947   3.708   3.277   0.069
 1016SOL    HW2 3948   3.870   3.290   0.052
 1017SOL     OW 3949   4.233   2.830   1.238
 1017SOL    HW1 3950   4.293   2.826   1.158
 1017SOL    HW2 3951   4.163   2.759   1.232
 1018SOL     OW 3952   1.157   3.383   4.183
 1018SOL    HW1 3953   1.094   3.387   4.260
 1018SOL    HW2 3954   1.114   3.335   4.106
 1019SOL     OW 3955   0.390   0.468   0.329
 1019SOL    HW1 3956   0.341   0.386   0.357
 1019SOL    HW2 3957   0.385   0.476   0.229
 1020SOL     OW 3958   0.738   6.847   1.594
 1020SOL    HW1 3959   0.791   6.823   1.675
 1020SOL    HW2 3960   0.675   6.773   1.572
 1021SOL     OW 3961   5.694   0.753   1.330
 1021SOL    HW1 3962   5.688   0.653   1.336
 1021SOL    HW2 3963   5.776   0.784   1.379
 1022SOL     OW 3964   3.437   4.497   6.288
 1022SOL    HW1 3965   3.370   4.431   6.255
 1022SOL    HW2 3966   3.476   4.546   6.210
 1023SOL     OW 3967   0.615   6.757   2.200
 1023SOL    HW1 3968   0.620   6.854   2.227
 1023SOL    HW2 3969   0.690   6.707   2.243
 1024SOL     OW 3970   6.869   3.473   4.418
 1024SOL    HW1 3971   6.782   3.464   4.370
 1024SOL    HW2 3972   6.922   3.547   4.376
 1025SOL     OW 3973   3.079   3.226   0.540
 1025SOL    HW1 3974   3.166   3.235   0.491
 1025SOL    HW2 3975   3.034   3.141   0.513
 1026SOL     OW 3976   2.587   2.723   1.257
 1026SOL    HW1 3977   2.543   2.803   1.299
 1026SOL    HW2 3978   2.686   2.732   1.264
 1027SOL     OW 3979   3.034   6.855   1.015
 1027SOL    HW1 3980   3.069   6.776   0.964
 1027SOL    HW2 3981   2.945   6.882   0.978
 1028SOL     OW 3982   3.455   6.165   6.843
 1028SOL    HW1 3983   3.382   6.128   6.785
 1028SOL    HW2 3984   3.476   6.100   6.915
 1029SOL     OW 3985   1.894   0.352   6.932
 1029SOL    HW1 3986   1.977   0.400   6.901
 1029SOL    HW2 3987   1.844   0.319   6.852
 1030SOL     OW 3988   3.379   3.511   1.668
 1030SOL    HW1 3989   3.430   3.531   1.751
 1030SOL    HW2 3990   3.419   3.432   1.622
 1031SOL     OW 3991   4.652   5.171   0.972
 1031SOL    HW1 3992   4.610   5.120   0.897
 1031SOL    HW2 3993   4.583   5.191   1.042
 1032SOL     OW 3994   2.148   1.715   5.167
 1032SOL    HW1 3995   2.122   1.806   5.135
 1032SOL    HW2 3996   2.222   1.679   5.110
 1033SOL     OW 3997   1.314   6.014   1.226
 1033SOL    HW1 3998   1.405   5.973   1.218
 1033SOL    HW2 3999   1.323   6.111   1.249
 1034SOL     OW 4000   0.423   5.372   5.181
 1034SOL    HW1 4001   0.501   5.333   5.230
 1034SOL    HW2 4002   0.443   5.375   5.083
 1035SOL     OW 4003   1.195   1.251   3.951
 1035SOL    HW1 4004   1.133   1.249   3.872
 1035SOL    HW2 4005   1.211   1.157   3.983
 1036SOL     OW 4006   2.762   0.922   2.173
 1036SOL    HW1 4007   2.785   0.884   2.083
 1036SOL    HW2 4008   2.823   0.999   2.192
 1037SOL     OW 4009   1.892   0.850   1.125
 1037SOL    HW1 4010   1.965   0.878   1.188
 1037SOL    HW2 4011   1.807   0.837   1.175
 1038SOL     OW 4012   1.371   6.967   5.610
 1038SOL    HW1 4013   1.301   6.960   5.539
 1038SOL    HW2 4014   1.343   0.016   5.679
 1039SOL     OW 4015   3.137   2.531   6.037
 1039SOL    HW1 4016   3.052   2.530   5.984
 1039SOL    HW2 4017   3.212   2.560   5.978
 1040SOL     OW 4018   4.779   2.848   2.360
 1040SOL    HW1 4019   4.814   2.932   2.319
 1040SOL    HW2 4020   4.712   2.806   2.299
 1041SOL     OW 4021   6.416   6.920   4.247
 1041SOL    HW1 4022   6.392   6.825   4.226
 1041SOL    HW2 4023   6.510   6.938   4.218
 1042SOL     OW 4024   3.726   5.052   2.505
 1042SOL    HW1 4025   3.684   5.140   2.529
 1042SOL    HW2 4026   3.658   4.979   2.516
 1043SOL     OW 4027   3.916   1.638   4.900
 1043SOL    HW1 4028   3.859   1.665   4.978
 1043SOL    HW2 4029   3.890   1.546   4.870
 1044SOL     OW 4030   4.783   4.726   2.226
 1044SOL    HW1 4031   4.846   4.769   2.161
 1044SOL    HW2 4032   4.828   4.648   2.269
 1045SOL     OW 4033   3.380   5.995   2.129
 1045SOL    HW1 4034   3.371   6.019   2.225
 1045SOL    HW2 4035   3.305   5.935   2.103
 1046SOL     OW 4036   1.323   6.912   0.741
 1046SOL    HW1 4037   1.334   6.999   0.695
 1046SOL    HW2 4038   1.320   6.838   0.673
 1047SOL     OW 4039   1.282   6.666   2.188
 1047SOL    HW1 4040   1.286   6.723   2.106
 1047SOL    HW2 4041   1.344   6.703   2.257
 1048SOL     OW 4042   4.965   6.193   5.400
 1048SOL    HW1 4043   4.986   6.228   5.309
 1048SOL    HW2 4044   4.866   6.192   5.413
 1049SOL     OW 4045   6.452   5.322   3.563
 1049SOL    HW1 4046   6.502   5.405   3.591
 1049SOL    HW2 4047   6.424   5.272   3.644
 1050SOL     OW 4048   4.020   5.638   0.847
 1050SOL    HW1 4049   3.984   5.619   0.939
 1050SOL    HW2 4050   4.119   5.626   0.847
 1051SOL     OW 4051   2.503   5.320   0.960
 1051SOL    HW1 4052   2.419   5.373   0.947
 1051SOL    HW2 4053   2.495   5.265   1.043
 1052SOL     OW 4054   3.855   0.435   4.366
 1052SOL    HW1 4055   3.817   0.412   4.456
 1052SOL    HW2 4056   3.897   0.525   4.371
 1053SOL     OW 4057   4.977   5.360   3.242
 1053SOL    HW1 4058   5.056   5.345   3.183
 1053SOL    HW2 4059   4.901   5.303   3.211
 1054SOL     OW 4060   2.231   3.678   5.533
 1054SOL    HW1 4061   2.312   3.620   5.537
 1054SOL    HW2 4062   2.229   3.727   5.446
 1055SOL     OW 4063   5.154   6.474   4.228
 1055SOL    HW1 4064   5.137   6.571   4.246
 1055SOL    HW2 4065   5.166   6.460   4.130
 1056SOL     OW 4066   1.715   4.901   6.102
 1056SOL    HW1 4067   1.769   4.819   6.123
 1056SOL    HW2 4068   1.751   4.944   6.020
 1057SOL     OW 4069   3.557   3.203   2.686
 1057SOL    HW1 4070   3.531   3.110   2.660
 1057SOL    HW2 4071   3.478   3.250   2.725
 1058SOL     OW 4072   5.152   1.564   2.404
 1058SOL    HW1 4073   5.062   1.593   2.435
 1058SOL    HW2 4074   5.197   1.639   2.356
 1059SOL     OW 4075   2.558   0.203   1.711
 1059SOL    HW1 4076   2.458   0.201   1.702
 1059SOL    HW2 4077   2.591   0.112   1.736
 1060SOL     OW 4078   6.848   4.064   4.430
 1060SOL    HW1 4079   6.851   3.998   4.354
 1060SOL    HW2 4080   6.938   4.070   4.473
 1061SOL     OW 4081   5.325   3.623   1.805
 1061SOL    HW1 4082   5.231   3.657   1.794
 1061SOL    HW2 4083   5.382   3.661   1.732
 1062SOL     OW 4084   5.855   4.668   5.247
 1062SOL    HW1 4085   5.758   4.663   5.268
 1062SOL    HW2 4086   5.870   4.739   5.178
 1063SOL     OW 4087   1.535   4.722   1.485
 1063SOL    HW1 4088   1.581   4.721   1.574
 1063SOL    HW2 4089   1.462   4.653   1.485
 1064SOL     OW 4090   1.513   4.252   2.033
 1064SOL    HW1 4091   1.601   4.294   2.010
 1064SOL    HW2 4092   1.471   4.216   1.949
 1065SOL     OW 4093   4.826   6.851   3.944
 1065SOL    HW1 4094   4.855   6.930   3.890
 1065SOL    HW2 4095   4.847   6.767   3.893
 1066SOL     OW 4096   5.019   0.333   3.660
 1066SOL    HW1 4097   4.935   0.280   3.667
 1066SOL    HW2 4098   5.082   0.305   3.733
 1067SOL     OW 4099   1.143   3.319   6.996
 1067SOL    HW1 4100   1.221   3.261   0.002
 1067SOL    HW2 4101   1.174   3.393   6.936
 1068SOL     OW 4102   4.817   5.185   3.070
 1068SOL    HW1 4103   4.737   5.125   3.069
 1068SOL    HW2 4104   4.804   5.259   3.004
 1069SOL     OW 4105   4.936   5.000   0.660
 1069SOL    HW1 4106   4.934   4.921   0.720
 1069SOL    HW2 4107   4.916   4.972   0.566
 1070SOL     OW 4108   0.761   0.875   1.960
 1070SOL    HW1 4109   0.772   0.918   1.870
 1070SOL    HW2 4110   0.720   0.785   1.949
 1071SOL     OW 4111   2.278   0.065   3.988
 1071SOL    HW1 4112   2.266   7.008   3.922
 1071SOL    HW2 4113   2.340   0.133   3.949
 1072SOL     OW 4114   1.670   6.263   1.138
 1072SOL    HW1 4115   1.599   6.332   1.150
 1072SOL    HW2 4116   1.673   6.204   1.218
 1073SOL     OW 4117   3.936   6.401   2.466
 1073SOL    HW1 4118   4.032   6.419   2.486
 1073SOL    HW2 4119   3.922   6.302   2.457
 1074SOL     OW 4120   2.881   5.092   0.639
 1074SOL    HW1 4121   2.858   5.077   0.543
 1074SOL    HW2 4122   2.800   5.124   0.688
 1075SOL     OW 4123   4.165   6.812   3.839
 1075SOL    HW1 4124   4.188   6.794   3.935
 1075SOL    HW2 4125   4.163   6.726   3.788
 1076SOL     OW 4126   6.917   4.680   5.590
 1076SOL    HW1 4127   6.886   4.595   5.548
 1076SOL    HW2 4128   6.848   4.712   5.655
 1077SOL     OW 4129   5.929   0.067   0.679
 1077SOL    HW1 4130   5.923   0.137   0.750
 1077SOL    HW2 4131   5.859   7.016   0.696
 1078SOL     OW 4132   1.014   1.244   2.556
 1078SOL    HW1 4133   0.942   1.262   2.488
 1078SOL    HW2 4134   1.075   1.173   2.522
 1079SOL     OW 4135   1.921   6.100   2.358
 1079SOL    HW1 4136   1.952   6.184   2.314
 1079SOL    HW2 4137   1.997   6.057   2.406
 1080SOL     OW 4138   1.719   4.546   3.435
 1080SOL    HW1 4139   1.799   4.602   3.415
 1080SOL    HW2 4140   1.748   4.460   3.476
 1081SOL     OW 4141   6.977   6.258   6.004
 1081SOL    HW1 4142   0.013   6.288   5.925
 1081SOL    HW2 4143   6.881   6.249   5.977
 1082SOL     OW 4144   3.758   1.881   6.441
 1082SOL    HW1 4145   3.821   1.804   6.444
 1082SOL    HW2 4146   3.799   1.959   6.490
 1083SOL     OW 4147   4.289   4.093   1.098
 1083SOL    HW1 4148   4.314   3.997   1.089
 1083SOL    HW2 4149   4.368   4.146   1.129
 1084SOL     OW 4150   6.255   5.641   1.015
 1084SOL    HW1 4151   6.269   5.672   0.921
 1084SOL    HW2 4152   6.294   5.707   1.079
 1085SOL     OW 4153   1.226   4.370   4.007
 1085SOL    HW1 4154   1.172   4.363   4.091
 1085SOL    HW2 4155   1.222   4.464   3.973
 1086SOL     OW 4156   6.764   5.786   2.308
 1086SOL    HW1 4157   6.770   5.809   2.211
 1086SOL    HW2 4158   6.680   5.734   2.325
 1087SOL     OW 4159   6.187   3.122   5.490
 1087SOL    HW1 4160   6.274   3.152   5.530
 1087SOL    HW2 4161   6.126   3.200   5.479
 1088SOL     OW 4162   5.827   4.975   3.320
 1088SOL    HW1 4163   5.775   5.004   3.401
 1088SOL    HW2 4164   5.767   4.977   3.240
 1089SOL     OW 4165   1.093   6.716   4.298
 1089SOL    HW1 4166   1.111   6.794   4.238
 1089SOL    HW2 4167   1.178   6.668   4.317
 1090SOL     OW 4168   2.256   1.527   3.766
 1090SOL    HW1 4169   2.224   1.622   3.763
 1090SOL    HW2 4170   2.178   1.466   3.784
 1091SOL     OW 4171   2.413   2.746   5.411
 1091SOL    HW1 4172   2.463   2.705   5.335
 1091SOL    HW2 4173   2.357   2.822   5.377
 1092SOL     OW 4174   1.841   3.658   0.440
 1092SOL    HW1 4175   1.810   3.677   0.347
 1092SOL    HW2 4176   1.764   3.662   0.503
 1093SOL     OW 4177   1.633   1.809   2.006
 1093SOL    HW1 4178   1.715   1.754   1.994
 1093SOL    HW2 4179   1.643   1.896   1.958
 1094SOL     OW 4180   1.040   5.876   3.861
 1094SOL    HW1 4181   1.024   5.956   3.804
 1094SOL    HW2 4182   0.983   5.800   3.829
 1095SOL     OW 4183   0.408   2.203   5.739
 1095SOL    HW1 4184   0.349   2.135   5.696
 1095SOL    HW2 4185   0.378   2.295   5.714
 1096SOL     OW 4186   3.282   4.651   1.725
 1096SOL    HW1 4187   3.366   4.652   1.779
 1096SOL    HW2 4188   3.277   4.567   1.671
 1097SOL     OW 4189   1.934   4.044   4.233
 1097SOL    HW1 4190   1.943   4.142   4.215
 1097SOL    HW2 4191   2.023   3.999   4.224
 1098SOL     OW 4192   5.021   3.128   1.206
 1098SOL    HW1 4193   5.084   3.201   1.177
 1098SOL    HW2 4194   5.015   3.126   1.305
 1099SOL     OW 4195   3.938   1.712   5.349
 1099SOL    HW1 4196   3.987   1.800   5.347
 1099SOL    HW2 4197   4.002   1.639   5.326
 1100SOL     OW 4198   3.311   1.601   6.621
 1100SOL    HW1 4199   3.387   1.546   6.588
 1100SOL    HW2 4200   3.263   1.641   6.543
 1101SOL     OW 4201   6.449   2.092   0.210
 1101SOL    HW1 4202   6.438   2.039   0.294
 1101SOL    HW2 4203   6.425   2.035   0.131
 1102SOL     OW 4204   0.511   5.812   3.986
 1102SOL    HW1 4205   0.521   5.787   4.082
 1102SOL    HW2 4206   0.510   5.911   3.977
 1103SOL     OW 4207   3.491   1.439   0.705
 1103SOL    HW1 4208   3.577   1.422   0.656
 1103SOL    HW2 4209   3.505   1.514   0.770
 1104SOL     OW 4210   2.195   3.401   5.319
 1104SOL    HW1 4211   2.177   3.326   5.255
 1104SOL    HW2 4212   2.173   3.373   5.412
 1105SOL     OW 4213   6.035   3.609   4.872
 1105SOL    HW1 4214   5.987   3.608   4.784
 1105SOL    HW2 4215   6.059   3.516   4.899
 1106SOL     OW 4216   0.461   2.177   0.887
 1106SOL    HW1 4217   0.503   2.088   0.867
 1106SOL    HW2 4218   0.518   2.249   0.847
 1107SOL     OW 4219   2.016   0.468   6.063
 1107SOL    HW1 4220   2.009   0.567   6.055
 1107SOL    HW2 4221   1.928   0.431   6.095
 1108SOL     OW 4222   3.054   1.045   5.911
 1108SOL    HW1 4223   3.105   1.014   5.831
 1108SOL    HW2 4224   3.089   1.135   5.939
 1109SOL     OW 4225   4.283   6.493   4.711
 1109SOL    HW1 4226   4.189   6.516   4.735
 1109SOL    HW2 4227   4.343   6.568   4.736
 1110SOL     OW 4228   3.083   1.987   2.806
 1110SOL    HW1 4229   3.009   1.941   2.855
 1110SOL    HW2 4230   3.114   1.930   2.730
 1111SOL     OW 4231   4.830   4.862   0.041
 1111SOL    HW1 4232   4.760   4.899   0.102
 1111SOL    HW2 4233   4.831   4.913   6.973
 1112SOL     OW 4234   6.256   1.033   2.441
 1112SOL    HW1 4235   6.284   0.949   2.394
 1112SOL    HW2 4236   6.320   1.052   2.515
 1113SOL     OW 4237   0.256   3.802   3.267
 1113SOL    HW1 4238   0.326   3.824   3.335
 1113SOL    HW2 4239   0.299   3.752   3.191
 1114SOL     OW 4240   4.560   1.634   6.429
 1114SOL    HW1 4241   4.590   1.554   6.481
 1114SOL    HW2 4242   4.637   1.670   6.377
 1115SOL     OW 4243   4.188   2.819   0.353
 1115SOL    HW1 4244   4.196   2.791   0.258
 1115SOL    HW2 4245   4.266   2.784   0.405
 1116SOL     OW 4246   5.509   6.069   5.223
 1116SOL    HW1 4247   5.514   6.078   5.322
 1116SOL    HW2 4248   5.599   6.084   5.183
 1117SOL     OW 4249   1.867   2.728   1.220
 1117SOL    HW1 4250   1.862   2.636   1.259
 1117SOL    HW2 4251   1.957   2.742   1.178
 1118SOL     OW 4252   2.177   4.115   1.437
 1118SOL    HW1 4253   2.250   4.072   1.383
 1118SOL    HW2 4254   2.149   4.054   1.510
 1119SOL     OW 4255   4.705   4.670   0.930
 1119SOL    HW1 4256   4.606   4.667   0.948
 1119SOL    HW2 4257   4.734   4.585   0.886
 1120SOL     OW 4258   5.777   6.721   5.102
 1120SOL    HW1 4259   5.689   6.702   5.145
 1120SOL    HW2 4260   5.838   6.764   5.168
 1121SOL     OW 4261   5.464   4.703   2.663
 1121SOL    HW1 4262   5.429   4.613   2.688
 1121SOL    HW2 4263   5.564   4.700   2.662
 1122SOL     OW 4264   4.549   3.193   6.784
 1122SOL    HW1 4265   4.465   3.175   6.733
 1122SOL    HW2 4266   4.625   3.141   6.744
 1123SOL     OW 4267   5.120   1.882   3.160
 1123SOL    HW1 4268   5.205   1.916   3.200
 1123SOL    HW2 4269   5.119   1.782   3.165
 1124SOL     OW 4270   5.838   4.171   5.033
 1124SOL    HW1 4271   5.805   4.082   4.999
 1124SOL    HW2 4272   5.776   4.204   5.104
 1125SOL     OW 4273   3.422   1.588   4.750
 1125SOL    HW1 4274   3.347   1.654   4.746
 1125SOL    HW2 4275   3.446   1.559   4.658
 1126SOL     OW 4276   5.522   6.113   0.321
 1126SOL    HW1 4277   5.431   6.151   0.304
 1126SOL    HW2 4278   5.583   6.138   0.245
 1127SOL     OW 4279   5.125   5.162   5.186
 1127SOL    HW1 4280   5.216   5.119   5.187
 1127SOL    HW2 4281   5.117   5.227   5.261
 1128SOL     OW 4282   5.373   2.138   5.271
 1128SOL    HW1 4283   5.405   2.229   5.300
 1128SOL    HW2 4284   5.327   2.094   5.348
 1129SOL     OW 4285   3.444   0.491   6.601
 1129SOL    HW1 4286   3.409   0.525   6.513
 1129SOL    HW2 4287   3.529   0.441   6.585
 1130SOL     OW 4288   2.043   4.601   1.023
 1130SOL    HW1 4289   2.016   4.660   1.098
 1130SOL    HW2 4290   2.051   4.655   0.939
 1131SOL     OW 4291   0.360   6.248   6.095
 1131SOL    HW1 4292   0.279   6.199   6.126
 1131SOL    HW2 4293   0.441   6.213   6.143
 1132SOL     OW 4294   5.196   0.123   1.134
 1132SOL    HW1 4295   5.147   0.193   1.080
 1132SOL    HW2 4296   5.170   0.132   1.230
 1133SOL     OW 4297   0.787   1.205   0.871
 1133SOL    HW1 4298   0.843   1.151   0.935
 1133SOL    HW2 4299   0.703   1.234   0.917
 1134SOL     OW 4300   4.734   1.282   1.611
 1134SOL    HW1 4301   4.795   1.243   1.681
 1134SOL    HW2 4302   4.662   1.335   1.656
 1135SOL     OW 4303   2.012   1.387   2.787
 1135SOL    HW1 4304   2.043   1.476   2.754
 1135SOL    HW2 4305   2.086   1.341   2.834
 1136SOL     OW 4306   3.462   5.236   4.969
 1136SOL    HW1 4307   3.525   5.304   4.934
 1136SOL    HW2 4308   3.378   5.236   4.913
 1137SOL     OW 4309   1.425   1.946   6.193
 1137SOL    HW1 4310   1.422   1.889   6.111
 1137SOL    HW2 4311   1.498   2.014   6.184
 1138SOL     OW 4312   0.654   1.318   6.571
 1138SOL    HW1 4313   0.731   1.352   6.626
 1138SOL    HW2 4314   0.592   1.394   6.551
 1139SOL     OW 4315   3.034   5.732   1.215
 1139SOL    HW1 4316   3.100   5.768   1.149
 1139SOL    HW2 4317   3.049   5.633   1.225
 1140SOL     OW 4318   3.329   1.084   2.103
 1140SOL    HW1 4319   3.267   1.008   2.087
 1140SOL    HW2 4320   3.379   1.106   2.019
 1141SOL     OW 4321   6.718   6.666   6.592
 1141SOL    HW1 4322   6.703   6.585   6.648
 1141SOL    HW2 4323   6.637   6.684   6.536
 1142SOL     OW 4324   3.435   0.493   4.190
 1142SOL    HW1 4325   3.527   0.462   4.212
 1142SOL    HW2 4326   3.410   0.569   4.250
 1143SOL     OW 4327   2.100   3.228   1.930
 1143SOL    HW1 4328   2.147   3.315   1.943
 1143SOL    HW2 4329   2.069   3.194   2.019
 1144SOL     OW 4330   6.329   4.798   5.660
 1144SOL    HW1 4331   6.381   4.767   5.580
 1144SOL    HW2 4332   6.255   4.733   5.679
 1145SOL     OW 4333   0.337   4.453   2.282
 1145SOL    HW1 4334   0.323   4.381   2.214
 1145SOL    HW2 4335   0.352   4.411   2.372
 1146SOL     OW 4336   6.257   0.646   1.607
 1146SOL    HW1 4337   6.198   0.661   1.528
 1146SOL    HW2 4338   6.202   0.619   1.686
 1147SOL     OW 4339   1.388   4.289   0.963
 1147SOL    HW1 4340   1.347   4.240   0.885
 1147SOL    HW2 4341   1.485   4.304   0.945
 1148SOL     OW 4342   4.525   6.742   6.608
 1148SOL    HW1 4343   4.462   6.727   6.532
 1148SOL    HW2 4344   4.487   6.811   6.669
 1149SOL     OW 4345   6.612   4.510   3.034
 1149SOL    HW1 4346   6.627   4.511   2.935
 1149SOL    HW2 4347   6.617   4.603   3.070
 1150SOL     OW 4348   2.847   4.290   0.820
 1150SOL    HW1 4349   2.920   4.314   0.756
 1150SOL    HW2 4350   2.869   4.204   0.865
 1151SOL     OW 4351   5.184   5.157   6.468
 1151SOL    HW1 4352   5.085   5.171   6.464
 1151SOL    HW2 4353   5.215   5.168   6.563
 1152SOL     OW 4354   0.370   5.836   5.835
 1152SOL    HW1 4355   0.300   5.870   5.897
 1152SOL    HW2 4356   0.340   5.749   5.795
 1153SOL     OW 4357   2.287   0.155   2.566
 1153SOL    HW1 4358   2.365   0.093   2.578
 1153SOL    HW2 4359   2.320   0.246   2.541
 1154SOL     OW 4360   0.374   4.191   1.697
 1154SOL    HW1 4361   0.316   4.150   1.627
 1154SOL    HW2 4362   0.382   4.289   1.681
 1155SOL     OW 4363   2.621   4.992   6.965
 1155SOL    HW1 4364   2.662   5.067   7.016
 1155SOL    HW2 4365   2.542   5.026   6.914
 1156SOL     OW 4366   2.253   0.909   5.084
 1156SOL    HW1 4367   2.320   0.835   5.073
 1156SOL    HW2 4368   2.236   0.924   5.181
 1157SOL     OW 4369   6.249   0.882   5.299
 1157SOL    HW1 4370   6.201   0.794   5.294
 1157SOL    HW2 4371   6.321   0.886   5.230
 1158SOL     OW 4372   0.299   5.603   5.733
 1158SOL    HW1 4373   0.283   5.525   5.673
 1158SOL    HW2 4374   0.230   5.605   5.805
 1159SOL     OW 4375   4.944   6.968   3.669
 1159SOL    HW1 4376   5.022   6.914   3.637
 1159SOL    HW2 4377   4.904   7.018   3.593
 1160SOL     OW 4378   3.854   3.272   1.475
 1160SOL    HW1 4379   3.898   3.268   1.385
 1160SOL    HW2 4380   3.780   3.340   1.473
 1161SOL     OW 4381   5.182   0.312   5.990
 1161SOL    HW1 4382   5.136   0.305   5.901
 1161SOL    HW2 4383   5.116   0.342   6.059
 1162SOL     OW 4384   2.959   2.464   0.010
 1162SOL    HW1 4385   3.019   2.462   0.090
 1162SOL    HW2 4386   2.871   2.503   0.036
 1163SOL     OW 4387   6.762   3.237   1.857
 1163SOL    HW1 4388   6.737   3.324   1.815
 1163SOL    HW2 4389   6.682   3.199   1.904
 1164SOL     OW 4390   5.325   2.179   4.264
 1164SOL    HW1 4391   5.250   2.230   4.221
 1164SOL    HW2 4392   5.396   2.243   4.295
 1165SOL     OW 4393   2.039   4.583   4.672
 1165SOL    HW1 4394   2.087   4.552   4.590
 1165SOL    HW2 4395   2.046   4.512   4.743
 1166SOL     OW 4396   3.657   0.379   0.682
 1166SOL    HW1 4397   3.749   0.371   0.644
 1166SOL    HW2 4398   3.638   0.475   0.703
 1167SOL     OW 4399   3.509   6.707   6.578
 1167SOL    HW1 4400   3.560   6.743   6.499
 1167SOL    HW2 4401   3.512   6.607   6.577
 1168SOL     OW 4402   6.118   1.771   3.535
 1168SOL    HW1 4403   6.181   1.695   3.517
 1168SOL    HW2 4404   6.028   1.748   3.498
 1169SOL     OW 4405   5.812   3.047   6.643
 1169SOL    HW1 4406   5.791   3.118   6.575
 1169SOL    HW2 4407   5.756   2.966   6.625
 1170SOL     OW 4408   5.559   0.885   2.246
 1170SOL    HW1 4409   5.512   0.965   2.282
 1170SOL    HW2 4410   5.494   0.824   2.202
 1171SOL     OW 4411   3.048   6.563   6.929
 1171SOL    HW1 4412   2.999   6.561   6.842
 1171SOL    HW2 4413   3.133   6.614   6.919
 1172SOL     OW 4414   3.114   3.689   1.924
 1172SOL    HW1 4415   3.044   3.729   1.865
 1172SOL    HW2 4416   3.142   3.600   1.887
 1173SOL     OW 4417   3.302   0.111   5.478
 1173SOL    HW1 4418   3.234   0.080   5.544
 1173SOL    HW2 4419   3.274   0.082   5.386
 1174SOL     OW 4420   3.228   4.442   0.429
 1174SOL    HW1 4421   3.167   4.448   0.508
 1174SOL    HW2 4422   3.305   4.383   0.452
 1175SOL     OW 4423   4.001   3.038   6.666
 1175SOL    HW1 4424   3.989   3.077   6.575
 1175SOL    HW2 4425   3.914   3.039   6.714
 1176SOL     OW 4426   5.540   4.592   1.033
 1176SOL    HW1 4427   5.464   4.544   0.988
 1176SOL    HW2 4428   5.569   4.539   1.113
 1177SOL     OW 4429   6.682   1.805   6.465
 1177SOL    HW1 4430   6.777   1.794   6.438
 1177SOL    HW2 4431   6.672   1.783   6.562
 1178SOL     OW 4432   3.784   3.687   0.948
 1178SOL    HW1 4433   3.724   3.762   0.976
 1178SOL    HW2 4434   3.728   3.615   0.907
 1179SOL     OW 4435   2.937   5.349   0.203
 1179SOL    HW1 4436   2.968   5.419   0.138
 1179SOL    HW2 4437   2.859   5.300   0.165
 1180SOL     OW 4438   2.373   6.677   3.896
 1180SOL    HW1 4439   2.438   6.728   3.840
 1180SOL    HW2 4440   2.280   6.707   3.875
 1181SOL     OW 4441   6.775   2.743   5.103
 1181SOL    HW1 4442   6.792   2.665   5.163
 1181SOL    HW2 4443   6.766   2.711   5.009
 1182SOL     OW 4444   2.516   5.344   3.620
 1182SOL    HW1 4445   2.611   5.344   3.651
 1182SOL    HW2 4446   2.491   5.252   3.589
 1183SOL     OW 4447   3.811   6.655   1.579
 1183SOL    HW1 4448   3.718   6.674   1.547
 1183SOL    HW2 4449   3.841   6.567   1.543
 1184SOL     OW 4450   4.118   0.510   5.935
 1184SOL    HW1 4451   4.194   0.505   6.000
 1184SOL    HW2 4452   4.155   0.514   5.842
 1185SOL     OW 4453   1.614   6.727   0.936
 1185SOL    HW1 4454   1.685   6.660   0.916
 1185SOL    HW2 4455   1.524   6.687   0.918
 1186SOL     OW 4456   5.979   5.882   6.454
 1186SOL    HW1 4457   6.048   5.953   6.447
 1186SOL    HW2 4458   5.897   5.919   6.498
 1187SOL     OW 4459   5.689   6.724   5.441
 1187SOL    HW1 4460   5.639   6.751   5.523
 1187SOL    HW2 4461   5.629   6.736   5.361
 1188SOL     OW 4462   3.338   5.798   6.443
 1188SOL    HW1 4463   3.358   5.726   6.509
 1188SOL    HW2 4464   3.422   5.849   6.423
 1189SOL     OW 4465   5.808   0.961   2.147
 1189SOL    HW1 4466   5.722   0.916   2.171
 1189SOL    HW2 4467   5.816   1.046   2.198
 1190SOL     OW 4468   4.031   4.907   4.242
 1190SOL    HW1 4469   4.094   4.849   4.188
 1190SOL    HW2 4470   4.075   4.994   4.261
 1191SOL     OW 4471   3.354   6.389   4.515
 1191SOL    HW1 4472   3.330   6.340   4.431
 1191SOL    HW2 4473   3.271   6.419   4.561
 1192SOL     OW 4474   5.481   5.876   3.015
 1192SOL    HW1 4475   5.417   5.945   3.049
 1192SOL    HW2 4476   5.467   5.862   2.917
 1193SOL     OW 4477   0.124   0.381   5.887
 1193SOL    HW1 4478   0.037   0.430   5.879
 1193SOL    HW2 4479   0.141   0.329   5.803
 1194SOL     OW 4480   6.689   1.757   0.944
 1194SOL    HW1 4481   6.666   1.823   0.872
 1194SOL    HW2 4482   6.719   1.805   1.026
 1195SOL     OW 4483   6.477   3.540   1.537
 1195SOL    HW1 4484   6.403   3.474   1.554
 1195SOL    HW2 4485   6.563   3.491   1.522
 1196SOL     OW 4486   6.436   4.930   1.749
 1196SOL    HW1 4487   6.409   4.836   1.727
 1196SOL    HW2 4488   6.451   4.981   1.664
 1197SOL     OW 4489   4.395   6.540   4.437
 1197SOL    HW1 4490   4.351   6.510   4.521
 1197SOL    HW2 4491   4.344   6.507   4.358
 1198SOL     OW 4492   1.505   3.222   2.448
 1198SOL    HW1 4493   1.574   3.213   2.520
 1198SOL    HW2 4494   1.422   3.262   2.487
 1199SOL     OW 4495   3.830   3.455   3.436
 1199SOL    HW1 4496   3.836   3.518   3.513
 1199SOL    HW2 4497   3.873   3.368   3.460
 1200SOL     OW 4498   3.876   4.066   4.777
 1200SOL    HW1 4499   3.926   3.985   4.746
 1200SOL    HW2 4500   3.828   4.107   4.700
 1201SOL     OW 4501   6.894   1.249   4.496
 1201SOL    HW1 4502   6.935   1.287   4.413
 1201SOL    HW2 4503   6.812   1.197   4.471
 1202SOL     OW 4504   6.118   0.986   6.063
 1202SOL    HW1 4505   6.119   1.075   6.018
 1202SOL    HW2 4506   6.177   0.988   6.143
 1203SOL     OW 4507   7.004   6.716   1.138
 1203SOL    HW1 4508   6.990   6.617   1.150
 1203SOL    HW2 4509   6.981   6.742   1.045
 1204SOL     OW 4510   4.393   1.713   1.672
 1204SOL    HW1 4511   4.468   1.779   1.668
 1204SOL    HW2 4512   4.338   1.730   1.753
 1205SOL     OW 4513   4.386   3.022   0.257
 1205SOL    HW1 4514   4.384   2.923   0.246
 1205SOL    HW2 4515   4.411   3.065   0.170
 1206SOL     OW 4516   1.255   2.350   4.836
 1206SOL    HW1 4517   1.299   2.377   4.751
 1206SOL    HW2 4518   1.156   2.366   4.829
 1207SOL     OW 4519   0.273   0.261   0.098
 1207SOL    HW1 4520   0.351   0.214   0.056
 1207SOL    HW2 4521   0.194   0.257   0.037
 1208SOL     OW 4522   3.429   3.897   1.745
 1208SOL    HW1 4523   3.355   3.846   1.701
 1208SOL    HW2 4524   3.499   3.833   1.777
 1209SOL     OW 4525   5.924   0.625   4.203
 1209SOL    HW1 4526   5.902   0.703   4.261
 1209SOL    HW2 4527   5.850   0.558   4.207
 1210SOL     OW 4528   4.225   0.111   3.507
 1210SOL    HW1 4529   4.187   0.087   3.418
 1210SOL    HW2 4530   4.150   0.133   3.570
 1211SOL     OW 4531   1.029   3.378   3.743
 1211SOL    HW1 4532   1.114   3.427   3.763
 1211SOL    HW2 4533   0.951   3.439   3.757
 1212SOL     OW 4534   6.795   1.049   5.654
 1212SOL    HW1 4535   6.878   1.090   5.617
 1212SOL    HW2 4536   6.716   1.081   5.601
 1213SOL     OW 4537   5.679   2.883   3.200
 1213SOL    HW1 4538   5.722   2.894   3.111
 1213SOL    HW2 4539   5.586   2.849   3.188
 1214SOL     OW 4540   0.460   2.058   6.061
 1214SOL    HW1 4541   0.527   2.005   6.113
 1214SOL    HW2 4542   0.369   2.043   6.098
 1215SOL     OW 4543   2.294   5.351   2.275
 1215SOL    HW1 4544   2.388   5.324   2.294
 1215SOL    HW2 4545   2.247   5.369   2.362
 1216SOL     OW 4546   0.293   0.841   6.970
 1216SOL    HW1 4547   0.194   0.841   6.962
 1216SOL    HW2 4548   0.326   0.936   6.975
 1217SOL     OW 4549   3.333   5.279   1.210
 1217SOL    HW1 4550   3.276   5.254   1.132
 1217SOL    HW2 4551   3.423   5.309   1.178
 1218SOL     OW 4552   0.996   3.793   5.865
 1218SOL    HW1 4553   1.055   3.718   5.894
 1218SOL    HW2 4554   0.901   3.772   5.888
 1219SOL     OW 4555   5.070   5.625   1.880
 1219SOL    HW1 4556   5.055   5.604   1.977
 1219SOL    HW2 4557   5.022   5.709   1.856
 1220SOL     OW 4558   6.676   4.469   2.751
 1220SOL    HW1 4559   6.733   4.436   2.676
 1220SOL    HW2 4560   6.693   4.566   2.766
 1221SOL     OW 4561   5.589   3.723   6.208
 1221SOL    HW1 4562   5.544   3.660   6.271
 1221SOL    HW2 4563   5.528   3.800   6.188
 1222SOL     OW 4564   0.749   0.745   0.282
 1222SOL    HW1 4565   0.699   0.794   0.352
 1222SOL    HW2 4566   0.757   0.648   0.308
 1223SOL     OW 4567   3.742   1.385   0.299
 1223SOL    HW1 4568   3.830   1.380   0.346
 1223SOL    HW2 4569   3.672   1.419   0.362
 1224SOL     OW 4570   2.750   5.470   0.360
 1224SOL    HW1 4571   2.831   5.418   0.334
 1224SOL    HW2 4572   2.668   5.416   0.339
 1225SOL     OW 4573   3.837   2.144   0.615
 1225SOL    HW1 4574   3.784   2.157   0.531
 1225SOL    HW2 4575   3.787   2.183   0.692
 1226SOL     OW 4576   4.631   6.232   0.480
 1226SOL    HW1 4577   4.632   6.160   0.550
 1226SOL    HW2 4578   4.542   6.233   0.434
 1227SOL     OW 4579   5.073   5.163   6.998
 1227SOL    HW1 4580   5.118   5.252   7.001
 1227SOL    HW2 4581   5.133   5.096   6.954
 1228SOL     OW 4582   3.539   3.113   0.517
 1228SOL    HW1 4583   3.529   3.014   0.516
 1228SOL    HW2 4584   3.616   3.138   0.575
 1229SOL     OW 4585   1.852   5.667   0.892
 1229SOL    HW1 4586   1.885   5.636   0.981
 1229SOL    HW2 4587   1.798   5.750   0.903
 1230SOL     OW 4588   5.706   5.577   2.458
 1230SOL    HW1 4589   5.730   5.661   2.507
 1230SOL    HW2 4590   5.786   5.517   2.454
 1231SOL     OW 4591   1.243   1.350   5.623
 1231SOL    HW1 4592   1.283   1.423   5.678
 1231SOL    HW2 4593   1.249   1.375   5.526
 1232SOL     OW 4594   5.793   1.345   5.344
 1232SOL    HW1 4595   5.756   1.392   5.264
 1232SOL    HW2 4596   5.742   1.373   5.426
 1233SOL     OW 4597   0.337   5.746   4.903
 1233SOL    HW1 4598   0.313   5.671   4.841
 1233SOL    HW2 4599   0.268   5.754   4.975
 1234SOL     OW 4600   6.183   2.235   5.274
 1234SOL    HW1 4601   6.252   2.280   5.218
 1234SOL    HW2 4602   6.225   2.197   5.356
 1235SOL     OW 4603   6.482   4.777   0.854
 1235SOL    HW1 4604   6.435   4.863   0.872
 1235SOL    HW2 4605   6.557   4.766   0.920
 1236SOL     OW 4606   3.869   1.045   2.301
 1236SOL    HW1 4607   3.830   0.981   2.368
 1236SOL    HW2 4608   3.882   0.997   2.214
 1237SOL     OW 4609   1.317   5.406   5.335
 1237SOL    HW1 4610   1.406   5.374   5.301
 1237SOL    HW2 4611   1.249   5.333   5.324
 1238SOL     OW 4612   0.924   0.307   5.022
 1238SOL    HW1 4613   1.022   0.287   5.010
 1238SOL    HW2 4614   0.887   0.344   4.937
 1239SOL     OW 4615   6.865   6.844   5.639
 1239SOL    HW1 4616   6.931   6.769   5.631
 1239SOL    HW2 4617   6.788   6.816   5.697
 1240SOL     OW 4618   6.048   5.140   1.533
 1240SOL    HW1 4619   6.016   5.047   1.553
 1240SOL    HW2 4620   6.009   5.203   1.600
 1241SOL     OW 4621   5.841   5.030   5.065
 1241SOL    HW1 4622   5.842   5.122   5.104
 1241SOL    HW2 4623   5.919   4.978   5.102
 1242SOL     OW 4624   2.114   3.517   0.611
 1242SOL    HW1 4625   2.151   3.609   0.621
 1242SOL    HW2 4626   2.054   3.497   0.689
 1243SOL     OW 4627   0.543   1.226   4.760
 1243SOL    HW1 4628   0.603   1.217   4.680
 1243SOL    HW2 4629   0.499   1.315   4.759
 1244SOL     OW 4630   5.295   6.256   5.146
 1244SOL    HW1 4631   5.263   6.341   5.187
 1244SOL    HW2 4632   5.349   6.205   5.212
 1245SOL     OW 4633   5.835   4.759   6.994
 1245SOL    HW1 4634   5.904   4.802   6.936
 1245SOL    HW2 4635   5.756   4.819   7.002
 1246SOL     OW 4636   3.096   1.707   2.684
 1246SOL    HW1 4637   3.011   1.671   2.725
 1246SOL    HW2 4638   3.074   1.749   2.596
 1247SOL     OW 4639   5.786   0.179   5.720
 1247SOL    HW1 4640   5.727   0.144   5.648
 1247SOL    HW2 4641   5.731   0.210   5.797
 1248SOL     OW 4642   1.406   6.004   4.256
 1248SOL    HW1 4643   1.391   5.927   4.318
 1248SOL    HW2 4644   1.331   6.009   4.190
 1249SOL     OW 4645   0.315   3.339   1.375
 1249SOL    HW1 4646   0.293   3.242   1.385
 1249SOL    HW2 4647   0.405   3.357   1.414
 1250SOL     OW 4648   6.243   4.182   3.592
 1250SOL    HW1 4649   6.273   4.094   3.555
 1250SOL    HW2 4650   6.321   4.245   3.596
 1251SOL     OW 4651   1.674   1.088   3.025
 1251SOL    HW1 4652   1.575   1.101   3.028
 1251SOL    HW2 4653   1.716   1.166   2.978
 1252SOL     OW 4654   3.803   4.488   6.568
 1252SOL    HW1 4655   3.851   4.493   6.656
 1252SOL    HW2 4656   3.863   4.447   6.499
 1253SOL     OW 4657   2.283   0.809   2.557
 1253SOL    HW1 4658   2.304   0.896   2.513
 1253SOL    HW2 4659   2.356   0.744   2.537
 1254SOL     OW 4660   0.108   2.597   4.130
 1254SOL    HW1 4661   0.070   2.548   4.051
 1254SOL    HW2 4662   0.087   2.547   4.213
 1255SOL     OW 4663   5.388   2.330   6.207
 1255SOL    HW1 4664   5.388   2.274   6.125
 1255SOL    HW2 4665   5.371   2.426   6.182
 1256SOL     OW 4666   0.316   6.248   3.795
 1256SOL    HW1 4667   0.278   6.163   3.830
 1256SOL    HW2 4668   0.264   6.326   3.830
 1257SOL     OW 4669   7.015   4.908   4.203
 1257SOL    HW1 4670   6.972   4.940   4.288
 1257SOL    HW2 4671   0.060   4.977   4.169
 1258SOL     OW 4672   2.324   4.865   3.180
 1258SOL    HW1 4673   2.296   4.865   3.084
 1258SOL    HW2 4674   2.244   4.877   3.238
 1259SOL     OW 4675   3.575   6.308   4.884
 1259SOL    HW1 4676   3.592   6.216   4.921
 1259SOL    HW2 4677   3.647   6.332   4.819
 1260SOL     OW 4678   2.667   1.418   0.957
 1260SOL    HW1 4679   2.618   1.423   0.870
 1260SOL    HW2 4680   2.697   1.324   0.973
 1261SOL     OW 4681   6.907   4.843   6.983
 1261SOL    HW1 4682   6.943   4.782   6.913
 1261SOL    HW2 4683   6.893   4.935   6.945
 1262SOL     OW 4684   5.213   5.264   1.173
 1262SOL    HW1 4685   5.177   5.171   1.166
 1262SOL    HW2 4686   5.313   5.261   1.175
 1263SOL     OW 4687   6.897   2.040   1.517
 1263SOL    HW1 4688   6.978   2.011   1.568
 1263SOL    HW2 4689   6.860   2.123   1.558
 1264SOL     OW 4690   6.978   3.507   1.397
 1264SOL    HW1 4691   6.991   3.497   1.495
 1264SOL    HW2 4692   6.979   3.604   1.373
 1265SOL     OW 4693   6.030   5.228   3.469
 1265SOL    HW1 4694   5.960   5.195   3.532
 1265SOL    HW2 4695   5.989   5.241   3.378
 1266SOL     OW 4696   0.595   1.176   4.210
 1266SOL    HW1 4697   0.612   1.211   4.118
 1266SOL    HW2 4698   0.657   1.099   4.228
 1267SOL     OW 4699   5.609   6.799   1.104
 1267SOL    HW1 4700   5.673   6.752   1.165
 1267SOL    HW2 4701   5.642   6.795   1.010
 1268SOL     OW 4702   4.609   2.283   0.450
 1268SOL    HW1 4703   4.596   2.364   0.507
 1268SOL    HW2 4704   4.621   2.203   0.507
 1269SOL     OW 4705   5.820   6.380   5.719
 1269SOL    HW1 4706   5.879   6.405   5.796
 1269SOL    HW2 4707   5.741   6.329   5.753
 1270SOL     OW 4708   2.095   3.568   4.390
 1270SOL    HW1 4709   2.113   3.479   4.347
 1270SOL    HW2 4710   2.063   3.554   4.483
 1271SOL     OW 4711   3.006   1.505   3.394
 1271SOL    HW1 4712   3.048   1.513   3.483
 1271SOL    HW2 4713   3.039   1.422   3.348
 1272SOL     OW 4714   5.901   5.908   0.227
 1272SOL    HW1 4715   5.888   5.885   0.323
 1272SOL    HW2 4716   5.997   5.927   0.210
 1273SOL     OW 4717   0.705   4.392   0.105
 1273SOL    HW1 4718   0.778   4.325   0.093
 1273SOL    HW2 4719   0.727   4.453   0.181
 1274SOL     OW 4720   6.511   2.706   1.728
 1274SOL    HW1 4721   6.423   2.701   1.776
 1274SOL    HW2 4722   6.495   2.710   1.630
 1275SOL     OW 4723   3.079   1.013   4.314
 1275SOL    HW1 4724   3.079   1.006   4.215
 1275SOL    HW2 4725   3.063   0.923   4.354
 1276SOL     OW 4726   6.853   0.662   4.835
 1276SOL    HW1 4727   6.904   0.705   4.760
 1276SOL    HW2 4728   6.890   0.570   4.851
 1277SOL     OW 4729   1.180   6.549   6.140
 1277SOL    HW1 4730   1.095   6.562   6.088
 1277SOL    HW2 4731   1.168   6.471   6.202
 1278SOL     OW 4732   0.870   0.500   5.245
 1278SOL    HW1 4733   0.882   0.415   5.195
 1278SOL    HW2 4734   0.780   0.539   5.224
 1279SOL     OW 4735   3.480   5.256   0.467
 1279SOL    HW1 4736   3.417   5.186   0.501
 1279SOL    HW2 4737   3.545   5.281   0.538
 1280SOL     OW 4738   3.561   6.435   4.305
 1280SOL    HW1 4739   3.532   6.339   4.305
 1280SOL    HW2 4740   3.494   6.490   4.356
 1281SOL     OW 4741   1.757   5.984   2.798
 1281SOL    HW1 4742   1.694   6.026   2.863
 1281SOL    HW2 4743   1.851   6.010   2.818
 1282SOL     OW 4744   0.627   1.130   6.378
 1282SOL    HW1 4745   0.640   1.204   6.444
 1282SOL    HW2 4746   0.703   1.129   6.313
 1283SOL     OW 4747   5.782   2.890   4.973
 1283SOL    HW1 4748   5.873   2.864   5.003
 1283SOL    HW2 4749   5.734   2.810   4.937
 1284SOL     OW 4750   4.818   1.455   2.211
 1284SOL    HW1 4751   4.847   1.523   2.279
 1284SOL    HW2 4752   4.761   1.386   2.256
 1285SOL     OW 4753   4.958   3.168   6.705
 1285SOL    HW1 4754   4.954   3.102   6.780
 1285SOL    HW2 4755   4.900   3.246   6.726
 1286SOL     OW 4756   4.768   3.549   1.764
 1286SOL    HW1 4757   4.808   3.458   1.751
 1286SOL    HW2 4758   4.716   3.575   1.682
 1287SOL     OW 4759   5.146   4.449   5.807
 1287SOL    HW1 4760   5.178   4.392   5.883
 1287SOL    HW2 4761   5.058   4.415   5.774
 1288SOL     OW 4762   5.171   3.769   0.725
 1288SOL    HW1 4763   5.241   3.698   0.731
 1288SOL    HW2 4764   5.135   3.773   0.631
 1289SOL     OW 4765   0.712   5.854   1.882
 1289SOL    HW1 4766   0.627   5.895   1.916
 1289SOL    HW2 4767   0.788   5.917   1.896
 1290SOL     OW 4768   1.215   0.474   6.716
 1290SOL    HW1 4769   1.269   0.558   6.705
 1290SOL    HW2 4770   1.259   0.400   6.665
 1291SOL     OW 4771   0.103   3.905   5.559
 1291SOL    HW1 4772   0.154   3.991   5.559
 1291SOL    HW2 4773   0.138   3.846   5.633
 1292SOL     OW 4774   0.059   6.132   2.592
 1292SOL    HW1 4775   0.148   6.171   2.572
 1292SOL    HW2 4776   7.005   6.197   2.566
 1293SOL     OW 4777   1.418   1.476   6.685
 1293SOL    HW1 4778   1.453   1.550   6.742
 1293SOL    HW2 4779   1.466   1.475   6.597
 1294SOL     OW 4780   1.102   3.910   6.964
 1294SOL    HW1 4781   1.153   3.955   0.019
 1294SOL    HW2 4782   1.125   3.952   6.876
 1295SOL     OW 4783   0.136   3.600   2.730
 1295SOL    HW1 4784   0.107   3.511   2.693
 1295SOL    HW2 4785   0.062   3.666   2.718
 1296SOL     OW 4786   3.262   0.437   5.615
 1296SOL    HW1 4787   3.317   0.397   5.542
 1296SOL    HW2 4788   3.302   0.415   5.703
 1297SOL     OW 4789   5.531   0.622   0.825
 1297SOL    HW1 4790   5.611   0.594   0.772
 1297SOL    HW2 4791   5.448   0.603   0.773
 1298SOL     OW 4792   6.831   5.005   2.624
 1298SOL    HW1 4793   6.799   5.055   2.705
 1298SOL    HW2 4794   6.928   4.982   2.636
 1299SOL     OW 4795   0.668   3.822   3.172
 1299SOL    HW1 4796   0.671   3.889   3.246
 1299SOL    HW2 4797   0.648   3.869   3.085
 1300SOL     OW 4798   3.535   3.669   1.906
 1300SOL    HW1 4799   3.574   3.607   1.974
 1300SOL    HW2 4800   3.477   3.737   1.952
 1301SOL     OW 4801   0.006   5.311   1.894
 1301SOL    HW1 4802   6.962   5.287   1.821
 1301SOL    HW2 4803   0.039   5.405   1.881
 1302SOL     OW 4804   3.704   0.366   5.514
 1302SOL    HW1 4805   3.618   0.359   5.463
 1302SOL    HW2 4806   3.731   0.275   5.547
 1303SOL     OW 4807   4.612   1.203   1.996
 1303SOL    HW1 4808   4.695   1.161   2.032
 1303SOL    HW2 4809   4.625   1.302   1.989
 1304SOL     OW 4810   1.437   1.166   6.601
 1304SOL    HW1 4811   1.493   1.163   6.683
 1304SOL    HW2 4812   1.340   1.158   6.625
 1305SOL     OW 4813   4.408   2.897   6.891
 1305SOL    HW1 4814   4.334   2.831   6.902
 1305SOL    HW2 4815   4.371   2.990   6.897
 1306SOL     OW 4816   0.644   4.418   5.371
 1306SOL    HW1 4817   0.617   4.514   5.380
 1306SOL    HW2 4818   0.743   4.413   5.356
 1307SOL     OW 4819   0.943   3.530   5.285
 1307SOL    HW1 4820   0.873   3.552   5.217
 1307SOL    HW2 4821   1.007   3.464   5.246
 1308SOL     OW 4822   4.510   6.115   5.196
 1308SOL    HW1 4823   4.501   6.030   5.144
 1308SOL    HW2 4824   4.484   6.193   5.138
 1309SOL     OW 4825   4.729   3.058   5.230
 1309SOL    HW1 4826   4.747   3.157   5.232
 1309SOL    HW2 4827   4.734   3.022   5.324
 1310SOL     OW 4828   0.378   3.822   5.333
 1310SOL    HW1 4829   0.386   3.784   5.240
 1310SOL    HW2 4830   0.453   3.788   5.389
 1311SOL     OW 4831   0.266   0.473   4.299
 1311SOL    HW1 4832   0.215   0.478   4.213
 1311SOL    HW2 4833   0.310   0.384   4.306
 1312SOL     OW 4834   1.021   0.637   6.533
 1312SOL    HW1 4835   0.923   0.632   6.516
 1312SOL    HW2 4836   1.044   0.587   6.617
 1313SOL     OW 4837   1.633   4.231   4.266
 1313SOL    HW1 4838   1.545   4.184   4.261
 1313SOL    HW2 4839   1.643   4.291   4.187
 1314SOL     OW 4840   3.769   1.244   5.783
 1314SOL    HW1 4841   3.684   1.193   5.798
 1314SOL    HW2 4842   3.768   1.285   5.692
 1315SOL     OW 4843   0.683   0.875   0.505
 1315SOL    HW1 4844   0.655   0.811   0.577
 1315SOL    HW2 4845   0.707   0.963   0.546
 1316SOL     OW 4846   1.804   6.411   4.533
 1316SOL    HW1 4847   1.870   6.454   4.593
 1316SOL    HW2 4848   1.715   6.457   4.541
 1317SOL     OW 4849   1.759   3.840   4.980
 1317SOL    HW1 4850   1.826   3.894   4.929
 1317SOL    HW2 4851   1.670   3.847   4.934
 1318SOL     OW 4852   1.013   0.863   0.712
 1318SOL    HW1 4853   1.040   0.802   0.638
 1318SOL    HW2 4854   1.040   0.956   0.691
 1319SOL     OW 4855   0.161   0.973   6.383
 1319SOL    HW1 4856   0.088   1.002   6.321
 1319SOL    HW2 4857   0.140   1.003   6.476
 1320SOL     OW 4858   5.594   3.827   0.807
 1320SOL    HW1 4859   5.530   3.750   0.800
 1320SOL    HW2 4860   5.688   3.793   0.799
 1321SOL     OW 4861   4.376   2.477   5.787
 1321SOL    HW1 4862   4.379   2.566   5.832
 1321SOL    HW2 4863   4.388   2.405   5.855
 1322SOL     OW 4864   3.833   0.729   3.864
 1322SOL    HW1 4865   3.801   0.634   3.869
 1322SOL    HW2 4866   3.903   0.744   3.934
 1323SOL     OW 4867   4.896   1.835   5.012
 1323SOL    HW1 4868   4.837   1.755   4.999
 1323SOL    HW2 4869   4.887   1.897   4.934
 1324SOL     OW 4870   0.928   2.839   6.845
 1324SOL    HW1 4871   0.967   2.841   6.753
 1324SOL    HW2 4872   0.977   2.903   6.903
 1325SOL     OW 4873   1.886   6.711   2.191
 1325SOL    HW1 4874   1.858   6.693   2.285
 1325SOL    HW2 4875   1.807   6.738   2.136
 1326SOL     OW 4876   4.915   2.798   4.721
 1326SOL    HW1 4877   4.952   2.784   4.629
 1326SOL    HW2 4878   4.933   2.891   4.751
 1327SOL     OW 4879   1.650   4.324   1.527
 1327SOL    HW1 4880   1.671   4.257   1.599
 1327SOL    HW2 4881   1.561   4.367   1.547
 1328SOL     OW 4882   1.725   2.852   0.782
 1328SOL    HW1 4883   1.682   2.766   0.810
 1328SOL    HW2 4884   1.748   2.906   0.863
 1329SOL     OW 4885   1.296   2.492   0.870
 1329SOL    HW1 4886   1.333   2.518   0.959
 1329SOL    HW2 4887   1.198   2.510   0.868
 1330SOL     OW 4888   6.737   1.118   1.549
 1330SOL    HW1 4889   6.673   1.141   1.476
 1330SOL    HW2 4890   6.754   1.200   1.604
 1331SOL     OW 4891   4.762   2.432   2.934
 1331SOL    HW1 4892   4.762   2.463   2.839
 1331SOL    HW2 4893   4.724   2.504   2.992
 1332SOL     OW 4894   2.758   6.926   6.999
 1332SOL    HW1 4895   2.756   6.834   0.021
 1332SOL    HW2 4896   2.852   6.952   6.981
 1333SOL     OW 4897   3.489   3.574   5.386
 1333SOL    HW1 4898   3.514   3.490   5.433
 1333SOL    HW2 4899   3.399   3.562   5.342
 1334SOL     OW 4900   6.311   2.331   4.447
 1334SOL    HW1 4901   6.373   2.409   4.439
 1334SOL    HW2 4902   6.332   2.281   4.531
 1335SOL     OW 4903   2.551   1.254   3.213
 1335SOL    HW1 4904   2.592   1.198   3.141
 1335SOL    HW2 4905   2.618   1.320   3.246
 1336SOL     OW 4906   2.069   1.570   5.894
 1336SOL    HW1 4907   1.979   1.563   5.938
 1336SOL    HW2 4908   2.056   1.591   5.797
 1337SOL     OW 4909   1.565   1.393   5.155
 1337SOL    HW1 4910   1.488   1.331   5.143
 1337SOL    HW2 4911   1.597   1.390   5.250
 1338SOL     OW 4912   5.479   2.660   6.506
 1338SOL    HW1 4913   5.417   2.700   6.575
 1338SOL    HW2 4914   5.570   2.698   6.518
 1339SOL     OW 4915   0.852   1.147   7.014
 1339SOL    HW1 4916   0.851   1.124   0.093
 1339SOL    HW2 4917   0.835   1.064   6.960
 1340SOL     OW 4918   0.674   2.044   1.986
 1340SOL    HW1 4919   0.636   1.979   1.921
 1340SOL    HW2 4920   0.639   2.024   2.078
 1341SOL     OW 4921   4.593   0.460   5.734
 1341SOL    HW1 4922   4.543   0.492   5.653
 1341SOL    HW2 4923   4.685   0.433   5.707
 1342SOL     OW 4924   1.603   4.753   6.449
 1342SOL    HW1 4925   1.557   4.750   6.538
 1342SOL    HW2 4926   1.663   4.832   6.445
 1343SOL     OW 4927   4.223   5.832   2.642
 1343SOL    HW1 4928   4.312   5.804   2.606
 1343SOL    HW2 4929   4.185   5.905   2.585
 1344SOL     OW 4930   6.844   4.905   3.961
 1344SOL    HW1 4931   6.830   4.904   4.060
 1344SOL    HW2 4932   6.863   4.812   3.930
 1345SOL     OW 4933   1.553   1.459   3.021
 1345SOL    HW1 4934   1.549   1.492   3.115
 1345SOL    HW2 4935   1.464   1.420   2.996
 1346SOL     OW 4936   0.639   6.672   4.681
 1346SOL    HW1 4937   0.561   6.680   4.744
 1346SOL    HW2 4938   0.626   6.735   4.605
 1347SOL     OW 4939   6.486   6.006   4.164
 1347SOL    HW1 4940   6.391   5.975   4.149
 1347SOL    HW2 4941   6.490   6.105   4.153
 1348SOL     OW 4942   5.354   4.798   2.442
 1348SOL    HW1 4943   5.393   4.769   2.529
 1348SOL    HW2 4944   5.357   4.898   2.436
 1349SOL     OW 4945   4.850   1.963   6.608
 1349SOL    HW1 4946   4.823   1.867   6.617
 1349SOL    HW2 4947   4.946   1.968   6.579
 1350SOL     OW 4948   5.239   4.147   6.744
 1350SOL    HW1 4949   5.150   4.185   6.719
 1350SOL    HW2 4950   5.226   4.058   6.788
 1351SOL     OW 4951   6.534   2.219   3.101
 1351SOL    HW1 4952   6.472   2.270   3.041
 1351SOL    HW2 4953   6.497   2.219   3.195
 1352SOL     OW 4954   6.769   0.137   2.912
 1352SOL    HW1 4955   6.815   0.166   2.829
 1352SOL    HW2 4956   6.834   0.090   2.972
 1353SOL     OW 4957   6.959   4.032   6.041
 1353SOL    HW1 4958   6.952   3.942   6.085
 1353SOL    HW2 4959   6.868   4.064   6.016
 1354SOL     OW 4960   0.438   2.223   0.463
 1354SOL    HW1 4961   0.455   2.243   0.367
 1354SOL    HW2 4962   0.446   2.306   0.517
 1355SOL     OW 4963   0.078   2.202   5.602
 1355SOL    HW1 4964   0.013   2.167   5.669
 1355SOL    HW2 4965   0.084   2.302   5.611
 1356SOL     OW 4966   3.015   3.393   3.443
 1356SOL    HW1 4967   3.022   3.295   3.464
 1356SOL    HW2 4968   2.993   3.443   3.526
 1357SOL     OW 4969   1.236   3.985   5.488
 1357SOL    HW1 4970   1.163   3.927   5.525
 1357SOL    HW2 4971   1.321   3.932   5.484
 1358SOL     OW 4972   4.165   1.218   6.084
 1358SOL    HW1 4973   4.136   1.149   6.151
 1358SOL    HW2 4974   4.238   1.274   6.124
 1359SOL     OW 4975   6.630   4.810   1.445
 1359SOL    HW1 4976   6.586   4.896   1.471
 1359SOL    HW2 4977   6.683   4.823   1.361
 1360SOL     OW 4978   4.124   3.538   1.101
 1360SOL    HW1 4979   4.141   3.551   1.004
 1360SOL    HW2 4980   4.048   3.597   1.130
 1361SOL     OW 4981   0.410   5.941   5.575
 1361SOL    HW1 4982   0.377   5.911   5.665
 1361SOL    HW2 4983   0.376   6.033   5.556
 1362SOL     OW 4984   2.919   3.745   4.508
 1362SOL    HW1 4985   2.937   3.808   4.433
 1362SOL    HW2 4986   2.993   3.750   4.575
 1363SOL     OW 4987   6.717   5.688   3.548
 1363SOL    HW1 4988   6.793   5.751   3.564
 1363SOL    HW2 4989   6.644   5.734   3.498
 1364SOL     OW 4990   6.887   2.646   0.577
 1364SOL    HW1 4991   6.824   2.661   0.501
 1364SOL    HW2 4992   6.980   2.669   0.548
 1365SOL     OW 4993   0.983   2.952   5.666
 1365SOL    HW1 4994   1.070   2.973   5.622
 1365SOL    HW2 4995   0.908   2.993   5.614
 1366SOL     OW 4996   0.566   4.403   0.602
 1366SOL    HW1 4997   0.645   4.342   0.598
 1366SOL    HW2 4998   0.531   4.418   0.509
 1367SOL     OW 4999   1.670   5.775   2.661
 1367SOL    HW1 5000   1.639   5.704   2.725
 1367SOL    HW2 5001   1.690   5.859   2.712
 1368SOL     OW 5002   0.193   6.827   3.702
 1368SOL    HW1 5003   0.179   6.923   3.725
 1368SOL    HW2 5004   0.219   6.819   3.605
 1369SOL     OW 5005   2.091   6.985   2.507
 1369SOL    HW1 5006   2.150   0.047   2.524
 1369SOL    HW2 5007   1.997   7.008   2.531
 1370SOL     OW 5008   4.558   1.992   3.041
 1370SOL    HW1 5009   4.460   1.994   3.021
 1370SOL    HW2 5010   4.603   1.927   2.980
 1371SOL     OW 5011   5.785   1.278   4.700
 1371SOL    HW1 5012   5.823   1.194   4.662
 1371SOL    HW2 5013   5.762   1.263   4.797
 1372SOL     OW 5014   1.308   2.380   0.446
 1372SOL    HW1 5015   1.304   2.388   0.546
 1372SOL    HW2 5016   1.219   2.403   0.407
 1373SOL     OW 5017   4.215   2.419   0.540
 1373SOL    HW1 5018   4.186   2.441   0.447
 1373SOL    HW2 5019   4.313   2.438   0.549
 1374SOL     OW 5020   4.219   2.180   1.100
 1374SOL    HW1 5021   4.185   2.125   1.176
 1374SOL    HW2 5022   4.149   2.190   1.030
 1375SOL     OW 5023   0.134   6.140   6.176
 1375SOL    HW1 5024   0.120   6.164   6.272
 1375SOL    HW2 5025   0.074   6.196   6.119
 1376SOL     OW 5026   4.670   4.581   5.185
 1376SOL    HW1 5027   4.678   4.506   5.119
 1376SOL    HW2 5028   4.698   4.548   5.275
 1377SOL     OW 5029   0.805   3.798   4.840
 1377SOL    HW1 5030   0.754   3.715   4.817
 1377SOL    HW2 5031   0.864   3.780   4.919
 1378SOL     OW 5032   5.679   1.527   4.614
 1378SOL    HW1 5033   5.760   1.584   4.605
 1378SOL    HW2 5034   5.706   1.435   4.644
 1379SOL     OW 5035   3.926   6.139   3.170
 1379SOL    HW1 5036   3.947   6.172   3.262
 1379SOL    HW2 5037   4.010   6.107   3.126
 1380SOL     OW 5038   0.833   6.861   3.641
 1380SOL    HW1 5039   0.848   6.906   3.553
 1380SOL    HW2 5040   0.749   6.806   3.637
 1381SOL     OW 5041   5.956   1.729   0.928
 1381SOL    HW1 5042   5.883   1.763   0.869
 1381SOL    HW2 5043   5.982   1.637   0.898
 1382SOL     OW 5044   5.945   3.450   1.209
 1382SOL    HW1 5045   6.019   3.433   1.274
 1382SOL    HW2 5046   5.983   3.459   1.117
 1383SOL     OW 5047   0.705   0.592   2.188
 1383SOL    HW1 5048   0.701   0.655   2.265
 1383SOL    HW2 5049   0.624   0.603   2.130
 1384SOL     OW 5050   4.605   0.670   1.839
 1384SOL    HW1 5051   4.565   0.761   1.833
 1384SOL    HW2 5052   4.661   0.664   1.921
 1385SOL     OW 5053   2.940   4.752   3.549
 1385SOL    HW1 5054   3.022   4.744   3.606
 1385SOL    HW2 5055   2.862   4.711   3.596
 1386SOL     OW 5056   2.941   1.005   4.053
 1386SOL    HW1 5057   2.848   1.041   4.065
 1386SOL    HW2 5058   2.996   1.071   4.002
 1387SOL     OW 5059   3.658   5.637   2.975
 1387SOL    HW1 5060   3.629   5.559   3.030
 1387SOL    HW2 5061   3.597   5.647   2.896
 1388SOL     OW 5062   0.341   0.851   2.755
 1388SOL    HW1 5063   0.415   0.856   2.688
 1388SOL    HW2 5064   0.273   0.921   2.735
 1389SOL     OW 5065   6.422   1.377   3.811
 1389SOL    HW1 5066   6.456   1.462   3.768
 1389SOL    HW2 5067   6.472   1.361   3.896
 1390SOL     OW 5068   6.224   2.468   5.900
 1390SOL    HW1 5069   6.248   2.491   5.995
 1390SOL    HW2 5070   6.275   2.387   5.872
 1391SOL     OW 5071   6.337   6.973   5.145
 1391SOL    HW1 5072   6.339   6.979   5.245
 1391SOL    HW2 5073   6.247   6.940   5.115
 1392SOL     OW 5074   6.042   6.507   5.845
 1392SOL    HW1 5075   6.075   6.582   5.902
 1392SOL    HW2 5076   6.074   6.420   5.883
 1393SOL     OW 5077   6.837   4.401   6.254
 1393SOL    HW1 5078   6.830   4.301   6.263
 1393SOL    HW2 5079   6.862   4.440   6.343
 1394SOL     OW 5080   3.952   5.480   5.644
 1394SOL    HW1 5081   3.958   5.381   5.635
 1394SOL    HW2 5082   4.043   5.520   5.628
 1395SOL     OW 5083   1.549   4.690   4.882
 1395SOL    HW1 5084   1.522   4.762   4.946
 1395SOL    HW2 5085   1.593   4.731   4.802
 1396SOL     OW 5086   6.904   1.436   4.968
 1396SOL    HW1 5087   6.862   1.410   4.881
 1396SOL    HW2 5088   6.902   1.358   5.030
 1397SOL     OW 5089   0.534   6.289   4.897
 1397SOL    HW1 5090   0.620   6.271   4.849
 1397SOL    HW2 5091   0.547   6.364   4.963
 1398SOL     OW 5092   2.970   0.977   6.395
 1398SOL    HW1 5093   2.993   0.881   6.380
 1398SOL    HW2 5094   2.982   0.999   6.492
 1399SOL     OW 5095   4.015   4.973   0.566
 1399SOL    HW1 5096   3.978   4.903   0.505
 1399SOL    HW2 5097   3.947   4.995   0.637
 1400SOL     OW 5098   0.408   1.834   4.143
 1400SOL    HW1 5099   0.402   1.904   4.071
 1400SOL    HW2 5100   0.503   1.824   4.172
 1401SOL     OW 5101   6.687   6.946   4.245
 1401SOL    HW1 5102   6.707   7.004   4.324
 1401SOL    HW2 5103   6.769   6.897   4.218
 1402SOL     OW 5104   5.266   3.664   6.357
 1402SOL    HW1 5105   5.297   3.749   6.315
 1402SOL    HW2 5106   5.345   3.610   6.386
 1403SOL     OW 5107   2.637   1.768   0.730
 1403SOL    HW1 5108   2.683   1.772   0.819
 1403SOL    HW2 5109   2.674   1.840   0.670
 1404SOL     OW 5110   6.651   0.293   6.293
 1404SOL    HW1 5111   6.745   0.261   6.283
 1404SOL    HW2 5112   6.606   0.294   6.203
 1405SOL     OW 5113   2.471   3.164   0.600
 1405SOL    HW1 5114   2.481   3.153   0.698
 1405SOL    HW2 5115   2.537   3.105   0.553
 1406SOL     OW 5116   0.705   5.973   0.770
 1406SOL    HW1 5117   0.662   5.884   0.757
 1406SOL    HW2 5118   0.748   5.978   0.860
 1407SOL     OW 5119   0.823   3.550   3.772
 1407SOL    HW1 5120   0.873   3.628   3.735
 1407SOL    HW2 5121   0.780   3.575   3.859
 1408SOL     OW 5122   5.161   1.776   5.625
 1408SOL    HW1 5123   5.175   1.776   5.526
 1408SOL    HW2 5124   5.082   1.833   5.647
 1409SOL     OW 5125   0.192   0.232   5.670
 1409SOL    HW1 5126   0.288   0.207   5.663
 1409SOL    HW2 5127   0.135   0.156   5.639
 1410SOL     OW 5128   1.547   4.315   6.532
 1410SOL    HW1 5129   1.457   4.297   6.493
 1410SOL    HW2 5130   1.540   4.321   6.632
 1411SOL     OW 5131   3.279   6.595   0.503
 1411SOL    HW1 5132   3.208   6.592   0.433
 1411SOL    HW2 5133   3.363   6.553   0.468
 1412SOL     OW 5134   1.377   2.870   1.116
 1412SOL    HW1 5135   1.282   2.867   1.147
 1412SOL    HW2 5136   1.398   2.961   1.082
 1413SOL     OW 5137   2.220   1.593   4.920
 1413SOL    HW1 5138   2.187   1.653   4.846
 1413SOL    HW2 5139   2.291   1.532   4.884
 1414SOL     OW 5140   1.951   1.847   2.245
 1414SOL    HW1 5141   1.920   1.753   2.230
 1414SOL    HW2 5142   1.880   1.910   2.214
 1415SOL     OW 5143   1.982   1.193   4.881
 1415SOL    HW1 5144   1.989   1.277   4.933
 1415SOL    HW2 5145   1.921   1.129   4.927
 1416SOL     OW 5146   4.299   5.734   4.540
 1416SOL    HW1 5147   4.344   5.645   4.541
 1416SOL    HW2 5148   4.302   5.772   4.447
 1417SOL     OW 5149   2.972   2.550   0.485
 1417SOL    HW1 5150   2.921   2.631   0.456
 1417SOL    HW2 5151   3.037   2.524   0.413
 1418SOL     OW 5152   3.316   3.846   2.533
 1418SOL    HW1 5153   3.237   3.874   2.478
 1418SOL    HW2 5154   3.287   3.779   2.601
 1419SOL     OW 5155   2.898   6.015   4.014
 1419SOL    HW1 5156   2.829   6.032   3.944
 1419SOL    HW2 5157   2.895   5.919   4.043
 1420SOL     OW 5158   2.781   6.419   2.046
 1420SOL    HW1 5159   2.871   6.376   2.040
 1420SOL    HW2 5160   2.712   6.357   2.008
 1421SOL     OW 5161   2.070   4.700   3.724
 1421SOL    HW1 5162   2.031   4.639   3.655
 1421SOL    HW2 5163   2.105   4.782   3.680
 1422SOL     OW 5164   1.122   3.893   6.659
 1422SOL    HW1 5165   1.206   3.910   6.607
 1422SOL    HW2 5166   1.043   3.901   6.599
 1423SOL     OW 5167   4.665   6.517   4.408
 1423SOL    HW1 5168   4.568   6.539   4.416
 1423SOL    HW2 5169   4.690   6.511   4.311
 1424SOL     OW 5170   6.341   3.858   6.308
 1424SOL    HW1 5171   6.287   3.775   6.295
 1424SOL    HW2 5172   6.356   3.873   6.405
 1425SOL     OW 5173   1.985   5.462   5.970
 1425SOL    HW1 5174   1.984   5.373   6.015
 1425SOL    HW2 5175   2.009   5.450   5.873
 1426SOL     OW 5176   2.605   3.060   0.002
 1426SOL    HW1 5177   2.520   3.109   0.023
 1426SOL    HW2 5178   2.612   3.048   6.921
 1427SOL     OW 5179   6.851   0.068   3.702
 1427SOL    HW1 5180   6.928   0.128   3.723
 1427SOL    HW2 5181   6.812   0.093   3.614
 1428SOL     OW 5182   0.553   2.029   0.083
 1428SOL    HW1 5183   0.582   1.935   0.101
 1428SOL    HW2 5184   0.574   2.053   7.007
 1429SOL     OW 5185   5.060   1.462   6.798
 1429SOL    HW1 5186   5.103   1.550   6.776
 1429SOL    HW2 5187   5.128   1.400   6.836
 1430SOL     OW 5188   2.112   5.191   4.132
 1430SOL    HW1 5189   2.156   5.281   4.138
 1430SOL    HW2 5190   2.046   5.182   4.207
 1431SOL     OW 5191   2.652   2.120   0.060
 1431SOL    HW1 5192   2.617   2.201   0.105
 1431SOL    HW2 5193   2.742   2.140   0.021
 1432SOL     OW 5194   2.844   1.776   1.192
 1432SOL    HW1 5195   2.766   1.745   1.138
 1432SOL    HW2 5196   2.929   1.762   1.140
 1433SOL     OW 5197   4.615   0.726   5.393
 1433SOL    HW1 5198   4.680   0.725   5.316
 1433SOL    HW2 5199   4.536   0.783   5.369
 1434SOL     OW 5200   1.365   0.084   5.863
 1434SOL    HW1 5201   1.413   0.012   5.914
 1434SOL    HW2 5202   1.334   0.155   5.926
 1435SOL     OW 5203   6.807   6.703   3.515
 1435SOL    HW1 5204   6.823   6.711   3.613
 1435SOL    HW2 5205   6.717   6.662   3.499
 1436SOL     OW 5206   4.896   3.782   0.030
 1436SOL    HW1 5207   4.894   3.841   6.968
 1436SOL    HW2 5208   4.976   3.722   0.025
 1437SOL     OW 5209   3.147   1.995   5.040
 1437SOL    HW1 5210   3.132   2.091   5.019
 1437SOL    HW2 5211   3.236   1.966   5.005
 1438SOL     OW 5212   2.729   6.748   2.045
 1438SOL    HW1 5213   2.771   6.740   2.136
 1438SOL    HW2 5214   2.644   6.800   2.052
 1439SOL     OW 5215   6.482   4.974   0.459
 1439SOL    HW1 5216   6.415   4.903   0.481
 1439SOL    HW2 5217   6.442   5.064   0.475
 1440SOL     OW 5218   3.148   3.161   6.312
 1440SOL    HW1 5219   3.195   3.213   6.240
 1440SOL    HW2 5220   3.177   3.196   6.402
 1441SOL     OW 5221   6.116   2.111   4.026
 1441SOL    HW1 5222   6.069   2.024   4.043
 1441SOL    HW2 5223   6.215   2.098   4.031
 1442SOL     OW 5224   6.685   5.408   6.857
 1442SOL    HW1 5225   6.690   5.495   6.808
 1442SOL    HW2 5226   6.741   5.340   6.811
 1443SOL     OW 5227   0.665   2.859   4.147
 1443SOL    HW1 5228   0.651   2.932   4.079
 1443SOL    HW2 5229   0.693   2.900   4.234
 1444SOL     OW 5230   4.313   5.682   0.866
 1444SOL    HW1 5231   4.398   5.688   0.813
 1444SOL    HW2 5232   4.311   5.756   0.934
 1445SOL     OW 5233   0.342   3.539   2.551
 1445SOL    HW1 5234   0.263   3.567   2.605
 1445SOL    HW2 5235   0.343   3.439   2.543
 1446SOL     OW 5236   5.332   2.428   0.624
 1446SOL    HW1 5237   5.285   2.362   0.566
 1446SOL    HW2 5238   5.372   2.500   0.567
 1447SOL     OW 5239   6.077   6.899   5.530
 1447SOL    HW1 5240   6.063   6.971   5.598
 1447SOL    HW2 5241   6.045   6.812   5.565
 1448SOL     OW 5242   6.774   1.998   6.130
 1448SOL    HW1 5243   6.695   2.021   6.186
 1448SOL    HW2 5244   6.776   2.056   6.049
 1449SOL     OW 5245   0.882   0.964   0.210
 1449SOL    HW1 5246   0.820   0.900   0.256
 1449SOL    HW2 5247   0.939   0.913   0.145
 1450SOL     OW 5248   0.920   2.420   1.405
 1450SOL    HW1 5249   0.932   2.415   1.504
 1450SOL    HW2 5250   0.829   2.387   1.381
 1451SOL     OW 5251   1.763   0.451   2.051
 1451SOL    HW1 5252   1.862   0.447   2.036
 1451SOL    HW2 5253   1.722   0.516   1.987
 1452SOL     OW 5254   4.767   0.929   4.328
 1452SOL    HW1 5255   4.688   0.970   4.282
 1452SOL    HW2 5256   4.812   0.865   4.265
 1453SOL     OW 5257   6.919   4.338   5.682
 1453SOL    HW1 5258   6.960   4.251   5.711
 1453SOL    HW2 5259   6.846   4.363   5.746
 1454SOL     OW 5260   0.476   3.357   2.066
 1454SOL    HW1 5261   0.380   3.373   2.089
 1454SOL    HW2 5262   0.499   3.261   2.083
 1455SOL     OW 5263   0.767   1.076   1.734
 1455SOL    HW1 5264   0.787   1.072   1.637
 1455SOL    HW2 5265   0.704   1.151   1.752
 1456SOL     OW 5266   6.787   6.398   5.337
 1456SOL    HW1 5267   6.865   6.405   5.274
 1456SOL    HW2 5268   6.800   6.463   5.412
 1457SOL     OW 5269   1.648   6.612   1.855
 1457SOL    HW1 5270   1.596   6.550   1.796
 1457SOL    HW2 5271   1.609   6.609   1.947
 1458SOL     OW 5272   6.064   5.749   3.261
 1458SOL    HW1 5273   6.011   5.813   3.316
 1458SOL    HW2 5274   6.061   5.777   3.165
 1459SOL     OW 5275   3.036   5.588   5.748
 1459SOL    HW1 5276   2.953   5.626   5.708
 1459SOL    HW2 5277   3.061   5.641   5.829
 1460SOL     OW 5278   0.849   6.020   5.297
 1460SOL    HW1 5279   0.856   5.929   5.257
 1460SOL    HW2 5280   0.857   6.012   5.397
 1461SOL     OW 5281   6.498   5.422   2.982
 1461SOL    HW1 5282   6.563   5.482   2.934
 1461SOL    HW2 5283   6.518   5.423   3.080
 1462SOL     OW 5284   1.473   0.010   6.637
 1462SOL    HW1 5285   1.398   6.963   6.637
 1462SOL    HW2 5286   1.557   6.982   6.667
 1463SOL     OW 5287   6.873   6.246   6.747
 1463SOL    HW1 5288   6.863   6.316   6.678
 1463SOL    HW2 5289   6.813   6.266   6.825
 1464SOL     OW 5290   0.267   0.281   1.151
 1464SOL    HW1 5291   0.261   0.259   1.248
 1464SOL    HW2 5292   0.358   0.257   1.117
 1465SOL     OW 5293   1.469   1.199   3.345
 1465SOL    HW1 5294   1.503   1.108   3.319
 1465SOL    HW2 5295   1.540   1.246   3.398
 1466SOL     OW 5296   1.558   1.829   2.263
 1466SOL    HW1 5297   1.588   1.823   2.168
 1466SOL    HW2 5298   1.620   1.888   2.314
 1467SOL     OW 5299   1.844   2.047   2.882
 1467SOL    HW1 5300   1.791   1.968   2.912
 1467SOL    HW2 5301   1.786   2.107   2.827
 1468SOL     OW 5302   4.614   5.951   2.247
 1468SOL    HW1 5303   4.527   5.999   2.252
 1468SOL    HW2 5304   4.678   6.004   2.192
 1469SOL     OW 5305   0.930   1.657   1.378
 1469SOL    HW1 5306   0.862   1.596   1.421
 1469SOL    HW2 5307   0.990   1.603   1.319
 1470SOL     OW 5308   1.271   1.760   2.618
 1470SOL    HW1 5309   1.266   1.681   2.556
 1470SOL    HW2 5310   1.183   1.809   2.617
 1471SOL     OW 5311   1.260   0.152   1.347
 1471SOL    HW1 5312   1.270   0.170   1.445
 1471SOL    HW2 5313   1.216   0.231   1.304
 1472SOL     OW 5314   3.795   5.833   5.895
 1472SOL    HW1 5315   3.732   5.891   5.843
 1472SOL    HW2 5316   3.827   5.882   5.975
 1473SOL     OW 5317   4.740   6.187   4.815
 1473SOL    HW1 5318   4.641   6.198   4.830
 1473SOL    HW2 5319   4.763   6.090   4.818
 1474SOL     OW 5320   5.430   5.190   2.152
 1474SOL    HW1 5321   5.343   5.238   2.166
 1474SOL    HW2 5322   5.505   5.256   2.155
 1475SOL     OW 5323   6.402   0.149   2.255
 1475SOL    HW1 5324   6.337   0.196   2.314
 1475SOL    HW2 5325   6.445   0.216   2.193
 1476SOL     OW 5326   2.730   1.131   1.163
 1476SOL    HW1 5327   2.717   1.042   1.207
 1476SOL    HW2 5328   2.822   1.165   1.181
 1477SOL     OW 5329   3.945   6.979   6.369
 1477SOL    HW1 5330   3.887   6.951   6.446
 1477SOL    HW2 5331   3.941   0.060   6.359
 1478SOL     OW 5332   6.407   5.631   6.737
 1478SOL    HW1 5333   6.322   5.625   6.790
 1478SOL    HW2 5334   6.480   5.663   6.797
 1479SOL     OW 5335   1.928   2.277   0.277
 1479SOL    HW1 5336   1.980   2.196   0.248
 1479SOL    HW2 5337   1.966   2.358   0.233
 1480SOL     OW 5338   3.320   0.669   5.393
 1480SOL    HW1 5339   3.317   0.643   5.490
 1480SOL    HW2 5340   3.365   0.596   5.341
 1481SOL     OW 5341   6.686   2.571   5.724
 1481SOL    HW1 5342   6.712   2.530   5.636
 1481SOL    HW2 5343   6.651   2.663   5.709
 1482SOL     OW 5344   4.516   1.930   1.227
 1482SOL    HW1 5345   4.568   1.881   1.297
 1482SOL    HW2 5346   4.421   1.899   1.228
 1483SOL     OW 5347   5.243   1.653   0.262
 1483SOL    HW1 5348   5.303   1.652   0.342
 1483SOL    HW2 5349   5.220   1.748   0.240
 1484SOL     OW 5350   5.982   4.560   4.208
 1484SOL    HW1 5351   6.006   4.513   4.293
 1484SOL    HW2 5352   5.913   4.629   4.227
 1485SOL     OW 5353   3.612   1.367   3.277
 1485SOL    HW1 5354   3.581   1.462   3.272
 1485SOL    HW2 5355   3.619   1.329   3.185
 1486SOL     OW 5356   5.258   1.862   2.556
 1486SOL    HW1 5357   5.334   1.827   2.611
 1486SOL    HW2 5358   5.231   1.951   2.591
 1487SOL     OW 5359   6.854   2.227   6.448
 1487SOL    HW1 5360   6.836   2.246   6.545
 1487SOL    HW2 5361   6.786   2.162   6.414
 1488SOL     OW 5362   4.855   1.161   3.668
 1488SOL    HW1 5363   4.876   1.078   3.721
 1488SOL    HW2 5364   4.810   1.228   3.726
 1489SOL     OW 5365   4.330   5.498   4.753
 1489SOL    HW1 5366   4.343   5.572   4.818
 1489SOL    HW2 5367   4.403   5.500   4.685
 1490SOL     OW 5368   1.105   3.096   2.127
 1490SOL    HW1 5369   1.043   3.018   2.140
 1490SOL    HW2 5370   1.053   3.181   2.127
 1491SOL     OW 5371   6.595   3.847   2.989
 1491SOL    HW1 5372   6.535   3.782   2.941
 1491SOL    HW2 5373   6.647   3.900   2.922
 1492SOL     OW 5374   5.817   0.796   2.563
 1492SOL    HW1 5375   5.812   0.767   2.467
 1492SOL    HW2 5376   5.825   0.895   2.567
 1493SOL     OW 5377   4.036   6.106   4.964
 1493SOL    HW1 5378   4.120   6.052   4.972
 1493SOL    HW2 5379   3.957   6.049   4.982
 1494SOL     OW 5380   5.088   2.121   6.256
 1494SOL    HW1 5381   5.155   2.159   6.193
 1494SOL    HW2 5382   5.076   2.183   6.334
 1495SOL     OW 5383   6.949   3.034   4.640
 1495SOL    HW1 5384   6.955   3.089   4.723
 1495SOL    HW2 5385   6.975   3.089   4.561
 1496SOL     OW 5386   0.508   1.720   1.209
 1496SOL    HW1 5387   0.489   1.621   1.212
 1496SOL    HW2 5388   0.570   1.739   1.133
 1497SOL     OW 5389   6.263   2.963   2.964
 1497SOL    HW1 5390   6.203   2.966   3.044
 1497SOL    HW2 5391   6.358   2.952   2.994
 1498SOL     OW 5392   1.848   5.024   6.786
 1498SOL    HW1 5393   1.875   5.117   6.761
 1498SOL    HW2 5394   1.827   4.972   6.704
 1499SOL     OW 5395   0.988   2.460   6.412
 1499SOL    HW1 5396   0.907   2.517   6.401
 1499SOL    HW2 5397   1.059   2.490   6.348
 1500SOL     OW 5398   0.047   6.983   6.777
 1500SOL    HW1 5399   0.027   0.030   6.704
 1500SOL    HW2 5400   7.008   7.002   6.856
 1501SOL     OW 5401   5.282   2.843   6.647
 1501SOL    HW1 5402   5.194   2.798   6.664
 1501SOL    HW2 5403   5.283   2.881   6.554
 1502SOL     OW 5404   4.240   0.016   0.612
 1502SOL    HW1 5405   4.167   0.066   0.565
 1502SOL    HW2 5406   4.323   0.071   0.611
 1503SOL     OW 5407   0.384   3.753   1.224
 1503SOL    HW1 5408   0.319   3.757   1.147
 1503SOL    HW2 5409   0.349   3.690   1.293
 1504SOL     OW 5410   0.796   0.533   5.522
 1504SOL    HW1 5411   0.864   0.492   5.584
 1504SOL    HW2 5412   0.796   0.483   5.435
 1505SOL     OW 5413   5.594   0.962   5.815
 1505SOL    HW1 5414   5.631   0.876   5.781
 1505SOL    HW2 5415   5.537   0.944   5.895
 1506SOL     OW 5416   0.667   6.617   0.821
 1506SOL    HW1 5417   0.699   6.672   0.898
 1506SOL    HW2 5418   0.661   6.521   0.849
 1507SOL     OW 5419   0.991   1.839   5.318
 1507SOL    HW1 5420   0.900   1.809   5.291
 1507SOL    HW2 5421   1.058   1.769   5.294
 1508SOL     OW 5422   6.994   1.096   1.873
 1508SOL    HW1 5423   6.936   1.175   1.890
 1508SOL    HW2 5424   6.952   1.015   1.915
 1509SOL     OW 5425   3.867   1.799   5.891
 1509SOL    HW1 5426   3.910   1.758   5.810
 1509SOL    HW2 5427   3.918   1.773   5.973
 1510SOL     OW 5428   4.354   2.079   4.790
 1510SOL    HW1 5429   4.338   2.154   4.854
 1510SOL    HW2 5430   4.266   2.040   4.763
 1511SOL     OW 5431   3.603   3.277   2.078
 1511SOL    HW1 5432   3.658   3.247   2.156
 1511SOL    HW2 5433   3.544   3.202   2.049
 1512SOL     OW 5434   0.158   5.417   1.617
 1512SOL    HW1 5435   0.238   5.365   1.588
 1512SOL    HW2 5436   0.159   5.429   1.716
 1513SOL     OW 5437   3.567   0.748   3.860
 1513SOL    HW1 5438   3.663   0.746   3.887
 1513SOL    HW2 5439   3.558   0.721   3.764
 1514SOL     OW 5440   4.522   2.122   5.765
 1514SOL    HW1 5441   4.436   2.071   5.771
 1514SOL    HW2 5442   4.509   2.213   5.806
 1515SOL     OW 5443   5.876   2.368   3.312
 1515SOL    HW1 5444   5.832   2.338   3.397
 1515SOL    HW2 5445   5.862   2.466   3.300
 1516SOL     OW 5446   6.632   6.796   0.075
 1516SOL    HW1 5447   6.646   6.877   0.131
 1516SOL    HW2 5448   6.555   6.811   0.013
 1517SOL     OW 5449   4.459   6.240   3.297
 1517SOL    HW1 5450   4.382   6.287   3.253
 1517SOL    HW2 5451   4.457   6.143   3.273
 1518SOL     OW 5452   1.131   2.643   0.042
 1518SOL    HW1 5453   1.114   2.626   6.963
 1518SOL    HW2 5454   1.171   2.735   0.053
 1519SOL     OW 5455   6.565   5.065   1.502
 1519SOL    HW1 5456   6.631   5.138   1.489
 1519SOL    HW2 5457   6.473   5.098   1.482
 1520SOL     OW 5458   0.426   3.797   1.826
 1520SOL    HW1 5459   0.523   3.794   1.849
 1520SOL    HW2 5460   0.402   3.715   1.772
 1521SOL     OW 5461   1.757   3.932   6.095
 1521SOL    HW1 5462   1.775   3.984   6.012
 1521SOL    HW2 5463   1.840   3.923   6.149
 1522SOL     OW 5464   6.323   6.468   5.595
 1522SOL    HW1 5465   6.253   6.396   5.589
 1522SOL    HW2 5466   6.363   6.483   5.505
 1523SOL     OW 5467   5.181   5.502   1.044
 1523SOL    HW1 5468   5.279   5.522   1.048
 1523SOL    HW2 5469   5.165   5.407   1.070
 1524SOL     OW 5470   2.198   1.828   2.077
 1524SOL    HW1 5471   2.162   1.829   2.170
 1524SOL    HW2 5472   2.174   1.913   2.031
 1525SOL     OW 5473   6.610   2.346   0.236
 1525SOL    HW1 5474   6.696   2.392   0.257
 1525SOL    HW2 5475   6.625   2.247   0.232
 1526SOL     OW 5476   6.364   6.863   6.363
 1526SOL    HW1 5477   6.370   6.905   6.454
 1526SOL    HW2 5478   6.378   6.934   6.293
 1527SOL     OW 5479   3.047   1.347   5.263
 1527SOL    HW1 5480   3.104   1.322   5.341
 1527SOL    HW2 5481   3.039   1.269   5.201
 1528SOL     OW 5482   4.964   5.777   2.297
 1528SOL    HW1 5483   4.976   5.870   2.263
 1528SOL    HW2 5484   4.997   5.771   2.391
 1529SOL     OW 5485   3.611   0.646   0.451
 1529SOL    HW1 5486   3.683   0.601   0.398
 1529SOL    HW2 5487   3.526   0.594   0.442
 1530SOL     OW 5488   3.683   1.652   2.271
 1530SOL    HW1 5489   3.607   1.705   2.308
 1530SOL    HW2 5490   3.758   1.713   2.248
 1531SOL     OW 5491   4.592   1.244   5.023
 1531SOL    HW1 5492   4.558   1.183   5.094
 1531SOL    HW2 5493   4.663   1.198   4.970
 1532SOL     OW 5494   2.701   3.204   5.920
 1532SOL    HW1 5495   2.642   3.131   5.886
 1532SOL    HW2 5496   2.650   3.261   5.984
 1533SOL     OW 5497   5.977   3.681   6.770
 1533SOL    HW1 5498   5.912   3.610   6.745
 1533SOL    HW2 5499   5.942   3.770   6.740
 1534SOL     OW 5500   2.269   4.735   6.457
 1534SOL    HW1 5501   2.264   4.662   6.526
 1534SOL    HW2 5502   2.239   4.699   6.369
 1535SOL     OW 5503   5.083   6.444   3.433
 1535SOL    HW1 5504   5.029   6.360   3.429
 1535SOL    HW2 5505   5.174   6.424   3.470
 1536SOL     OW 5506   4.134   4.574   5.285
 1536SOL    HW1 5507   4.200   4.528   5.225
 1536SOL    HW2 5508   4.059   4.512   5.307
 1537SOL     OW 5509   4.313   6.773   3.394
 1537SOL    HW1 5510   4.366   6.785   3.478
 1537SOL    HW2 5511   4.237   6.710   3.411
 1538SOL     OW 5512   4.087   5.585   6.148
 1538SOL    HW1 5513   4.123   5.528   6.222
 1538SOL    HW2 5514   4.090   5.533   6.062
 1539SOL     OW 5515   3.923   4.175   1.655
 1539SOL    HW1 5516   3.927   4.088   1.704
 1539SOL    HW2 5517   3.842   4.226   1.684
 1540SOL     OW 5518   1.691   5.496   5.934
 1540SOL    HW1 5519   1.676   5.589   5.969
 1540SOL    HW2 5520   1.786   5.470   5.948
 1541SOL     OW 5521   4.044   3.343   3.107
 1541SOL    HW1 5522   4.046   3.249   3.140
 1541SOL    HW2 5523   3.949   3.371   3.092
 1542SOL     OW 5524   5.951   5.844   1.983
 1542SOL    HW1 5525   6.022   5.830   2.052
 1542SOL    HW2 5526   5.942   5.762   1.927
 1543SOL     OW 5527   3.791   4.671   5.294
 1543SOL    HW1 5528   3.824   4.587   5.336
 1543SOL    HW2 5529   3.789   4.744   5.362
 1544SOL     OW 5530   3.411   3.228   3.018
 1544SOL    HW1 5531   3.373   3.139   3.044
 1544SOL    HW2 5532   3.389   3.246   2.922
 1545SOL     OW 5533   4.726   0.620   3.991
 1545SOL    HW1 5534   4.628   0.633   4.003
 1545SOL    HW2 5535   4.764   0.698   3.941
 1546SOL     OW 5536   3.869   6.008   6.112
 1546SOL    HW1 5537   3.921   5.985   6.194
 1546SOL    HW2 5538   3.930   6.051   6.046
 1547SOL     OW 5539   1.429   3.376   3.267
 1547SOL    HW1 5540   1.488   3.455   3.287
 1547SOL    HW2 5541   1.451   3.338   3.178
 1548SOL     OW 5542   5.044   3.837   5.745
 1548SOL    HW1 5543   5.105   3.820   5.822
 1548SOL    HW2 5544   4.996   3.752   5.722
 1549SOL     OW 5545   4.783   1.105   2.855
 1549SOL    HW1 5546   4.873   1.091   2.894
 1549SOL    HW2 5547   4.763   1.033   2.788
 1550SOL     OW 5548   3.070   4.204   0.059
 1550SOL    HW1 5549   3.071   4.292   0.106
 1550SOL    HW2 5550   2.981   4.161   0.070
 1551SOL     OW 5551   2.062   4.598   5.956
 1551SOL    HW1 5552   2.096   4.512   5.916
 1551SOL    HW2 5553   1.976   4.581   6.004
 1552SOL     OW 5554   0.037   6.661   6.905
 1552SOL    HW1 5555   0.123   6.686   6.950
 1552SOL    HW2 5556   6.998   6.610   6.969
 1553SOL     OW 5557   6.968   1.392   5.603
 1553SOL    HW1 5558   6.975   1.387   5.702
 1553SOL    HW2 5559   6.982   1.302   5.563
 1554SOL     OW 5560   4.584   1.257   2.938
 1554SOL    HW1 5561   4.657   1.196   2.906
 1554SOL    HW2 5562   4.595   1.347   2.895
 1555SOL     OW 5563   5.369   1.869   6.766
 1555SOL    HW1 5564   5.344   1.950   6.820
 1555SOL    HW2 5565   5.324   1.874   6.677
 1556SOL     OW 5566   3.247   1.091   1.088
 1556SOL    HW1 5567   3.308   1.137   1.153
 1556SOL    HW2 5568   3.181   1.035   1.138
 1557SOL     OW 5569   1.703   1.144   6.246
 1557SOL    HW1 5570   1.676   1.234   6.211
 1557SOL    HW2 5571   1.729   1.152   6.342
 1558SOL     OW 5572   5.195   0.638   4.762
 1558SOL    HW1 5573   5.186   0.621   4.664
 1558SOL    HW2 5574   5.236   0.728   4.776
 1559SOL     OW 5575   6.958   2.872   6.679
 1559SOL    HW1 5576   0.010   2.810   6.713
 1559SOL    HW2 5577   6.921   2.925   6.755
 1560SOL     OW 5578   2.202   1.949   5.900
 1560SOL    HW1 5579   2.266   1.919   5.829
 1560SOL    HW2 5580   2.204   1.885   5.976
 1561SOL     OW 5581   6.282   6.344   4.584
 1561SOL    HW1 5582   6.216   6.283   4.628
 1561SOL    HW2 5583   6.326   6.296   4.508
 1562SOL     OW 5584   3.809   5.865   2.937
 1562SOL    HW1 5585   3.755   5.784   2.915
 1562SOL    HW2 5586   3.772   5.908   3.019
 1563SOL     OW 5587   2.257   0.381   6.186
 1563SOL    HW1 5588   2.164   0.408   6.160
 1563SOL    HW2 5589   2.252   0.306   6.252
 1564SOL     OW 5590   1.119   2.911   3.060
 1564SOL    HW1 5591   1.129   3.009   3.044
 1564SOL    HW2 5592   1.063   2.897   3.142
 1565SOL     OW 5593   4.241   5.049   4.767
 1565SOL    HW1 5594   4.180   4.987   4.816
 1565SOL    HW2 5595   4.314   4.996   4.724
 1566SOL     OW 5596   5.116   5.362   3.509
 1566SOL    HW1 5597   5.200   5.312   3.491
 1566SOL    HW2 5598   5.061   5.367   3.426
 1567SOL     OW 5599   5.936   5.987   6.880
 1567SOL    HW1 5600   5.902   6.001   6.973
 1567SOL    HW2 5601   5.862   5.952   6.823
 1568SOL     OW 5602   1.860   5.656   1.373
 1568SOL    HW1 5603   1.852   5.746   1.417
 1568SOL    HW2 5604   1.794   5.593   1.414
 1569SOL     OW 5605   3.045   6.608   3.609
 1569SOL    HW1 5606   3.018   6.601   3.513
 1569SOL    HW2 5607   3.143   6.588   3.617
 1570SOL     OW 5608   2.043   6.643   1.046
 1570SOL    HW1 5609   1.983   6.638   0.966
 1570SOL    HW2 5610   2.038   6.557   1.096
 1571SOL     OW 5611   5.929   1.315   2.307
 1571SOL    HW1 5612   5.958   1.411   2.302
 1571SOL    HW2 5613   6.006   1.256   2.283
 1572SOL     OW 5614   0.835   6.940   0.683
 1572SOL    HW1 5615   0.793   6.984   0.763
 1572SOL    HW2 5616   0.911   6.883   0.713
 1573SOL     OW 5617   6.207   3.655   1.976
 1573SOL    HW1 5618   6.273   3.614   2.039
 1573SOL    HW2 5619   6.183   3.747   2.007
 1574SOL     OW 5620   0.362   1.002   3.270
 1574SOL    HW1 5621   0.311   0.941   3.209
 1574SOL    HW2 5622   0.359   0.965   3.363
 1575SOL     OW 5623   3.159   2.092   0.752
 1575SOL    HW1 5624   3.085   2.056   0.808
 1575SOL    HW2 5625   3.242   2.039   0.767
 1576SOL     OW 5626   0.631   0.734   3.161
 1576SOL    HW1 5627   0.551   0.725   3.101
 1576SOL    HW2 5628   0.714   0.730   3.107
 1577SOL     OW 5629   2.625   0.553   5.283
 1577SOL    HW1 5630   2.656   0.506   5.366
 1577SOL    HW2 5631   2.684   0.528   5.207
 1578SOL     OW 5632   5.570   2.600   5.882
 1578SOL    HW1 5633   5.669   2.605   5.868
 1578SOL    HW2 5634   5.524   2.651   5.809
 1579SOL     OW 5635   0.680   1.849   2.473
 1579SOL    HW1 5636   0.620   1.919   2.513
 1579SOL    HW2 5637   0.757   1.894   2.427
 1580SOL     OW 5638   2.985   3.913   4.271
 1580SOL    HW1 5639   3.024   3.990   4.322
 1580SOL    HW2 5640   3.001   3.926   4.173
 1581SOL     OW 5641   6.841   4.444   5.454
 1581SOL    HW1 5642   6.903   4.441   5.375
 1581SOL    HW2 5643   6.886   4.401   5.532
 1582SOL     OW 5644   1.993   0.036   3.971
 1582SOL    HW1 5645   2.060   0.070   4.037
 1582SOL    HW2 5646   2.040   6.993   3.906
 1583SOL     OW 5647   1.144   4.988   3.392
 1583SOL    HW1 5648   1.071   4.922   3.411
 1583SOL    HW2 5649   1.195   5.005   3.476
 1584SOL     OW 5650   1.517   6.127   6.451
 1584SOL    HW1 5651   1.548   6.220   6.435
 1584SOL    HW2 5652   1.421   6.128   6.480
 1585SOL     OW 5653   5.233   1.264   3.387
 1585SOL    HW1 5654   5.278   1.195   3.444
 1585SOL    HW2 5655   5.289   1.281   3.306
 1586SOL     OW 5656   3.575   4.931   2.165
 1586SOL    HW1 5657   3.592   4.859   2.098
 1586SOL    HW2 5658   3.510   4.997   2.128
 1587SOL     OW 5659   3.343   5.488   6.304
 1587SOL    HW1 5660   3.435   5.450   6.293
 1587SOL    HW2 5661   3.331   5.565   6.241
 1588SOL     OW 5662   4.088   0.750   2.937
 1588SOL    HW1 5663   4.026   0.673   2.952
 1588SOL    HW2 5664   4.155   0.754   3.010
 1589SOL     OW 5665   6.394   3.301   1.806
 1589SOL    HW1 5666   6.397   3.223   1.743
 1589SOL    HW2 5667   6.305   3.304   1.852
 1590SOL     OW 5668   4.034   6.110   5.655
 1590SOL    HW1 5669   4.057   6.020   5.691
 1590SOL    HW2 5670   3.953   6.103   5.597
 1591SOL     OW 5671   6.874   5.505   2.309
 1591SOL    HW1 5672   6.875   5.603   2.289
 1591SOL    HW2 5673   6.948   5.483   2.372
 1592SOL     OW 5674   2.128   3.984   6.703
 1592SOL    HW1 5675   2.120   3.915   6.775
 1592SOL    HW2 5676   2.040   4.029   6.690
 1593SOL     OW 5677   1.574   6.393   5.173
 1593SOL    HW1 5678   1.543   6.298   5.173
 1593SOL    HW2 5679   1.599   6.420   5.266
 1594SOL     OW 5680   0.195   6.045   2.121
 1594SOL    HW1 5681   0.183   6.145   2.118
 1594SOL    HW2 5682   0.292   6.024   2.115
 1595SOL     OW 5683   1.285   5.765   0.518
 1595SOL    HW1 5684   1.374   5.754   0.475
 1595SOL    HW2 5685   1.255   5.677   0.557
 1596SOL     OW 5686   0.416   2.624   3.901
 1596SOL    HW1 5687   0.357   2.600   3.979
 1596SOL    HW2 5688   0.414   2.723   3.886
 1597SOL     OW 5689   1.561   6.124   0.465
 1597SOL    HW1 5690   1.593   6.050   0.525
 1597SOL    HW2 5691   1.496   6.087   0.399
 1598SOL     OW 5692   0.653   3.968   6.097
 1598SOL    HW1 5693   0.690   3.963   6.004
 1598SOL    HW2 5694   0.713   4.023   6.155
 1599SOL     OW 5695   4.990   4.835   5.326
 1599SOL    HW1 5696   4.944   4.831   5.236
 1599SOL    HW2 5697   5.014   4.742   5.355
 1600SOL     OW 5698   4.293   1.252   3.395
 1600SOL    HW1 5699   4.357   1.254   3.317
 1600SOL    HW2 5700   4.317   1.177   3.456
 1601SOL     OW 5701   6.873   4.605   4.675
 1601SOL    HW1 5702   6.830   4.601   4.584
 1601SOL    HW2 5703   6.847   4.691   4.720
 1602SOL     OW 5704   3.550   5.080   3.439
 1602SOL    HW1 5705   3.465   5.128   3.414
 1602SOL    HW2 5706   3.574   5.017   3.365
 1603SOL     OW 5707   0.896   6.164   3.057
 1603SOL    HW1 5708   0.980   6.156   3.110
 1603SOL    HW2 5709   0.839   6.083   3.071
 1604SOL     OW 5710   5.311   4.718   1.589
 1604SOL    HW1 5711   5.281   4.657   1.663
 1604SOL    HW2 5712   5.338   4.663   1.510
 1605SOL     OW 5713   6.327   5.597   1.471
 1605SOL    HW1 5714   6.398   5.530   1.494
 1605SOL    HW2 5715   6.338   5.625   1.376
 1606SOL     OW 5716   3.274   0.986   5.081
 1606SOL    HW1 5717   3.306   0.968   5.174
 1606SOL    HW2 5718   3.224   0.906   5.048
 1607SOL     OW 5719   4.454   0.806   1.153
 1607SOL    HW1 5720   4.509   0.775   1.230
 1607SOL    HW2 5721   4.390   0.877   1.183
 1608SOL     OW 5722   0.952   0.810   3.369
 1608SOL    HW1 5723   0.892   0.817   3.290
 1608SOL    HW2 5724   1.021   0.739   3.353
 1609SOL     OW 5725   3.981   0.058   0.439
 1609SOL    HW1 5726   3.967   6.979   0.460
 1609SOL    HW2 5727   3.967   0.074   0.342
 1610SOL     OW 5728   6.074   4.843   6.856
 1610SOL    HW1 5729   6.147   4.865   6.791
 1610SOL    HW2 5730   6.088   4.894   6.940
 1611SOL     OW 5731   2.045   3.459   1.047
 1611SOL    HW1 5732   1.977   3.415   1.105
 1611SOL    HW2 5733   2.127   3.480   1.101
 1612SOL     OW 5734   2.520   0.157   6.029
 1612SOL    HW1 5735   2.555   0.096   6.100
 1612SOL    HW2 5736   2.424   0.136   6.011
 1613SOL     OW 5737   1.957   5.430   1.735
 1613SOL    HW1 5738   2.054   5.451   1.747
 1613SOL    HW2 5739   1.936   5.420   1.638
 1614SOL     OW 5740   6.058   3.295   0.162
 1614SOL    HW1 5741   5.959   3.287   0.171
 1614SOL    HW2 5742   6.093   3.215   0.112
 1615SOL     OW 5743   5.816   4.937   0.962
 1615SOL    HW1 5744   5.849   4.904   0.873
 1615SOL    HW2 5745   5.843   4.873   1.034
 1616SOL     OW 5746   2.947   0.772   5.007
 1616SOL    HW1 5747   2.951   0.851   4.946
 1616SOL    HW2 5748   2.864   0.777   5.063
 1617SOL     OW 5749   5.798   0.216   2.552
 1617SOL    HW1 5750   5.846   0.288   2.601
 1617SOL    HW2 5751   5.822   0.127   2.590
 1618SOL     OW 5752   1.799   4.134   2.043
 1618SOL    HW1 5753   1.892   4.104   2.021
 1618SOL    HW2 5754   1.773   4.099   2.133
 1619SOL     OW 5755   1.400   3.411   1.993
 1619SOL    HW1 5756   1.316   3.456   2.023
 1619SOL    HW2 5757   1.451   3.380   2.073
 1620SOL     OW 5758   2.721   4.834   1.887
 1620SOL    HW1 5759   2.781   4.851   1.809
 1620SOL    HW2 5760   2.754   4.753   1.937
 1621SOL     OW 5761   0.038   1.024   0.189
 1621SOL    HW1 5762   0.121   1.079   0.190
 1621SOL    HW2 5763   0.049   0.947   0.252
 1622SOL     OW 5764   0.440   2.963   4.755
 1622SOL    HW1 5765   0.517   3.004   4.802
 1622SOL    HW2 5766   0.465   2.943   4.660
 1623SOL     OW 5767   2.096   3.018   4.912
 1623SOL    HW1 5768   2.075   3.095   4.852
 1623SOL    HW2 5769   2.194   3.017   4.932
 1624SOL     OW 5770   2.655   0.515   4.832
 1624SOL    HW1 5771   2.709   0.455   4.773
 1624SOL    HW2 5772   2.610   0.584   4.776
 1625SOL     OW 5773   0.924   5.513   1.023
 1625SOL    HW1 5774   0.920   5.432   0.965
 1625SOL    HW2 5775   0.837   5.563   1.016
 1626SOL     OW 5776   4.345   1.976   6.618
 1626SOL    HW1 5777   4.384   2.049   6.674
 1626SOL    HW2 5778   4.396   1.969   6.532
 1627SOL     OW 5779   6.495   4.071   3.166
 1627SOL    HW1 5780   6.534   4.012   3.095
 1627SOL    HW2 5781   6.465   4.157   3.126
 1628SOL     OW 5782   4.797   4.351   0.200
 1628SOL    HW1 5783   4.745   4.279   0.247
 1628SOL    HW2 5784   4.878   4.374   0.253
 1629SOL     OW 5785   2.756   0.666   3.788
 1629SOL    HW1 5786   2.716   0.582   3.751
 1629SOL    HW2 5787   2.764   0.658   3.887
 1630SOL     OW 5788   1.784   5.120   5.620
 1630SOL    HW1 5789   1.687   5.120   5.644
 1630SOL    HW2 5790   1.803   5.196   5.558
 1631SOL     OW 5791   1.125   2.512   6.778
 1631SOL    HW1 5792   1.090   2.433   6.728
 1631SOL    HW2 5793   1.100   2.596   6.729
 1632SOL     OW 5794   0.000   1.981   0.104
 1632SOL    HW1 5795   0.084   2.034   0.120
 1632SOL    HW2 5796   6.947   2.042   0.070
 1633SOL     OW 5797   5.298   3.420   4.513
 1633SOL    HW1 5798   5.319   3.515   4.537
 1633SOL    HW2 5799   5.329   3.402   4.420
 1634SOL     OW 5800   4.460   5.394   5.175
 1634SOL    HW1 5801   4.501   5.442   5.253
 1634SOL    HW2 5802   4.377   5.441   5.147
 1635SOL     OW 5803   0.099   5.574   5.928
 1635SOL    HW1 5804   0.096   5.647   5.996
 1635SOL    HW2 5805   0.011   5.568   5.881
 1636SOL     OW 5806   2.989   4.361   1.605
 1636SOL    HW1 5807   2.960   4.412   1.686
 1636SOL    HW2 5808   2.994   4.264   1.626
 1637SOL     OW 5809   1.102   1.014   2.905
 1637SOL    HW1 5810   1.146   1.004   2.816
 1637SOL    HW2 5811   1.060   1.105   2.911
 1638SOL     OW 5812   0.737   4.338   3.178
 1638SOL    HW1 5813   0.824   4.288   3.178
 1638SOL    HW2 5814   0.736   4.402   3.101
 1639SOL     OW 5815   5.266   0.054   2.483
 1639SOL    HW1 5816   5.174   0.059   2.521
 1639SOL    HW2 5817   5.327   0.114   2.534
 1640SOL     OW 5818   5.781   1.403   0.700
 1640SOL    HW1 5819   5.705   1.381   0.760
 1640SOL    HW2 5820   5.773   1.350   0.615
 1641SOL     OW 5821   4.765   2.758   3.343
 1641SOL    HW1 5822   4.709   2.675   3.351
 1641SOL    HW2 5823   4.755   2.813   3.426
 1642SOL     OW 5824   5.832   3.469   6.401
 1642SOL    HW1 5825   5.840   3.463   6.301
 1642SOL    HW2 5826   5.819   3.565   6.427
 1643SOL     OW 5827   2.979   4.863   4.489
 1643SOL    HW1 5828   2.961   4.898   4.397
 1643SOL    HW2 5829   2.899   4.815   4.523
 1644SOL     OW 5830   6.629   3.389   0.862
 1644SOL    HW1 5831   6.613   3.487   0.875
 1644SOL    HW2 5832   6.721   3.366   0.892
 1645SOL     OW 5833   3.048   5.953   5.599
 1645SOL    HW1 5834   2.967   5.900   5.573
 1645SOL    HW2 5835   3.129   5.914   5.556
 1646SOL     OW 5836   3.042   5.912   0.288
 1646SOL    HW1 5837   2.978   5.836   0.286
 1646SOL    HW2 5838   3.047   5.948   0.381
 1647SOL     OW 5839   6.048   3.336   4.700
 1647SOL    HW1 5840   6.115   3.328   4.626
 1647SOL    HW2 5841   5.968   3.279   4.681
 1648SOL     OW 5842   5.338   5.180   0.817
 1648SOL    HW1 5843   5.428   5.147   0.789
 1648SOL    HW2 5844   5.302   5.241   0.747
 1649SOL     OW 5845   2.906   0.770   4.195
 1649SOL    HW1 5846   2.847   0.721   4.130
 1649SOL    HW2 5847   2.910   0.867   4.169
 1650SOL     OW 5848   2.128   6.242   5.567
 1650SOL    HW1 5849   2.200   6.288   5.619
 1650SOL    HW2 5850   2.069   6.310   5.524
 1651SOL     OW 5851   0.471   1.987   1.243
 1651SOL    HW1 5852   0.473   1.887   1.237
 1651SOL    HW2 5853   0.380   2.019   1.214
 1652SOL     OW 5854   0.814   4.133   2.336
 1652SOL    HW1 5855   0.835   4.038   2.357
 1652SOL    HW2 5856   0.866   4.193   2.397
 1653SOL     OW 5857   1.622   0.207   1.344
 1653SOL    HW1 5858   1.562   0.127   1.348
 1653SOL    HW2 5859   1.572   0.288   1.375
 1654SOL     OW 5860   0.161   3.318   1.136
 1654SOL    HW1 5861   0.239   3.314   1.198
 1654SOL    HW2 5862   0.081   3.275   1.178
 1655SOL     OW 5863   6.491   2.234   5.275
 1655SOL    HW1 5864   6.499   2.236   5.175
 1655SOL    HW2 5865   6.463   2.143   5.305
 1656SOL     OW 5866   2.280   4.439   1.954
 1656SOL    HW1 5867   2.243   4.391   2.033
 1656SOL    HW2 5868   2.316   4.528   1.982
 1657SOL     OW 5869   6.967   1.277   3.751
 1657SOL    HW1 5870   6.939   1.185   3.723
 1657SOL    HW2 5871   6.890   1.340   3.741
 1658SOL     OW 5872   1.088   6.953   1.390
 1658SOL    HW1 5873   1.138   0.011   1.347
 1658SOL    HW2 5874   1.117   6.944   1.485
 1659SOL     OW 5875   3.387   0.291   5.816
 1659SOL    HW1 5876   3.444   0.320   5.893
 1659SOL    HW2 5877   3.419   0.202   5.783
 1660SOL     OW 5878   1.327   5.453   4.283
 1660SOL    HW1 5879   1.320   5.372   4.224
 1660SOL    HW2 5880   1.259   5.447   4.356
 1661SOL     OW 5881   2.481   0.921   2.138
 1661SOL    HW1 5882   2.457   0.908   2.042
 1661SOL    HW2 5883   2.581   0.918   2.148
 1662SOL     OW 5884   6.799   0.426   4.118
 1662SOL    HW1 5885   6.860   0.393   4.046
 1662SOL    HW2 5886   6.718   0.368   4.122
 1663SOL     OW 5887   4.300   6.067   2.286
 1663SOL    HW1 5888   4.291   6.166   2.278
 1663SOL    HW2 5889   4.286   6.025   2.196
 1664SOL     OW 5890   1.616   6.799   4.549
 1664SOL    HW1 5891   1.617   6.824   4.453
 1664SOL    HW2 5892   1.708   6.773   4.578
 1665SOL     OW 5893   6.897   1.799   3.044
 1665SOL    HW1 5894   6.805   1.783   3.081
 1665SOL    HW2 5895   6.947   1.860   3.106
 1666SOL     OW 5896   5.346   2.570   6.934
 1666SOL    HW1 5897   5.418   2.639   6.928
 1666SOL    HW2 5898   5.365   2.509   7.011
 1667SOL     OW 5899   6.890   6.124   1.605
 1667SOL    HW1 5900   6.922   6.218   1.599
 1667SOL    HW2 5901   6.852   6.108   1.697
 1668SOL     OW 5902   5.334   6.081   5.612
 1668SOL    HW1 5903   5.431   6.057   5.616
 1668SOL    HW2 5904   5.279   6.005   5.647
 1669SOL     OW 5905   0.398   5.915   6.504
 1669SOL    HW1 5906   0.307   5.936   6.539
 1669SOL    HW2 5907   0.440   5.843   6.560
 1670SOL     OW 5908   0.167   3.613   5.979
 1670SOL    HW1 5909   0.139   3.697   5.932
 1670SOL    HW2 5910   0.200   3.636   6.071
 1671SOL     OW 5911   5.001   1.554   1.336
 1671SOL    HW1 5912   4.926   1.490   1.316
 1671SOL    HW2 5913   4.977   1.645   1.304
 1672SOL     OW 5914   1.825   3.025   0.979
 1672SOL    HW1 5915   1.916   3.005   1.016
 1672SOL    HW2 5916   1.758   3.025   1.053
 1673SOL     OW 5917   0.434   2.374   4.670
 1673SOL    HW1 5918   0.448   2.422   4.757
 1673SOL    HW2 5919   0.520   2.333   4.641
 1674SOL     OW 5920   0.338   3.659   2.301
 1674SOL    HW1 5921   0.409   3.728   2.287
 1674SOL    HW2 5922   0.324   3.645   2.399
 1675SOL     OW 5923   4.218   0.301   6.392
 1675SOL    HW1 5924   4.122   0.277   6.382
 1675SOL    HW2 5925   4.237   0.322   6.488
 1676SOL     OW 5926   2.122   2.111   2.026
 1676SOL    HW1 5927   2.097   2.163   1.944
 1676SOL    HW2 5928   2.155   2.174   2.097
 1677SOL     OW 5929   3.193   3.218   5.295
 1677SOL    HW1 5930   3.122   3.188   5.231
 1677SOL    HW2 5931   3.283   3.207   5.254
 1678SOL     OW 5932   4.656   4.366   4.546
 1678SOL    HW1 5933   4.560   4.392   4.551
 1678SOL    HW2 5934   4.706   4.435   4.492
 1679SOL     OW 5935   2.469   2.300   4.221
 1679SOL    HW1 5936   2.497   2.283   4.315
 1679SOL    HW2 5937   2.488   2.395   4.197
 1680SOL     OW 5938   0.013   3.673   4.894
 1680SOL    HW1 5939   6.965   3.709   4.959
 1680SOL    HW2 5940   6.984   3.616   4.827
 1681SOL     OW 5941   6.557   5.801   0.150
 1681SOL    HW1 5942   6.467   5.837   0.125
 1681SOL    HW2 5943   6.558   5.778   0.248
 1682SOL     OW 5944   1.075   0.819   4.544
 1682SOL    HW1 5945   1.167   0.781   4.550
 1682SOL    HW2 5946   1.041   0.838   4.636
 1683SOL     OW 5947   4.666   5.400   1.423
 1683SOL    HW1 5948   4.617   5.483   1.447
 1683SOL    HW2 5949   4.659   5.334   1.499
 1684SOL     OW 5950   1.720   6.146   2.564
 1684SOL    HW1 5951   1.747   6.094   2.645
 1684SOL    HW2 5952   1.794   6.142   2.496
 1685SOL     OW 5953   2.286   0.638   5.580
 1685SOL    HW1 5954   2.252   0.655   5.488
 1685SOL    HW2 5955   2.350   0.561   5.578
 1686SOL     OW 5956   2.786   5.678   4.852
 1686SOL    HW1 5957   2.872   5.628   4.846
 1686SOL    HW2 5958   2.789   5.757   4.791
 1687SOL     OW 5959   2.312   3.748   1.303
 1687SOL    HW1 5960   2.263   3.756   1.390
 1687SOL    HW2 5961   2.362   3.833   1.286
 1688SOL     OW 5962   2.156   2.240   4.538
 1688SOL    HW1 5963   2.181   2.336   4.525
 1688SOL    HW2 5964   2.099   2.230   4.620
 1689SOL     OW 5965   5.728   1.652   2.820
 1689SOL    HW1 5966   5.716   1.599   2.904
 1689SOL    HW2 5967   5.785   1.600   2.755
 1690SOL     OW 5968   1.555   2.780   3.812
 1690SOL    HW1 5969   1.598   2.701   3.856
 1690SOL    HW2 5970   1.490   2.823   3.875
 1691SOL     OW 5971   6.204   3.582   2.773
 1691SOL    HW1 5972   6.123   3.619   2.818
 1691SOL    HW2 5973   6.224   3.635   2.691
 1692SOL     OW 5974   5.913   6.776   1.658
 1692SOL    HW1 5975   5.823   6.732   1.661
 1692SOL    HW2 5976   5.923   6.825   1.572
 1693SOL     OW 5977   0.694   2.636   1.577
 1693SOL    HW1 5978   0.769   2.657   1.640
 1693SOL    HW2 5979   0.677   2.538   1.577
 1694SOL     OW 5980   5.244   0.662   3.204
 1694SOL    HW1 5981   5.338   0.629   3.199
 1694SOL    HW2 5982   5.192   0.605   3.269
 1695SOL     OW 5983   3.211   1.774   6.175
 1695SOL    HW1 5984   3.301   1.817   6.167
 1695SOL    HW2 5985   3.178   1.750   6.084
 1696SOL     OW 5986   4.662   4.414   0.599
 1696SOL    HW1 5987   4.630   4.334   0.649
 1696SOL    HW2 5988   4.587   4.480   0.592
 1697SOL     OW 5989   5.998   6.489   1.254
 1697SOL    HW1 5990   6.029   6.513   1.346
 1697SOL    HW2 5991   6.074   6.451   1.201
 1698SOL     OW 5992   4.003   0.579   6.909
 1698SOL    HW1 5993   3.941   0.637   6.856
 1698SOL    HW2 5994   4.072   0.636   6.953
 1699SOL     OW 5995   2.104   0.843   0.588
 1699SOL    HW1 5996   2.076   0.842   0.492
 1699SOL    HW2 5997   2.032   0.801   0.643
 1700SOL     OW 5998   5.546   2.535   3.365
 1700SOL    HW1 5999   5.504   2.460   3.416
 1700SOL    HW2 6000   5.500   2.545   3.277
 1701SOL     OW 6001   5.008   4.226   6.596
 1701SOL    HW1 6002   4.932   4.165   6.618
 1701SOL    HW2 6003   4.993   4.267   6.506
 1702SOL     OW 6004   6.781   2.690   0.308
 1702SOL    HW1 6005   6.843   2.630   0.258
 1702SOL    HW2 6006   6.688   2.656   0.298
 1703SOL     OW 6007   3.232   2.874   2.120
 1703SOL    HW1 6008   3.246   2.853   2.024
 1703SOL    HW2 6009   3.154   2.936   2.129
 1704SOL     OW 6010   1.062   2.320   1.181
 1704SOL    HW1 6011   1.067   2.383   1.104
 1704SOL    HW2 6012   0.985   2.343   1.239
 1705SOL     OW 6013   3.696   1.798   1.798
 1705SOL    HW1 6014   3.754   1.831   1.873
 1705SOL    HW2 6015   3.724   1.842   1.713
 1706SOL     OW 6016   4.967   0.987   2.104
 1706SOL    HW1 6017   4.992   0.902   2.151
 1706SOL    HW2 6018   5.040   1.054   2.116
 1707SOL     OW 6019   5.569   1.828   2.396
 1707SOL    HW1 6020   5.558   1.778   2.310
 1707SOL    HW2 6021   5.538   1.923   2.383
 1708SOL     OW 6022   5.153   5.318   2.268
 1708SOL    HW1 6023   5.062   5.302   2.230
 1708SOL    HW2 6024   5.197   5.393   2.218
 1709SOL     OW 6025   3.205   5.296   1.692
 1709SOL    HW1 6026   3.236   5.322   1.784
 1709SOL    HW2 6027   3.159   5.207   1.696
 1710SOL     OW 6028   5.086   5.397   3.873
 1710SOL    HW1 6029   5.053   5.491   3.878
 1710SOL    HW2 6030   5.094   5.369   3.778
 1711SOL     OW 6031   0.404   4.651   4.248
 1711SOL    HW1 6032   0.366   4.742   4.236
 1711SOL    HW2 6033   0.484   4.640   4.189
 1712SOL     OW 6034   7.012   2.871   6.005
 1712SOL    HW1 6035   6.936   2.892   5.944
 1712SOL    HW2 6036   6.984   2.889   6.100
 1713SOL     OW 6037   4.606   2.097   1.809
 1713SOL    HW1 6038   4.543   2.140   1.873
 1713SOL    HW2 6039   4.680   2.161   1.787
 1714SOL     OW 6040   3.544   1.870   5.575
 1714SOL    HW1 6041   3.474   1.824   5.521
 1714SOL    HW2 6042   3.527   1.969   5.574
 1715SOL     OW 6043   0.257   4.985   3.083
 1715SOL    HW1 6044   0.167   4.951   3.055
 1715SOL    HW2 6045   0.327   4.943   3.025
 1716SOL     OW 6046   4.296   6.600   3.029
 1716SOL    HW1 6047   4.363   6.610   2.955
 1716SOL    HW2 6048   4.294   6.683   3.083
 1717SOL     OW 6049   2.541   6.502   5.928
 1717SOL    HW1 6050   2.526   6.600   5.930
 1717SOL    HW2 6051   2.503   6.463   5.844
 1718SOL     OW 6052   2.411   1.930   1.274
 1718SOL    HW1 6053   2.407   1.897   1.368
 1718SOL    HW2 6054   2.444   2.024   1.272
 1719SOL     OW 6055   1.923   3.439   0.808
 1719SOL    HW1 6056   1.861   3.363   0.793
 1719SOL    HW2 6057   1.991   3.414   0.877
 1720SOL     OW 6058   0.447   2.380   6.810
 1720SOL    HW1 6059   0.433   2.477   6.831
 1720SOL    HW2 6060   0.545   2.361   6.806
 1721SOL     OW 6061   1.249   6.294   1.609
 1721SOL    HW1 6062   1.176   6.359   1.630
 1721SOL    HW2 6063   1.282   6.310   1.516
 1722SOL     OW 6064   3.940   2.170   4.006
 1722SOL    HW1 6065   3.983   2.149   4.093
 1722SOL    HW2 6066   3.841   2.182   4.019
 1723SOL     OW 6067   6.470   2.620   2.626
 1723SOL    HW1 6068   6.396   2.633   2.559
 1723SOL    HW2 6069   6.465   2.527   2.663
 1724SOL     OW 6070   6.675   2.670   0.744
 1724SOL    HW1 6071   6.714   2.671   0.836
 1724SOL    HW2 6072   6.746   2.644   0.678
 1725SOL     OW 6073   2.124   4.579   0.072
 1725SOL    HW1 6074   2.136   4.484   0.102
 1725SOL    HW2 6075   2.212   4.626   0.077
 1726SOL     OW 6076   5.228   4.231   5.485
 1726SOL    HW1 6077   5.201   4.217   5.581
 1726SOL    HW2 6078   5.170   4.175   5.426
 1727SOL     OW 6079   3.921   3.408   4.294
 1727SOL    HW1 6080   3.995   3.396   4.361
 1727SOL    HW2 6081   3.856   3.333   4.302
 1728SOL     OW 6082   4.714   4.812   5.469
 1728SOL    HW1 6083   4.698   4.715   5.451
 1728SOL    HW2 6084   4.757   4.823   5.558
 1729SOL     OW 6085   2.229   4.072   2.778
 1729SOL    HW1 6086   2.211   4.065   2.680
 1729SOL    HW2 6087   2.285   4.153   2.797
 1730SOL     OW 6088   1.003   6.703   5.986
 1730SOL    HW1 6089   0.920   6.745   5.948
 1730SOL    HW2 6090   1.072   6.696   5.914
 1731SOL     OW 6091   0.003   4.218   2.288
 1731SOL    HW1 6092   6.980   4.299   2.245
 1731SOL    HW2 6093   0.017   4.148   2.218
 1732SOL     OW 6094   2.413   5.184   5.484
 1732SOL    HW1 6095   2.469   5.113   5.442
 1732SOL    HW2 6096   2.318   5.175   5.453
 1733SOL     OW 6097   1.706   3.946   1.692
 1733SOL    HW1 6098   1.781   3.883   1.713
 1733SOL    HW2 6099   1.725   4.035   1.734
 1734SOL     OW 6100   4.776   3.285   1.446
 1734SOL    HW1 6101   4.684   3.251   1.466
 1734SOL    HW2 6102   4.839   3.207   1.436
 1735SOL     OW 6103   5.302   5.984   0.747
 1735SOL    HW1 6104   5.394   6.000   0.710
 1735SOL    HW2 6105   5.263   5.903   0.704
 1736SOL     OW 6106   3.784   3.125   0.627
 1736SOL    HW1 6107   3.883   3.138   0.618
 1736SOL    HW2 6108   3.752   3.175   0.707
 1737SOL     OW 6109   2.087   1.516   4.555
 1737SOL    HW1 6110   2.114   1.612   4.558
 1737SOL    HW2 6111   1.987   1.510   4.551
 1738SOL     OW 6112   2.379   2.135   3.646
 1738SOL    HW1 6113   2.297   2.078   3.647
 1738SOL    HW2 6114   2.403   2.157   3.552
 1739SOL     OW 6115   6.812   2.353   5.522
 1739SOL    HW1 6116   6.895   2.404   5.545
 1739SOL    HW2 6117   6.837   2.262   5.489
 1740SOL     OW 6118   6.633   1.534   5.870
 1740SOL    HW1 6119   6.689   1.527   5.788
 1740SOL    HW2 6120   6.668   1.472   5.940
 1741SOL     OW 6121   1.964   0.762   3.880
 1741SOL    HW1 6122   1.895   0.830   3.853
 1741SOL    HW2 6123   2.040   0.764   3.815
 1742SOL     OW 6124   5.303   0.834   6.289
 1742SOL    HW1 6125   5.225   0.889   6.321
 1742SOL    HW2 6126   5.270   0.761   6.230
 1743SOL     OW 6127   1.346   2.666   1.693
 1743SOL    HW1 6128   1.339   2.764   1.712
 1743SOL    HW2 6129   1.268   2.637   1.638
 1744SOL     OW 6130   0.106   1.737   2.509
 1744SOL    HW1 6131   0.104   1.768   2.605
 1744SOL    HW2 6132   0.172   1.792   2.458
 1745SOL     OW 6133   6.327   6.456   3.136
 1745SOL    HW1 6134   6.379   6.541   3.124
 1745SOL    HW2 6135   6.390   6.380   3.154
 1746SOL     OW 6136   1.939   5.133   4.502
 1746SOL    HW1 6137   1.980   5.086   4.579
 1746SOL    HW2 6138   1.980   5.224   4.493
 1747SOL     OW 6139   5.722   2.265   2.824
 1747SOL    HW1 6140   5.663   2.289   2.746
 1747SOL    HW2 6141   5.817   2.258   2.794
 1748SOL     OW 6142   0.903   0.443   4.508
 1748SOL    HW1 6143   0.917   0.476   4.602
 1748SOL    HW2 6144   0.990   0.406   4.473
 1749SOL     OW 6145   3.076   0.004   4.576
 1749SOL    HW1 6146   3.029   0.001   4.488
 1749SOL    HW2 6147   3.140   0.081   4.577
 1750SOL     OW 6148   5.259   6.666   3.845
 1750SOL    HW1 6149   5.239   6.744   3.904
 1750SOL    HW2 6150   5.298   6.699   3.759
 1751SOL     OW 6151   4.261   5.944   5.087
 1751SOL    HW1 6152   4.326   5.970   5.015
 1751SOL    HW2 6153   4.282   5.852   5.118
 1752SOL     OW 6154   7.015   2.366   1.473
 1752SOL    HW1 6155   6.993   2.463   1.465
 1752SOL    HW2 6156   6.934   2.316   1.506
 1753SOL     OW 6157   0.297   1.086   0.518
 1753SOL    HW1 6158   0.293   1.075   0.419
 1753SOL    HW2 6159   0.204   1.094   0.554
 1754SOL     OW 6160   2.177   3.962   1.039
 1754SOL    HW1 6161   2.255   4.025   1.038
 1754SOL    HW2 6162   2.092   4.015   1.039
 1755SOL     OW 6163   6.725   6.171   2.085
 1755SOL    HW1 6164   6.698   6.261   2.121
 1755SOL    HW2 6165   6.796   6.132   2.143
 1756SOL     OW 6166   4.656   5.159   6.454
 1756SOL    HW1 6167   4.619   5.152   6.362
 1756SOL    HW2 6168   4.581   5.172   6.519
 1757SOL     OW 6169   2.666   5.262   4.623
 1757SOL    HW1 6170   2.715   5.184   4.583
 1757SOL    HW2 6171   2.681   5.343   4.566
 1758SOL     OW 6172   1.636   0.410   4.220
 1758SOL    HW1 6173   1.694   0.433   4.142
 1758SOL    HW2 6174   1.582   0.491   4.246
 1759SOL     OW 6175   1.919   5.447   6.252
 1759SOL    HW1 6176   1.919   5.537   6.294
 1759SOL    HW2 6177   1.986   5.444   6.178
 1760SOL     OW 6178   5.870   2.097   3.122
 1760SOL    HW1 6179   5.847   2.059   3.033
 1760SOL    HW2 6180   5.789   2.095   3.181
 1761SOL     OW 6181   0.687   0.476   0.386
 1761SOL    HW1 6182   0.587   0.478   0.385
 1761SOL    HW2 6183   0.718   0.381   0.393
 1762SOL     OW 6184   0.094   1.516   5.108
 1762SOL    HW1 6185   0.053   1.465   5.033
 1762SOL    HW2 6186   0.033   1.592   5.134
 1763SOL     OW 6187   1.310   3.669   3.591
 1763SOL    HW1 6188   1.226   3.660   3.538
 1763SOL    HW2 6189   1.347   3.761   3.580
 1764SOL     OW 6190   2.084   3.711   2.374
 1764SOL    HW1 6191   2.159   3.691   2.310
 1764SOL    HW2 6192   1.998   3.716   2.323
 1765SOL     OW 6193   3.648   1.076   1.104
 1765SOL    HW1 6194   3.648   1.126   1.191
 1765SOL    HW2 6195   3.723   1.010   1.103
 1766SOL     OW 6196   5.012   3.827   2.958
 1766SOL    HW1 6197   4.958   3.788   2.883
 1766SOL    HW2 6198   4.996   3.926   2.963
 1767SOL     OW 6199   0.358   3.492   3.352
 1767SOL    HW1 6200   0.425   3.566   3.345
 1767SOL    HW2 6201   0.404   3.404   3.348
 1768SOL     OW 6202   4.263   1.493   5.671
 1768SOL    HW1 6203   4.266   1.536   5.762
 1768SOL    HW2 6204   4.170   1.496   5.636
 1769SOL     OW 6205   4.162   2.705   5.769
 1769SOL    HW1 6206   4.138   2.774   5.701
 1769SOL    HW2 6207   4.250   2.728   5.810
 1770SOL     OW 6208   6.603   5.060   4.529
 1770SOL    HW1 6209   6.585   5.153   4.561
 1770SOL    HW2 6210   6.699   5.052   4.501
 1771SOL     OW 6211   2.317   4.816   0.110
 1771SOL    HW1 6212   2.409   4.838   0.141
 1771SOL    HW2 6213   2.250   4.856   0.173
 1772SOL     OW 6214   3.345   6.977   3.383
 1772SOL    HW1 6215   3.401   6.897   3.404
 1772SOL    HW2 6216   3.375   7.017   3.297
 1773SOL     OW 6217   3.399   3.887   6.739
 1773SOL    HW1 6218   3.479   3.897   6.797
 1773SOL    HW2 6219   3.325   3.945   6.775
 1774SOL     OW 6220   4.423   0.414   1.798
 1774SOL    HW1 6221   4.497   0.475   1.770
 1774SOL    HW2 6222   4.461   0.328   1.832
 1775SOL     OW 6223   1.377   5.685   4.158
 1775SOL    HW1 6224   1.470   5.672   4.123
 1775SOL    HW2 6225   1.343   5.599   4.195
 1776SOL     OW 6226   3.803   0.862   5.621
 1776SOL    HW1 6227   3.889   0.816   5.642
 1776SOL    HW2 6228   3.747   0.868   5.704
 1777SOL     OW 6229   3.090   5.519   5.466
 1777SOL    HW1 6230   3.095   5.535   5.565
 1777SOL    HW2 6231   3.169   5.562   5.422
 1778SOL     OW 6232   4.217   2.289   4.526
 1778SOL    HW1 6233   4.261   2.318   4.611
 1778SOL    HW2 6234   4.271   2.322   4.448
 1779SOL     OW 6235   4.319   2.036   4.174
 1779SOL    HW1 6236   4.296   1.940   4.155
 1779SOL    HW2 6237   4.235   2.087   4.193
 1780SOL     OW 6238   2.171   4.881   5.624
 1780SOL    HW1 6239   2.259   4.833   5.624
 1780SOL    HW2 6240   2.184   4.974   5.656
 1781SOL     OW 6241   4.546   5.532   3.391
 1781SOL    HW1 6242   4.641   5.503   3.400
 1781SOL    HW2 6243   4.509   5.554   3.481
 1782SOL     OW 6244   3.001   1.720   3.058
 1782SOL    HW1 6245   3.063   1.726   2.980
 1782SOL    HW2 6246   3.047   1.676   3.134
 1783SOL     OW 6247   1.857   2.989   6.759
 1783SOL    HW1 6248   1.905   3.073   6.786
 1783SOL    HW2 6249   1.923   2.924   6.721
 1784SOL     OW 6250   2.667   0.805   3.390
 1784SOL    HW1 6251   2.614   0.844   3.465
 1784SOL    HW2 6252   2.752   0.766   3.426
 1785SOL     OW 6253   5.176   5.768   3.686
 1785SOL    HW1 6254   5.246   5.735   3.748
 1785SOL    HW2 6255   5.189   5.865   3.669
 1786SOL     OW 6256   1.633   2.942   0.549
 1786SOL    HW1 6257   1.708   2.996   0.511
 1786SOL    HW2 6258   1.661   2.904   0.637
 1787SOL     OW 6259   1.890   1.211   4.597
 1787SOL    HW1 6260   1.790   1.219   4.599
 1787SOL    HW2 6261   1.922   1.228   4.504
 1788SOL     OW 6262   2.825   3.382   0.133
 1788SOL    HW1 6263   2.735   3.361   0.095
 1788SOL    HW2 6264   2.830   3.349   0.227
 1789SOL     OW 6265   6.552   2.259   2.177
 1789SOL    HW1 6266   6.570   2.169   2.215
 1789SOL    HW2 6267   6.457   2.284   2.195
 1790SOL     OW 6268   4.003   5.942   4.291
 1790SOL    HW1 6269   4.048   5.937   4.202
 1790SOL    HW2 6270   4.037   5.869   4.350
 1791SOL     OW 6271   0.364   2.260   4.987
 1791SOL    HW1 6272   0.422   2.331   4.949
 1791SOL    HW2 6273   0.290   2.239   4.923
 1792SOL     OW 6274   0.894   1.986   4.399
 1792SOL    HW1 6275   0.872   1.905   4.454
 1792SOL    HW2 6276   0.906   1.959   4.304
 1793SOL     OW 6277   6.861   6.972   3.419
 1793SOL    HW1 6278   6.795   0.027   3.436
 1793SOL    HW2 6279   6.831   6.889   3.468
 1794SOL     OW 6280   4.912   6.327   6.401
 1794SOL    HW1 6281   4.913   6.423   6.373
 1794SOL    HW2 6282   4.932   6.321   6.499
 1795SOL     OW 6283   0.368   4.357   2.549
 1795SOL    HW1 6284   0.448   4.299   2.567
 1795SOL    HW2 6285   0.347   4.410   2.631
 1796SOL     OW 6286   1.830   1.507   4.732
 1796SOL    HW1 6287   1.908   1.456   4.766
 1796SOL    HW2 6288   1.798   1.570   4.803
 1797SOL     OW 6289   1.465   0.802   5.923
 1797SOL    HW1 6290   1.511   0.726   5.968
 1797SOL    HW2 6291   1.488   0.887   5.970
 1798SOL     OW 6292   4.589   2.649   5.356
 1798SOL    HW1 6293   4.628   2.726   5.306
 1798SOL    HW2 6294   4.491   2.643   5.339
 1799SOL     OW 6295   6.210   2.113   6.896
 1799SOL    HW1 6296   6.167   2.024   6.915
 1799SOL    HW2 6297   6.308   2.100   6.884
 1800SOL     OW 6298   4.596   4.726   3.781
 1800SOL    HW1 6299   4.662   4.672   3.730
 1800SOL    HW2 6300   4.642   4.805   3.821
 1801SOL     OW 6301   1.029   1.794   2.203
 1801SOL    HW1 6302   1.124   1.763   2.215
 1801SOL    HW2 6303   0.973   1.717   2.170
 1802SOL     OW 6304   5.682   5.003   2.614
 1802SOL    HW1 6305   5.604   5.027   2.672
 1802SOL    HW2 6306   5.716   4.912   2.639
 1803SOL     OW 6307   6.603   5.988   0.523
 1803SOL    HW1 6308   6.629   5.991   0.427
 1803SOL    HW2 6309   6.662   6.050   0.575
 1804SOL     OW 6310   2.935   3.021   5.869
 1804SOL    HW1 6311   2.880   3.103   5.887
 1804SOL    HW2 6312   2.886   2.941   5.901
 1805SOL     OW 6313   0.732   4.037   5.837
 1805SOL    HW1 6314   0.717   4.006   5.743
 1805SOL    HW2 6315   0.686   4.124   5.852
 1806SOL     OW 6316   1.780   1.117   1.762
 1806SOL    HW1 6317   1.740   1.107   1.671
 1806SOL    HW2 6318   1.767   1.033   1.814
 1807SOL     OW 6319   5.634   2.437   6.537
 1807SOL    HW1 6320   5.567   2.502   6.503
 1807SOL    HW2 6321   5.703   2.421   6.466
 1808SOL     OW 6322   6.510   3.891   4.797
 1808SOL    HW1 6323   6.603   3.914   4.768
 1808SOL    HW2 6324   6.513   3.807   4.851
 1809SOL     OW 6325   2.314   2.787   4.579
 1809SOL    HW1 6326   2.243   2.852   4.553
 1809SOL    HW2 6327   2.324   2.787   4.679
 1810SOL     OW 6328   2.418   0.239   5.486
 1810SOL    HW1 6329   2.438   0.305   5.558
 1810SOL    HW2 6330   2.473   0.259   5.405
 1811SOL     OW 6331   3.924   4.941   3.247
 1811SOL    HW1 6332   3.919   5.037   3.276
 1811SOL    HW2 6333   4.009   4.900   3.279
 1812SOL     OW 6334   4.729   0.222   5.976
 1812SOL    HW1 6335   4.730   0.280   5.895
 1812SOL    HW2 6336   4.693   0.274   6.054
 1813SOL     OW 6337   4.252   4.842   1.578
 1813SOL    HW1 6338   4.298   4.772   1.523
 1813SOL    HW2 6339   4.292   4.844   1.669
 1814SOL     OW 6340   6.962   0.602   6.905
 1814SOL    HW1 6341   6.967   0.696   6.872
 1814SOL    HW2 6342   6.871   0.586   6.945
 1815SOL     OW 6343   6.774   1.678   1.920
 1815SOL    HW1 6344   6.677   1.666   1.902
 1815SOL    HW2 6345   6.812   1.592   1.956
 1816SOL     OW 6346   1.648   4.381   0.905
 1816SOL    HW1 6347   1.657   4.475   0.938
 1816SOL    HW2 6348   1.738   4.345   0.883
 1817SOL     OW 6349   3.679   6.601   3.067
 1817SOL    HW1 6350   3.738   6.524   3.088
 1817SOL    HW2 6351   3.587   6.583   3.101
 1818SOL     OW 6352   2.542   5.952   1.735
 1818SOL    HW1 6353   2.485   6.033   1.749
 1818SOL    HW2 6354   2.529   5.918   1.642
 1819SOL     OW 6355   1.238   5.526   1.713
 1819SOL    HW1 6356   1.229   5.592   1.788
 1819SOL    HW2 6357   1.215   5.571   1.627
 1820SOL     OW 6358   2.494   0.370   2.479
 1820SOL    HW1 6359   2.570   0.306   2.481
 1820SOL    HW2 6360   2.426   0.340   2.412
 1821SOL     OW 6361   2.437   0.636   2.016
 1821SOL    HW1 6362   2.384   0.658   1.934
 1821SOL    HW2 6363   2.397   0.683   2.095
 1822SOL     OW 6364   1.601   3.318   0.687
 1822SOL    HW1 6365   1.695   3.285   0.691
 1822SOL    HW2 6366   1.541   3.247   0.650
 1823SOL     OW 6367   2.981   5.815   2.862
 1823SOL    HW1 6368   3.071   5.773   2.845
 1823SOL    HW2 6369   2.982   5.861   2.950
 1824SOL     OW 6370   3.518   3.512   0.903
 1824SOL    HW1 6371   3.483   3.491   0.812
 1824SOL    HW2 6372   3.454   3.479   0.972
 1825SOL     OW 6373   1.926   2.233   4.727
 1825SOL    HW1 6374   1.906   2.186   4.640
 1825SOL    HW2 6375   1.861   2.308   4.740
 1826SOL     OW 6376   3.535   1.563   1.608
 1826SOL    HW1 6377   3.467   1.526   1.671
 1826SOL    HW2 6378   3.579   1.643   1.648
 1827SOL     OW 6379   6.982   5.672   1.117
 1827SOL    HW1 6380   0.049   5.699   1.160
 1827SOL    HW2 6381   6.980   5.573   1.105
 1828SOL     OW 6382   1.980   2.303   0.523
 1828SOL    HW1 6383   1.937   2.279   0.436
 1828SOL    HW2 6384   1.947   2.392   0.552
 1829SOL     OW 6385   2.826   0.882   3.208
 1829SOL    HW1 6386   2.893   0.810   3.192
 1829SOL    HW2 6387   2.751   0.846   3.263
 1830SOL     OW 6388   5.748   6.363   3.559
 1830SOL    HW1 6389   5.775   6.276   3.600
 1830SOL    HW2 6390   5.730   6.430   3.631
 1831SOL     OW 6391   6.260   0.160   1.966
 1831SOL    HW1 6392   6.343   0.202   2.004
 1831SOL    HW2 6393   6.199   0.134   2.041
 1832SOL     OW 6394   4.339   1.463   1.113
 1832SOL    HW1 6395   4.386   1.531   1.169
 1832SOL    HW2 6396   4.394   1.380   1.108
 1833SOL     OW 6397   5.335   0.587   0.585
 1833SOL    HW1 6398   5.388   0.502   0.584
 1833SOL    HW2 6399   5.280   0.592   0.501
 1834SOL     OW 6400   2.431   3.440   0.570
 1834SOL    HW1 6401   2.406   3.495   0.649
 1834SOL    HW2 6402   2.440   3.344   0.597
 1835SOL     OW 6403   0.049   4.921   2.286
 1835SOL    HW1 6404   0.129   4.931   2.227
 1835SOL    HW2 6405   0.005   4.832   2.268
 1836SOL     OW 6406   5.186   1.576   1.514
 1836SOL    HW1 6407   5.228   1.491   1.548
 1836SOL    HW2 6408   5.117   1.553   1.445
 1837SOL     OW 6409   0.864   0.038   4.645
 1837SOL    HW1 6410   0.819   0.044   4.557
 1837SOL    HW2 6411   0.798   0.057   4.718
 1838SOL     OW 6412   6.569   1.530   5.042
 1838SOL    HW1 6413   6.666   1.517   5.062
 1838SOL    HW2 6414   6.536   1.613   5.087
 1839SOL     OW 6415   6.504   1.934   4.946
 1839SOL    HW1 6416   6.579   1.947   4.880
 1839SOL    HW2 6417   6.469   2.024   4.973
 1840SOL     OW 6418   3.953   6.836   1.411
 1840SOL    HW1 6419   3.888   6.828   1.487
 1840SOL    HW2 6420   3.904   6.835   1.325
 1841SOL     OW 6421   1.671   1.343   3.491
 1841SOL    HW1 6422   1.703   1.413   3.555
 1841SOL    HW2 6423   1.746   1.316   3.431
 1842SOL     OW 6424   1.497   5.734   0.350
 1842SOL    HW1 6425   1.478   5.832   0.342
 1842SOL    HW2 6426   1.468   5.688   0.266
 1843SOL     OW 6427   6.115   2.293   3.393
 1843SOL    HW1 6428   6.095   2.238   3.475
 1843SOL    HW2 6429   6.030   2.332   3.359
 1844SOL     OW 6430   3.254   6.637   5.145
 1844SOL    HW1 6431   3.215   6.664   5.233
 1844SOL    HW2 6432   3.296   6.547   5.154
 1845SOL     OW 6433   3.277   0.288   4.087
 1845SOL    HW1 6434   3.211   0.340   4.032
 1845SOL    HW2 6435   3.325   0.351   4.148
 1846SOL     OW 6436   3.469   1.275   1.894
 1846SOL    HW1 6437   3.480   1.310   1.987
 1846SOL    HW2 6438   3.421   1.343   1.838
 1847SOL     OW 6439   1.389   0.799   6.455
 1847SOL    HW1 6440   1.396   0.779   6.552
 1847SOL    HW2 6441   1.328   0.732   6.412
 1848SOL     OW 6442   1.807   6.302   3.769
 1848SOL    HW1 6443   1.855   6.235   3.826
 1848SOL    HW2 6444   1.758   6.255   3.696
 1849SOL     OW 6445   3.889   2.494   1.652
 1849SOL    HW1 6446   3.834   2.479   1.571
 1849SOL    HW2 6447   3.915   2.591   1.657
 1850SOL     OW 6448   0.561   2.785   2.052
 1850SOL    HW1 6449   0.495   2.793   2.126
 1850SOL    HW2 6450   0.590   2.689   2.045
 1851SOL     OW 6451   0.124   2.535   0.347
 1851SOL    HW1 6452   0.104   2.619   0.397
 1851SOL    HW2 6453   0.209   2.545   0.295
 1852SOL     OW 6454   6.659   4.732   2.805
 1852SOL    HW1 6455   6.654   4.812   2.865
 1852SOL    HW2 6456   6.586   4.737   2.737
 1853SOL     OW 6457   0.790   2.627   3.020
 1853SOL    HW1 6458   0.850   2.561   3.065
 1853SOL    HW2 6459   0.774   2.705   3.080
 1854SOL     OW 6460   2.580   5.738   2.796
 1854SOL    HW1 6461   2.660   5.760   2.741
 1854SOL    HW2 6462   2.572   5.803   2.872
 1855SOL     OW 6463   5.211   2.776   5.118
 1855SOL    HW1 6464   5.215   2.694   5.061
 1855SOL    HW2 6465   5.301   2.795   5.155
 1856SOL     OW 6466   5.947   4.196   5.763
 1856SOL    HW1 6467   6.014   4.128   5.792
 1856SOL    HW2 6468   5.907   4.240   5.843
 1857SOL     OW 6469   4.436   2.073   6.131
 1857SOL    HW1 6470   4.484   2.115   6.208
 1857SOL    HW2 6471   4.489   1.995   6.097
 1858SOL     OW 6472   5.753   4.281   3.480
 1858SOL    HW1 6473   5.844   4.263   3.518
 1858SOL    HW2 6474   5.762   4.311   3.385
 1859SOL     OW 6475   5.469   1.933   4.295
 1859SOL    HW1 6476   5.413   2.013   4.317
 1859SOL    HW2 6477   5.469   1.918   4.196
 1860SOL     OW 6478   0.072   0.753   5.497
 1860SOL    HW1 6479   0.157   0.702   5.509
 1860SOL    HW2 6480   7.017   0.710   5.550
 1861SOL     OW 6481   6.512   6.787   2.111
 1861SOL    HW1 6482   6.469   6.865   2.155
 1861SOL    HW2 6483   6.567   6.819   2.033
 1862SOL     OW 6484   3.657   0.062   6.502
 1862SOL    HW1 6485   3.582   0.048   6.567
 1862SOL    HW2 6486   3.738   0.014   6.535
 1863SOL     OW 6487   0.627   3.040   3.917
 1863SOL    HW1 6488   0.550   2.985   3.886
 1863SOL    HW2 6489   0.620   3.132   3.879
 1864SOL     OW 6490   1.594   6.727   5.210
 1864SOL    HW1 6491   1.527   6.656   5.188
 1864SOL    HW2 6492   1.549   6.799   5.263
 1865SOL     OW 6493   3.609   6.832   0.033
 1865SOL    HW1 6494   3.601   6.768   6.974
 1865SOL    HW2 6495   3.625   6.924   7.016
 1866SOL     OW 6496   5.278   4.939   3.479
 1866SOL    HW1 6497   5.275   4.873   3.554
 1866SOL    HW2 6498   5.197   4.927   3.421
 1867SOL     OW 6499   0.555   4.222   6.896
 1867SOL    HW1 6500   0.522   4.301   6.948
 1867SOL    HW2 6501   0.585   4.251   6.805
 1868SOL     OW 6502   5.022   3.041   6.255
 1868SOL    HW1 6503   4.976   3.054   6.343
 1868SOL    HW2 6504   4.992   3.112   6.191
 1869SOL     OW 6505   5.882   3.529   5.535
 1869SOL    HW1 6506   5.806   3.522   5.470
 1869SOL    HW2 6507   5.852   3.497   5.625
 1870SOL     OW 6508   1.776   2.535   4.829
 1870SOL    HW1 6509   1.725   2.450   4.822
 1870SOL    HW2 6510   1.757   2.579   4.917
 1871SOL     OW 6511   0.666   0.802   6.781
 1871SOL    HW1 6512   0.637   0.731   6.717
 1871SOL    HW2 6513   0.636   0.779   6.873
 1872SOL     OW 6514   4.253   1.863   6.857
 1872SOL    HW1 6515   4.190   1.924   6.904
 1872SOL    HW2 6516   4.272   1.899   6.765
 1873SOL     OW 6517   5.354   1.339   5.818
 1873SOL    HW1 6518   5.412   1.411   5.858
 1873SOL    HW2 6519   5.409   1.283   5.756
 1874SOL     OW 6520   2.484   1.006   0.744
 1874SOL    HW1 6521   2.531   0.968   0.823
 1874SOL    HW2 6522   2.440   1.092   0.769
 1875SOL     OW 6523   0.258   0.683   0.427
 1875SOL    HW1 6524   0.319   0.758   0.404
 1875SOL    HW2 6525   0.311   0.599   0.438
 1876SOL     OW 6526   3.507   6.223   6.050
 1876SOL    HW1 6527   3.408   6.227   6.040
 1876SOL    HW2 6528   3.532   6.140   6.100
 1877SOL     OW 6529   0.879   1.930   3.030
 1877SOL    HW1 6530   0.918   1.845   3.064
 1877SOL    HW2 6531   0.900   2.005   3.094
 1878SOL     OW 6532   6.378   3.405   4.321
 1878SOL    HW1 6533   6.405   3.501   4.315
 1878SOL    HW2 6534   6.391   3.361   4.232
 1879SOL     OW 6535   1.731   5.365   3.981
 1879SOL    HW1 6536   1.799   5.432   3.950
 1879SOL    HW2 6537   1.641   5.408   3.987
 1880SOL     OW 6538   6.049   1.049   3.895
 1880SOL    HW1 6539   6.110   1.015   3.966
 1880SOL    HW2 6540   5.957   1.064   3.933
 1881SOL     OW 6541   0.482   3.382   2.960
 1881SOL    HW1 6542   0.386   3.404   2.942
 1881SOL    HW2 6543   0.488   3.327   3.043
 1882SOL     OW 6544   1.022   4.046   0.289
 1882SOL    HW1 6545   1.018   3.952   0.321
 1882SOL    HW2 6546   1.013   4.109   0.366
 1883SOL     OW 6547   1.367   3.017   3.832
 1883SOL    HW1 6548   1.311   2.970   3.763
 1883SOL    HW2 6549   1.383   3.111   3.803
 1884SOL     OW 6550   5.804   3.002   6.946
 1884SOL    HW1 6551   5.882   3.041   6.995
 1884SOL    HW2 6552   5.822   3.001   6.848
 1885SOL     OW 6553   0.929   2.115   6.213
 1885SOL    HW1 6554   0.973   2.039   6.165
 1885SOL    HW2 6555   0.903   2.185   6.147
 1886SOL     OW 6556   2.330   0.752   1.780
 1886SOL    HW1 6557   2.397   0.778   1.709
 1886SOL    HW2 6558   2.261   0.693   1.739
 1887SOL     OW 6559   1.747   5.582   6.514
 1887SOL    HW1 6560   1.680   5.510   6.498
 1887SOL    HW2 6561   1.830   5.542   6.553
 1888SOL     OW 6562   3.060   2.531   6.801
 1888SOL    HW1 6563   3.079   2.468   6.726
 1888SOL    HW2 6564   3.032   2.479   6.882
 1889SOL     OW 6565   5.982   3.301   6.739
 1889SOL    HW1 6566   5.942   3.216   6.705
 1889SOL    HW2 6567   5.931   3.333   6.818
 1890SOL     OW 6568   1.292   5.714   4.452
 1890SOL    HW1 6569   1.322   5.695   4.358
 1890SOL    HW2 6570   1.346   5.659   4.515
 1891SOL     OW 6571   6.037   2.717   3.113
 1891SOL    HW1 6572   6.017   2.743   3.019
 1891SOL    HW2 6573   6.068   2.797   3.164
 1892SOL     OW 6574   3.035   1.217   0.493
 1892SOL    HW1 6575   2.943   1.225   0.531
 1892SOL    HW2 6576   3.101   1.260   0.555
 1893SOL     OW 6577   3.251   2.951   0.560
 1893SOL    HW1 6578   3.261   3.041   0.603
 1893SOL    HW2 6579   3.245   2.962   0.460
 1894SOL     OW 6580   3.996   3.752   3.386
 1894SOL    HW1 6581   3.993   3.780   3.290
 1894SOL    HW2 6582   4.023   3.656   3.391
 1895SOL     OW 6583   6.307   1.090   2.034
 1895SOL    HW1 6584   6.355   1.021   2.088
 1895SOL    HW2 6585   6.234   1.047   1.982
 1896SOL     OW 6586   0.026   0.555   1.558
 1896SOL    HW1 6587   6.980   0.574   1.632
 1896SOL    HW2 6588   0.035   0.457   1.545
 1897SOL     OW 6589   1.279   4.484   2.691
 1897SOL    HW1 6590   1.330   4.569   2.681
 1897SOL    HW2 6591   1.338   4.414   2.732
 1898SOL     OW 6592   3.102   4.924   2.536
 1898SOL    HW1 6593   3.202   4.925   2.540
 1898SOL    HW2 6594   3.066   4.892   2.624
 1899SOL     OW 6595   0.938   1.991   2.395
 1899SOL    HW1 6596   0.968   1.933   2.320
 1899SOL    HW2 6597   0.935   2.087   2.365
 1900SOL     OW 6598   1.420   0.453   6.387
 1900SOL    HW1 6599   1.431   0.383   6.316
 1900SOL    HW2 6600   1.352   0.520   6.357
 1901SOL     OW 6601   2.209   1.794   1.475
 1901SOL    HW1 6602   2.285   1.800   1.540
 1901SOL    HW2 6603   2.178   1.886   1.452
 1902SOL     OW 6604   2.459   2.027   4.909
 1902SOL    HW1 6605   2.515   1.952   4.944
 1902SOL    HW2 6606   2.518   2.104   4.886
 1903SOL     OW 6607   6.515   3.208   3.152
 1903SOL    HW1 6608   6.514   3.201   3.251
 1903SOL    HW2 6609   6.493   3.120   3.111
 1904SOL     OW 6610   5.832   6.438   4.934
 1904SOL    HW1 6611   5.761   6.403   4.994
 1904SOL    HW2 6612   5.790   6.489   4.858
 1905SOL     OW 6613   1.751   0.747   4.115
 1905SOL    HW1 6614   1.719   0.828   4.065
 1905SOL    HW2 6615   1.779   0.677   4.049
 1906SOL     OW 6616   2.376   0.520   4.944
 1906SOL    HW1 6617   2.348   0.487   4.853
 1906SOL    HW2 6618   2.301   0.508   5.009
 1907SOL     OW 6619   3.396   6.447   2.879
 1907SOL    HW1 6620   3.436   6.398   2.956
 1907SOL    HW2 6621   3.336   6.386   2.827
 1908SOL     OW 6622   3.529   7.004   5.315
 1908SOL    HW1 6623   3.598   6.956   5.261
 1908SOL    HW2 6624   3.574   0.031   5.393
 1909SOL     OW 6625   0.515   4.137   2.339
 1909SOL    HW1 6626   0.495   4.122   2.435
 1909SOL    HW2 6627   0.612   4.158   2.328
 1910SOL     OW 6628   6.713   2.963   6.135
 1910SOL    HW1 6629   6.657   2.921   6.063
 1910SOL    HW2 6630   6.738   3.056   6.108
 1911SOL     OW 6631   5.908   3.239   5.181
 1911SOL    HW1 6632   5.986   3.191   5.141
 1911SOL    HW2 6633   5.855   3.282   5.109
 1912SOL     OW 6634   3.015   6.549   0.934
 1912SOL    HW1 6635   2.921   6.520   0.950
 1912SOL    HW2 6636   3.032   6.553   0.835
 1913SOL     OW 6637   1.534   6.115   5.188
 1913SOL    HW1 6638   1.482   6.111   5.103
 1913SOL    HW2 6639   1.591   6.034   5.197
 1914SOL     OW 6640   3.936   3.183   6.442
 1914SOL    HW1 6641   3.858   3.229   6.483
 1914SOL    HW2 6642   3.923   3.177   6.343
 1915SOL     OW 6643   3.949   1.997   4.815
 1915SOL    HW1 6644   4.014   2.054   4.864
 1915SOL    HW2 6645   3.856   2.025   4.838
 1916SOL     OW 6646   3.893   5.725   1.429
 1916SOL    HW1 6647   3.966   5.658   1.425
 1916SOL    HW2 6648   3.825   5.706   1.358
 1917SOL     OW 6649   3.014   3.113   5.130
 1917SOL    HW1 6650   2.963   3.181   5.078
 1917SOL    HW2 6651   2.968   3.096   5.217
 1918SOL     OW 6652   0.639   0.972   5.577
 1918SOL    HW1 6653   0.731   1.003   5.604
 1918SOL    HW2 6654   0.574   1.047   5.588
 1919SOL     OW 6655   2.767   0.865   1.268
 1919SOL    HW1 6656   2.716   0.787   1.232
 1919SOL    HW2 6657   2.801   0.843   1.359
 1920SOL     OW 6658   1.764   4.487   2.402
 1920SOL    HW1 6659   1.698   4.415   2.421
 1920SOL    HW2 6660   1.728   4.575   2.435
 1921SOL     OW 6661   1.007   4.872   0.039
 1921SOL    HW1 6662   0.935   4.901   6.995
 1921SOL    HW2 6663   1.062   4.800   7.014
 1922SOL     OW 6664   1.907   4.260   0.886
 1922SOL    HW1 6665   1.947   4.294   0.972
 1922SOL    HW2 6666   1.916   4.161   0.882
 1923SOL     OW 6667   3.214   0.707   5.696
 1923SOL    HW1 6668   3.206   0.702   5.795
 1923SOL    HW2 6669   3.218   0.614   5.658
 1924SOL     OW 6670   4.415   5.665   1.202
 1924SOL    HW1 6671   4.460   5.729   1.139
 1924SOL    HW2 6672   4.484   5.618   1.257
 1925SOL     OW 6673   1.729   4.310   0.259
 1925SOL    HW1 6674   1.666   4.235   0.279
 1925SOL    HW2 6675   1.691   4.367   0.186
 1926SOL     OW 6676   2.257   0.004   3.524
 1926SOL    HW1 6677   2.335   0.064   3.506
 1926SOL    HW2 6678   2.180   0.030   3.466
 1927SOL     OW 6679   2.474   4.364   6.596
 1927SOL    HW1 6680   2.435   4.285   6.549
 1927SOL    HW2 6681   2.565   4.383   6.559
 1928SOL     OW 6682   6.472   4.433   5.872
 1928SOL    HW1 6683   6.420   4.505   5.827
 1928SOL    HW2 6684   6.493   4.460   5.965
 1929SOL     OW 6685   0.976   5.125   1.504
 1929SOL    HW1 6686   1.049   5.060   1.528
 1929SOL    HW2 6687   0.994   5.213   1.547
 1930SOL     OW 6688   3.418   3.718   6.494
 1930SOL    HW1 6689   3.470   3.648   6.543
 1930SOL    HW2 6690   3.429   3.806   6.540
 1931SOL     OW 6691   0.430   3.805   2.625
 1931SOL    HW1 6692   0.417   3.709   2.601
 1931SOL    HW2 6693   0.376   3.862   2.563
 1932SOL     OW 6694   4.876   3.640   3.269
 1932SOL    HW1 6695   4.880   3.573   3.343
 1932SOL    HW2 6696   4.787   3.685   3.270
 1933SOL     OW 6697   1.975   3.797   0.695
 1933SOL    HW1 6698   2.022   3.788   0.783
 1933SOL    HW2 6699   1.939   3.708   0.667
 1934SOL     OW 6700   0.170   0.103   5.139
 1934SOL    HW1 6701   0.106   0.039   5.097
 1934SOL    HW2 6702   0.122   0.160   5.206
 1935SOL     OW 6703   4.049   6.064   3.713
 1935SOL    HW1 6704   4.049   5.969   3.746
 1935SOL    HW2 6705   4.060   6.126   3.791
 1936SOL     OW 6706   5.892   3.980   3.618
 1936SOL    HW1 6707   5.868   3.982   3.715
 1936SOL    HW2 6708   5.867   3.891   3.580
 1937SOL     OW 6709   3.642   6.940   1.332
 1937SOL    HW1 6710   3.716   6.928   1.265
 1937SOL    HW2 6711   3.558   6.966   1.285
 1938SOL     OW 6712   2.132   1.577   1.945
 1938SOL    HW1 6713   2.131   1.497   2.004
 1938SOL    HW2 6714   2.201   1.642   1.978
 1939SOL     OW 6715   6.483   0.478   4.388
 1939SOL    HW1 6716   6.534   0.399   4.355
 1939SOL    HW2 6717   6.388   0.451   4.408
 1940SOL     OW 6718   5.168   4.693   0.719
 1940SOL    HW1 6719   5.261   4.708   0.685
 1940SOL    HW2 6720   5.152   4.594   0.728
 1941SOL     OW 6721   0.836   3.782   4.534
 1941SOL    HW1 6722   0.874   3.771   4.625
 1941SOL    HW2 6723   0.748   3.735   4.528
 1942SOL     OW 6724   5.449   1.639   1.869
 1942SOL    HW1 6725   5.528   1.697   1.852
 1942SOL    HW2 6726   5.365   1.695   1.870
 1943SOL     OW 6727   2.128   6.280   3.620
 1943SOL    HW1 6728   2.060   6.289   3.548
 1943SOL    HW2 6729   2.083   6.283   3.710
 1944SOL     OW 6730   6.237   2.874   0.257
 1944SOL    HW1 6731   6.332   2.902   0.270
 1944SOL    HW2 6732   6.233   2.800   0.190
 1945SOL     OW 6733   4.004   5.342   0.693
 1945SOL    HW1 6734   4.075   5.376   0.632
 1945SOL    HW2 6735   3.916   5.382   0.667
 1946SOL     OW 6736   6.538   6.590   0.626
 1946SOL    HW1 6737   6.499   6.670   0.673
 1946SOL    HW2 6738   6.571   6.617   0.536
 1947SOL     OW 6739   4.563   6.257   4.490
 1947SOL    HW1 6740   4.553   6.233   4.393
 1947SOL    HW2 6741   4.605   6.347   4.497
 1948SOL     OW 6742   5.566   5.767   3.693
 1948SOL    HW1 6743   5.513   5.698   3.741
 1948SOL    HW2 6744   5.615   5.725   3.616
 1949SOL     OW 6745   3.277   4.031   6.197
 1949SOL    HW1 6746   3.375   4.048   6.189
 1949SOL    HW2 6747   3.261   3.935   6.221
 1950SOL     OW 6748   4.201   3.181   0.379
 1950SOL    HW1 6749   4.202   3.255   0.312
 1950SOL    HW2 6750   4.273   3.116   0.358
 1951SOL     OW 6751   5.865   3.781   0.052
 1951SOL    HW1 6752   5.799   3.849   0.084
 1951SOL    HW2 6753   5.865   3.780   6.970
 1952SOL     OW 6754   4.932   3.575   1.164
 1952SOL    HW1 6755   4.979   3.626   1.092
 1952SOL    HW2 6756   4.858   3.521   1.124
 1953SOL     OW 6757   6.239   1.815   5.401
 1953SOL    HW1 6758   6.259   1.739   5.463
 1953SOL    HW2 6759   6.153   1.796   5.353
 1954SOL     OW 6760   6.756   0.760   2.731
 1954SOL    HW1 6761   6.700   0.706   2.668
 1954SOL    HW2 6762   6.820   0.700   2.778
 1955SOL     OW 6763   0.204   1.087   2.552
 1955SOL    HW1 6764   0.198   1.183   2.523
 1955SOL    HW2 6765   0.174   1.080   2.648
 1956SOL     OW 6766   5.143   0.066   2.260
 1956SOL    HW1 6767   5.205   0.063   2.339
 1956SOL    HW2 6768   5.094   0.153   2.259
 1957SOL     OW 6769   5.823   4.227   4.228
 1957SOL    HW1 6770   5.749   4.160   4.221
 1957SOL    HW2 6771   5.785   4.317   4.247
 1958SOL     OW 6772   5.006   1.904   2.034
 1958SOL    HW1 6773   4.924   1.960   2.037
 1958SOL    HW2 6774   5.075   1.942   2.096
 1959SOL     OW 6775   1.275   0.225   4.268
 1959SOL    HW1 6776   1.308   0.231   4.174
 1959SOL    HW2 6777   1.353   0.235   4.331
 1960SOL     OW 6778   6.959   4.529   1.868
 1960SOL    HW1 6779   6.902   4.517   1.787
 1960SOL    HW2 6780   7.014   4.612   1.858
 1961SOL     OW 6781   5.967   4.486   3.912
 1961SOL    HW1 6782   6.004   4.497   4.004
 1961SOL    HW2 6783   6.039   4.506   3.845
 1962SOL     OW 6784   1.013   6.507   3.073
 1962SOL    HW1 6785   0.978   6.584   3.126
 1962SOL    HW2 6786   0.943   6.435   3.070
 1963SOL     OW 6787   0.863   1.877   1.241
 1963SOL    HW1 6788   0.890   1.806   1.306
 1963SOL    HW2 6789   0.873   1.842   1.148
 1964SOL     OW 6790   4.909   4.510   1.127
 1964SOL    HW1 6791   4.852   4.537   1.204
 1964SOL    HW2 6792   4.851   4.492   1.047
 1965SOL     OW 6793   1.950   2.797   4.580
 1965SOL    HW1 6794   1.976   2.889   4.607
 1965SOL    HW2 6795   1.853   2.782   4.601
 1966SOL     OW 6796   0.390   6.181   0.605
 1966SOL    HW1 6797   0.472   6.219   0.647
 1966SOL    HW2 6798   0.317   6.176   0.674
 1967SOL     OW 6799   5.548   2.613   5.553
 1967SOL    HW1 6800   5.647   2.623   5.547
 1967SOL    HW2 6801   5.504   2.665   5.480
 1968SOL     OW 6802   1.436   6.587   5.509
 1968SOL    HW1 6803   1.406   6.626   5.596
 1968SOL    HW2 6804   1.391   6.635   5.433
 1969SOL     OW 6805   1.123   1.551   1.184
 1969SOL    HW1 6806   1.091   1.623   1.124
 1969SOL    HW2 6807   1.214   1.574   1.219
 1970SOL     OW 6808   2.862   6.394   6.188
 1970SOL    HW1 6809   2.870   6.363   6.282
 1970SOL    HW2 6810   2.824   6.320   6.132
 1971SOL     OW 6811   0.700   0.117   5.722
 1971SOL    HW1 6812   0.742   0.104   5.811
 1971SOL    HW2 6813   0.760   0.172   5.664
 1972SOL     OW 6814   5.466   2.070   2.339
 1972SOL    HW1 6815   5.508   2.087   2.250
 1972SOL    HW2 6816   5.516   2.122   2.409
 1973SOL     OW 6817   3.249   3.025   0.296
 1973SOL    HW1 6818   3.179   3.082   0.254
 1973SOL    HW2 6819   3.304   2.982   0.225
 1974SOL     OW 6820   5.532   6.603   4.927
 1974SOL    HW1 6821   5.547   6.587   4.829
 1974SOL    HW2 6822   5.568   6.526   4.980
 1975SOL     OW 6823   1.611   1.874   3.920
 1975SOL    HW1 6824   1.558   1.828   3.992
 1975SOL    HW2 6825   1.699   1.903   3.956
 1976SOL     OW 6826   6.932   0.022   0.283
 1976SOL    HW1 6827   0.012   0.036   0.295
 1976SOL    HW2 6828   6.916   6.975   0.210
 1977SOL     OW 6829   1.739   3.058   4.853
 1977SOL    HW1 6830   1.692   2.983   4.899
 1977SOL    HW2 6831   1.729   3.048   4.754
 1978SOL     OW 6832   1.614   6.088   3.007
 1978SOL    HW1 6833   1.592   6.095   3.105
 1978SOL    HW2 6834   1.617   6.179   2.966
 1979SOL     OW 6835   6.105   4.069   6.326
 1979SOL    HW1 6836   6.198   4.043   6.354
 1979SOL    HW2 6837   6.047   3.988   6.322
 1980SOL     OW 6838   3.585   7.002   4.873
 1980SOL    HW1 6839   3.591   6.944   4.791
 1980SOL    HW2 6840   3.612   6.948   4.953
 1981SOL     OW 6841   7.009   2.821   2.133
 1981SOL    HW1 6842   0.068   2.760   2.115
 1981SOL    HW2 6843   0.025   2.914   2.144
 1982SOL     OW 6844   0.689   4.087   4.268
 1982SOL    HW1 6845   0.652   4.180   4.277
 1982SOL    HW2 6846   0.749   4.067   4.345
 1983SOL     OW 6847   0.616   0.964   2.942
 1983SOL    HW1 6848   0.545   1.033   2.955
 1983SOL    HW2 6849   0.682   0.971   3.016
 1984SOL     OW 6850   4.555   1.877   4.884
 1984SOL    HW1 6851   4.503   1.954   4.846
 1984SOL    HW2 6852   4.564   1.888   4.983
 1985SOL     OW 6853   1.209   6.338   2.736
 1985SOL    HW1 6854   1.274   6.268   2.766
 1985SOL    HW2 6855   1.253   6.428   2.741
 1986SOL     OW 6856   2.570   0.728   0.042
 1986SOL    HW1 6857   2.593   0.801   0.106
 1986SOL    HW2 6858   2.476   0.738   0.012
 1987SOL     OW 6859   1.971   2.391   2.848
 1987SOL    HW1 6860   2.039   2.406   2.777
 1987SOL    HW2 6861   1.992   2.448   2.927
 1988SOL     OW 6862   6.076   3.440   0.396
 1988SOL    HW1 6863   6.172   3.439   0.423
 1988SOL    HW2 6864   6.068   3.431   0.297
 1989SOL     OW 6865   2.050   5.286   5.149
 1989SOL    HW1 6866   2.089   5.277   5.241
 1989SOL    HW2 6867   2.124   5.299   5.083
 1990SOL     OW 6868   3.807   5.772   0.772
 1990SOL    HW1 6869   3.830   5.869   0.785
 1990SOL    HW2 6870   3.890   5.717   0.779
 1991SOL     OW 6871   2.721   5.258   0.044
 1991SOL    HW1 6872   2.645   5.322   0.054
 1991SOL    HW2 6873   2.772   5.279   6.979
 1992SOL     OW 6874   0.534   1.101   0.192
 1992SOL    HW1 6875   0.565   1.082   0.099
 1992SOL    HW2 6876   0.558   1.195   0.216
 1993SOL     OW 6877   3.523   2.347   5.327
 1993SOL    HW1 6878   3.441   2.404   5.331
 1993SOL    HW2 6879   3.551   2.323   5.420
 1994SOL     OW 6880   0.708   1.725   0.008
 1994SOL    HW1 6881   0.802   1.697   0.029
 1994SOL    HW2 6882   0.709   1.796   6.957
 1995SOL     OW 6883   5.392   2.555   3.691
 1995SOL    HW1 6884   5.428   2.485   3.628
 1995SOL    HW2 6885   5.300   2.531   3.719
 1996SOL     OW 6886   2.095   2.816   0.318
 1996SOL    HW1 6887   1.998   2.818   0.344
 1996SOL    HW2 6888   2.104   2.767   0.231
 1997SOL     OW 6889   3.182   1.733   4.773
 1997SOL    HW1 6890   3.145   1.646   4.739
 1997SOL    HW2 6891   3.109   1.802   4.774
 1998SOL     OW 6892   3.010   3.859   0.155
 1998SOL    HW1 6893   3.007   3.767   0.114
 1998SOL    HW2 6894   2.941   3.916   0.112
 1999SOL     OW 6895   2.470   6.522   6.190
 1999SOL    HW1 6896   2.464   6.618   6.216
 1999SOL    HW2 6897   2.506   6.515   6.097
 2000SOL     OW 6898   4.312   2.699   5.320
 2000SOL    HW1 6899   4.229   2.666   5.275
 2000SOL    HW2 6900   4.309   2.799   5.326
 2001SOL     OW 6901   2.667   0.446   1.729
 2001SOL    HW1 6902   2.620   0.361   1.706
 2001SOL    HW2 6903   2.716   0.479   1.649
 2002SOL     OW 6904   0.562   4.920   0.258
 2002SOL    HW1 6905   0.499   4.899   0.333
 2002SOL    HW2 6906   0.628   4.990   0.288
 2003SOL     OW 6907   5.765   5.217   2.755
 2003SOL    HW1 6908   5.759   5.141   2.691
 2003SOL    HW2 6909   5.736   5.301   2.709
 2004SOL     OW 6910   4.983   1.492   4.763
 2004SOL    HW1 6911   4.979   1.445   4.675
 2004SOL    HW2 6912   5.005   1.589   4.748
 2005SOL     OW 6913   0.033   5.218   0.105
 2005SOL    HW1 6914   0.081   5.155   0.166
 2005SOL    HW2 6915   0.100   5.275   0.058
 2006SOL     OW 6916   5.849   6.741   3.407
 2006SOL    HW1 6917   5.793   6.694   3.340
 2006SOL    HW2 6918   5.914   6.677   3.448
 2007SOL     OW 6919   4.432   4.692   0.972
 2007SOL    HW1 6920   4.347   4.675   1.022
 2007SOL    HW2 6921   4.414   4.756   0.897
 2008SOL     OW 6922   2.078   4.343   3.956
 2008SOL    HW1 6923   2.164   4.358   4.005
 2008SOL    HW2 6924   2.094   4.283   3.878
 2009SOL     OW 6925   5.569   0.473   2.513
 2009SOL    HW1 6926   5.629   0.411   2.462
 2009SOL    HW2 6927   5.590   0.568   2.487
 2010SOL     OW 6928   2.584   1.868   2.135
 2010SOL    HW1 6929   2.556   1.861   2.231
 2010SOL    HW2 6930   2.567   1.961   2.102
 2011SOL     OW 6931   6.748   6.624   4.886
 2011SOL    HW1 6932   6.687   6.559   4.841
 2011SOL    HW2 6933   6.835   6.628   4.836
 2012SOL     OW 6934   1.111   4.382   1.943
 2012SOL    HW1 6935   1.135   4.323   2.020
 2012SOL    HW2 6936   1.033   4.343   1.894
 2013SOL     OW 6937   6.298   2.841   3.398
 2013SOL    HW1 6938   6.373   2.889   3.444
 2013SOL    HW2 6939   6.327   2.748   3.375
 2014SOL     OW 6940   2.381   6.387   3.546
 2014SOL    HW1 6941   2.301   6.380   3.605
 2014SOL    HW2 6942   2.364   6.337   3.461
 2015SOL     OW 6943   1.579   0.769   0.012
 2015SOL    HW1 6944   1.521   0.693   0.040
 2015SOL    HW2 6945   1.661   0.735   6.985
 2016SOL     OW 6946   2.030   5.963   5.908
 2016SOL    HW1 6947   2.053   5.869   5.883
 2016SOL    HW2 6948   2.055   5.980   6.003
 2017SOL     OW 6949   3.702   0.025   4.319
 2017SOL    HW1 6950   3.685   7.008   4.227
 2017SOL    HW2 6951   3.780   6.996   4.359
 2018SOL     OW 6952   5.156   1.982   4.659
 2018SOL    HW1 6953   5.102   1.952   4.580
 2018SOL    HW2 6954   5.095   1.998   4.737
 2019SOL     OW 6955   5.120   3.417   6.460
 2019SOL    HW1 6956   5.178   3.337   6.452
 2019SOL    HW2 6957   5.176   3.500   6.460
 2020SOL     OW 6958   1.477   0.314   5.080
 2020SOL    HW1 6959   1.479   0.237   5.143
 2020SOL    HW2 6960   1.382   0.334   5.054
 2021SOL     OW 6961   0.566   5.993   5.244
 2021SOL    HW1 6962   0.597   5.950   5.159
 2021SOL    HW2 6963   0.636   5.981   5.314
 2022SOL     OW 6964   1.403   4.340   3.220
 2022SOL    HW1 6965   1.443   4.430   3.205
 2022SOL    HW2 6966   1.378   4.300   3.132
 2023SOL     OW 6967   0.088   0.652   6.627
 2023SOL    HW1 6968   0.012   0.708   6.660
 2023SOL    HW2 6969   0.175   0.696   6.651
 2024SOL     OW 6970   0.290   6.292   3.374
 2024SOL    HW1 6971   0.258   6.333   3.459
 2024SOL    HW2 6972   0.338   6.207   3.394
 2025SOL     OW 6973   2.923   1.155   3.616
 2025SOL    HW1 6974   2.860   1.117   3.549
 2025SOL    HW2 6975   2.999   1.092   3.630
 2026SOL     OW 6976   6.606   2.997   5.488
 2026SOL    HW1 6977   6.634   3.092   5.505
 2026SOL    HW2 6978   6.622   2.975   5.391
 2027SOL     OW 6979   1.524   0.059   0.479
 2027SOL    HW1 6980   1.551   0.120   0.405
 2027SOL    HW2 6981   1.448   0.100   0.530
 2028SOL     OW 6982   2.596   6.336   4.533
 2028SOL    HW1 6983   2.514   6.279   4.523
 2028SOL    HW2 6984   2.591   6.412   4.468
 2029SOL     OW 6985   6.053   1.372   0.085
 2029SOL    HW1 6986   6.117   1.349   0.012
 2029SOL    HW2 6987   5.960   1.377   0.048
 2030SOL     OW 6988   2.991   0.830   3.823
 2030SOL    HW1 6989   2.974   0.896   3.895
 2030SOL    HW2 6990   2.912   0.824   3.762
 2031SOL     OW 6991   6.482   5.731   1.240
 2031SOL    HW1 6992   6.494   5.632   1.244
 2031SOL    HW2 6993   6.569   5.774   1.218
 2032SOL     OW 6994   4.732   0.431   2.106
 2032SOL    HW1 6995   4.757   0.512   2.053
 2032SOL    HW2 6996   4.790   0.355   2.079
 2033SOL     OW 6997   3.463   3.002   6.095
 2033SOL    HW1 6998   3.377   2.984   6.142
 2033SOL    HW2 6999   3.469   2.945   6.013
 2034SOL     OW 7000   2.419   5.412   5.597
 2034SOL    HW1 7001   2.422   5.326   5.547
 2034SOL    HW2 7002   2.510   5.433   5.633
 2035SOL     OW 7003   0.141   6.456   3.873
 2035SOL    HW1 7004   0.199   6.536   3.884
 2035SOL    HW2 7005   0.048   6.485   3.851
 2036SOL     OW 7006   1.116   4.162   2.770
 2036SOL    HW1 7007   1.157   4.099   2.704
 2036SOL    HW2 7008   1.057   4.112   2.832
 2037SOL     OW 7009   6.358   3.094   5.924
 2037SOL    HW1 7010   6.448   3.099   5.967
 2037SOL    HW2 7011   6.365   3.121   5.828
 2038SOL     OW 7012   2.024   1.712   0.169
 2038SOL    HW1 7013   2.043   1.620   0.134
 2038SOL    HW2 7014   2.088   1.777   0.129
 2039SOL     OW 7015   0.137   5.284   3.881
 2039SOL    HW1 7016   0.109   5.331   3.798
 2039SOL    HW2 7017   0.056   5.265   3.937
 2040SOL     OW 7018   2.578   2.955   5.882
 2040SOL    HW1 7019   2.582   2.982   5.786
 2040SOL    HW2 7020   2.482   2.944   5.910
 2041SOL     OW 7021   1.108   6.248   6.030
 2041SOL    HW1 7022   1.124   6.276   6.125
 2041SOL    HW2 7023   1.035   6.303   5.991
 2042SOL     OW 7024   4.837   6.370   6.690
 2042SOL    HW1 7025   4.799   6.304   6.755
 2042SOL    HW2 7026   4.764   6.407   6.633
 2043SOL     OW 7027   6.176   4.040   3.093
 2043SOL    HW1 7028   6.248   4.076   3.033
 2043SOL    HW2 7029   6.217   3.977   3.159
 2044SOL     OW 7030   0.019   0.276   1.565
 2044SOL    HW1 7031   6.989   0.194   1.532
 2044SOL    HW2 7032   0.074   0.252   1.645
 2045SOL     OW 7033   1.595   5.196   4.319
 2045SOL    HW1 7034   1.653   5.155   4.249
 2045SOL    HW2 7035   1.625   5.166   4.409
 2046SOL     OW 7036   6.815   2.051   4.485
 2046SOL    HW1 7037   6.811   1.993   4.403
 2046SOL    HW2 7038   6.821   1.992   4.566
 2047SOL     OW 7039   6.979   2.909   0.232
 2047SOL    HW1 7040   6.896   2.854   0.230
 2047SOL    HW2 7041   6.955   3.005   0.216
 2048SOL     OW 7042   1.588   6.407   6.127
 2048SOL    HW1 7043   1.536   6.491   6.110
 2048SOL    HW2 7044   1.615   6.366   6.039
 2049SOL     OW 7045   5.940   1.445   4.404
 2049SOL    HW1 7046   5.854   1.492   4.385
 2049SOL    HW2 7047   5.925   1.346   4.405
 2050SOL     OW 7048   6.099   3.054   4.390
 2050SOL    HW1 7049   6.159   2.978   4.370
 2050SOL    HW2 7050   6.025   3.024   4.451
 2051SOL     OW 7051   1.175   6.146   7.017
 2051SOL    HW1 7052   1.263   6.101   0.015
 2051SOL    HW2 7053   1.101   6.090   0.034
 2052SOL     OW 7054   1.919   3.109   1.401
 2052SOL    HW1 7055   2.004   3.086   1.354
 2052SOL    HW2 7056   1.904   3.045   1.477
 2053SOL     OW 7057   6.643   6.130   4.538
 2053SOL    HW1 7058   6.649   6.229   4.531
 2053SOL    HW2 7059   6.682   6.100   4.625
 2054SOL     OW 7060   3.441   4.033   3.592
 2054SOL    HW1 7061   3.506   4.077   3.654
 2054SOL    HW2 7062   3.350   4.036   3.632
 2055SOL     OW 7063   5.703   3.472   3.840
 2055SOL    HW1 7064   5.660   3.561   3.823
 2055SOL    HW2 7065   5.783   3.485   3.900
 2056SOL     OW 7066   4.316   6.063   1.566
 2056SOL    HW1 7067   4.365   6.054   1.479
 2056SOL    HW2 7068   4.292   6.158   1.581
 2057SOL     OW 7069   5.342   4.113   5.910
 2057SOL    HW1 7070   5.424   4.076   5.954
 2057SOL    HW2 7071   5.324   4.062   5.825
 2058SOL     OW 7072   0.307   0.626   3.392
 2058SOL    HW1 7073   0.400   0.590   3.402
 2058SOL    HW2 7074   0.267   0.639   3.482
 2059SOL     OW 7075   1.818   5.745   6.284
 2059SOL    HW1 7076   1.797   5.692   6.366
 2059SOL    HW2 7077   1.748   5.814   6.269
 2060SOL     OW 7078   0.469   4.040   1.264
 2060SOL    HW1 7079   0.562   4.027   1.230
 2060SOL    HW2 7080   0.426   3.951   1.278
 2061SOL     OW 7081   1.277   1.966   2.366
 2061SOL    HW1 7082   1.280   2.013   2.454
 2061SOL    HW2 7083   1.287   1.867   2.380
 2062SOL     OW 7084   6.953   5.051   4.867
 2062SOL    HW1 7085   6.969   4.970   4.923
 2062SOL    HW2 7086   6.886   5.110   4.912
 2063SOL     OW 7087   1.098   6.525   5.412
 2063SOL    HW1 7088   1.118   6.427   5.420
 2063SOL    HW2 7089   1.005   6.543   5.443
 2064SOL     OW 7090   6.801   2.538   4.885
 2064SOL    HW1 7091   6.782   2.530   4.787
 2064SOL    HW2 7092   6.894   2.573   4.898
 2065SOL     OW 7093   5.851   2.579   5.570
 2065SOL    HW1 7094   5.927   2.563   5.507
 2065SOL    HW2 7095   5.886   2.610   5.658
 2066SOL     OW 7096   7.008   4.875   5.130
 2066SOL    HW1 7097   6.982   4.922   5.215
 2066SOL    HW2 7098   7.010   4.776   5.146
 2067SOL     OW 7099   0.016   5.380   0.641
 2067SOL    HW1 7100   6.958   5.316   0.630
 2067SOL    HW2 7101   7.003   5.460   0.692
 2068SOL     OW 7102   2.021   0.263   4.423
 2068SOL    HW1 7103   1.983   0.174   4.450
 2068SOL    HW2 7104   2.096   0.248   4.358
 2069SOL     OW 7105   6.421   2.954   4.082
 2069SOL    HW1 7106   6.433   2.899   4.165
 2069SOL    HW2 7107   6.359   2.908   4.020
 2070SOL     OW 7108   0.889   1.428   0.754
 2070SOL    HW1 7109   0.871   1.338   0.793
 2070SOL    HW2 7110   0.987   1.440   0.740
 2071SOL     OW 7111   6.046   0.573   5.951
 2071SOL    HW1 7112   5.991   0.654   5.973
 2071SOL    HW2 7113   6.059   0.518   6.034
 2072SOL     OW 7114   4.454   5.313   4.364
 2072SOL    HW1 7115   4.492   5.246   4.428
 2072SOL    HW2 7116   4.358   5.331   4.388
 2073SOL     OW 7117   4.709   6.874   5.055
 2073SOL    HW1 7118   4.636   6.812   5.084
 2073SOL    HW2 7119   4.734   6.934   5.131
 2074SOL     OW 7120   2.046   2.018   6.232
 2074SOL    HW1 7121   2.024   2.097   6.289
 2074SOL    HW2 7122   2.119   1.965   6.276
 2075SOL     OW 7123   0.147   2.674   3.340
 2075SOL    HW1 7124   0.184   2.746   3.398
 2075SOL    HW2 7125   0.116   2.598   3.397
 2076SOL     OW 7126   5.185   6.733   5.992
 2076SOL    HW1 7127   5.213   6.805   6.056
 2076SOL    HW2 7128   5.096   6.697   6.020
 2077SOL     OW 7129   6.680   2.054   2.587
 2077SOL    HW1 7130   6.754   1.995   2.620
 2077SOL    HW2 7131   6.650   2.023   2.497
 2078SOL     OW 7132   1.768   5.254   6.383
 2078SOL    HW1 7133   1.688   5.314   6.386
 2078SOL    HW2 7134   1.838   5.296   6.326
 2079SOL     OW 7135   0.077   2.281   3.183
 2079SOL    HW1 7136   0.036   2.331   3.108
 2079SOL    HW2 7137   0.038   2.189   3.187
 2080SOL     OW 7138   1.669   0.521   4.931
 2080SOL    HW1 7139   1.653   0.430   4.892
 2080SOL    HW2 7140   1.631   0.525   5.024
 2081SOL     OW 7141   0.772   6.376   4.614
 2081SOL    HW1 7142   0.779   6.468   4.654
 2081SOL    HW2 7143   0.787   6.308   4.685
 2082SOL     OW 7144   0.817   6.886   3.030
 2082SOL    HW1 7145   0.717   6.890   3.028
 2082SOL    HW2 7146   0.848   6.855   3.120
 2083SOL     OW 7147   1.268   5.327   5.863
 2083SOL    HW1 7148   1.215   5.411   5.876
 2083SOL    HW2 7149   1.353   5.332   5.916
 2084SOL     OW 7150   0.817   4.252   2.763
 2084SOL    HW1 7151   0.871   4.250   2.679
 2084SOL    HW2 7152   0.757   4.332   2.762
 2085SOL     OW 7153   5.068   0.883   0.859
 2085SOL    HW1 7154   5.109   0.894   0.769
 2085SOL    HW2 7155   5.016   0.966   0.882
 2086SOL     OW 7156   3.803   6.502   6.308
 2086SOL    HW1 7157   3.743   6.578   6.283
 2086SOL    HW2 7158   3.867   6.533   6.379
 2087SOL     OW 7159   5.065   1.380   2.048
 2087SOL    HW1 7160   4.993   1.407   2.112
 2087SOL    HW2 7161   5.150   1.428   2.071
 2088SOL     OW 7162   1.292   5.886   6.917
 2088SOL    HW1 7163   1.350   5.946   6.862
 2088SOL    HW2 7164   1.209   5.863   6.865
 2089SOL     OW 7165   4.834   2.792   6.129
 2089SOL    HW1 7166   4.764   2.759   6.192
 2089SOL    HW2 7167   4.910   2.832   6.181
 2090SOL     OW 7168   4.231   3.430   5.825
 2090SOL    HW1 7169   4.278   3.483   5.896
 2090SOL    HW2 7170   4.273   3.449   5.736
 2091SOL     OW 7171   6.688   4.910   0.293
 2091SOL    HW1 7172   6.730   4.990   0.250
 2091SOL    HW2 7173   6.598   4.935   0.329
 2092SOL     OW 7174   5.422   3.623   0.739
 2092SOL    HW1 7175   5.377   3.558   0.677
 2092SOL    HW2 7176   5.471   3.572   0.810
 2093SOL     OW 7177   3.094   2.246   1.699
 2093SOL    HW1 7178   3.193   2.252   1.713
 2093SOL    HW2 7179   3.047   2.280   1.780
 2094SOL     OW 7180   5.771   1.349   1.678
 2094SOL    HW1 7181   5.688   1.392   1.714
 2094SOL    HW2 7182   5.842   1.350   1.748
 2095SOL     OW 7183   6.348   6.235   5.079
 2095SOL    HW1 7184   6.348   6.274   4.986
 2095SOL    HW2 7185   6.440   6.241   5.117
 2096SOL     OW 7186   4.765   4.976   3.424
 2096SOL    HW1 7187   4.720   4.889   3.404
 2096SOL    HW2 7188   4.726   5.015   3.507
 2097SOL     OW 7189   3.162   2.685   6.320
 2097SOL    HW1 7190   3.162   2.613   6.250
 2097SOL    HW2 7191   3.082   2.674   6.379
 2098SOL     OW 7192   4.885   5.860   1.869
 2098SOL    HW1 7193   4.894   5.938   1.807
 2098SOL    HW2 7194   4.789   5.830   1.872
 2099SOL     OW 7195   3.724   1.708   6.794
 2099SOL    HW1 7196   3.652   1.777   6.792
 2099SOL    HW2 7197   3.695   1.628   6.742
 2100SOL     OW 7198   5.281   1.554   0.805
 2100SOL    HW1 7199   5.210   1.528   0.870
 2100SOL    HW2 7200   5.336   1.474   0.782
 2101SOL     OW 7201   0.596   6.848   1.229
 2101SOL    HW1 7202   0.549   6.769   1.268
 2101SOL    HW2 7203   0.532   6.899   1.171
 2102SOL     OW 7204   5.179   4.514   2.246
 2102SOL    HW1 7205   5.251   4.490   2.311
 2102SOL    HW2 7206   5.212   4.496   2.153
 2103SOL     OW 7207   3.481   3.515   0.110
 2103SOL    HW1 7208   3.385   3.502   0.087
 2103SOL    HW2 7209   3.515   3.598   0.066
 2104SOL     OW 7210   2.005   4.583   2.334
 2104SOL    HW1 7211   2.032   4.677   2.352
 2104SOL    HW2 7212   1.912   4.568   2.369
 2105SOL     OW 7213   4.719   4.370   6.372
 2105SOL    HW1 7214   4.624   4.340   6.372
 2105SOL    HW2 7215   4.779   4.292   6.355
 2106SOL     OW 7216   5.499   3.540   1.341
 2106SOL    HW1 7217   5.409   3.543   1.386
 2106SOL    HW2 7218   5.488   3.565   1.245
 2107SOL     OW 7219   6.529   2.323   5.581
 2107SOL    HW1 7220   6.480   2.272   5.510
 2107SOL    HW2 7221   6.625   2.332   5.555
 2108SOL     OW 7222   6.209   5.226   5.405
 2108SOL    HW1 7223   6.152   5.187   5.477
 2108SOL    HW2 7224   6.159   5.227   5.319
 2109SOL     OW 7225   3.710   6.346   2.640
 2109SOL    HW1 7226   3.793   6.387   2.603
 2109SOL    HW2 7227   3.734   6.278   2.709
 2110SOL     OW 7228   2.939   0.933   0.511
 2110SOL    HW1 7229   2.966   1.028   0.501
 2110SOL    HW2 7230   2.891   0.903   0.429
 2111SOL     OW 7231   2.100   3.127   6.597
 2111SOL    HW1 7232   2.135   3.194   6.532
 2111SOL    HW2 7233   2.149   3.136   6.684
 2112SOL     OW 7234   5.593   2.052   0.644
 2112SOL    HW1 7235   5.522   2.047   0.573
 2112SOL    HW2 7236   5.559   2.106   0.721
 2113SOL     OW 7237   2.139   0.914   5.367
 2113SOL    HW1 7238   2.044   0.889   5.383
 2113SOL    HW2 7239   2.194   0.831   5.354
 2114SOL     OW 7240   2.356   1.773   6.710
 2114SOL    HW1 7241   2.325   1.792   6.804
 2114SOL    HW2 7242   2.319   1.684   6.681
 2115SOL     OW 7243   0.303   4.197   2.159
 2115SOL    HW1 7244   0.391   4.166   2.194
 2115SOL    HW2 7245   0.229   4.147   2.205
 2116SOL     OW 7246   0.879   3.882   2.382
 2116SOL    HW1 7247   0.975   3.855   2.375
 2116SOL    HW2 7248   0.822   3.809   2.345
 2117SOL     OW 7249   6.177   4.181   1.301
 2117SOL    HW1 7250   6.116   4.154   1.375
 2117SOL    HW2 7251   6.232   4.259   1.330
 2118SOL     OW 7252   6.173   3.833   3.340
 2118SOL    HW1 7253   6.082   3.830   3.382
 2118SOL    HW2 7254   6.171   3.785   3.253
 2119SOL     OW 7255   1.828   0.549   0.696
 2119SOL    HW1 7256   1.799   0.462   0.737
 2119SOL    HW2 7257   1.795   0.625   0.752
 2120SOL     OW 7258   0.770   4.004   2.910
 2120SOL    HW1 7259   0.828   4.086   2.912
 2120SOL    HW2 7260   0.807   3.939   2.845
 2121SOL     OW 7261   1.516   2.596   5.423
 2121SOL    HW1 7262   1.553   2.542   5.498
 2121SOL    HW2 7263   1.450   2.541   5.371
 2122SOL     OW 7264   5.831   5.695   6.298
 2122SOL    HW1 7265   5.876   5.665   6.213
 2122SOL    HW2 7266   5.878   5.776   6.333
 2123SOL     OW 7267   6.824   5.369   1.703
 2123SOL    HW1 7268   6.768   5.390   1.782
 2123SOL    HW2 7269   6.857   5.453   1.661
 2124SOL     OW 7270   3.178   1.624   0.370
 2124SOL    HW1 7271   3.083   1.593   0.361
 2124SOL    HW2 7272   3.180   1.717   0.406
 2125SOL     OW 7273   1.360   6.252   2.410
 2125SOL    HW1 7274   1.442   6.274   2.461
 2125SOL    HW2 7275   1.367   6.159   2.373
 2126SOL     OW 7276   3.655   2.672   6.531
 2126SOL    HW1 7277   3.673   2.580   6.496
 2126SOL    HW2 7278   3.615   2.728   6.457
 2127SOL     OW 7279   0.349   1.590   6.258
 2127SOL    HW1 7280   0.432   1.571   6.204
 2127SOL    HW2 7281   0.293   1.508   6.262
 2128SOL     OW 7282   6.486   2.933   2.629
 2128SOL    HW1 7283   6.471   2.840   2.662
 2128SOL    HW2 7284   6.561   2.975   2.679
 2129SOL     OW 7285   5.148   4.163   4.853
 2129SOL    HW1 7286   5.142   4.064   4.870
 2129SOL    HW2 7287   5.243   4.192   4.862
 2130SOL     OW 7288   3.120   0.227   2.247
 2130SOL    HW1 7289   3.171   0.148   2.281
 2130SOL    HW2 7290   3.022   0.206   2.246
 2131SOL     OW 7291   4.981   1.670   0.899
 2131SOL    HW1 7292   5.027   1.758   0.885
 2131SOL    HW2 7293   4.895   1.668   0.849
 2132SOL     OW 7294   3.084   1.850   6.731
 2132SOL    HW1 7295   3.028   1.780   6.774
 2132SOL    HW2 7296   3.116   1.818   6.641
 2133SOL     OW 7297   3.464   2.753   1.393
 2133SOL    HW1 7298   3.434   2.658   1.403
 2133SOL    HW2 7299   3.511   2.764   1.305
 2134SOL     OW 7300   0.646   0.893   4.540
 2134SOL    HW1 7301   0.726   0.847   4.501
 2134SOL    HW2 7302   0.571   0.889   4.474
 2135SOL     OW 7303   0.647   1.809   4.268
 2135SOL    HW1 7304   0.638   1.852   4.358
 2135SOL    HW2 7305   0.733   1.758   4.263
 2136SOL     OW 7306   1.197   4.001   4.880
 2136SOL    HW1 7307   1.204   4.098   4.859
 2136SOL    HW2 7308   1.133   3.988   4.957
 2137SOL     OW 7309   6.931   6.187   4.503
 2137SOL    HW1 7310   6.920   6.235   4.416
 2137SOL    HW2 7311   6.844   6.144   4.529
 2138SOL     OW 7312   6.819   1.437   1.312
 2138SOL    HW1 7313   6.838   1.514   1.373
 2138SOL    HW2 7314   6.748   1.380   1.352
 2139SOL     OW 7315   3.787   0.551   2.788
 2139SOL    HW1 7316   3.784   0.646   2.757
 2139SOL    HW2 7317   3.850   0.542   2.864
 2140SOL     OW 7318   3.004   5.379   3.138
 2140SOL    HW1 7319   2.939   5.328   3.082
 2140SOL    HW2 7320   3.088   5.395   3.085
 2141SOL     OW 7321   6.759   3.875   0.842
 2141SOL    HW1 7322   6.840   3.896   0.788
 2141SOL    HW2 7323   6.737   3.952   0.901
 2142SOL     OW 7324   1.253   2.176   2.745
 2142SOL    HW1 7325   1.308   2.236   2.687
 2142SOL    HW2 7326   1.233   2.091   2.696
 2143SOL     OW 7327   3.301   5.047   1.352
 2143SOL    HW1 7328   3.318   5.120   1.286
 2143SOL    HW2 7329   3.204   5.022   1.350
 2144SOL     OW 7330   1.237   6.438   3.445
 2144SOL    HW1 7331   1.299   6.477   3.513
 2144SOL    HW2 7332   1.237   6.496   3.363
 2145SOL     OW 7333   3.701   6.193   4.303
 2145SOL    HW1 7334   3.713   6.131   4.381
 2145SOL    HW2 7335   3.651   6.146   4.231
 2146SOL     OW 7336   2.861   3.206   1.961
 2146SOL    HW1 7337   2.884   3.280   2.024
 2146SOL    HW2 7338   2.888   3.118   2.002
 2147SOL     OW 7339   0.171   1.086   6.630
 2147SOL    HW1 7340   0.116   1.161   6.667
 2147SOL    HW2 7341   0.198   1.025   6.704
 2148SOL     OW 7342   5.210   2.649   4.005
 2148SOL    HW1 7343   5.300   2.651   3.963
 2148SOL    HW2 7344   5.140   2.642   3.934
 2149SOL     OW 7345   3.807   1.108   1.467
 2149SOL    HW1 7346   3.860   1.120   1.551
 2149SOL    HW2 7347   3.780   1.012   1.457
 2150SOL     OW 7348   2.227   2.457   2.563
 2150SOL    HW1 7349   2.142   2.505   2.584
 2150SOL    HW2 7350   2.223   2.365   2.602
 2151SOL     OW 7351   1.795   1.438   3.859
 2151SOL    HW1 7352   1.841   1.519   3.895
 2151SOL    HW2 7353   1.704   1.462   3.826
 2152SOL     OW 7354   3.625   6.212   1.187
 2152SOL    HW1 7355   3.699   6.265   1.146
 2152SOL    HW2 7356   3.647   6.193   1.283
 2153SOL     OW 7357   3.897   6.967   2.896
 2153SOL    HW1 7358   3.926   0.031   2.945
 2153SOL    HW2 7359   3.843   6.909   2.957
 2154SOL     OW 7360   5.138   0.635   4.484
 2154SOL    HW1 7361   5.070   0.580   4.434
 2154SOL    HW2 7362   5.108   0.731   4.486
 2155SOL     OW 7363   2.177   5.356   0.527
 2155SOL    HW1 7364   2.244   5.403   0.470
 2155SOL    HW2 7365   2.106   5.316   0.469
 2156SOL     OW 7366   2.619   0.743   2.761
 2156SOL    HW1 7367   2.573   0.655   2.775
 2156SOL    HW2 7368   2.718   0.728   2.761
 2157SOL     OW 7369   6.216   1.155   3.147
 2157SOL    HW1 7370   6.232   1.252   3.129
 2157SOL    HW2 7371   6.141   1.123   3.089
 2158SOL     OW 7372   4.315   6.333   0.838
 2158SOL    HW1 7373   4.370   6.415   0.853
 2158SOL    HW2 7374   4.218   6.358   0.831
 2159SOL     OW 7375   2.342   5.711   5.698
 2159SOL    HW1 7376   2.331   5.625   5.647
 2159SOL    HW2 7377   2.439   5.723   5.721
 2160SOL     OW 7378   4.597   3.616   1.309
 2160SOL    HW1 7379   4.627   3.561   1.231
 2160SOL    HW2 7380   4.615   3.713   1.290
 2161SOL     OW 7381   5.508   3.018   3.728
 2161SOL    HW1 7382   5.602   2.997   3.754
 2161SOL    HW2 7383   5.461   3.062   3.805
 2162SOL     OW 7384   3.052   0.620   0.214
 2162SOL    HW1 7385   3.047   0.572   0.126
 2162SOL    HW2 7386   3.077   0.715   0.198
 2163SOL     OW 7387   0.466   5.273   6.133
 2163SOL    HW1 7388   0.477   5.191   6.077
 2163SOL    HW2 7389   0.380   5.318   6.110
 2164SOL     OW 7390   1.641   2.201   0.349
 2164SOL    HW1 7391   1.658   2.105   0.372
 2164SOL    HW2 7392   1.703   2.229   0.276
 2165SOL     OW 7393   1.099   1.484   2.617
 2165SOL    HW1 7394   1.082   1.388   2.596
 2165SOL    HW2 7395   1.030   1.541   2.571
 2166SOL     OW 7396   2.266   1.725   5.463
 2166SOL    HW1 7397   2.275   1.672   5.379
 2166SOL    HW2 7398   2.169   1.739   5.483
 2167SOL     OW 7399   1.658   1.062   3.627
 2167SOL    HW1 7400   1.633   1.006   3.548
 2167SOL    HW2 7401   1.645   1.158   3.606
 2168SOL     OW 7402   0.508   2.230   3.586
 2168SOL    HW1 7403   0.438   2.240   3.657
 2168SOL    HW2 7404   0.574   2.160   3.613
 2169SOL     OW 7405   5.752   2.310   5.526
 2169SOL    HW1 7406   5.741   2.405   5.555
 2169SOL    HW2 7407   5.759   2.305   5.427
 2170SOL     OW 7408   5.426   4.781   5.738
 2170SOL    HW1 7409   5.510   4.732   5.712
 2170SOL    HW2 7410   5.408   4.854   5.672
 2171SOL     OW 7411   6.443   2.953   1.508
 2171SOL    HW1 7412   6.385   2.928   1.585
 2171SOL    HW2 7413   6.499   3.032   1.533
 2172SOL     OW 7414   2.915   1.523   0.329
 2172SOL    HW1 7415   2.932   1.532   0.427
 2172SOL    HW2 7416   2.849   1.450   0.313
 2173SOL     OW 7417   3.945   7.012   5.198
 2173SOL    HW1 7418   4.016   0.064   5.211
 2173SOL    HW2 7419   3.899   0.010   5.111
 2174SOL     OW 7420   5.658   4.917   5.947
 2174SOL    HW1 7421   5.620   5.002   5.910
 2174SOL    HW2 7422   5.710   4.870   5.877
 2175SOL     OW 7423   3.168   1.904   3.271
 2175SOL    HW1 7424   3.234   1.937   3.338
 2175SOL    HW2 7425   3.187   1.945   3.182
 2176SOL     OW 7426   1.127   2.952   0.025
 2176SOL    HW1 7427   1.214   2.994   0.052
 2176SOL    HW2 7428   1.054   3.021   0.029
 2177SOL     OW 7429   6.773   0.471   3.359
 2177SOL    HW1 7430   6.812   0.479   3.268
 2177SOL    HW2 7431   6.674   0.489   3.355
 2178SOL     OW 7432   1.555   4.129   0.420
 2178SOL    HW1 7433   1.641   4.078   0.408
 2178SOL    HW2 7434   1.572   4.209   0.477
 2179SOL     OW 7435   1.421   5.597   4.695
 2179SOL    HW1 7436   1.440   5.501   4.672
 2179SOL    HW2 7437   1.498   5.654   4.666
 2180SOL     OW 7438   2.873   3.453   2.135
 2180SOL    HW1 7439   2.935   3.531   2.123
 2180SOL    HW2 7440   2.779   3.485   2.129
 2181SOL     OW 7441   5.602   4.477   5.437
 2181SOL    HW1 7442   5.629   4.460   5.532
 2181SOL    HW2 7443   5.605   4.391   5.386
 2182SOL     OW 7444   6.415   2.918   5.049
 2182SOL    HW1 7445   6.321   2.924   5.082
 2182SOL    HW2 7446   6.421   2.958   4.957
 2183SOL     OW 7447   3.087   3.441   6.185
 2183SOL    HW1 7448   3.147   3.437   6.264
 2183SOL    HW2 7449   3.105   3.524   6.133
 2184SOL     OW 7450   3.793   1.393   5.225
 2184SOL    HW1 7451   3.776   1.472   5.165
 2184SOL    HW2 7452   3.722   1.388   5.295
 2185SOL     OW 7453   1.703   2.152   0.922
 2185SOL    HW1 7454   1.616   2.126   0.879
 2185SOL    HW2 7455   1.776   2.151   0.854
 2186SOL     OW 7456   6.948   4.662   2.247
 2186SOL    HW1 7457   6.953   4.579   2.191
 2186SOL    HW2 7458   6.852   4.682   2.267
 2187SOL     OW 7459   0.322   2.037   1.834
 2187SOL    HW1 7460   0.225   2.058   1.823
 2187SOL    HW2 7461   0.376   2.092   1.770
 2188SOL     OW 7462   5.337   5.968   3.926
 2188SOL    HW1 7463   5.418   5.919   3.956
 2188SOL    HW2 7464   5.363   6.056   3.887
 2189SOL     OW 7465   2.027   6.390   6.829
 2189SOL    HW1 7466   2.038   6.443   6.745
 2189SOL    HW2 7467   2.058   6.296   6.814
 2190SOL     OW 7468   0.345   2.705   2.290
 2190SOL    HW1 7469   0.279   2.689   2.216
 2190SOL    HW2 7470   0.345   2.802   2.314
 2191SOL     OW 7471   3.037   1.449   6.547
 2191SOL    HW1 7472   3.055   1.536   6.501
 2191SOL    HW2 7473   3.099   1.439   6.625
 2192SOL     OW 7474   3.768   6.996   4.006
 2192SOL    HW1 7475   3.686   6.942   4.025
 2192SOL    HW2 7476   3.742   0.071   3.981
 2193SOL     OW 7477   0.307   5.732   6.285
 2193SOL    HW1 7478   0.374   5.676   6.237
 2193SOL    HW2 7479   0.354   5.793   6.349
 2194SOL     OW 7480   2.478   4.531   0.006
 2194SOL    HW1 7481   2.546   4.535   6.951
 2194SOL    HW2 7482   2.486   4.612   0.064
 2195SOL     OW 7483   0.329   6.768   3.172
 2195SOL    HW1 7484   0.292   6.693   3.227
 2195SOL    HW2 7485   0.258   6.805   3.112
 2196SOL     OW 7486   3.036   0.283   5.276
 2196SOL    HW1 7487   2.997   0.257   5.187
 2196SOL    HW2 7488   3.055   0.200   5.329
 2197SOL     OW 7489   4.166   3.733   1.837
 2197SOL    HW1 7490   4.073   3.769   1.832
 2197SOL    HW2 7491   4.231   3.807   1.820
 2198SOL     OW 7492   6.521   1.666   0.087
 2198SOL    HW1 7493   6.515   1.623   7.015
 2198SOL    HW2 7494   6.583   1.613   0.145
 2199SOL     OW 7495   5.215   1.131   2.025
 2199SOL    HW1 7496   5.253   1.140   1.933
 2199SOL    HW2 7497   5.164   1.214   2.048
 2200SOL     OW 7498   4.305   0.113   4.243
 2200SOL    HW1 7499   4.351   0.076   4.324
 2200SOL    HW2 7500   4.282   0.209   4.258
 2201SOL     OW 7501   6.662   2.708   2.296
 2201SOL    HW1 7502   6.692   2.619   2.331
 2201SOL    HW2 7503   6.563   2.717   2.309
 2202SOL     OW 7504   3.756   4.874   4.147
 2202SOL    HW1 7505   3.840   4.893   4.199
 2202SOL    HW2 7506   3.738   4.775   4.150
 2203SOL     OW 7507   2.134   2.641   1.528
 2203SOL    HW1 7508   2.217   2.604   1.487
 2203SOL    HW2 7509   2.064   2.570   1.533
 2204SOL     OW 7510   3.454   1.508   6.893
 2204SOL    HW1 7511   3.468   1.446   6.970
 2204SOL    HW2 7512   3.407   1.590   6.925
 2205SOL     OW 7513   1.906   0.049   6.244
 2205SOL    HW1 7514   1.951   0.086   6.325
 2205SOL    HW2 7515   1.837   7.000   6.271
 2206SOL     OW 7516   2.851   3.913   5.465
 2206SOL    HW1 7517   2.868   3.950   5.556
 2206SOL    HW2 7518   2.755   3.886   5.456
 2207SOL     OW 7519   2.025   3.897   6.240
 2207SOL    HW1 7520   2.006   3.982   6.290
 2207SOL    HW2 7521   2.124   3.883   6.235
 2208SOL     OW 7522   1.941   5.000   2.592
 2208SOL    HW1 7523   1.928   5.052   2.507
 2208SOL    HW2 7524   1.949   5.064   2.669
 2209SOL     OW 7525   1.507   5.281   5.990
 2209SOL    HW1 7526   1.588   5.340   5.984
 2209SOL    HW2 7527   1.512   5.227   6.074
 2210SOL     OW 7528   0.335   4.552   3.547
 2210SOL    HW1 7529   0.236   4.567   3.542
 2210SOL    HW2 7530   0.357   4.498   3.628
 2211SOL     OW 7531   5.251   1.071   6.821
 2211SOL    HW1 7532   5.249   1.147   6.886
 2211SOL    HW2 7533   5.231   1.105   6.729
 2212SOL     OW 7534   1.770   5.924   0.954
 2212SOL    HW1 7535   1.696   5.987   0.931
 2212SOL    HW2 7536   1.831   5.966   1.021
 2213SOL     OW 7537   3.986   2.768   5.290
 2213SOL    HW1 7538   4.049   2.695   5.264
 2213SOL    HW2 7539   3.912   2.729   5.345
 2214SOL     OW 7540   5.013   1.842   5.333
 2214SOL    HW1 7541   4.973   1.926   5.296
 2214SOL    HW2 7542   5.053   1.789   5.258
 2215SOL     OW 7543   6.643   2.049   6.378
 2215SOL    HW1 7544   6.549   2.071   6.404
 2215SOL    HW2 7545   6.664   1.955   6.404
 2216SOL     OW 7546   1.953   0.686   6.632
 2216SOL    HW1 7547   2.010   0.607   6.608
 2216SOL    HW2 7548   1.859   0.668   6.605
 2217SOL     OW 7549   3.196   0.211   1.450
 2217SOL    HW1 7550   3.135   0.174   1.519
 2217SOL    HW2 7551   3.154   0.290   1.407
 2218SOL     OW 7552   1.343   6.918   1.013
 2218SOL    HW1 7553   1.338   6.894   0.916
 2218SOL    HW2 7554   1.289   6.853   1.066
 2219SOL     OW 7555   0.431   3.689   3.092
 2219SOL    HW1 7556   0.453   3.672   2.995
 2219SOL    HW2 7557   0.516   3.701   3.143
 2220SOL     OW 7558   0.378   1.118   4.507
 2220SOL    HW1 7559   0.404   1.211   4.534
 2220SOL    HW2 7560   0.336   1.120   4.416
 2221SOL     OW 7561   6.947   1.355   6.218
 2221SOL    HW1 7562   6.914   1.261   6.226
 2221SOL    HW2 7563   0.028   1.355   6.218
 2222SOL     OW 7564   3.594   0.647   1.095
 2222SOL    HW1 7565   3.645   0.638   1.180
 2222SOL    HW2 7566   3.531   0.724   1.101
 2223SOL     OW 7567   5.828   6.153   3.723
 2223SOL    HW1 7568   5.783   6.140   3.811
 2223SOL    HW2 7569   5.916   6.198   3.736
 2224SOL     OW 7570   2.306   4.707   2.305
 2224SOL    HW1 7571   2.377   4.665   2.361
 2224SOL    HW2 7572   2.228   4.730   2.362
 2225SOL     OW 7573   6.375   5.890   3.178
 2225SOL    HW1 7574   6.294   5.834   3.163
 2225SOL    HW2 7575   6.357   5.984   3.147
 2226SOL     OW 7576   4.286   4.052   0.776
 2226SOL    HW1 7577   4.264   4.002   0.860
 2226SOL    HW2 7578   4.210   4.114   0.753
 2227SOL     OW 7579   5.750   3.992   0.204
 2227SOL    HW1 7580   5.818   4.015   0.273
 2227SOL    HW2 7581   5.658   4.010   0.240
 2228SOL     OW 7582   3.005   5.815   0.759
 2228SOL    HW1 7583   3.060   5.764   0.825
 2228SOL    HW2 7584   3.050   5.813   0.670
 2229SOL     OW 7585   4.385   1.251   4.609
 2229SOL    HW1 7586   4.350   1.166   4.572
 2229SOL    HW2 7587   4.320   1.287   4.677
 2230SOL     OW 7588   0.498   5.645   5.301
 2230SOL    HW1 7589   0.482   5.556   5.257
 2230SOL    HW2 7590   0.411   5.691   5.316
 2231SOL     OW 7591   2.077   0.885   1.330
 2231SOL    HW1 7592   2.116   0.797   1.356
 2231SOL    HW2 7593   2.141   0.958   1.356
 2232SOL     OW 7594   1.112   2.245   3.878
 2232SOL    HW1 7595   1.111   2.205   3.970
 2232SOL    HW2 7596   1.190   2.209   3.827
 2233SOL     OW 7597   2.242   4.749   1.260
 2233SOL    HW1 7598   2.144   4.737   1.246
 2233SOL    HW2 7599   2.265   4.846   1.257
 2234SOL     OW 7600   4.682   1.863   1.461
 2234SOL    HW1 7601   4.676   1.848   1.560
 2234SOL    HW2 7602   4.686   1.775   1.414
 2235SOL     OW 7603   2.026   7.002   0.729
 2235SOL    HW1 7604   2.107   6.970   0.777
 2235SOL    HW2 7605   1.981   6.926   0.682
 2236SOL     OW 7606   0.410   4.417   0.365
 2236SOL    HW1 7607   0.372   4.361   0.291
 2236SOL    HW2 7608   0.416   4.512   0.336
 2237SOL     OW 7609   5.570   4.038   4.240
 2237SOL    HW1 7610   5.522   3.955   4.271
 2237SOL    HW2 7611   5.504   4.106   4.209
 2238SOL     OW 7612   6.207   5.639   2.280
 2238SOL    HW1 7613   6.163   5.638   2.369
 2238SOL    HW2 7614   6.263   5.556   2.269
 2239SOL     OW 7615   3.848   5.479   3.933
 2239SOL    HW1 7616   3.879   5.385   3.947
 2239SOL    HW2 7617   3.891   5.538   4.001
 2240SOL     OW 7618   5.525   6.254   3.865
 2240SOL    HW1 7619   5.516   6.267   3.766
 2240SOL    HW2 7620   5.444   6.288   3.911
 2241SOL     OW 7621   0.391   6.815   2.424
 2241SOL    HW1 7622   0.344   6.737   2.466
 2241SOL    HW2 7623   0.443   6.784   2.345
 2242SOL     OW 7624   5.325   2.450   2.898
 2242SOL    HW1 7625   5.248   2.396   2.932
 2242SOL    HW2 7626   5.387   2.471   2.974
 2243SOL     OW 7627   2.763   6.280   5.308
 2243SOL    HW1 7628   2.856   6.244   5.314
 2243SOL    HW2 7629   2.698   6.205   5.305
 2244SOL     OW 7630   3.546   0.775   3.315
 2244SOL    HW1 7631   3.446   0.781   3.317
 2244SOL    HW2 7632   3.584   0.863   3.286
 2245SOL     OW 7633   0.675   2.383   1.652
 2245SOL    HW1 7634   0.608   2.314   1.625
 2245SOL    HW2 7635   0.764   2.339   1.665
 2246SOL     OW 7636   1.520   1.516   4.369
 2246SOL    HW1 7637   1.472   1.603   4.383
 2246SOL    HW2 7638   1.453   1.443   4.358
 2247SOL     OW 7639   2.425   2.436   6.375
 2247SOL    HW1 7640   2.413   2.419   6.472
 2247SOL    HW2 7641   2.514   2.481   6.360
 2248SOL     OW 7642   4.589   3.724   6.407
 2248SOL    HW1 7643   4.499   3.699   6.442
 2248SOL    HW2 7644   4.629   3.646   6.358
 2249SOL     OW 7645   5.750   6.571   3.202
 2249SOL    HW1 7646   5.790   6.479   3.205
 2249SOL    HW2 7647   5.650   6.563   3.200
 2250SOL     OW 7648   5.368   3.914   1.178
 2250SOL    HW1 7649   5.373   3.846   1.105
 2250SOL    HW2 7650   5.295   3.889   1.242
 2251SOL     OW 7651   5.300   1.343   6.910
 2251SOL    HW1 7652   5.313   1.381   7.002
 2251SOL    HW2 7653   5.334   1.407   6.842
 2252SOL     OW 7654   6.718   2.608   4.191
 2252SOL    HW1 7655   6.633   2.582   4.146
 2252SOL    HW2 7656   6.750   2.695   4.155
 2253SOL     OW 7657   1.329   3.113   0.082
 2253SOL    HW1 7658   1.339   3.134   0.179
 2253SOL    HW2 7659   1.418   3.091   0.043
 2254SOL     OW 7660   2.172   2.948   5.591
 2254SOL    HW1 7661   2.253   2.890   5.592
 2254SOL    HW2 7662   2.094   2.897   5.628
 2255SOL     OW 7663   5.773   2.570   0.605
 2255SOL    HW1 7664   5.740   2.641   0.542
 2255SOL    HW2 7665   5.872   2.563   0.599
 2256SOL     OW 7666   3.908   5.941   1.675
 2256SOL    HW1 7667   3.954   6.025   1.705
 2256SOL    HW2 7668   3.814   5.963   1.648
 2257SOL     OW 7669   0.605   3.203   4.557
 2257SOL    HW1 7670   0.602   3.272   4.484
 2257SOL    HW2 7671   0.583   3.113   4.519
 2258SOL     OW 7672   1.297   5.653   5.151
 2258SOL    HW1 7673   1.276   5.743   5.190
 2258SOL    HW2 7674   1.299   5.585   5.223
 2259SOL     OW 7675   4.582   3.472   6.703
 2259SOL    HW1 7676   4.542   3.387   6.739
 2259SOL    HW2 7677   4.561   3.480   6.605
 2260SOL     OW 7678   5.315   4.756   3.127
 2260SOL    HW1 7679   5.311   4.835   3.067
 2260SOL    HW2 7680   5.268   4.679   3.085
 2261SOL     OW 7681   6.104   6.668   0.737
 2261SOL    HW1 7682   6.125   6.755   0.781
 2261SOL    HW2 7683   6.076   6.684   0.643
 2262SOL     OW 7684   5.957   3.011   2.557
 2262SOL    HW1 7685   5.889   3.013   2.630
 2262SOL    HW2 7686   5.937   3.084   2.491
 2263SOL     OW 7687   3.093   5.744   6.011
 2263SOL    HW1 7688   3.178   5.732   6.062
 2263SOL    HW2 7689   3.032   5.805   6.061
 2264SOL     OW 7690   2.857   3.654   2.606
 2264SOL    HW1 7691   2.895   3.702   2.686
 2264SOL    HW2 7692   2.848   3.717   2.530
 2265SOL     OW 7693   0.489   0.549   3.897
 2265SOL    HW1 7694   0.435   0.475   3.857
 2265SOL    HW2 7695   0.539   0.515   3.976
 2266SOL     OW 7696   6.329   1.280   1.155
 2266SOL    HW1 7697   6.404   1.226   1.117
 2266SOL    HW2 7698   6.268   1.219   1.207
 2267SOL     OW 7699   5.210   2.470   5.139
 2267SOL    HW1 7700   5.136   2.403   5.139
 2267SOL    HW2 7701   5.250   2.476   5.047
 2268SOL     OW 7702   6.580   4.760   6.733
 2268SOL    HW1 7703   6.528   4.724   6.656
 2268SOL    HW2 7704   6.616   4.684   6.788
 2269SOL     OW 7705   6.126   5.791   5.373
 2269SOL    HW1 7706   6.075   5.773   5.288
 2269SOL    HW2 7707   6.198   5.858   5.356
 2270SOL     OW 7708   3.792   3.055   6.833
 2270SOL    HW1 7709   3.813   3.100   6.920
 2270SOL    HW2 7710   3.709   2.999   6.845
 2271SOL     OW 7711   5.609   4.133   0.789
 2271SOL    HW1 7712   5.549   4.193   0.842
 2271SOL    HW2 7713   5.631   4.052   0.843
 2272SOL     OW 7714   6.063   2.005   4.971
 2272SOL    HW1 7715   6.089   1.921   4.923
 2272SOL    HW2 7716   6.041   2.076   4.904
 2273SOL     OW 7717   1.873   1.397   1.584
 2273SOL    HW1 7718   1.877   1.317   1.524
 2273SOL    HW2 7719   1.947   1.394   1.650
 2274SOL     OW 7720   0.512   2.962   5.915
 2274SOL    HW1 7721   0.574   2.977   5.993
 2274SOL    HW2 7722   0.447   2.889   5.937
 2275SOL     OW 7723   5.480   0.457   4.244
 2275SOL    HW1 7724   5.442   0.490   4.331
 2275SOL    HW2 7725   5.446   0.515   4.170
 2276SOL     OW 7726   3.010   5.024   1.365
 2276SOL    HW1 7727   2.952   5.096   1.327
 2276SOL    HW2 7728   2.977   5.000   1.457
 2277SOL     OW 7729   3.009   3.935   4.845
 2277SOL    HW1 7730   3.021   4.010   4.779
 2277SOL    HW2 7731   2.989   3.850   4.795
 2278SOL     OW 7732   5.049   6.854   4.579
 2278SOL    HW1 7733   4.984   6.883   4.649
 2278SOL    HW2 7734   5.054   6.923   4.508
 2279SOL     OW 7735   5.406   5.649   4.420
 2279SOL    HW1 7736   5.330   5.590   4.392
 2279SOL    HW2 7737   5.485   5.630   4.362
 2280SOL     OW 7738   6.898   6.421   5.041
 2280SOL    HW1 7739   6.855   6.486   4.980
 2280SOL    HW2 7740   6.924   6.338   4.990
 2281SOL     OW 7741   3.725   0.898   1.867
 2281SOL    HW1 7742   3.714   0.802   1.840
 2281SOL    HW2 7743   3.706   0.957   1.789
 2282SOL     OW 7744   5.386   0.506   4.492
 2282SOL    HW1 7745   5.304   0.559   4.470
 2282SOL    HW2 7746   5.410   0.522   4.588
 2283SOL     OW 7747   0.038   4.572   1.116
 2283SOL    HW1 7748   0.035   4.511   1.195
 2283SOL    HW2 7749   0.090   4.529   1.042
 2284SOL     OW 7750   2.106   1.418   0.134
 2284SOL    HW1 7751   2.187   1.456   0.090
 2284SOL    HW2 7752   2.116   1.424   0.234
 2285SOL     OW 7753   2.004   3.325   0.179
 2285SOL    HW1 7754   2.045   3.236   0.197
 2285SOL    HW2 7755   1.928   3.340   0.242
 2286SOL     OW 7756   6.297   6.461   4.263
 2286SOL    HW1 7757   6.337   6.495   4.349
 2286SOL    HW2 7758   6.307   6.531   4.192
 2287SOL     OW 7759   2.714   2.535   1.765
 2287SOL    HW1 7760   2.670   2.622   1.740
 2287SOL    HW2 7761   2.798   2.524   1.713
 2288SOL     OW 7762   6.864   4.808   4.425
 2288SOL    HW1 7763   6.802   4.825   4.349
 2288SOL    HW2 7764   6.824   4.842   4.510
 2289SOL     OW 7765   6.319   4.192   2.909
 2289SOL    HW1 7766   6.231   4.236   2.891
 2289SOL    HW2 7767   6.350   4.145   2.826
 2290SOL     OW 7768   2.096   3.566   2.126
 2290SOL    HW1 7769   2.011   3.542   2.079
 2290SOL    HW2 7770   2.173   3.520   2.080
 2291SOL     OW 7771   2.217   1.973   0.426
 2291SOL    HW1 7772   2.306   1.934   0.451
 2291SOL    HW2 7773   2.151   1.953   0.498
 2292SOL     OW 7774   5.086   2.138   3.423
 2292SOL    HW1 7775   5.150   2.101   3.490
 2292SOL    HW2 7776   5.008   2.076   3.414
 2293SOL     OW 7777   6.928   0.295   0.699
 2293SOL    HW1 7778   6.896   0.388   0.679
 2293SOL    HW2 7779   7.014   0.300   0.749
 2294SOL     OW 7780   3.408   1.657   5.947
 2294SOL    HW1 7781   3.463   1.581   5.983
 2294SOL    HW2 7782   3.468   1.724   5.904
 2295SOL     OW 7783   0.691   1.605   3.156
 2295SOL    HW1 7784   0.736   1.570   3.075
 2295SOL    HW2 7785   0.741   1.576   3.238
 2296SOL     OW 7786   2.664   4.932   3.013
 2296SOL    HW1 7787   2.740   4.905   3.072
 2296SOL    HW2 7788   2.586   4.959   3.071
 2297SOL     OW 7789   4.911   4.628   6.033
 2297SOL    HW1 7790   4.967   4.668   5.960
 2297SOL    HW2 7791   4.957   4.639   6.121
 2298SOL     OW 7792   3.731   3.971   2.637
 2298SOL    HW1 7793   3.703   4.007   2.548
 2298SOL    HW2 7794   3.714   3.873   2.640
 2299SOL     OW 7795   5.042   4.304   5.099
 2299SOL    HW1 7796   5.062   4.238   5.027
 2299SOL    HW2 7797   5.128   4.343   5.133
 2300SOL     OW 7798   2.636   6.530   3.362
 2300SOL    HW1 7799   2.666   6.462   3.295
 2300SOL    HW2 7800   2.562   6.492   3.418
 2301SOL     OW 7801   3.819   2.921   3.756
 2301SOL    HW1 7802   3.895   2.864   3.726
 2301SOL    HW2 7803   3.825   2.937   3.855
 2302SOL     OW 7804   3.330   0.554   1.255
 2302SOL    HW1 7805   3.318   0.528   1.159
 2302SOL    HW2 7806   3.402   0.497   1.296
 2303SOL     OW 7807   2.488   3.245   1.086
 2303SOL    HW1 7808   2.424   3.322   1.086
 2303SOL    HW2 7809   2.576   3.275   1.124
 2304SOL     OW 7810   5.585   6.076   4.447
 2304SOL    HW1 7811   5.612   6.124   4.364
 2304SOL    HW2 7812   5.581   6.140   4.524
 2305SOL     OW 7813   2.410   0.564   3.293
 2305SOL    HW1 7814   2.500   0.551   3.333
 2305SOL    HW2 7815   2.414   0.542   3.195
 2306SOL     OW 7816   1.720   5.484   1.533
 2306SOL    HW1 7817   1.652   5.535   1.586
 2306SOL    HW2 7818   1.727   5.391   1.568
 2307SOL     OW 7819   0.225   3.023   5.609
 2307SOL    HW1 7820   0.221   2.924   5.595
 2307SOL    HW2 7821   0.295   3.045   5.676
 2308SOL     OW 7822   2.659   4.745   1.468
 2308SOL    HW1 7823   2.660   4.654   1.509
 2308SOL    HW2 7824   2.567   4.784   1.476
 2309SOL     OW 7825   1.864   0.874   4.620
 2309SOL    HW1 7826   1.838   0.849   4.526
 2309SOL    HW2 7827   1.785   0.867   4.679
 2310SOL     OW 7828   5.714   5.970   2.148
 2310SOL    HW1 7829   5.796   5.928   2.110
 2310SOL    HW2 7830   5.634   5.940   2.097
 2311SOL     OW 7831   2.880   6.178   0.250
 2311SOL    HW1 7832   2.946   6.227   0.193
 2311SOL    HW2 7833   2.915   6.171   0.343
 2312SOL     OW 7834   4.294   5.509   3.309
 2312SOL    HW1 7835   4.237   5.433   3.341
 2312SOL    HW2 7836   4.383   5.506   3.354
 2313SOL     OW 7837   4.630   5.290   2.295
 2313SOL    HW1 7838   4.624   5.318   2.391
 2313SOL    HW2 7839   4.544   5.309   2.249
 2314SOL     OW 7840   4.437   6.456   2.582
 2314SOL    HW1 7841   4.346   6.418   2.568
 2314SOL    HW2 7842   4.496   6.387   2.624
 2315SOL     OW 7843   5.193   3.260   5.940
 2315SOL    HW1 7844   5.217   3.163   5.945
 2315SOL    HW2 7845   5.259   3.314   5.991
 2316SOL     OW 7846   4.830   2.047   4.083
 2316SOL    HW1 7847   4.778   2.030   4.167
 2316SOL    HW2 7848   4.797   1.986   4.011
 2317SOL     OW 7849   0.235   5.614   3.082
 2317SOL    HW1 7850   0.257   5.709   3.105
 2317SOL    HW2 7851   0.227   5.605   2.983
 2318SOL     OW 7852   0.438   3.133   3.568
 2318SOL    HW1 7853   0.478   3.205   3.511
 2318SOL    HW2 7854   0.475   3.138   3.660
 2319SOL     OW 7855   1.469   4.670   4.508
 2319SOL    HW1 7856   1.517   4.594   4.551
 2319SOL    HW2 7857   1.386   4.691   4.561
 2320SOL     OW 7858   0.990   2.643   4.374
 2320SOL    HW1 7859   1.060   2.666   4.307
 2320SOL    HW2 7860   0.927   2.576   4.335
 2321SOL     OW 7861   3.024   1.132   5.106
 2321SOL    HW1 7862   3.009   1.106   5.011
 2321SOL    HW2 7863   3.114   1.100   5.136
 2322SOL     OW 7864   2.459   1.649   5.192
 2322SOL    HW1 7865   2.505   1.614   5.274
 2322SOL    HW2 7866   2.498   1.605   5.111
 2323SOL     OW 7867   2.848   4.846   2.484
 2323SOL    HW1 7868   2.825   4.815   2.576
 2323SOL    HW2 7869   2.941   4.883   2.483
 2324SOL     OW 7870   0.399   6.437   3.034
 2324SOL    HW1 7871   0.322   6.471   3.087
 2324SOL    HW2 7872   0.387   6.462   2.938
 2325SOL     OW 7873   0.851   4.284   1.277
 2325SOL    HW1 7874   0.805   4.210   1.227
 2325SOL    HW2 7875   0.922   4.324   1.221
 2326SOL     OW 7876   2.806   3.993   6.196
 2326SOL    HW1 7877   2.889   4.004   6.251
 2326SOL    HW2 7878   2.831   3.984   6.100
 2327SOL     OW 7879   5.234   2.682   4.658
 2327SOL    HW1 7880   5.234   2.759   4.594
 2327SOL    HW2 7881   5.294   2.704   4.736
 2328SOL     OW 7882   4.604   1.749   3.709
 2328SOL    HW1 7883   4.532   1.703   3.657
 2328SOL    HW2 7884   4.673   1.784   3.645
 2329SOL     OW 7885   1.687   5.294   4.884
 2329SOL    HW1 7886   1.691   5.194   4.890
 2329SOL    HW2 7887   1.632   5.320   4.805
 2330SOL     OW 7888   6.909   4.411   2.140
 2330SOL    HW1 7889   6.951   4.427   2.051
 2330SOL    HW2 7890   6.814   4.383   2.128
 2331SOL     OW 7891   6.435   5.103   6.521
 2331SOL    HW1 7892   6.462   5.073   6.430
 2331SOL    HW2 7893   6.363   5.173   6.514
 2332SOL     OW 7894   4.533   1.913   5.160
 2332SOL    HW1 7895   4.617   1.922   5.214
 2332SOL    HW2 7896   4.495   1.821   5.172
 2333SOL     OW 7897   6.646   5.123   2.810
 2333SOL    HW1 7898   6.611   5.195   2.751
 2333SOL    HW2 7899   6.644   5.154   2.905
 2334SOL     OW 7900   2.821   6.953   0.393
 2334SOL    HW1 7901   2.752   6.936   0.463
 2334SOL    HW2 7902   2.785   7.018   0.325
 2335SOL     OW 7903   5.836   0.644   3.023
 2335SOL    HW1 7904   5.768   0.714   3.045
 2335SOL    HW2 7905   5.897   0.630   3.101
 2336SOL     OW 7906   4.896   1.720   5.529
 2336SOL    HW1 7907   4.883   1.799   5.589
 2336SOL    HW2 7908   4.947   1.749   5.447
 2337SOL     OW 7909   4.875   0.764   3.741
 2337SOL    HW1 7910   4.931   0.685   3.767
 2337SOL    HW2 7911   4.867   0.768   3.641
 2338SOL     OW 7912   1.084   0.131   6.622
 2338SOL    HW1 7913   1.034   0.214   6.646
 2338SOL    HW2 7914   1.181   0.153   6.610
 2339SOL     OW 7915   3.623   4.044   5.507
 2339SOL    HW1 7916   3.616   4.030   5.408
 2339SOL    HW2 7917   3.702   3.993   5.542
 2340SOL     OW 7918   4.325   6.727   5.557
 2340SOL    HW1 7919   4.422   6.746   5.570
 2340SOL    HW2 7920   4.274   6.813   5.559
 2341SOL     OW 7921   4.653   4.134   1.008
 2341SOL    HW1 7922   4.600   4.213   1.039
 2341SOL    HW2 7923   4.739   4.130   1.058
 2342SOL     OW 7924   1.195   6.150   5.668
 2342SOL    HW1 7925   1.139   6.084   5.618
 2342SOL    HW2 7926   1.287   6.114   5.680
 2343SOL     OW 7927   1.977   6.415   1.209
 2343SOL    HW1 7928   1.967   6.350   1.284
 2343SOL    HW2 7929   1.894   6.470   1.202
 2344SOL     OW 7930   2.134   1.278   1.308
 2344SOL    HW1 7931   2.170   1.368   1.332
 2344SOL    HW2 7932   2.104   1.280   1.212
 2345SOL     OW 7933   1.900   6.571   5.731
 2345SOL    HW1 7934   1.876   6.666   5.754
 2345SOL    HW2 7935   1.906   6.517   5.814
 2346SOL     OW 7936   4.693   2.793   5.122
 2346SOL    HW1 7937   4.781   2.776   5.076
 2346SOL    HW2 7938   4.688   2.889   5.148
 2347SOL     OW 7939   1.762   4.193   1.781
 2347SOL    HW1 7940   1.777   4.173   1.878
 2347SOL    HW2 7941   1.790   4.287   1.761
 2348SOL     OW 7942   2.205   5.998   3.584
 2348SOL    HW1 7943   2.204   6.097   3.574
 2348SOL    HW2 7944   2.184   5.973   3.679
 2349SOL     OW 7945   0.713   6.682   0.188
 2349SOL    HW1 7946   0.790   6.635   0.145
 2349SOL    HW2 7947   0.747   6.745   0.258
 2350SOL     OW 7948   4.108   6.926   5.648
 2350SOL    HW1 7949   4.042   6.851   5.651
 2350SOL    HW2 7950   4.163   6.925   5.731
 2351SOL     OW 7951   3.275   5.482   3.340
 2351SOL    HW1 7952   3.345   5.463   3.409
 2351SOL    HW2 7953   3.187   5.444   3.371
 2352SOL     OW 7954   0.416   4.553   3.130
 2352SOL    HW1 7955   0.450   4.628   3.187
 2352SOL    HW2 7956   0.483   4.532   3.059
 2353SOL     OW 7957   2.403   4.345   4.615
 2353SOL    HW1 7958   2.359   4.407   4.679
 2353SOL    HW2 7959   2.502   4.348   4.629
 2354SOL     OW 7960   3.618   2.214   6.610
 2354SOL    HW1 7961   3.545   2.153   6.578
 2354SOL    HW2 7962   3.685   2.161   6.662
 2355SOL     OW 7963   0.592   5.736   0.716
 2355SOL    HW1 7964   0.511   5.724   0.773
 2355SOL    HW2 7965   0.590   5.672   0.640
 2356SOL     OW 7966   2.505   3.471   1.466
 2356SOL    HW1 7967   2.452   3.438   1.545
 2356SOL    HW2 7968   2.457   3.447   1.382
 2357SOL     OW 7969   4.177   4.738   3.605
 2357SOL    HW1 7970   4.223   4.802   3.665
 2357SOL    HW2 7971   4.194   4.645   3.635
 2358SOL     OW 7972   3.054   6.246   4.340
 2358SOL    HW1 7973   2.996   6.242   4.259
 2358SOL    HW2 7974   3.011   6.196   4.415
 2359SOL     OW 7975   1.994   0.754   6.075
 2359SOL    HW1 7976   2.066   0.807   6.030
 2359SOL    HW2 7977   1.960   0.803   6.155
 2360SOL     OW 7978   4.544   4.784   6.266
 2360SOL    HW1 7979   4.609   4.715   6.235
 2360SOL    HW2 7980   4.522   4.768   6.362
 2361SOL     OW 7981   2.765   7.004   4.158
 2361SOL    HW1 7982   2.740   0.070   4.111
 2361SOL    HW2 7983   2.784   6.932   4.091
 2362SOL     OW 7984   4.499   6.444   5.230
 2362SOL    HW1 7985   4.432   6.383   5.187
 2362SOL    HW2 7986   4.494   6.535   5.187
 2363SOL     OW 7987   4.608   2.464   4.918
 2363SOL    HW1 7988   4.704   2.461   4.948
 2363SOL    HW2 7989   4.588   2.554   4.878
 2364SOL     OW 7990   6.057   2.179   2.344
 2364SOL    HW1 7991   6.089   2.177   2.249
 2364SOL    HW2 7992   5.981   2.244   2.352
 2365SOL     OW 7993   5.958   4.265   5.454
 2365SOL    HW1 7994   6.054   4.241   5.439
 2365SOL    HW2 7995   5.928   4.229   5.542
 2366SOL     OW 7996   1.011   4.307   5.649
 2366SOL    HW1 7997   1.051   4.297   5.740
 2366SOL    HW2 7998   0.918   4.268   5.648
 2367SOL     OW 7999   1.143   3.441   6.417
 2367SOL    HW1 8000   1.081   3.416   6.342
 2367SOL    HW2 8001   1.150   3.364   6.481
 2368SOL     OW 8002   4.594   0.971   5.171
 2368SOL    HW1 8003   4.676   0.981   5.228
 2368SOL    HW2 8004   4.613   0.906   5.098
 2369SOL     OW 8005   2.283   1.998   3.912
 2369SOL    HW1 8006   2.349   2.059   3.867
 2369SOL    HW2 8007   2.295   2.004   4.011
 2370SOL     OW 8008   4.333   3.539   0.594
 2370SOL    HW1 8009   4.426   3.572   0.576
 2370SOL    HW2 8010   4.277   3.551   0.511
 2371SOL     OW 8011   1.631   5.861   2.394
 2371SOL    HW1 8012   1.652   5.827   2.486
 2371SOL    HW2 8013   1.700   5.928   2.367
 2372SOL     OW 8014   0.588   1.672   0.300
 2372SOL    HW1 8015   0.639   1.692   0.217
 2372SOL    HW2 8016   0.566   1.757   0.348
 2373SOL     OW 8017   6.157   1.212   6.560
 2373SOL    HW1 8018   6.086   1.143   6.561
 2373SOL    HW2 8019   6.123   1.295   6.516
 2374SOL     OW 8020   6.408   6.019   3.602
 2374SOL    HW1 8021   6.324   5.995   3.554
 2374SOL    HW2 8022   6.413   6.119   3.613
 2375SOL     OW 8023   0.519   0.344   4.692
 2375SOL    HW1 8024   0.485   0.355   4.598
 2375SOL    HW2 8025   0.617   0.362   4.694
 2376SOL     OW 8026   6.135   2.959   3.212
 2376SOL    HW1 8027   6.066   3.024   3.244
 2376SOL    HW2 8028   6.181   2.918   3.291
 2377SOL     OW 8029   3.302   3.766   4.411
 2377SOL    HW1 8030   3.312   3.695   4.341
 2377SOL    HW2 8031   3.270   3.724   4.496
 2378SOL     OW 8032   5.464   1.715   0.436
 2378SOL    HW1 8033   5.490   1.793   0.378
 2378SOL    HW2 8034   5.517   1.717   0.520
 2379SOL     OW 8035   6.738   3.435   6.892
 2379SOL    HW1 8036   6.638   3.434   6.895
 2379SOL    HW2 8037   6.770   3.530   6.891
 2380SOL     OW 8038   6.476   0.885   5.451
 2380SOL    HW1 8039   6.474   0.793   5.491
 2380SOL    HW2 8040   6.390   0.902   5.402
 2381SOL     OW 8041   1.452   4.295   5.101
 2381SOL    HW1 8042   1.423   4.367   5.039
 2381SOL    HW2 8043   1.525   4.241   5.058
 2382SOL     OW 8044   2.284   5.475   2.811
 2382SOL    HW1 8045   2.233   5.408   2.865
 2382SOL    HW2 8046   2.289   5.562   2.861
 2383SOL     OW 8047   5.721   6.672   6.227
 2383SOL    HW1 8048   5.808   6.630   6.253
 2383SOL    HW2 8049   5.650   6.601   6.220
 2384SOL     OW 8050   1.496   2.031   1.647
 2384SOL    HW1 8051   1.439   2.080   1.581
 2384SOL    HW2 8052   1.576   1.992   1.601
 2385SOL     OW 8053   0.608   0.458   0.905
 2385SOL    HW1 8054   0.682   0.503   0.955
 2385SOL    HW2 8055   0.645   0.408   0.828
 2386SOL     OW 8056   3.152   5.458   4.270
 2386SOL    HW1 8057   3.111   5.425   4.355
 2386SOL    HW2 8058   3.079   5.489   4.208
 2387SOL     OW 8059   6.597   3.157   4.276
 2387SOL    HW1 8060   6.651   3.074   4.263
 2387SOL    HW2 8061   6.528   3.141   4.346
 2388SOL     OW 8062   0.975   1.552   5.917
 2388SOL    HW1 8063   0.951   1.461   5.882
 2388SOL    HW2 8064   0.953   1.621   5.849
 2389SOL     OW 8065   4.399   4.579   4.092
 2389SOL    HW1 8066   4.402   4.679   4.090
 2389SOL    HW2 8067   4.469   4.545   4.155
 2390SOL     OW 8068   3.641   4.034   4.973
 2390SOL    HW1 8069   3.632   3.960   4.907
 2390SOL    HW2 8070   3.734   4.070   4.970
 2391SOL     OW 8071   3.551   4.065   6.172
 2391SOL    HW1 8072   3.582   3.986   6.225
 2391SOL    HW2 8073   3.607   4.145   6.196
 2392SOL     OW 8074   3.246   4.163   6.622
 2392SOL    HW1 8075   3.228   4.191   6.528
 2392SOL    HW2 8076   3.186   4.214   6.684
 2393SOL     OW 8077   3.937   5.599   1.111
 2393SOL    HW1 8078   3.846   5.574   1.145
 2393SOL    HW2 8079   4.007   5.568   1.175
 2394SOL     OW 8080   0.421   3.898   4.440
 2394SOL    HW1 8081   0.472   3.811   4.444
 2394SOL    HW2 8082   0.406   3.923   4.344
 2395SOL     OW 8083   6.791   2.713   6.507
 2395SOL    HW1 8084   6.778   2.630   6.561
 2395SOL    HW2 8085   6.874   2.760   6.537
 2396SOL     OW 8086   5.678   6.479   0.845
 2396SOL    HW1 8087   5.681   6.414   0.921
 2396SOL    HW2 8088   5.584   6.514   0.835
 2397SOL     OW 8089   6.778   5.146   0.154
 2397SOL    HW1 8090   6.865   5.162   0.107
 2397SOL    HW2 8091   6.758   5.222   0.214
 2398SOL     OW 8092   2.676   4.765   4.796
 2398SOL    HW1 8093   2.695   4.863   4.811
 2398SOL    HW2 8094   2.718   4.712   4.869
 2399SOL     OW 8095   3.950   1.506   3.388
 2399SOL    HW1 8096   4.028   1.472   3.440
 2399SOL    HW2 8097   3.913   1.433   3.331
 2400SOL     OW 8098   2.797   3.672   0.800
 2400SOL    HW1 8099   2.717   3.677   0.860
 2400SOL    HW2 8100   2.774   3.618   0.719
 2401SOL     OW 8101   3.343   0.692   4.413
 2401SOL    HW1 8102   3.262   0.745   4.439
 2401SOL    HW2 8103   3.385   0.652   4.494
 2402SOL     OW 8104   0.313   1.503   3.849
 2402SOL    HW1 8105   0.261   1.443   3.789
 2402SOL    HW2 8106   0.264   1.590   3.860
 2403SOL     OW 8107   3.528   2.825   0.793
 2403SOL    HW1 8108   3.450   2.765   0.774
 2403SOL    HW2 8109   3.599   2.811   0.724
 2404SOL     OW 8110   5.788   1.502   2.050
 2404SOL    HW1 8111   5.875   1.526   2.094
 2404SOL    HW2 8112   5.774   1.560   1.970
 2405SOL     OW 8113   3.638   4.291   5.586
 2405SOL    HW1 8114   3.607   4.197   5.575
 2405SOL    HW2 8115   3.605   4.346   5.509
 2406SOL     OW 8116   2.301   0.302   3.775
 2406SOL    HW1 8117   2.229   0.275   3.711
 2406SOL    HW2 8118   2.303   0.402   3.781
 2407SOL     OW 8119   4.815   2.811   2.623
 2407SOL    HW1 8120   4.831   2.892   2.679
 2407SOL    HW2 8121   4.800   2.839   2.528
 2408SOL     OW 8122   3.325   4.911   3.285
 2408SOL    HW1 8123   3.413   4.883   3.246
 2408SOL    HW2 8124   3.325   4.893   3.383
 2409SOL     OW 8125   2.112   2.801   1.132
 2409SOL    HW1 8126   2.146   2.769   1.044
 2409SOL    HW2 8127   2.108   2.901   1.132
 2410SOL     OW 8128   6.179   3.605   5.541
 2410SOL    HW1 8129   6.085   3.577   5.558
 2410SOL    HW2 8130   6.208   3.573   5.450
 2411SOL     OW 8131   3.211   3.610   5.716
 2411SOL    HW1 8132   3.148   3.538   5.745
 2411SOL    HW2 8133   3.301   3.571   5.697
 2412SOL     OW 8134   3.369   3.296   0.458
 2412SOL    HW1 8135   3.416   3.358   0.395
 2412SOL    HW2 8136   3.431   3.223   0.484
 2413SOL     OW 8137   5.734   3.724   6.470
 2413SOL    HW1 8138   5.815   3.781   6.487
 2413SOL    HW2 8139   5.660   3.780   6.434
 2414SOL     OW 8140   5.606   3.724   3.042
 2414SOL    HW1 8141   5.597   3.656   2.969
 2414SOL    HW2 8142   5.534   3.710   3.110
 2415SOL     OW 8143   2.065   0.226   1.844
 2415SOL    HW1 8144   2.001   0.229   1.767
 2415SOL    HW2 8145   2.057   0.138   1.891
 2416SOL     OW 8146   1.315   1.597   4.887
 2416SOL    HW1 8147   1.397   1.630   4.935
 2416SOL    HW2 8148   1.246   1.570   4.954
 2417SOL     OW 8149   5.250   1.978   1.146
 2417SOL    HW1 8150   5.198   1.948   1.066
 2417SOL    HW2 8151   5.348   1.980   1.123
 2418SOL     OW 8152   2.966   3.520   5.078
 2418SOL    HW1 8153   2.912   3.441   5.049
 2418SOL    HW2 8154   2.962   3.529   5.177
 2419SOL     OW 8155   1.301   6.714   5.329
 2419SOL    HW1 8156   1.216   6.683   5.372
 2419SOL    HW2 8157   1.283   6.795   5.273
 2420SOL     OW 8158   3.955   7.005   2.192
 2420SOL    HW1 8159   3.941   6.985   2.289
 2420SOL    HW2 8160   4.041   6.966   2.162
 2421SOL     OW 8161   3.353   6.938   4.286
 2421SOL    HW1 8162   3.286   6.996   4.240
 2421SOL    HW2 8163   3.307   6.858   4.325
 2422SOL     OW 8164   4.878   0.293   0.521
 2422SOL    HW1 8165   4.846   0.224   0.586
 2422SOL    HW2 8166   4.917   0.371   0.572
 2423SOL     OW 8167   1.925   5.236   1.929
 2423SOL    HW1 8168   1.937   5.308   1.997
 2423SOL    HW2 8169   1.930   5.276   1.837
 2424SOL     OW 8170   5.653   6.479   6.492
 2424SOL    HW1 8171   5.596   6.488   6.410
 2424SOL    HW2 8172   5.702   6.565   6.508
 2425SOL     OW 8173   5.658   6.724   5.889
 2425SOL    HW1 8174   5.637   6.784   5.966
 2425SOL    HW2 8175   5.756   6.703   5.889
 2426SOL     OW 8176   0.864   5.585   4.460
 2426SOL    HW1 8177   0.781   5.546   4.419
 2426SOL    HW2 8178   0.846   5.610   4.555
 2427SOL     OW 8179   5.449   5.705   6.996
 2427SOL    HW1 8180   5.434   5.753   6.910
 2427SOL    HW2 8181   5.526   5.747   0.027
 2428SOL     OW 8182   0.442   0.668   2.974
 2428SOL    HW1 8183   0.374   0.616   3.026
 2428SOL    HW2 8184   0.398   0.711   2.895
 2429SOL     OW 8185   6.273   4.711   2.942
 2429SOL    HW1 8186   6.350   4.773   2.924
 2429SOL    HW2 8187   6.253   4.710   3.040
 2430SOL     OW 8188   5.249   2.777   0.818
 2430SOL    HW1 8189   5.235   2.681   0.844
 2430SOL    HW2 8190   5.347   2.797   0.818
 2431SOL     OW 8191   4.594   1.055   1.003
 2431SOL    HW1 8192   4.691   1.047   0.979
 2431SOL    HW2 8193   4.570   0.983   1.069
 2432SOL     OW 8194   3.218   6.512   2.529
 2432SOL    HW1 8195   3.164   6.473   2.454
 2432SOL    HW2 8196   3.176   6.598   2.559
 2433SOL     OW 8197   2.080   6.629   6.981
 2433SOL    HW1 8198   2.151   6.689   6.945
 2433SOL    HW2 8199   2.061   6.555   6.916
 2434SOL     OW 8200   5.103   1.603   3.152
 2434SOL    HW1 8201   5.114   1.578   3.249
 2434SOL    HW2 8202   5.013   1.571   3.120
 2435SOL     OW 8203   5.307   4.609   0.201
 2435SOL    HW1 8204   5.252   4.619   0.284
 2435SOL    HW2 8205   5.247   4.584   0.125
 2436SOL     OW 8206   2.028   6.862   1.441
 2436SOL    HW1 8207   2.030   6.871   1.541
 2436SOL    HW2 8208   2.091   6.929   1.401
 2437SOL     OW 8209   5.233   6.358   1.428
 2437SOL    HW1 8210   5.143   6.402   1.432
 2437SOL    HW2 8211   5.263   6.335   1.521
 2438SOL     OW 8212   4.285   1.037   4.497
 2438SOL    HW1 8213   4.343   0.957   4.488
 2438SOL    HW2 8214   4.190   1.008   4.513
 2439SOL     OW 8215   1.002   4.268   0.483
 2439SOL    HW1 8216   0.971   4.342   0.423
 2439SOL    HW2 8217   1.089   4.293   0.526
 2440SOL     OW 8218   3.997   6.437   5.480
 2440SOL    HW1 8219   4.096   6.427   5.469
 2440SOL    HW2 8220   3.960   6.356   5.525
 2441SOL     OW 8221   5.906   0.530   0.049
 2441SOL    HW1 8222   5.895   0.443   0.000
 2441SOL    HW2 8223   5.844   0.598   0.010
 2442SOL     OW 8224   5.625   5.452   2.847
 2442SOL    HW1 8225   5.631   5.412   2.938
 2442SOL    HW2 8226   5.695   5.523   2.837
 2443SOL     OW 8227   2.917   0.242   6.229
 2443SOL    HW1 8228   2.849   0.262   6.158
 2443SOL    HW2 8229   3.008   0.263   6.196
 2444SOL     OW 8230   3.562   3.825   0.205
 2444SOL    HW1 8231   3.528   3.828   0.111
 2444SOL    HW2 8232   3.644   3.769   0.209
 2445SOL     OW 8233   6.521   1.229   1.924
 2445SOL    HW1 8234   6.589   1.254   1.993
 2445SOL    HW2 8235   6.447   1.177   1.968
 2446SOL     OW 8236   0.971   3.172   4.838
 2446SOL    HW1 8237   1.066   3.185   4.809
 2446SOL    HW2 8238   0.968   3.158   4.936
 2447SOL     OW 8239   2.312   1.385   1.008
 2447SOL    HW1 8240   2.368   1.388   1.091
 2447SOL    HW2 8241   2.252   1.465   1.005
 2448SOL     OW 8242   6.505   1.234   4.069
 2448SOL    HW1 8243   6.554   1.193   4.146
 2448SOL    HW2 8244   6.407   1.226   4.085
 2449SOL     OW 8245   0.266   4.041   1.935
 2449SOL    HW1 8246   0.327   4.119   1.919
 2449SOL    HW2 8247   0.258   3.987   1.851
 2450SOL     OW 8248   3.488   4.863   6.444
 2450SOL    HW1 8249   3.518   4.818   6.360
 2450SOL    HW2 8250   3.438   4.798   6.501
 2451SOL     OW 8251   1.377   6.988   3.503
 2451SOL    HW1 8252   1.294   6.973   3.558
 2451SOL    HW2 8253   1.446   6.921   3.529
 2452SOL     OW 8254   3.033   1.940   3.831
 2452SOL    HW1 8255   3.122   1.985   3.838
 2452SOL    HW2 8256   2.963   2.007   3.807
 2453SOL     OW 8257   0.278   3.471   0.440
 2453SOL    HW1 8258   0.265   3.392   0.500
 2453SOL    HW2 8259   0.234   3.454   0.352
 2454SOL     OW 8260   3.224   0.594   6.873
 2454SOL    HW1 8261   3.173   0.624   6.792
 2454SOL    HW2 8262   3.208   0.497   6.889
 2455SOL     OW 8263   4.081   0.522   0.495
 2455SOL    HW1 8264   4.149   0.537   0.424
 2455SOL    HW2 8265   4.013   0.595   0.492
 2456SOL     OW 8266   6.381   2.472   0.055
 2456SOL    HW1 8267   6.420   2.460   6.982
 2456SOL    HW2 8268   6.363   2.383   0.096
 2457SOL     OW 8269   6.367   0.806   6.229
 2457SOL    HW1 8270   6.289   0.832   6.285
 2457SOL    HW2 8271   6.407   0.721   6.262
 2458SOL     OW 8272   1.467   6.483   3.846
 2458SOL    HW1 8273   1.499   6.404   3.898
 2458SOL    HW2 8274   1.383   6.518   3.888
 2459SOL     OW 8275   2.900   5.928   6.073
 2459SOL    HW1 8276   2.919   5.986   6.152
 2459SOL    HW2 8277   2.824   5.866   6.094
 2460SOL     OW 8278   1.152   1.279   1.515
 2460SOL    HW1 8279   1.174   1.317   1.604
 2460SOL    HW2 8280   1.236   1.265   1.462
 2461SOL     OW 8281   5.247   0.830   2.953
 2461SOL    HW1 8282   5.289   0.755   2.902
 2461SOL    HW2 8283   5.244   0.807   3.050
 2462SOL     OW 8284   1.756   5.293   7.018
 2462SOL    HW1 8285   1.690   5.218   0.006
 2462SOL    HW2 8286   1.839   5.262   6.971
 2463SOL     OW 8287   5.743   1.902   6.630
 2463SOL    HW1 8288   5.714   1.927   6.723
 2463SOL    HW2 8289   5.682   1.946   6.564
 2464SOL     OW 8290   2.084   3.936   2.559
 2464SOL    HW1 8291   2.147   3.992   2.507
 2464SOL    HW2 8292   2.090   3.840   2.529
 2465SOL     OW 8293   1.255   0.073   0.152
 2465SOL    HW1 8294   1.177   0.071   0.089
 2465SOL    HW2 8295   1.229   0.030   0.238
 2466SOL     OW 8296   2.856   1.964   3.026
 2466SOL    HW1 8297   2.919   1.890   3.050
 2466SOL    HW2 8298   2.785   1.972   3.096
 2467SOL     OW 8299   5.157   1.698   4.722
 2467SOL    HW1 8300   5.152   1.798   4.720
 2467SOL    HW2 8301   5.252   1.669   4.733
 2468SOL     OW 8302   4.634   6.333   1.702
 2468SOL    HW1 8303   4.613   6.306   1.608
 2468SOL    HW2 8304   4.583   6.417   1.725
 2469SOL     OW 8305   4.306   3.933   5.402
 2469SOL    HW1 8306   4.248   4.007   5.368
 2469SOL    HW2 8307   4.280   3.910   5.496
 2470SOL     OW 8308   4.852   4.104   6.281
 2470SOL    HW1 8309   4.855   4.083   6.184
 2470SOL    HW2 8310   4.792   4.039   6.328
 2471SOL     OW 8311   2.811   6.074   0.701
 2471SOL    HW1 8312   2.749   6.059   0.624
 2471SOL    HW2 8313   2.780   6.154   0.752
 2472SOL     OW 8314   4.702   2.469   3.574
 2472SOL    HW1 8315   4.662   2.465   3.483
 2472SOL    HW2 8316   4.700   2.378   3.616
 2473SOL     OW 8317   2.174   3.597   4.813
 2473SOL    HW1 8318   2.133   3.684   4.839
 2473SOL    HW2 8319   2.260   3.584   4.862
 2474SOL     OW 8320   0.162   5.621   1.331
 2474SOL    HW1 8321   0.196   5.544   1.277
 2474SOL    HW2 8322   0.219   5.632   1.413
 2475SOL     OW 8323   3.981   0.744   3.428
 2475SOL    HW1 8324   3.997   0.664   3.370
 2475SOL    HW2 8325   3.901   0.728   3.486
 2476SOL     OW 8326   6.834   1.348   2.904
 2476SOL    HW1 8327   6.797   1.425   2.853
 2476SOL    HW2 8328   6.933   1.341   2.887
 2477SOL     OW 8329   4.190   1.226   2.288
 2477SOL    HW1 8330   4.249   1.204   2.210
 2477SOL    HW2 8331   4.097   1.245   2.256
 2478SOL     OW 8332   6.363   1.184   1.522
 2478SOL    HW1 8333   6.280   1.189   1.467
 2478SOL    HW2 8334   6.369   1.094   1.565
 2479SOL     OW 8335   1.312   3.595   1.692
 2479SOL    HW1 8336   1.363   3.681   1.684
 2479SOL    HW2 8337   1.231   3.610   1.749
 2480SOL     OW 8338   4.880   4.181   0.809
 2480SOL    HW1 8339   4.823   4.213   0.734
 2480SOL    HW2 8340   4.871   4.082   0.818
 2481SOL     OW 8341   2.717   6.713   0.750
 2481SOL    HW1 8342   2.767   6.641   0.703
 2481SOL    HW2 8343   2.695   6.786   0.686
 2482SOL     OW 8344   5.369   3.383   6.109
 2482SOL    HW1 8345   5.340   3.416   6.199
 2482SOL    HW2 8346   5.466   3.361   6.110
 2483SOL     OW 8347   1.914   1.330   0.651
 2483SOL    HW1 8348   1.820   1.321   0.685
 2483SOL    HW2 8349   1.968   1.386   0.714
 2484SOL     OW 8350   3.541   0.957   0.271
 2484SOL    HW1 8351   3.518   1.044   0.226
 2484SOL    HW2 8352   3.551   0.972   0.370
 2485SOL     OW 8353   6.391   3.814   1.627
 2485SOL    HW1 8354   6.436   3.726   1.612
 2485SOL    HW2 8355   6.293   3.799   1.638
 2486SOL     OW 8356   1.806   4.722   4.696
 2486SOL    HW1 8357   1.880   4.656   4.685
 2486SOL    HW2 8358   1.785   4.765   4.608
 2487SOL     OW 8359   4.067   6.059   0.653
 2487SOL    HW1 8360   4.116   5.973   0.637
 2487SOL    HW2 8361   4.118   6.134   0.610
 2488SOL     OW 8362   1.720   4.569   2.127
 2488SOL    HW1 8363   1.663   4.651   2.123
 2488SOL    HW2 8364   1.746   4.551   2.222
 2489SOL     OW 8365   1.247   5.398   2.641
 2489SOL    HW1 8366   1.251   5.472   2.708
 2489SOL    HW2 8367   1.169   5.339   2.662
 2490SOL     OW 8368   6.831   4.885   1.634
 2490SOL    HW1 8369   6.758   4.867   1.567
 2490SOL    HW2 8370   6.810   4.837   1.719
 2491SOL     OW 8371   2.031   5.257   0.809
 2491SOL    HW1 8372   1.940   5.266   0.769
 2491SOL    HW2 8373   2.095   5.318   0.762
 2492SOL     OW 8374   4.491   2.476   1.171
 2492SOL    HW1 8375   4.410   2.510   1.218
 2492SOL    HW2 8376   4.494   2.376   1.176
 2493SOL     OW 8377   5.977   0.629   2.207
 2493SOL    HW1 8378   6.017   0.541   2.180
 2493SOL    HW2 8379   5.881   0.615   2.234
 2494SOL     OW 8380   5.885   4.190   2.303
 2494SOL    HW1 8381   5.819   4.230   2.366
 2494SOL    HW2 8382   5.913   4.100   2.336
 2495SOL     OW 8383   5.725   0.394   4.169
 2495SOL    HW1 8384   5.748   0.307   4.126
 2495SOL    HW2 8385   5.625   0.404   4.173
 2496SOL     OW 8386   6.515   3.426   5.778
 2496SOL    HW1 8387   6.492   3.439   5.874
 2496SOL    HW2 8388   6.593   3.484   5.753
 2497SOL     OW 8389   0.776   0.404   0.693
 2497SOL    HW1 8390   0.868   0.437   0.711
 2497SOL    HW2 8391   0.775   0.347   0.610
 2498SOL     OW 8392   2.825   1.779   4.450
 2498SOL    HW1 8393   2.856   1.761   4.544
 2498SOL    HW2 8394   2.791   1.694   4.409
 2499SOL     OW 8395   6.395   2.036   2.654
 2499SOL    HW1 8396   6.494   2.030   2.640
 2499SOL    HW2 8397   6.360   2.118   2.608
 2500SOL     OW 8398   4.381   2.747   0.165
 2500SOL    HW1 8399   4.331   2.739   0.079
 2500SOL    HW2 8400   4.414   2.657   0.193
 2501SOL     OW 8401   5.480   5.435   0.058
 2501SOL    HW1 8402   5.481   5.517   0.001
 2501SOL    HW2 8403   5.533   5.453   0.142
 2502SOL     OW 8404   1.358   5.261   3.652
 2502SOL    HW1 8405   1.315   5.349   3.631
 2502SOL    HW2 8406   1.405   5.227   3.571
 2503SOL     OW 8407   2.956   5.592   4.082
 2503SOL    HW1 8408   3.023   5.578   4.009
 2503SOL    HW2 8409   2.864   5.596   4.043
 2504SOL     OW 8410   3.906   5.328   4.231
 2504SOL    HW1 8411   3.851   5.410   4.246
 2504SOL    HW2 8412   3.920   5.281   4.319
 2505SOL     OW 8413   1.311   5.955   3.370
 2505SOL    HW1 8414   1.280   5.883   3.308
 2505SOL    HW2 8415   1.386   6.006   3.327
 2506SOL     OW 8416   6.679   3.841   5.375
 2506SOL    HW1 8417   6.645   3.770   5.313
 2506SOL    HW2 8418   6.764   3.810   5.418
 2507SOL     OW 8419   1.061   4.007   1.198
 2507SOL    HW1 8420   1.044   3.982   1.103
 2507SOL    HW2 8421   1.061   3.924   1.255
 2508SOL     OW 8422   2.081   1.631   2.395
 2508SOL    HW1 8423   2.012   1.609   2.326
 2508SOL    HW2 8424   2.172   1.607   2.360
 2509SOL     OW 8425   6.939   2.659   1.521
 2509SOL    HW1 8426   6.990   2.740   1.491
 2509SOL    HW2 8427   6.995   2.607   1.586
 2510SOL     OW 8428   2.840   4.441   1.409
 2510SOL    HW1 8429   2.746   4.424   1.437
 2510SOL    HW2 8430   2.902   4.409   1.480
 2511SOL     OW 8431   2.927   2.198   3.739
 2511SOL    HW1 8432   2.865   2.243   3.675
 2511SOL    HW2 8433   2.932   2.250   3.824
 2512SOL     OW 8434   5.423   4.205   4.881
 2512SOL    HW1 8435   5.497   4.205   4.813
 2512SOL    HW2 8436   5.424   4.291   4.931
 2513SOL     OW 8437   1.110   3.905   5.215
 2513SOL    HW1 8438   1.165   3.828   5.247
 2513SOL    HW2 8439   1.164   3.990   5.222
 2514SOL     OW 8440   6.090   3.683   4.286
 2514SOL    HW1 8441   6.177   3.665   4.242
 2514SOL    HW2 8442   6.058   3.774   4.260
 2515SOL     OW 8443   1.551   6.357   0.726
 2515SOL    HW1 8444   1.615   6.422   0.684
 2515SOL    HW2 8445   1.477   6.336   0.662
 2516SOL     OW 8446   5.974   1.101   3.041
 2516SOL    HW1 8447   5.884   1.137   3.016
 2516SOL    HW2 8448   5.992   1.018   2.990
 2517SOL     OW 8449   1.374   5.804   5.858
 2517SOL    HW1 8450   1.460   5.772   5.819
 2517SOL    HW2 8451   1.383   5.900   5.885
 2518SOL     OW 8452   1.314   4.334   0.136
 2518SOL    HW1 8453   1.307   4.396   0.214
 2518SOL    HW2 8454   1.311   4.386   0.051
 2519SOL     OW 8455   4.928   6.567   2.952
 2519SOL    HW1 8456   4.954   6.544   3.045
 2519SOL    HW2 8457   4.940   6.487   2.893
 2520SOL     OW 8458   2.511   1.901   0.015
 2520SOL    HW1 8459   2.555   1.990   0.012
 2520SOL    HW2 8460   2.542   1.845   6.956
 2521SOL     OW 8461   1.202   6.980   5.115
 2521SOL    HW1 8462   1.189   6.922   5.034
 2521SOL    HW2 8463   1.197   0.058   5.087
 2522SOL     OW 8464   0.599   3.469   5.097
 2522SOL    HW1 8465   0.606   3.412   5.179
 2522SOL    HW2 8466   0.606   3.411   5.016
 2523SOL     OW 8467   0.396   2.990   1.682
 2523SOL    HW1 8468   0.354   2.998   1.773
 2523SOL    HW2 8469   0.336   2.937   1.622
 2524SOL     OW 8470   1.400   6.214   5.409
 2524SOL    HW1 8471   1.414   6.312   5.426
 2524SOL    HW2 8472   1.460   6.185   5.334
 2525SOL     OW 8473   1.068   2.178   5.045
 2525SOL    HW1 8474   1.063   2.243   5.121
 2525SOL    HW2 8475   1.048   2.225   4.960
 2526SOL     OW 8476   1.635   3.856   5.777
 2526SOL    HW1 8477   1.646   3.795   5.856
 2526SOL    HW2 8478   1.551   3.909   5.787
 2527SOL     OW 8479   5.316   5.939   4.796
 2527SOL    HW1 8480   5.354   5.936   4.703
 2527SOL    HW2 8481   5.385   5.907   4.860
 2528SOL     OW 8482   5.316   4.974   1.024
 2528SOL    HW1 8483   5.313   5.045   0.953
 2528SOL    HW2 8484   5.403   4.925   1.019
 2529SOL     OW 8485   0.099   6.593   6.652
 2529SOL    HW1 8486   0.074   6.620   6.745
 2529SOL    HW2 8487   0.138   6.671   6.604
 2530SOL     OW 8488   2.397   7.011   5.590
 2530SOL    HW1 8489   2.411   0.081   5.546
 2530SOL    HW2 8490   2.356   6.947   5.525
 2531SOL     OW 8491   4.821   6.096   4.461
 2531SOL    HW1 8492   4.910   6.129   4.492
 2531SOL    HW2 8493   4.760   6.086   4.540
 2532SOL     OW 8494   1.443   6.992   1.253
 2532SOL    HW1 8495   1.377   0.037   1.296
 2532SOL    HW2 8496   1.417   6.977   1.158
 2533SOL     OW 8497   3.016   0.149   2.831
 2533SOL    HW1 8498   2.961   0.169   2.912
 2533SOL    HW2 8499   2.969   0.082   2.774
 2534SOL     OW 8500   3.116   0.405   3.186
 2534SOL    HW1 8501   3.041   0.459   3.147
 2534SOL    HW2 8502   3.078   0.340   3.253
 2535SOL     OW 8503   3.126   2.163   5.525
 2535SOL    HW1 8504   3.187   2.129   5.454
 2535SOL    HW2 8505   3.114   2.092   5.595
 2536SOL     OW 8506   0.167   2.353   4.637
 2536SOL    HW1 8507   0.125   2.287   4.700
 2536SOL    HW2 8508   0.265   2.360   4.655
 2537SOL     OW 8509   3.820   0.039   5.818
 2537SOL    HW1 8510   3.729   0.006   5.845
 2537SOL    HW2 8511   3.872   0.065   5.899
 2538SOL     OW 8512   1.385   4.934   5.417
 2538SOL    HW1 8513   1.413   4.843   5.446
 2538SOL    HW2 8514   1.316   4.969   5.481
 2539SOL     OW 8515   4.867   0.605   5.601
 2539SOL    HW1 8516   4.943   0.599   5.536
 2539SOL    HW2 8517   4.874   0.690   5.654
 2540SOL     OW 8518   3.760   0.825   2.754
 2540SOL    HW1 8519   3.804   0.849   2.668
 2540SOL    HW2 8520   3.661   0.838   2.746
 2541SOL     OW 8521   1.770   6.629   4.809
 2541SOL    HW1 8522   1.806   6.672   4.726
 2541SOL    HW2 8523   1.806   6.677   4.889
 2542SOL     OW 8524   4.625   0.700   5.991
 2542SOL    HW1 8525   4.548   0.725   5.932
 2542SOL    HW2 8526   4.703   0.674   5.934
 2543SOL     OW 8527   1.707   1.844   3.004
 2543SOL    HW1 8528   1.723   1.796   3.090
 2543SOL    HW2 8529   1.620   1.893   3.009
 2544SOL     OW 8530   0.353   6.269   0.939
 2544SOL    HW1 8531   0.338   6.182   0.985
 2544SOL    HW2 8532   0.265   6.311   0.917
 2545SOL     OW 8533   2.268   1.096   1.495
 2545SOL    HW1 8534   2.242   1.169   1.432
 2545SOL    HW2 8535   2.285   1.136   1.586
 2546SOL     OW 8536   0.194   2.190   1.550
 2546SOL    HW1 8537   0.165   2.115   1.610
 2546SOL    HW2 8538   0.114   2.234   1.510
 2547SOL     OW 8539   5.933   4.004   0.397
 2547SOL    HW1 8540   5.979   3.920   0.370
 2547SOL    HW2 8541   5.963   4.030   0.489
 2548SOL     OW 8542   2.559   6.399   5.524
 2548SOL    HW1 8543   2.640   6.457   5.533
 2548SOL    HW2 8544   2.580   6.322   5.463
 2549SOL     OW 8545   1.848   0.905   0.837
 2549SOL    HW1 8546   1.852   0.865   0.928
 2549SOL    HW2 8547   1.821   1.001   0.844
 2550SOL     OW 8548   6.965   0.496   6.101
 2550SOL    HW1 8549   6.981   0.594   6.092
 2550SOL    HW2 8550   7.008   0.462   6.184
 2551SOL     OW 8551   3.833   4.572   0.351
 2551SOL    HW1 8552   3.837   4.670   0.372
 2551SOL    HW2 8553   3.761   4.555   0.284
 2552SOL     OW 8554   2.097   5.707   6.206
 2552SOL    HW1 8555   2.134   5.710   6.113
 2552SOL    HW2 8556   2.000   5.729   6.204
 2553SOL     OW 8557   4.214   3.012   6.221
 2553SOL    HW1 8558   4.262   3.083   6.272
 2553SOL    HW2 8559   4.126   3.047   6.189
 2554SOL     OW 8560   2.096   6.036   0.274
 2554SOL    HW1 8561   2.055   6.120   0.240
 2554SOL    HW2 8562   2.033   5.960   0.261
 2555SOL     OW 8563   6.140   7.014   6.869
 2555SOL    HW1 8564   6.134   6.915   6.855
 2555SOL    HW2 8565   6.106   0.043   6.788
 2556SOL     OW 8566   4.594   5.411   0.300
 2556SOL    HW1 8567   4.588   5.394   0.398
 2556SOL    HW2 8568   4.554   5.333   0.251
 2557SOL     OW 8569   2.559   3.059   6.441
 2557SOL    HW1 8570   2.598   3.144   6.406
 2557SOL    HW2 8571   2.485   3.028   6.381
 2558SOL     OW 8572   4.373   2.973   5.950
 2558SOL    HW1 8573   4.321   2.958   6.034
 2558SOL    HW2 8574   4.389   2.886   5.904
 2559SOL     OW 8575   6.188   4.007   3.848
 2559SOL    HW1 8576   6.162   4.080   3.785
 2559SOL    HW2 8577   6.116   3.994   3.916
 2560SOL     OW 8578   5.498   3.170   4.201
 2560SOL    HW1 8579   5.594   3.196   4.203
 2560SOL    HW2 8580   5.489   3.073   4.222
 2561SOL     OW 8581   2.585   6.876   4.354
 2561SOL    HW1 8582   2.644   6.914   4.283
 2561SOL    HW2 8583   2.506   6.832   4.311
 2562SOL     OW 8584   1.384   5.675   2.567
 2562SOL    HW1 8585   1.473   5.718   2.579
 2562SOL    HW2 8586   1.337   5.715   2.489
 2563SOL     OW 8587   4.006   2.023   0.845
 2563SOL    HW1 8588   4.045   2.033   0.753
 2563SOL    HW2 8589   3.990   2.113   0.884
 2564SOL     OW 8590   2.074   6.067   6.239
 2564SOL    HW1 8591   2.117   6.132   6.302
 2564SOL    HW2 8592   2.098   5.974   6.266
 2565SOL     OW 8593   0.186   0.086   0.305
 2565SOL    HW1 8594   0.221   0.130   0.388
 2565SOL    HW2 8595   0.200   0.148   0.227
 2566SOL     OW 8596   2.141   0.057   1.275
 2566SOL    HW1 8597   2.153   0.155   1.291
 2566SOL    HW2 8598   2.108   0.042   1.182
 2567SOL     OW 8599   1.053   1.298   1.238
 2567SOL    HW1 8600   1.098   1.384   1.213
 2567SOL    HW2 8601   1.083   1.271   1.329
 2568SOL     OW 8602   3.137   6.555   0.286
 2568SOL    HW1 8603   3.209   6.565   0.218
 2568SOL    HW2 8604   3.091   6.643   0.299
 2569SOL     OW 8605   2.700   1.249   1.467
 2569SOL    HW1 8606   2.663   1.183   1.531
 2569SOL    HW2 8607   2.781   1.211   1.423
 2570SOL     OW 8608   5.778   0.479   6.662
 2570SOL    HW1 8609   5.717   0.426   6.722
 2570SOL    HW2 8610   5.798   0.426   6.580
 2571SOL     OW 8611   2.263   4.329   5.106
 2571SOL    HW1 8612   2.347   4.381   5.112
 2571SOL    HW2 8613   2.282   4.239   5.067
 2572SOL     OW 8614   2.151   5.084   0.232
 2572SOL    HW1 8615   2.091   5.032   0.170
 2572SOL    HW2 8616   2.181   5.024   0.306
 2573SOL     OW 8617   6.652   1.948   1.792
 2573SOL    HW1 8618   6.606   1.860   1.808
 2573SOL    HW2 8619   6.640   1.975   1.697
 2574SOL     OW 8620   6.331   3.907   6.600
 2574SOL    HW1 8621   6.252   3.934   6.653
 2574SOL    HW2 8622   6.379   3.988   6.566
 2575SOL     OW 8623   5.261   5.414   6.928
 2575SOL    HW1 8624   5.290   5.413   6.832
 2575SOL    HW2 8625   5.341   5.405   6.987
 2576SOL     OW 8626   3.639   0.313   4.250
 2576SOL    HW1 8627   3.651   0.216   4.273
 2576SOL    HW2 8628   3.716   0.365   4.286
 2577SOL     OW 8629   3.349   6.822   1.702
 2577SOL    HW1 8630   3.288   6.749   1.671
 2577SOL    HW2 8631   3.307   6.870   1.779
 2578SOL     OW 8632   5.245   2.021   3.569
 2578SOL    HW1 8633   5.178   1.953   3.600
 2578SOL    HW2 8634   5.335   1.978   3.561
 2579SOL     OW 8635   1.472   6.130   2.692
 2579SOL    HW1 8636   1.406   6.070   2.645
 2579SOL    HW2 8637   1.558   6.130   2.642
 2580SOL     OW 8638   2.394   2.846   6.689
 2580SOL    HW1 8639   2.429   2.939   6.694
 2580SOL    HW2 8640   2.325   2.841   6.616
 2581SOL     OW 8641   0.651   4.100   0.905
 2581SOL    HW1 8642   0.613   4.173   0.848
 2581SOL    HW2 8643   0.658   4.131   0.999
 2582SOL     OW 8644   0.915   4.727   2.124
 2582SOL    HW1 8645   0.851   4.658   2.090
 2582SOL    HW2 8646   0.990   4.738   2.059
 2583SOL     OW 8647   0.855   1.365   0.502
 2583SOL    HW1 8648   0.862   1.377   0.601
 2583SOL    HW2 8649   0.936   1.403   0.458
 2584SOL     OW 8650   4.292   5.587   0.419
 2584SOL    HW1 8651   4.211   5.606   0.364
 2584SOL    HW2 8652   4.373   5.617   0.370
 2585SOL     OW 8653   5.065   2.193   0.798
 2585SOL    HW1 8654   5.012   2.256   0.743
 2585SOL    HW2 8655   5.112   2.128   0.739
 2586SOL     OW 8656   3.586   1.033   3.250
 2586SOL    HW1 8657   3.503   1.087   3.236
 2586SOL    HW2 8658   3.624   1.054   3.341
 2587SOL     OW 8659   0.489   1.227   3.348
 2587SOL    HW1 8660   0.440   1.147   3.315
 2587SOL    HW2 8661   0.443   1.310   3.317
 2588SOL     OW 8662   4.112   0.565   6.303
 2588SOL    HW1 8663   4.190   0.512   6.270
 2588SOL    HW2 8664   4.027   0.517   6.283
 2589SOL     OW 8665   0.542   6.077   6.351
 2589SOL    HW1 8666   0.593   6.065   6.266
 2589SOL    HW2 8667   0.505   5.989   6.382
 2590SOL     OW 8668   3.621   6.131   0.929
 2590SOL    HW1 8669   3.606   6.146   1.027
 2590SOL    HW2 8670   3.700   6.070   0.917
 2591SOL     OW 8671   0.044   5.870   2.550
 2591SOL    HW1 8672   0.023   5.965   2.572
 2591SOL    HW2 8673   0.027   5.854   2.452
 2592SOL     OW 8674   3.869   5.569   0.537
 2592SOL    HW1 8675   3.814   5.487   0.525
 2592SOL    HW2 8676   3.882   5.587   0.634
 2593SOL     OW 8677   3.267   5.515   0.604
 2593SOL    HW1 8678   3.266   5.553   0.512
 2593SOL    HW2 8679   3.220   5.427   0.604
 2594SOL     OW 8680   1.225   5.448   6.331
 2594SOL    HW1 8681   1.239   5.352   6.354
 2594SOL    HW2 8682   1.176   5.456   6.245
 2595SOL     OW 8683   6.495   2.047   4.257
 2595SOL    HW1 8684   6.566   1.977   4.264
 2595SOL    HW2 8685   6.537   2.137   4.253
 2596SOL     OW 8686   3.384   1.531   1.815
 2596SOL    HW1 8687   3.304   1.573   1.772
 2596SOL    HW2 8688   3.386   1.555   1.912
 2597SOL     OW 8689   1.559   4.614   6.126
 2597SOL    HW1 8690   1.536   4.710   6.113
 2597SOL    HW2 8691   1.525   4.561   6.048
 2598SOL     OW 8692   6.348   1.360   3.376
 2598SOL    HW1 8693   6.303   1.307   3.448
 2598SOL    HW2 8694   6.446   1.338   3.374
 2599SOL     OW 8695   2.342   6.747   1.526
 2599SOL    HW1 8696   2.325   6.807   1.448
 2599SOL    HW2 8697   2.268   6.679   1.533
 2600SOL     OW 8698   5.532   3.177   4.903
 2600SOL    HW1 8699   5.621   3.145   4.870
 2600SOL    HW2 8700   5.535   3.277   4.914
 2601SOL     OW 8701   2.187   1.690   0.939
 2601SOL    HW1 8702   2.233   1.668   1.025
 2601SOL    HW2 8703   2.207   1.784   0.913
 2602SOL     OW 8704   0.865   4.046   4.481
 2602SOL    HW1 8705   0.842   3.949   4.477
 2602SOL    HW2 8706   0.844   4.082   4.572
 2603SOL     OW 8707   2.530   1.191   3.636
 2603SOL    HW1 8708   2.570   1.149   3.554
 2603SOL    HW2 8709   2.449   1.244   3.610
 2604SOL     OW 8710   4.686   1.829   2.830
 2604SOL    HW1 8711   4.613   1.853   2.766
 2604SOL    HW2 8712   4.774   1.840   2.784
 2605SOL     OW 8713   2.053   3.553   2.596
 2605SOL    HW1 8714   2.066   3.602   2.510
 2605SOL    HW2 8715   2.005   3.612   2.661
 2606SOL     OW 8716   5.629   4.253   1.895
 2606SOL    HW1 8717   5.607   4.314   1.972
 2606SOL    HW2 8718   5.549   4.198   1.872
 2607SOL     OW 8719   1.432   1.408   1.042
 2607SOL    HW1 8720   1.383   1.324   1.067
 2607SOL    HW2 8721   1.449   1.462   1.124
 2608SOL     OW 8722   4.562   4.884   1.525
 2608SOL    HW1 8723   4.551   4.904   1.428
 2608SOL    HW2 8724   4.640   4.824   1.537
 2609SOL     OW 8725   6.561   1.118   1.108
 2609SOL    HW1 8726   6.641   1.134   1.051
 2609SOL    HW2 8727   6.574   1.033   1.160
 2610SOL     OW 8728   1.273   4.624   5.125
 2610SOL    HW1 8729   1.248   4.720   5.132
 2610SOL    HW2 8730   1.212   4.570   5.184
 2611SOL     OW 8731   4.542   6.758   1.201
 2611SOL    HW1 8732   4.484   6.834   1.230
 2611SOL    HW2 8733   4.485   6.677   1.183
 2612SOL     OW 8734   6.437   0.159   5.791
 2612SOL    HW1 8735   6.498   0.093   5.747
 2612SOL    HW2 8736   6.353   0.112   5.819
 2613SOL     OW 8737   2.968   6.066   6.296
 2613SOL    HW1 8738   2.916   6.123   6.360
 2613SOL    HW2 8739   3.037   6.122   6.250
 2614SOL     OW 8740   6.832   0.715   5.623
 2614SOL    HW1 8741   6.741   0.695   5.588
 2614SOL    HW2 8742   6.848   0.814   5.622
 2615SOL     OW 8743   6.939   2.832   2.849
 2615SOL    HW1 8744   6.953   2.787   2.761
 2615SOL    HW2 8745   0.004   2.828   2.903
 2616SOL     OW 8746   3.506   3.271   5.418
 2616SOL    HW1 8747   3.440   3.227   5.358
 2616SOL    HW2 8748   3.597   3.232   5.402
 2617SOL     OW 8749   3.653   6.360   0.386
 2617SOL    HW1 8750   3.664   6.370   0.287
 2617SOL    HW2 8751   3.639   6.264   0.409
 2618SOL     OW 8752   6.938   0.680   4.352
 2618SOL    HW1 8753   0.018   0.694   4.335
 2618SOL    HW2 8754   6.922   0.584   4.376
 2619SOL     OW 8755   3.984   1.711   3.097
 2619SOL    HW1 8756   3.953   1.803   3.072
 2619SOL    HW2 8757   4.074   1.717   3.140
 2620SOL     OW 8758   6.492   6.871   3.634
 2620SOL    HW1 8759   6.443   6.871   3.721
 2620SOL    HW2 8760   6.508   6.777   3.604
 2621SOL     OW 8761   0.903   5.560   2.498
 2621SOL    HW1 8762   0.908   5.503   2.581
 2621SOL    HW2 8763   0.824   5.532   2.443
 2622SOL     OW 8764   2.009   3.572   5.214
 2622SOL    HW1 8765   2.089   3.519   5.244
 2622SOL    HW2 8766   1.926   3.518   5.231
 2623SOL     OW 8767   1.076   0.830   5.640
 2623SOL    HW1 8768   0.996   0.871   5.686
 2623SOL    HW2 8769   1.064   0.836   5.541
 2624SOL     OW 8770   6.493   1.245   5.072
 2624SOL    HW1 8771   6.491   1.344   5.059
 2624SOL    HW2 8772   6.587   1.214   5.085
 2625SOL     OW 8773   2.186   3.166   5.173
 2625SOL    HW1 8774   2.136   3.114   5.242
 2625SOL    HW2 8775   2.272   3.119   5.152
 2626SOL     OW 8776   0.617   0.270   6.066
 2626SOL    HW1 8777   0.521   0.289   6.086
 2626SOL    HW2 8778   0.669   0.356   6.070
 2627SOL     OW 8779   0.815   1.136   5.901
 2627SOL    HW1 8780   0.722   1.151   5.869
 2627SOL    HW2 8781   0.877   1.199   5.853
 2628SOL     OW 8782   1.976   4.783   5.776
 2628SOL    HW1 8783   2.049   4.812   5.713
 2628SOL    HW2 8784   2.011   4.709   5.834
 2629SOL     OW 8785   3.477   3.262   2.390
 2629SOL    HW1 8786   3.490   3.182   2.332
 2629SOL    HW2 8787   3.541   3.259   2.466
 2630SOL     OW 8788   3.380   2.021   2.724
 2630SOL    HW1 8789   3.358   1.924   2.733
 2630SOL    HW2 8790   3.427   2.037   2.638
 2631SOL     OW 8791   5.125   0.782   5.773
 2631SOL    HW1 8792   5.090   0.872   5.800
 2631SOL    HW2 8793   5.200   0.794   5.708
 2632SOL     OW 8794   5.261   3.174   6.455
 2632SOL    HW1 8795   5.265   3.090   6.401
 2632SOL    HW2 8796   5.283   3.154   6.550
 2633SOL     OW 8797   0.008   2.637   4.941
 2633SOL    HW1 8798   0.087   2.643   5.001
 2633SOL    HW2 8799   0.014   2.707   4.870
 2634SOL     OW 8800   0.745   4.730   3.538
 2634SOL    HW1 8801   0.666   4.737   3.478
 2634SOL    HW2 8802   0.724   4.672   3.616
 2635SOL     OW 8803   6.910   5.470   5.621
 2635SOL    HW1 8804   6.830   5.522   5.590
 2635SOL    HW2 8805   6.904   5.457   5.720
 2636SOL     OW 8806   3.686   0.473   4.620
 2636SOL    HW1 8807   3.586   0.473   4.622
 2636SOL    HW2 8808   3.718   0.557   4.576
 2637SOL     OW 8809   5.154   1.527   3.401
 2637SOL    HW1 8810   5.211   1.582   3.462
 2637SOL    HW2 8811   5.173   1.430   3.417
 2638SOL     OW 8812   6.902   0.274   3.891
 2638SOL    HW1 8813   6.841   0.195   3.894
 2638SOL    HW2 8814   6.975   0.263   3.959
 2639SOL     OW 8815   0.302   6.035   1.088
 2639SOL    HW1 8816   0.278   6.061   1.181
 2639SOL    HW2 8817   0.222   5.996   1.042
 2640SOL     OW 8818   0.702   5.926   5.655
 2640SOL    HW1 8819   0.709   6.020   5.686
 2640SOL    HW2 8820   0.609   5.908   5.621
 2641SOL     OW 8821   5.770   2.857   2.282
 2641SOL    HW1 8822   5.693   2.907   2.322
 2641SOL    HW2 8823   5.837   2.838   2.354
 2642SOL     OW 8824   5.039   6.705   3.530
 2642SOL    HW1 8825   5.072   6.771   3.462
 2642SOL    HW2 8826   5.046   6.613   3.492
 2643SOL     OW 8827   0.608   3.737   3.560
 2643SOL    HW1 8828   0.693   3.761   3.606
 2643SOL    HW2 8829   0.574   3.650   3.595
 2644SOL     OW 8830   4.954   6.550   5.353
 2644SOL    HW1 8831   4.916   6.516   5.267
 2644SOL    HW2 8832   5.049   6.520   5.362
 2645SOL     OW 8833   4.026   5.821   3.796
 2645SOL    HW1 8834   4.103   5.793   3.739
 2645SOL    HW2 8835   3.944   5.769   3.771
 2646SOL     OW 8836   5.952   0.964   6.992
 2646SOL    HW1 8837   5.866   0.964   6.942
 2646SOL    HW2 8838   5.961   1.048   0.027
 2647SOL     OW 8839   6.778   0.052   2.037
 2647SOL    HW1 8840   6.729   0.048   2.123
 2647SOL    HW2 8841   6.779   6.980   1.995
 2648SOL     OW 8842   0.850   0.056   3.838
 2648SOL    HW1 8843   0.829   7.005   3.769
 2648SOL    HW2 8844   0.912   0.018   3.906
 2649SOL     OW 8845   6.415   3.197   6.987
 2649SOL    HW1 8846   6.324   3.161   7.010
 2649SOL    HW2 8847   6.482   3.163   0.035
 2650SOL     OW 8848   0.958   4.935   3.935
 2650SOL    HW1 8849   0.907   5.007   3.888
 2650SOL    HW2 8850   1.026   4.896   3.873
 2651SOL     OW 8851   2.017   1.479   0.850
 2651SOL    HW1 8852   2.042   1.557   0.907
 2651SOL    HW2 8853   2.035   1.394   0.898
 2652SOL     OW 8854   3.891   3.755   4.949
 2652SOL    HW1 8855   3.987   3.775   4.927
 2652SOL    HW2 8856   3.846   3.717   4.868
 2653SOL     OW 8857   4.727   6.882   5.384
 2653SOL    HW1 8858   4.813   6.845   5.349
 2653SOL    HW2 8859   4.687   6.817   5.449
 2654SOL     OW 8860   4.141   0.199   2.417
 2654SOL    HW1 8861   4.155   0.247   2.503
 2654SOL    HW2 8862   4.099   0.261   2.351
 2655SOL     OW 8863   4.847   6.374   3.748
 2655SOL    HW1 8864   4.917   6.445   3.755
 2655SOL    HW2 8865   4.768   6.410   3.698
 2656SOL     OW 8866   3.653   5.009   4.584
 2656SOL    HW1 8867   3.591   4.996   4.662
 2656SOL    HW2 8868   3.735   4.954   4.597
 2657SOL     OW 8869   0.899   4.189   0.095
 2657SOL    HW1 8870   0.920   4.115   0.159
 2657SOL    HW2 8871   0.873   4.150   0.007
 2658SOL     OW 8872   4.729   4.406   0.886
 2658SOL    HW1 8873   4.644   4.354   0.891
 2658SOL    HW2 8874   4.802   4.348   0.851
 2659SOL     OW 8875   5.264   3.150   4.576
 2659SOL    HW1 8876   5.201   3.116   4.646
 2659SOL    HW2 8877   5.260   3.249   4.573
 2660SOL     OW 8878   2.029   7.001   1.971
 2660SOL    HW1 8879   1.946   7.004   2.025
 2660SOL    HW2 8880   2.083   6.920   1.996
 2661SOL     OW 8881   2.291   0.182   1.722
 2661SOL    HW1 8882   2.211   0.227   1.761
 2661SOL    HW2 8883   2.292   0.086   1.748
 2662SOL     OW 8884   4.319   6.274   5.062
 2662SOL    HW1 8885   4.271   6.193   5.095
 2662SOL    HW2 8886   4.318   6.275   4.962
 2663SOL     OW 8887   3.055   4.267   6.780
 2663SOL    HW1 8888   3.082   4.255   6.876
 2663SOL    HW2 8889   2.964   4.309   6.777
 2664SOL     OW 8890   4.374   3.611   5.613
 2664SOL    HW1 8891   4.408   3.638   5.523
 2664SOL    HW2 8892   4.451   3.608   5.678
 2665SOL     OW 8893   2.697   2.988   5.344
 2665SOL    HW1 8894   2.616   2.996   5.286
 2665SOL    HW2 8895   2.721   2.891   5.354
 2666SOL     OW 8896   6.419   4.893   1.159
 2666SOL    HW1 8897   6.357   4.929   1.229
 2666SOL    HW2 8898   6.412   4.948   1.076
 2667SOL     OW 8899   0.388   5.947   4.466
 2667SOL    HW1 8900   0.296   5.984   4.451
 2667SOL    HW2 8901   0.402   5.933   4.564
 2668SOL     OW 8902   0.197   3.493   5.033
 2668SOL    HW1 8903   0.141   3.572   5.010
 2668SOL    HW2 8904   0.226   3.447   4.949
 2669SOL     OW 8905   2.829   4.581   5.818
 2669SOL    HW1 8906   2.873   4.667   5.793
 2669SOL    HW2 8907   2.820   4.523   5.736
 2670SOL     OW 8908   5.244   3.366   5.704
 2670SOL    HW1 8909   5.195   3.452   5.694
 2670SOL    HW2 8910   5.252   3.342   5.801
 2671SOL     OW 8911   4.923   5.219   6.398
 2671SOL    HW1 8912   4.907   5.264   6.310
 2671SOL    HW2 8913   4.836   5.195   6.440
 2672SOL     OW 8914   1.921   4.912   0.409
 2672SOL    HW1 8915   1.917   4.825   0.361
 2672SOL    HW2 8916   1.832   4.958   0.402
 2673SOL     OW 8917   6.186   1.223   2.244
 2673SOL    HW1 8918   6.185   1.178   2.333
 2673SOL    HW2 8919   6.231   1.164   2.178
 2674SOL     OW 8920   1.202   4.624   3.903
 2674SOL    HW1 8921   1.265   4.681   3.955
 2674SOL    HW2 8922   1.196   4.658   3.809
 2675SOL     OW 8923   6.283   5.188   4.018
 2675SOL    HW1 8924   6.324   5.183   4.108
 2675SOL    HW2 8925   6.209   5.120   4.011
 2676SOL     OW 8926   3.748   2.595   1.045
 2676SOL    HW1 8927   3.761   2.519   0.981
 2676SOL    HW2 8928   3.769   2.563   1.138
 2677SOL     OW 8929   2.451   3.889   0.334
 2677SOL    HW1 8930   2.376   3.869   0.270
 2677SOL    HW2 8931   2.478   3.804   0.381
 2678SOL     OW 8932   0.297   2.792   1.492
 2678SOL    HW1 8933   0.393   2.774   1.513
 2678SOL    HW2 8934   0.245   2.707   1.500
 2679SOL     OW 8935   1.917   4.417   1.540
 2679SOL    HW1 8936   1.925   4.408   1.639
 2679SOL    HW2 8937   1.820   4.412   1.513
 2680SOL     OW 8938   1.189   1.644   0.491
 2680SOL    HW1 8939   1.154   1.735   0.515
 2680SOL    HW2 8940   1.212   1.594   0.575
 2681SOL     OW 8941   1.541   2.092   5.115
 2681SOL    HW1 8942   1.578   2.174   5.071
 2681SOL    HW2 8943   1.605   2.016   5.104
 2682SOL     OW 8944   4.743   4.401   3.086
 2682SOL    HW1 8945   4.745   4.499   3.070
 2682SOL    HW2 8946   4.781   4.380   3.176
 2683SOL     OW 8947   2.843   5.634   1.823
 2683SOL    HW1 8948   2.820   5.605   1.916
 2683SOL    HW2 8949   2.819   5.561   1.759
 2684SOL     OW 8950   4.605   6.024   1.560
 2684SOL    HW1 8951   4.558   5.991   1.477
 2684SOL    HW2 8952   4.538   6.067   1.621
 2685SOL     OW 8953   5.637   6.210   5.840
 2685SOL    HW1 8954   5.596   6.176   5.924
 2685SOL    HW2 8955   5.577   6.189   5.763
 2686SOL     OW 8956   2.006   1.569   5.582
 2686SOL    HW1 8957   2.014   1.539   5.487
 2686SOL    HW2 8958   1.958   1.656   5.587
 2687SOL     OW 8959   5.078   5.032   1.165
 2687SOL    HW1 8960   5.065   4.987   1.253
 2687SOL    HW2 8961   5.172   5.020   1.135
 2688SOL     OW 8962   3.261   3.663   0.471
 2688SOL    HW1 8963   3.168   3.625   0.464
 2688SOL    HW2 8964   3.282   3.714   0.388
 2689SOL     OW 8965   1.341   4.243   2.963
 2689SOL    HW1 8966   1.245   4.270   2.950
 2689SOL    HW2 8967   1.350   4.145   2.948
 2690SOL     OW 8968   3.701   2.889   5.158
 2690SOL    HW1 8969   3.774   2.919   5.097
 2690SOL    HW2 8970   3.727   2.803   5.202
 2691SOL     OW 8971   1.443   5.134   3.416
 2691SOL    HW1 8972   1.527   5.183   3.397
 2691SOL    HW2 8973   1.393   5.118   3.331
 2692SOL     OW 8974   2.991   5.938   3.091
 2692SOL    HW1 8975   3.037   5.918   3.178
 2692SOL    HW2 8976   3.042   6.008   3.042
 2693SOL     OW 8977   2.149   4.964   3.667
 2693SOL    HW1 8978   2.128   4.991   3.761
 2693SOL    HW2 8979   2.077   4.998   3.606
 2694SOL     OW 8980   4.197   6.142   3.136
 2694SOL    HW1 8981   4.238   6.135   3.045
 2694SOL    HW2 8982   4.229   6.066   3.193
 2695SOL     OW 8983   5.973   1.147   1.989
 2695SOL    HW1 8984   5.894   1.178   1.935
 2695SOL    HW2 8985   5.955   1.056   2.025
 2696SOL     OW 8986   3.589   3.303   5.897
 2696SOL    HW1 8987   3.546   3.341   5.979
 2696SOL    HW2 8988   3.652   3.370   5.858
 2697SOL     OW 8989   3.505   1.345   2.938
 2697SOL    HW1 8990   3.506   1.273   2.869
 2697SOL    HW2 8991   3.415   1.388   2.940
 2698SOL     OW 8992   1.811   5.315   0.582
 2698SOL    HW1 8993   1.744   5.389   0.595
 2698SOL    HW2 8994   1.857   5.328   0.494
 2699SOL     OW 8995   2.219   5.638   0.726
 2699SOL    HW1 8996   2.212   5.734   0.699
 2699SOL    HW2 8997   2.180   5.580   0.654
 2700SOL     OW 8998   3.055   3.181   0.168
 2700SOL    HW1 8999   3.070   3.278   0.189
 2700SOL    HW2 9000   3.051   3.170   0.068
 2701SOL     OW 9001   5.392   1.831   5.751
 2701SOL    HW1 9002   5.306   1.797   5.711
 2701SOL    HW2 9003   5.425   1.765   5.819
 2702SOL     OW 9004   0.479   3.209   3.159
 2702SOL    HW1 9005   0.386   3.172   3.170
 2702SOL    HW2 9006   0.521   3.221   3.249
 2703SOL     OW 9007   1.370   0.420   0.837
 2703SOL    HW1 9008   1.449   0.392   0.783
 2703SOL    HW2 9009   1.352   0.352   0.908
 2704SOL     OW 9010   6.885   5.640   1.860
 2704SOL    HW1 9011   6.841   5.554   1.885
 2704SOL    HW2 9012   6.906   5.640   1.762
 2705SOL     OW 9013   0.081   5.852   4.614
 2705SOL    HW1 9014   0.176   5.821   4.606
 2705SOL    HW2 9015   0.065   5.927   4.550
 2706SOL     OW 9016   6.554   5.301   2.526
 2706SOL    HW1 9017   6.560   5.218   2.470
 2706SOL    HW2 9018   6.646   5.336   2.545
 2707SOL     OW 9019   4.496   0.072   4.044
 2707SOL    HW1 9020   4.452   0.081   4.133
 2707SOL    HW2 9021   4.497   0.161   3.998
 2708SOL     OW 9022   0.307   3.243   0.696
 2708SOL    HW1 9023   0.256   3.258   0.780
 2708SOL    HW2 9024   0.255   3.181   0.637
 2709SOL     OW 9025   4.830   0.260   6.801
 2709SOL    HW1 9026   4.756   0.324   6.820
 2709SOL    HW2 9027   4.857   0.214   6.886
 2710SOL     OW 9028   1.051   3.862   4.286
 2710SOL    HW1 9029   1.111   3.785   4.268
 2710SOL    HW2 9030   1.018   3.858   4.380
 2711SOL     OW 9031   2.286   0.549   3.877
 2711SOL    HW1 9032   2.340   0.616   3.928
 2711SOL    HW2 9033   2.243   0.593   3.799
 2712SOL     OW 9034   2.477   4.286   1.611
 2712SOL    HW1 9035   2.520   4.364   1.656
 2712SOL    HW2 9036   2.378   4.301   1.606
 2713SOL     OW 9037   2.394   2.520   4.949
 2713SOL    HW1 9038   2.389   2.448   4.879
 2713SOL    HW2 9039   2.366   2.482   5.037
 2714SOL     OW 9040   3.773   2.664   0.099
 2714SOL    HW1 9041   3.674   2.682   0.097
 2714SOL    HW2 9042   3.804   2.642   0.006
 2715SOL     OW 9043   4.906   1.739   1.158
 2715SOL    HW1 9044   4.910   1.711   1.062
 2715SOL    HW2 9045   4.881   1.836   1.164
 2716SOL     OW 9046   5.530   3.391   2.496
 2716SOL    HW1 9047   5.534   3.388   2.596
 2716SOL    HW2 9048   5.509   3.484   2.467
 2717SOL     OW 9049   0.530   0.161   2.807
 2717SOL    HW1 9050   0.531   0.199   2.899
 2717SOL    HW2 9051   0.440   0.174   2.766
 2718SOL     OW 9052   1.483   1.369   4.764
 2718SOL    HW1 9053   1.417   1.444   4.761
 2718SOL    HW2 9054   1.571   1.404   4.796
 2719SOL     OW 9055   0.475   5.054   1.894
 2719SOL    HW1 9056   0.536   5.084   1.821
 2719SOL    HW2 9057   0.381   5.058   1.862
 2720SOL     OW 9058   2.027   5.920   1.899
 2720SOL    HW1 9059   1.932   5.889   1.889
 2720SOL    HW2 9060   2.086   5.842   1.919
 2721SOL     OW 9061   2.853   6.895   3.604
 2721SOL    HW1 9062   2.927   6.838   3.569
 2721SOL    HW2 9063   2.768   6.873   3.557
 2722SOL     OW 9064   6.879   5.237   0.437
 2722SOL    HW1 9065   6.828   5.282   0.364
 2722SOL    HW2 9066   6.957   5.188   0.397
 2723SOL     OW 9067   0.602   6.744   6.334
 2723SOL    HW1 9068   0.596   6.821   6.397
 2723SOL    HW2 9069   0.698   6.725   6.314
 2724SOL     OW 9070   2.362   6.242   0.070
 2724SOL    HW1 9071   2.328   6.158   0.112
 2724SOL    HW2 9072   2.295   6.277   0.005
 2725SOL     OW 9073   4.900   4.558   4.481
 2725SOL    HW1 9074   4.894   4.556   4.581
 2725SOL    HW2 9075   4.995   4.547   4.453
 2726SOL     OW 9076   0.076   2.296   1.026
 2726SOL    HW1 9077   0.008   2.346   1.079
 2726SOL    HW2 9078   0.091   2.342   0.939
 2727SOL     OW 9079   0.773   5.324   3.581
 2727SOL    HW1 9080   0.834   5.331   3.502
 2727SOL    HW2 9081   0.761   5.227   3.605
 2728SOL     OW 9082   4.248   6.228   5.769
 2728SOL    HW1 9083   4.270   6.321   5.740
 2728SOL    HW2 9084   4.167   6.196   5.719
 2729SOL     OW 9085   0.005   6.280   0.395
 2729SOL    HW1 9086   0.098   6.306   0.367
 2729SOL    HW2 9087   6.981   6.224   0.324
 2730SOL     OW 9088   2.152   5.820   1.538
 2730SOL    HW1 9089   2.154   5.739   1.479
 2730SOL    HW2 9090   2.154   5.791   1.634
 2731SOL     OW 9091   3.238   3.709   3.074
 2731SOL    HW1 9092   3.268   3.646   3.146
 2731SOL    HW2 9093   3.288   3.689   2.989
 2732SOL     OW 9094   5.312   2.439   2.051
 2732SOL    HW1 9095   5.321   2.389   2.137
 2732SOL    HW2 9096   5.401   2.446   2.007
 2733SOL     OW 9097   6.333   1.972   4.468
 2733SOL    HW1 9098   6.340   2.056   4.522
 2733SOL    HW2 9099   6.388   1.981   4.385
 2734SOL     OW 9100   3.201   5.656   0.876
 2734SOL    HW1 9101   3.279   5.706   0.913
 2734SOL    HW2 9102   3.223   5.624   0.784
 2735SOL     OW 9103   1.154   3.567   1.467
 2735SOL    HW1 9104   1.203   3.576   1.381
 2735SOL    HW2 9105   1.217   3.581   1.543
 2736SOL     OW 9106   5.593   6.383   5.066
 2736SOL    HW1 9107   5.531   6.328   5.010
 2736SOL    HW2 9108   5.611   6.336   5.152
 2737SOL     OW 9109   2.363   3.914   5.652
 2737SOL    HW1 9110   2.418   3.855   5.710
 2737SOL    HW2 9111   2.275   3.869   5.633
 2738SOL     OW 9112   4.976   6.581   1.734
 2738SOL    HW1 9113   4.954   6.486   1.755
 2738SOL    HW2 9114   5.036   6.618   1.805
 2739SOL     OW 9115   1.206   4.942   1.467
 2739SOL    HW1 9116   1.248   4.912   1.553
 2739SOL    HW2 9117   1.141   4.873   1.436
 2740SOL     OW 9118   0.024   4.032   2.092
 2740SOL    HW1 9119   0.104   4.016   2.034
 2740SOL    HW2 9120   0.018   3.960   2.161
 2741SOL     OW 9121   6.109   0.743   4.988
 2741SOL    HW1 9122   6.037   0.679   5.013
 2741SOL    HW2 9123   6.098   0.828   5.040
 2742SOL     OW 9124   2.202   4.912   0.447
 2742SOL    HW1 9125   2.246   4.822   0.444
 2742SOL    HW2 9126   2.102   4.900   0.443
 2743SOL     OW 9127   6.260   4.695   2.280
 2743SOL    HW1 9128   6.332   4.644   2.233
 2743SOL    HW2 9129   6.232   4.773   2.225
 2744SOL     OW 9130   4.366   2.146   0.407
 2744SOL    HW1 9131   4.396   2.064   0.455
 2744SOL    HW2 9132   4.446   2.205   0.390
 2745SOL     OW 9133   6.693   0.433   5.312
 2745SOL    HW1 9134   6.786   0.469   5.318
 2745SOL    HW2 9135   6.693   0.349   5.257
 2746SOL     OW 9136   1.733   1.782   4.732
 2746SOL    HW1 9137   1.795   1.728   4.675
 2746SOL    HW2 9138   1.656   1.813   4.678
 2747SOL     OW 9139   5.655   4.049   6.903
 2747SOL    HW1 9140   5.673   4.056   7.001
 2747SOL    HW2 9141   5.620   4.136   6.870
 2748SOL     OW 9142   4.961   1.328   1.794
 2748SOL    HW1 9143   5.019   1.328   1.712
 2748SOL    HW2 9144   5.017   1.349   1.874
 2749SOL     OW 9145   0.390   4.492   1.668
 2749SOL    HW1 9146   0.323   4.455   1.733
 2749SOL    HW2 9147   0.374   4.590   1.656
 2750SOL     OW 9148   1.041   4.725   1.330
 2750SOL    HW1 9149   1.000   4.750   1.242
 2750SOL    HW2 9150   1.023   4.628   1.348
 2751SOL     OW 9151   1.138   3.929   1.517
 2751SOL    HW1 9152   1.116   3.889   1.606
 2751SOL    HW2 9153   1.225   3.892   1.484
 2752SOL     OW 9154   3.793   5.218   5.378
 2752SOL    HW1 9155   3.859   5.144   5.392
 2752SOL    HW2 9156   3.775   5.264   5.465
 2753SOL     OW 9157   0.452   6.835   5.390
 2753SOL    HW1 9158   0.533   6.863   5.442
 2753SOL    HW2 9159   0.481   6.797   5.302
 2754SOL     OW 9160   0.585   0.680   1.881
 2754SOL    HW1 9161   0.514   0.748   1.862
 2754SOL    HW2 9162   0.548   0.609   1.940
 2755SOL     OW 9163   2.280   6.950   2.953
 2755SOL    HW1 9164   2.221   6.903   3.018
 2755SOL    HW2 9165   2.226   6.978   2.873
 2756SOL     OW 9166   5.724   5.439   6.711
 2756SOL    HW1 9167   5.703   5.357   6.657
 2756SOL    HW2 9168   5.743   5.412   6.806
 2757SOL     OW 9169   2.295   0.330   6.653
 2757SOL    HW1 9170   2.346   0.319   6.568
 2757SOL    HW2 9171   2.345   0.390   6.715
 2758SOL     OW 9172   3.800   6.580   4.103
 2758SOL    HW1 9173   3.866   6.590   4.177
 2758SOL    HW2 9174   3.711   6.555   4.141
 2759SOL     OW 9175   5.417   0.212   5.891
 2759SOL    HW1 9176   5.418   0.241   5.796
 2759SOL    HW2 9177   5.332   0.239   5.934
 2760SOL     OW 9178   0.565   6.105   1.883
 2760SOL    HW1 9179   0.660   6.120   1.857
 2760SOL    HW2 9180   0.549   6.142   1.975
 2761SOL     OW 9181   1.779   5.436   5.113
 2761SOL    HW1 9182   1.874   5.406   5.128
 2761SOL    HW2 9183   1.750   5.410   5.020
 2762SOL     OW 9184   0.882   1.140   4.726
 2762SOL    HW1 9185   0.828   1.185   4.654
 2762SOL    HW2 9186   0.967   1.191   4.739
 2763SOL     OW 9187   4.786   1.781   3.494
 2763SOL    HW1 9188   4.721   1.720   3.450
 2763SOL    HW2 9189   4.828   1.840   3.425
 2764SOL     OW 9190   5.845   0.609   1.108
 2764SOL    HW1 9191   5.883   0.682   1.051
 2764SOL    HW2 9192   5.786   0.551   1.052
 2765SOL     OW 9193   6.296   0.367   0.694
 2765SOL    HW1 9194   6.208   0.412   0.709
 2765SOL    HW2 9195   6.282   0.268   0.688
 2766SOL     OW 9196   5.203   2.501   0.875
 2766SOL    HW1 9197   5.245   2.473   0.789
 2766SOL    HW2 9198   5.213   2.428   0.943
 2767SOL     OW 9199   6.838   5.486   0.049
 2767SOL    HW1 9200   6.795   5.477   6.977
 2767SOL    HW2 9201   6.929   5.445   0.046
 2768SOL     OW 9202   4.352   0.510   1.056
 2768SOL    HW1 9203   4.328   0.602   1.085
 2768SOL    HW2 9204   4.385   0.457   1.134
 2769SOL     OW 9205   2.301   4.777   4.377
 2769SOL    HW1 9206   2.296   4.844   4.303
 2769SOL    HW2 9207   2.244   4.809   4.454
 2770SOL     OW 9208   4.399   6.272   6.076
 2770SOL    HW1 9209   4.309   6.228   6.075
 2770SOL    HW2 9210   4.418   6.306   6.168
 2771SOL     OW 9211   6.778   0.927   4.077
 2771SOL    HW1 9212   6.679   0.924   4.066
 2771SOL    HW2 9213   6.800   0.934   4.175
 2772SOL     OW 9214   3.874   1.730   0.485
 2772SOL    HW1 9215   3.835   1.814   0.449
 2772SOL    HW2 9216   3.820   1.652   0.455
 2773SOL     OW 9217   6.410   1.737   5.148
 2773SOL    HW1 9218   6.380   1.796   5.223
 2773SOL    HW2 9219   6.421   1.792   5.065
 2774SOL     OW 9220   5.529   3.321   2.748
 2774SOL    HW1 9221   5.438   3.351   2.775
 2774SOL    HW2 9222   5.568   3.264   2.821
 2775SOL     OW 9223   6.355   5.016   5.808
 2775SOL    HW1 9224   6.449   5.040   5.830
 2775SOL    HW2 9225   6.353   4.932   5.754
 2776SOL     OW 9226   4.569   5.088   5.688
 2776SOL    HW1 9227   4.571   5.164   5.753
 2776SOL    HW2 9228   4.532   5.120   5.601
 2777SOL     OW 9229   3.125   1.726   2.010
 2777SOL    HW1 9230   3.033   1.758   1.989
 2777SOL    HW2 9231   3.192   1.792   1.978
 2778SOL     OW 9232   1.765   0.059   5.403
 2778SOL    HW1 9233   1.743   0.138   5.460
 2778SOL    HW2 9234   1.697   7.005   5.417
 2779SOL     OW 9235   4.506   6.359   1.472
 2779SOL    HW1 9236   4.435   6.332   1.406
 2779SOL    HW2 9237   4.553   6.440   1.439
 2780SOL     OW 9238   6.357   6.801   6.979
 2780SOL    HW1 9239   6.384   6.893   6.950
 2780SOL    HW2 9240   6.288   6.766   6.915
 2781SOL     OW 9241   5.510   6.322   1.594
 2781SOL    HW1 9242   5.521   6.225   1.570
 2781SOL    HW2 9243   5.584   6.375   1.552
 2782SOL     OW 9244   4.771   1.663   6.243
 2782SOL    HW1 9245   4.865   1.694   6.229
 2782SOL    HW2 9246   4.738   1.616   6.161
 2783SOL     OW 9247   5.167   4.355   3.380
 2783SOL    HW1 9248   5.197   4.311   3.295
 2783SOL    HW2 9249   5.237   4.421   3.409
 2784SOL     OW 9250   3.429   1.796   2.419
 2784SOL    HW1 9251   3.364   1.779   2.345
 2784SOL    HW2 9252   3.385   1.776   2.507
 2785SOL     OW 9253   5.342   2.043   0.534
 2785SOL    HW1 9254   5.368   1.998   0.449
 2785SOL    HW2 9255   5.245   2.024   0.553
 2786SOL     OW 9256   5.035   0.059   2.601
 2786SOL    HW1 9257   4.994   0.001   2.530
 2786SOL    HW2 9258   4.962   0.108   2.649
 2787SOL     OW 9259   4.593   1.211   6.070
 2787SOL    HW1 9260   4.677   1.264   6.082
 2787SOL    HW2 9261   4.616   1.113   6.067
 2788SOL     OW 9262   2.311   5.451   6.012
 2788SOL    HW1 9263   2.301   5.365   5.961
 2788SOL    HW2 9264   2.230   5.508   5.997
 2789SOL     OW 9265   1.383   2.461   3.802
 2789SOL    HW1 9266   1.414   2.534   3.741
 2789SOL    HW2 9267   1.460   2.431   3.859
 2790SOL     OW 9268   3.454   5.521   2.305
 2790SOL    HW1 9269   3.486   5.435   2.345
 2790SOL    HW2 9270   3.526   5.561   2.249
 2791SOL     OW 9271   0.215   2.998   3.615
 2791SOL    HW1 9272   0.281   3.065   3.582
 2791SOL    HW2 9273   0.148   3.043   3.674
 2792SOL     OW 9274   1.569   6.839   3.936
 2792SOL    HW1 9275   1.489   6.884   3.895
 2792SOL    HW2 9276   1.543   6.746   3.964
 2793SOL     OW 9277   6.022   4.141   1.532
 2793SOL    HW1 9278   5.944   4.176   1.583
 2793SOL    HW2 9279   6.032   4.043   1.548
 2794SOL     OW 9280   6.962   3.051   6.484
 2794SOL    HW1 9281   6.944   2.980   6.552
 2794SOL    HW2 9282   6.882   3.109   6.473
 2795SOL     OW 9283   1.311   3.091   0.384
 2795SOL    HW1 9284   1.243   3.038   0.436
 2795SOL    HW2 9285   1.293   3.188   0.396
 2796SOL     OW 9286   0.120   6.305   3.594
 2796SOL    HW1 9287   0.129   6.352   3.682
 2796SOL    HW2 9288   0.122   6.206   3.609
 2797SOL     OW 9289   5.175   5.494   4.344
 2797SOL    HW1 9290   5.084   5.537   4.341
 2797SOL    HW2 9291   5.174   5.420   4.411
 2798SOL     OW 9292   0.688   5.572   1.847
 2798SOL    HW1 9293   0.703   5.670   1.854
 2798SOL    HW2 9294   0.599   5.549   1.886
 2799SOL     OW 9295   5.950   5.271   6.544
 2799SOL    HW1 9296   5.966   5.369   6.532
 2799SOL    HW2 9297   5.852   5.254   6.554
 2800SOL     OW 9298   4.877   6.240   0.266
 2800SOL    HW1 9299   4.789   6.207   0.300
 2800SOL    HW2 9300   4.871   6.338   0.247
 2801SOL     OW 9301   6.610   5.699   6.487
 2801SOL    HW1 9302   6.558   5.625   6.531
 2801SOL    HW2 9303   6.629   5.770   6.555
 2802SOL     OW 9304   4.901   0.812   5.219
 2802SOL    HW1 9305   4.901   0.898   5.270
 2802SOL    HW2 9306   4.834   0.816   5.146
 2803SOL     OW 9307   4.108   5.793   6.651
 2803SOL    HW1 9308   4.051   5.729   6.702
 2803SOL    HW2 9309   4.196   5.750   6.629
 2804SOL     OW 9310   0.385   4.913   5.405
 2804SOL    HW1 9311   0.352   4.946   5.316
 2804SOL    HW2 9312   0.309   4.905   5.468
 2805SOL     OW 9313   5.996   2.848   1.903
 2805SOL    HW1 9314   5.982   2.861   1.805
 2805SOL    HW2 9315   5.948   2.920   1.954
 2806SOL     OW 9316   0.305   4.460   6.173
 2806SOL    HW1 9317   0.368   4.410   6.232
 2806SOL    HW2 9318   0.219   4.410   6.165
 2807SOL     OW 9319   4.030   6.220   4.337
 2807SOL    HW1 9320   3.948   6.258   4.379
 2807SOL    HW2 9321   4.012   6.126   4.306
 2808SOL     OW 9322   6.384   4.665   1.543
 2808SOL    HW1 9323   6.376   4.612   1.458
 2808SOL    HW2 9324   6.474   4.708   1.548
 2809SOL     OW 9325   5.451   2.962   1.145
 2809SOL    HW1 9326   5.548   2.964   1.119
 2809SOL    HW2 9327   5.422   3.053   1.174
 2810SOL     OW 9328   3.472   4.991   3.866
 2810SOL    HW1 9329   3.422   4.981   3.952
 2810SOL    HW2 9330   3.569   5.005   3.884
 2811SOL     OW 9331   0.879   2.378   3.469
 2811SOL    HW1 9332   0.895   2.312   3.543
 2811SOL    HW2 9333   0.870   2.469   3.508
 2812SOL     OW 9334   5.483   3.478   6.898
 2812SOL    HW1 9335   5.417   3.552   6.909
 2812SOL    HW2 9336   5.557   3.489   6.965
 2813SOL     OW 9337   0.531   0.582   6.570
 2813SOL    HW1 9338   0.510   0.507   6.508
 2813SOL    HW2 9339   0.446   0.614   6.612
 2814SOL     OW 9340   3.945   3.785   5.463
 2814SOL    HW1 9341   3.990   3.727   5.531
 2814SOL    HW2 9342   4.008   3.802   5.387
 2815SOL     OW 9343   6.576   7.007   5.622
 2815SOL    HW1 9344   6.526   0.063   5.578
 2815SOL    HW2 9345   6.562   6.922   5.571
 2816SOL     OW 9346   6.357   5.344   3.302
 2816SOL    HW1 9347   6.268   5.387   3.287
 2816SOL    HW2 9348   6.375   5.339   3.400
 2817SOL     OW 9349   3.229   6.615   1.897
 2817SOL    HW1 9350   3.138   6.604   1.857
 2817SOL    HW2 9351   3.241   6.710   1.928
 2818SOL     OW 9352   0.566   0.398   1.791
 2818SOL    HW1 9353   0.608   0.484   1.822
 2818SOL    HW2 9354   0.631   0.349   1.733
 2819SOL     OW 9355   0.657   0.654   1.388
 2819SOL    HW1 9356   0.582   0.588   1.382
 2819SOL    HW2 9357   0.733   0.613   1.438
 2820SOL     OW 9358   0.999   2.741   2.813
 2820SOL    HW1 9359   0.946   2.687   2.879
 2820SOL    HW2 9360   1.094   2.744   2.842
 2821SOL     OW 9361   4.334   3.953   6.260
 2821SOL    HW1 9362   4.406   4.016   6.291
 2821SOL    HW2 9363   4.247   3.979   6.301
 2822SOL     OW 9364   4.130   2.420   0.283
 2822SOL    HW1 9365   4.031   2.419   0.269
 2822SOL    HW2 9366   4.175   2.438   0.196
 2823SOL     OW 9367   4.307   0.542   0.644
 2823SOL    HW1 9368   4.310   0.556   0.743
 2823SOL    HW2 9369   4.214   0.520   0.616
 2824SOL     OW 9370   1.800   1.779   3.504
 2824SOL    HW1 9371   1.843   1.689   3.501
 2824SOL    HW2 9372   1.719   1.775   3.564
 2825SOL     OW 9373   5.644   0.236   6.739
 2825SOL    HW1 9374   5.611   0.247   6.645
 2825SOL    HW2 9375   5.647   0.139   6.762
 2826SOL     OW 9376   4.555   0.932   6.696
 2826SOL    HW1 9377   4.506   0.983   6.626
 2826SOL    HW2 9378   4.618   0.993   6.745
 2827SOL     OW 9379   0.453   1.176   5.650
 2827SOL    HW1 9380   0.496   1.153   5.738
 2827SOL    HW2 9381   0.451   1.275   5.639
 2828SOL     OW 9382   2.297   1.008   0.143
 2828SOL    HW1 9383   2.318   0.931   0.083
 2828SOL    HW2 9384   2.218   1.058   0.106
 2829SOL     OW 9385   3.333   3.297   4.913
 2829SOL    HW1 9386   3.345   3.247   4.998
 2829SOL    HW2 9387   3.328   3.395   4.932
 2830SOL     OW 9388   1.710   3.024   5.478
 2830SOL    HW1 9389   1.631   3.019   5.538
 2830SOL    HW2 9390   1.691   3.086   5.402
 2831SOL     OW 9391   0.845   4.481   3.964
 2831SOL    HW1 9392   0.915   4.547   3.937
 2831SOL    HW2 9393   0.882   4.388   3.953
 2832SOL     OW 9394   1.118   3.513   2.071
 2832SOL    HW1 9395   1.061   3.590   2.043
 2832SOL    HW2 9396   1.084   3.429   2.028
 2833SOL     OW 9397   3.044   1.886   2.466
 2833SOL    HW1 9398   3.092   1.974   2.466
 2833SOL    HW2 9399   2.947   1.901   2.445
 2834SOL     OW 9400   3.947   5.850   6.352
 2834SOL    HW1 9401   4.005   5.921   6.392
 2834SOL    HW2 9402   4.005   5.775   6.319
 2835SOL     OW 9403   0.683   6.382   2.314
 2835SOL    HW1 9404   0.585   6.399   2.323
 2835SOL    HW2 9405   0.708   6.382   2.217
 2836SOL     OW 9406   0.020   0.125   2.090
 2836SOL    HW1 9407   6.939   0.123   2.077
 2836SOL    HW2 9408   0.061   0.194   2.030
 2837SOL     OW 9409   4.751   4.898   2.450
 2837SOL    HW1 9410   4.837   4.948   2.441
 2837SOL    HW2 9411   4.747   4.825   2.382
 2838SOL     OW 9412   3.211   3.804   0.990
 2838SOL    HW1 9413   3.162   3.866   1.050
 2838SOL    HW2 9414   3.150   3.771   0.918
 2839SOL     OW 9415   6.774   2.552   3.017
 2839SOL    HW1 9416   6.834   2.617   3.063
 2839SOL    HW2 9417   6.688   2.597   2.994
 2840SOL     OW 9418   1.208   0.186   3.090
 2840SOL    HW1 9419   1.240   0.253   3.023
 2840SOL    HW2 9420   1.278   0.172   3.160
 2841SOL     OW 9421   0.464   0.861   6.182
 2841SOL    HW1 9422   0.475   0.868   6.281
 2841SOL    HW2 9423   0.397   0.790   6.160
 2842SOL     OW 9424   0.197   4.062   4.035
 2842SOL    HW1 9425   0.248   4.001   3.973
 2842SOL    HW2 9426   0.255   4.086   4.113
 2843SOL     OW 9427   2.477   2.555   2.460
 2843SOL    HW1 9428   2.385   2.522   2.484
 2843SOL    HW2 9429   2.471   2.613   2.379
 2844SOL     OW 9430   0.071   5.122   6.859
 2844SOL    HW1 9431   0.094   5.203   6.806
 2844SOL    HW2 9432   0.103   5.133   6.954
 2845SOL     OW 9433   5.942   2.947   1.654
 2845SOL    HW1 9434   5.997   3.031   1.661
 2845SOL    HW2 9435   5.869   2.962   1.587
 2846SOL     OW 9436   4.162   1.414   0.091
 2846SOL    HW1 9437   4.136   1.375   0.179
 2846SOL    HW2 9438   4.191   1.508   0.103
 2847SOL     OW 9439   5.116   3.735   3.671
 2847SOL    HW1 9440   5.110   3.734   3.771
 2847SOL    HW2 9441   5.150   3.647   3.638
 2848SOL     OW 9442   1.784   2.576   5.117
 2848SOL    HW1 9443   1.882   2.559   5.115
 2848SOL    HW2 9444   1.764   2.644   5.188
 2849SOL     OW 9445   3.948   6.825   0.494
 2849SOL    HW1 9446   3.860   6.810   0.538
 2849SOL    HW2 9447   4.016   6.762   0.533
 2850SOL     OW 9448   1.577   0.341   2.529
 2850SOL    HW1 9449   1.490   0.386   2.507
 2850SOL    HW2 9450   1.649   0.377   2.470
 2851SOL     OW 9451   6.095   1.400   6.178
 2851SOL    HW1 9452   6.102   1.336   6.102
 2851SOL    HW2 9453   6.015   1.459   6.166
 2852SOL     OW 9454   6.047   4.006   6.724
 2852SOL    HW1 9455   6.033   4.105   6.725
 2852SOL    HW2 9456   6.093   3.978   6.808
 2853SOL     OW 9457   1.720   1.189   6.512
 2853SOL    HW1 9458   1.624   1.215   6.523
 2853SOL    HW2 9459   1.755   1.157   6.600
 2854SOL     OW 9460   4.309   1.045   4.990
 2854SOL    HW1 9461   4.385   1.047   4.925
 2854SOL    HW2 9462   4.249   0.968   4.969
 2855SOL     OW 9463   2.279   1.658   6.026
 2855SOL    HW1 9464   2.201   1.635   5.969
 2855SOL    HW2 9465   2.254   1.650   6.123
 2856SOL     OW 9466   0.567   2.713   5.474
 2856SOL    HW1 9467   0.513   2.768   5.411
 2856SOL    HW2 9468   0.664   2.734   5.463
 2857SOL     OW 9469   2.027   2.734   2.384
 2857SOL    HW1 9470   2.122   2.731   2.353
 2857SOL    HW2 9471   2.024   2.722   2.483
 2858SOL     OW 9472   4.828   3.922   1.993
 2858SOL    HW1 9473   4.786   3.986   1.929
 2858SOL    HW2 9474   4.907   3.966   2.037
 2859SOL     OW 9475   5.784   0.706   6.914
 2859SOL    HW1 9476   5.860   0.718   6.850
 2859SOL    HW2 9477   5.746   0.795   6.937
 2860SOL     OW 9478   2.932   1.472   1.425
 2860SOL    HW1 9479   2.846   1.448   1.470
 2860SOL    HW2 9480   2.914   1.532   1.347
 2861SOL     OW 9481   3.882   4.841   5.987
 2861SOL    HW1 9482   3.797   4.789   5.980
 2861SOL    HW2 9483   3.861   4.939   5.994
 2862SOL     OW 9484   5.532   1.808   2.678
 2862SOL    HW1 9485   5.611   1.762   2.718
 2862SOL    HW2 9486   5.543   1.814   2.579
 2863SOL     OW 9487   4.896   1.295   6.605
 2863SOL    HW1 9488   4.979   1.240   6.611
 2863SOL    HW2 9489   4.876   1.335   6.695
 2864SOL     OW 9490   4.245   1.536   1.921
 2864SOL    HW1 9491   4.199   1.515   2.008
 2864SOL    HW2 9492   4.331   1.583   1.940
 2865SOL     OW 9493   3.907   5.111   6.119
 2865SOL    HW1 9494   3.948   5.114   6.028
 2865SOL    HW2 9495   3.854   5.195   6.134
 2866SOL     OW 9496   6.697   5.681   6.809
 2866SOL    HW1 9497   6.733   5.748   6.874
 2866SOL    HW2 9498   6.683   5.725   6.720
 2867SOL     OW 9499   0.122   6.071   2.871
 2867SOL    HW1 9500   0.154   6.131   2.944
 2867SOL    HW2 9501   0.091   6.126   2.793
 2868SOL     OW 9502   1.021   1.127   5.369
 2868SOL    HW1 9503   0.988   1.220   5.351
 2868SOL    HW2 9504   0.944   1.070   5.397
 2869SOL     OW 9505   6.724   1.463   3.600
 2869SOL    HW1 9506   6.647   1.503   3.650
 2869SOL    HW2 9507   6.810   1.496   3.640
 2870SOL     OW 9508   0.433   1.262   5.104
 2870SOL    HW1 9509   0.439   1.296   5.198
 2870SOL    HW2 9510   0.495   1.184   5.092
 2871SOL     OW 9511   0.160   1.779   6.544
 2871SOL    HW1 9512   0.198   1.714   6.610
 2871SOL    HW2 9513   0.079   1.822   6.584
 2872SOL     OW 9514   2.539   2.119   2.034
 2872SOL    HW1 9515   2.463   2.138   2.096
 2872SOL    HW2 9516   2.588   2.204   2.016
 2873SOL     OW 9517   0.125   5.605   2.812
 2873SOL    HW1 9518   0.053   5.674   2.820
 2873SOL    HW2 9519   0.085   5.515   2.800
 2874SOL     OW 9520   4.677   6.643   3.177
 2874SOL    HW1 9521   4.756   6.682   3.130
 2874SOL    HW2 9522   4.684   6.543   3.176
 2875SOL     OW 9523   4.800   0.415   0.904
 2875SOL    HW1 9524   4.755   0.435   0.991
 2875SOL    HW2 9525   4.838   0.499   0.866
 2876SOL     OW 9526   1.858   0.072   2.546
 2876SOL    HW1 9527   1.844   0.051   2.643
 2876SOL    HW2 9528   1.890   0.166   2.537
 2877SOL     OW 9529   2.772   2.260   5.502
 2877SOL    HW1 9530   2.781   2.161   5.508
 2877SOL    HW2 9531   2.858   2.299   5.468
 2878SOL     OW 9532   3.480   4.738   5.323
 2878SOL    HW1 9533   3.405   4.676   5.344
 2878SOL    HW2 9534   3.565   4.685   5.313
 2879SOL     OW 9535   5.371   4.902   0.130
 2879SOL    HW1 9536   5.452   4.914   0.188
 2879SOL    HW2 9537   5.352   4.804   0.120
 2880SOL     OW 9538   0.087   0.959   1.640
 2880SOL    HW1 9539   0.023   0.976   1.565
 2880SOL    HW2 9540   0.049   0.996   1.725
 2881SOL     OW 9541   5.273   6.098   6.384
 2881SOL    HW1 9542   5.241   6.154   6.308
 2881SOL    HW2 9543   5.212   6.109   6.462
 2882SOL     OW 9544   0.423   5.351   2.426
 2882SOL    HW1 9545   0.329   5.326   2.450
 2882SOL    HW2 9546   0.475   5.269   2.403
 2883SOL     OW 9547   5.581   0.033   3.093
 2883SOL    HW1 9548   5.546   0.074   3.009
 2883SOL    HW2 9549   5.610   6.957   3.074
 2884SOL     OW 9550   0.948   0.060   2.160
 2884SOL    HW1 9551   0.981   0.131   2.222
 2884SOL    HW2 9552   0.860   0.025   2.193
 2885SOL     OW 9553   1.097   3.969   3.671
 2885SOL    HW1 9554   1.007   4.012   3.669
 2885SOL    HW2 9555   1.154   4.008   3.599
 2886SOL     OW 9556   1.399   3.879   5.975
 2886SOL    HW1 9557   1.429   3.939   5.900
 2886SOL    HW2 9558   1.384   3.787   5.940
 2887SOL     OW 9559   0.316   0.432   5.351
 2887SOL    HW1 9560   0.297   0.505   5.285
 2887SOL    HW2 9561   0.230   0.391   5.381
 2888SOL     OW 9562   0.259   4.288   0.146
 2888SOL    HW1 9563   0.214   4.237   0.219
 2888SOL    HW2 9564   0.285   4.225   0.072
 2889SOL     OW 9565   2.858   6.158   2.603
 2889SOL    HW1 9566   2.817   6.116   2.523
 2889SOL    HW2 9567   2.823   6.114   2.686
 2890SOL     OW 9568   1.879   6.111   0.718
 2890SOL    HW1 9569   1.913   6.139   0.628
 2890SOL    HW2 9570   1.855   6.192   0.772
 2891SOL     OW 9571   0.990   4.752   3.435
 2891SOL    HW1 9572   0.895   4.770   3.463
 2891SOL    HW2 9573   0.994   4.743   3.336
 2892SOL     OW 9574   5.536   3.340   0.482
 2892SOL    HW1 9575   5.560   3.252   0.521
 2892SOL    HW2 9576   5.619   3.392   0.464
 2893SOL     OW 9577   6.964   5.629   4.523
 2893SOL    HW1 9578   6.976   5.624   4.424
 2893SOL    HW2 9579   6.995   5.718   4.556
 2894SOL     OW 9580   1.396   3.711   2.394
 2894SOL    HW1 9581   1.463   3.751   2.456
 2894SOL    HW2 9582   1.443   3.675   2.313
 2895SOL     OW 9583   5.033   2.781   5.338
 2895SOL    HW1 9584   4.956   2.830   5.296
 2895SOL    HW2 9585   5.106   2.771   5.272
 2896SOL     OW 9586   4.981   5.454   5.603
 2896SOL    HW1 9587   4.910   5.468   5.673
 2896SOL    HW2 9588   5.071   5.457   5.646
 2897SOL     OW 9589   4.181   5.229   2.969
 2897SOL    HW1 9590   4.181   5.288   2.889
 2897SOL    HW2 9591   4.128   5.272   3.042
 2898SOL     OW 9592   4.412   4.910   4.625
 2898SOL    HW1 9593   4.472   4.862   4.688
 2898SOL    HW2 9594   4.335   4.851   4.600
 2899SOL     OW 9595   1.159   1.576   6.814
 2899SOL    HW1 9596   1.163   1.631   6.731
 2899SOL    HW2 9597   1.221   1.498   6.806
 2900SOL     OW 9598   2.120   3.243   5.954
 2900SOL    HW1 9599   2.096   3.158   5.907
 2900SOL    HW2 9600   2.179   3.223   6.032
 2901SOL     OW 9601   3.062   5.338   3.449
 2901SOL    HW1 9602   3.014   5.368   3.367
 2901SOL    HW2 9603   2.995   5.312   3.519
 2902SOL     OW 9604   5.331   6.419   3.081
 2902SOL    HW1 9605   5.236   6.432   3.109
 2902SOL    HW2 9606   5.381   6.505   3.092
 2903SOL     OW 9607   2.925   0.254   0.509
 2903SOL    HW1 9608   2.964   0.253   0.601
 2903SOL    HW2 9609   2.925   0.347   0.473
 2904SOL     OW 9610   2.331   4.371   4.352
 2904SOL    HW1 9611   2.358   4.385   4.448
 2904SOL    HW2 9612   2.287   4.282   4.342
 2905SOL     OW 9613   1.666   2.725   4.657
 2905SOL    HW1 9614   1.577   2.762   4.680
 2905SOL    HW2 9615   1.701   2.671   4.733
 2906SOL     OW 9616   4.116   5.785   1.696
 2906SOL    HW1 9617   4.038   5.843   1.671
 2906SOL    HW2 9618   4.176   5.774   1.616
 2907SOL     OW 9619   0.850   1.509   3.377
 2907SOL    HW1 9620   0.814   1.415   3.382
 2907SOL    HW2 9621   0.937   1.508   3.328
 2908SOL     OW 9622   4.916   6.248   3.398
 2908SOL    HW1 9623   4.986   6.190   3.357
 2908SOL    HW2 9624   4.847   6.191   3.441
 2909SOL     OW 9625   1.442   5.365   3.915
 2909SOL    HW1 9626   1.423   5.294   3.846
 2909SOL    HW2 9627   1.406   5.335   4.003
 2910SOL     OW 9628   4.907   0.495   4.415
 2910SOL    HW1 9629   4.812   0.509   4.389
 2910SOL    HW2 9630   4.919   0.401   4.449
 2911SOL     OW 9631   0.626   5.500   3.214
 2911SOL    HW1 9632   0.645   5.516   3.311
 2911SOL    HW2 9633   0.705   5.455   3.173
 2912SOL     OW 9634   4.885   0.330   6.508
 2912SOL    HW1 9635   4.809   0.352   6.570
 2912SOL    HW2 9636   4.956   0.281   6.559
 2913SOL     OW 9637   2.967   4.858   2.772
 2913SOL    HW1 9638   2.883   4.818   2.809
 2913SOL    HW2 9639   3.036   4.865   2.844
 2914SOL     OW 9640   6.332   6.567   6.666
 2914SOL    HW1 9641   6.403   6.574   6.597
 2914SOL    HW2 9642   6.309   6.471   6.682
 2915SOL     OW 9643   4.935   1.787   3.917
 2915SOL    HW1 9644   4.989   1.743   3.989
 2915SOL    HW2 9645   4.838   1.769   3.931
 2916SOL     OW 9646   1.117   6.590   0.582
 2916SOL    HW1 9647   1.084   6.661   0.645
 2916SOL    HW2 9648   1.077   6.502   0.607
 2917SOL     OW 9649   2.959   0.121   3.266
 2917SOL    HW1 9650   2.883   0.060   3.288
 2917SOL    HW2 9651   3.027   0.071   3.213
 2918SOL     OW 9652   6.217   4.730   4.669
 2918SOL    HW1 9653   6.207   4.826   4.693
 2918SOL    HW2 9654   6.255   4.679   4.747
 2919SOL     OW 9655   6.769   1.067   2.287
 2919SOL    HW1 9656   6.692   1.005   2.272
 2919SOL    HW2 9657   6.756   1.115   2.374
 2920SOL     OW 9658   2.824   1.700   1.669
 2920SOL    HW1 9659   2.794   1.701   1.573
 2920SOL    HW2 9660   2.844   1.794   1.698
 2921SOL     OW 9661   0.700   0.059   4.416
 2921SOL    HW1 9662   0.694   0.158   4.402
 2921SOL    HW2 9663   0.609   0.022   4.434
 2922SOL     OW 9664   4.729   1.117   0.360
 2922SOL    HW1 9665   4.718   1.163   0.271
 2922SOL    HW2 9666   4.639   1.101   0.400
 2923SOL     OW 9667   6.559   5.098   2.362
 2923SOL    HW1 9668   6.538   5.142   2.274
 2923SOL    HW2 9669   6.657   5.077   2.366
 2924SOL     OW 9670   6.695   2.305   5.847
 2924SOL    HW1 9671   6.667   2.383   5.792
 2924SOL    HW2 9672   6.779   2.327   5.897
 2925SOL     OW 9673   5.122   1.272   2.333
 2925SOL    HW1 9674   5.128   1.367   2.365
 2925SOL    HW2 9675   5.071   1.218   2.399
 2926SOL     OW 9676   0.160   2.060   4.167
 2926SOL    HW1 9677   0.166   2.142   4.224
 2926SOL    HW2 9678   0.223   2.067   4.090
 2927SOL     OW 9679   1.417   3.356   1.720
 2927SOL    HW1 9680   1.382   3.445   1.691
 2927SOL    HW2 9681   1.407   3.347   1.820
 2928SOL     OW 9682   6.923   1.705   6.382
 2928SOL    HW1 9683   6.894   1.678   6.290
 2928SOL    HW2 9684   6.988   1.637   6.418
 2929SOL     OW 9685   6.918   2.495   0.191
 2929SOL    HW1 9686   6.997   2.458   0.239
 2929SOL    HW2 9687   6.932   2.489   0.093
 2930SOL     OW 9688   4.365   0.730   4.754
 2930SOL    HW1 9689   4.280   0.739   4.807
 2930SOL    HW2 9690   4.401   0.820   4.734
 2931SOL     OW 9691   5.830   4.781   0.409
 2931SOL    HW1 9692   5.920   4.741   0.394
 2931SOL    HW2 9693   5.777   4.722   0.469
 2932SOL     OW 9694   0.920   5.739   1.614
 2932SOL    HW1 9695   0.841   5.718   1.556
 2932SOL    HW2 9696   1.003   5.703   1.571
 2933SOL     OW 9697   0.060   5.516   3.240
 2933SOL    HW1 9698   0.132   5.539   3.175
 2933SOL    HW2 9699   0.047   5.416   3.240
 2934SOL     OW 9700   4.444   1.188   0.052
 2934SOL    HW1 9701   4.384   1.170   6.993
 2934SOL    HW2 9702   4.434   1.117   0.121
 2935SOL     OW 9703   6.217   3.566   6.853
 2935SOL    HW1 9704   6.230   3.488   6.791
 2935SOL    HW2 9705   6.127   3.606   6.838
 2936SOL     OW 9706   3.702   6.626   1.060
 2936SOL    HW1 9707   3.608   6.653   1.039
 2936SOL    HW2 9708   3.730   6.553   0.997
 2937SOL     OW 9709   5.098   4.408   0.745
 2937SOL    HW1 9710   5.140   4.350   0.675
 2937SOL    HW2 9711   5.038   4.353   0.803
 2938SOL     OW 9712   5.059   4.527   6.489
 2938SOL    HW1 9713   5.060   4.546   6.391
 2938SOL    HW2 9714   4.982   4.574   6.531
 2939SOL     OW 9715   1.371   1.092   3.000
 2939SOL    HW1 9716   1.315   1.023   2.954
 2939SOL    HW2 9717   1.354   1.181   2.959
 2940SOL     OW 9718   5.069   4.984   5.958
 2940SOL    HW1 9719   4.990   4.971   6.017
 2940SOL    HW2 9720   5.133   4.908   5.972
 2941SOL     OW 9721   1.843   2.203   4.464
 2941SOL    HW1 9722   1.822   2.300   4.456
 2941SOL    HW2 9723   1.926   2.182   4.412
 2942SOL     OW 9724   2.886   2.771   0.358
 2942SOL    HW1 9725   2.911   2.765   0.261
 2942SOL    HW2 9726   2.788   2.755   0.368
 2943SOL     OW 9727   4.577   4.394   3.391
 2943SOL    HW1 9728   4.669   4.386   3.352
 2943SOL    HW2 9729   4.511   4.351   3.330
 2944SOL     OW 9730   2.818   6.033   4.310
 2944SOL    HW1 9731   2.822   6.083   4.396
 2944SOL    HW2 9732   2.891   5.965   4.307
 2945SOL     OW 9733   3.565   4.165   3.810
 2945SOL    HW1 9734   3.531   4.177   3.903
 2945SOL    HW2 9735   3.663   4.148   3.812
 2946SOL     OW 9736   1.177   5.079   5.919
 2946SOL    HW1 9737   1.210   5.173   5.930
 2946SOL    HW2 9738   1.216   5.040   5.836
 2947SOL     OW 9739   0.561   3.735   0.697
 2947SOL    HW1 9740   0.645   3.711   0.746
 2947SOL    HW2 9741   0.514   3.809   0.745
 2948SOL     OW 9742   0.630   4.299   5.762
 2948SOL    HW1 9743   0.578   4.376   5.725
 2948SOL    HW2 9744   0.701   4.273   5.697
 2949SOL     OW 9745   2.654   5.581   1.045
 2949SOL    HW1 9746   2.594   5.505   1.024
 2949SOL    HW2 9747   2.692   5.619   0.960
 2950SOL     OW 9748   5.215   4.092   4.270
 2950SOL    HW1 9749   5.274   4.074   4.349
 2950SOL    HW2 9750   5.268   4.088   4.186
 2951SOL     OW 9751   5.649   0.928   0.627
 2951SOL    HW1 9752   5.689   0.944   0.537
 2951SOL    HW2 9753   5.720   0.895   0.689
 2952SOL     OW 9754   0.406   4.820   5.720
 2952SOL    HW1 9755   0.367   4.749   5.662
 2952SOL    HW2 9756   0.338   4.892   5.736
 2953SOL     OW 9757   4.952   3.106   2.352
 2953SOL    HW1 9758   4.958   3.080   2.255
 2953SOL    HW2 9759   5.002   3.039   2.407
 2954SOL     OW 9760   1.050   5.704   1.844
 2954SOL    HW1 9761   1.036   5.612   1.881
 2954SOL    HW2 9762   0.987   5.719   1.768
 2955SOL     OW 9763   0.605   4.055   1.600
 2955SOL    HW1 9764   0.684   4.074   1.658
 2955SOL    HW2 9765   0.521   4.079   1.649
 2956SOL     OW 9766   5.359   6.111   3.168
 2956SOL    HW1 9767   5.439   6.132   3.225
 2956SOL    HW2 9768   5.332   6.192   3.117
 2957SOL     OW 9769   6.088   3.191   1.639
 2957SOL    HW1 9770   6.098   3.194   1.539
 2957SOL    HW2 9771   6.000   3.231   1.664
 2958SOL     OW 9772   2.556   5.031   4.100
 2958SOL    HW1 9773   2.641   5.044   4.049
 2958SOL    HW2 9774   2.577   5.020   4.197
 2959SOL     OW 9775   4.895   4.445   0.477
 2959SOL    HW1 9776   4.905   4.346   0.492
 2959SOL    HW2 9777   4.811   4.477   0.519
 2960SOL     OW 9778   3.032   0.709   6.667
 2960SOL    HW1 9779   2.990   0.776   6.728
 2960SOL    HW2 9780   2.993   0.619   6.685
 2961SOL     OW 9781   5.262   3.907   2.826
 2961SOL    HW1 9782   5.194   3.882   2.894
 2961SOL    HW2 9783   5.350   3.923   2.871
 2962SOL     OW 9784   4.936   0.193   3.128
 2962SOL    HW1 9785   4.852   0.228   3.168
 2962SOL    HW2 9786   5.006   0.185   3.200
 2963SOL     OW 9787   2.098   0.500   5.754
 2963SOL    HW1 9788   2.161   0.548   5.692
 2963SOL    HW2 9789   2.130   0.513   5.848
 2964SOL     OW 9790   0.456   0.245   3.201
 2964SOL    HW1 9791   0.491   0.327   3.156
 2964SOL    HW2 9792   0.530   0.198   3.248
 2965SOL     OW 9793   6.979   1.763   4.253
 2965SOL    HW1 9794   6.933   1.701   4.316
 2965SOL    HW2 9795   6.919   1.842   4.235
 2966SOL     OW 9796   5.405   6.166   3.603
 2966SOL    HW1 9797   5.475   6.099   3.579
 2966SOL    HW2 9798   5.319   6.119   3.623
 2967SOL     OW 9799   6.589   0.749   4.798
 2967SOL    HW1 9800   6.582   0.796   4.886
 2967SOL    HW2 9801   6.664   0.684   4.801
 2968SOL     OW 9802   1.303   2.725   6.404
 2968SOL    HW1 9803   1.364   2.658   6.446
 2968SOL    HW2 9804   1.337   2.817   6.423
 2969SOL     OW 9805   4.741   1.367   4.327
 2969SOL    HW1 9806   4.762   1.464   4.343
 2969SOL    HW2 9807   4.802   1.331   4.257
 2970SOL     OW 9808   1.845   4.560   6.126
 2970SOL    HW1 9809   1.836   4.461   6.118
 2970SOL    HW2 9810   1.755   4.601   6.137
 2971SOL     OW 9811   4.931   4.174   0.496
 2971SOL    HW1 9812   4.895   4.084   0.470
 2971SOL    HW2 9813   5.030   4.175   0.485
 2972SOL     OW 9814   6.233   4.833   6.455
 2972SOL    HW1 9815   6.308   4.864   6.513
 2972SOL    HW2 9816   6.161   4.903   6.454
 2973SOL     OW 9817   5.653   6.734   2.262
 2973SOL    HW1 9818   5.690   6.827   2.252
 2973SOL    HW2 9819   5.554   6.738   2.270
 2974SOL     OW 9820   0.969   4.568   2.569
 2974SOL    HW1 9821   1.061   4.587   2.602
 2974SOL    HW2 9822   0.944   4.635   2.499
 2975SOL     OW 9823   5.377   3.414   4.225
 2975SOL    HW1 9824   5.429   3.335   4.191
 2975SOL    HW2 9825   5.285   3.412   4.187
 2976SOL     OW 9826   4.387   2.343   3.300
 2976SOL    HW1 9827   4.345   2.365   3.213
 2976SOL    HW2 9828   4.425   2.251   3.297
 2977SOL     OW 9829   2.508   7.006   2.618
 2977SOL    HW1 9830   2.530   6.935   2.684
 2977SOL    HW2 9831   2.560   6.990   2.534
 2978SOL     OW 9832   5.059   4.093   0.176
 2978SOL    HW1 9833   4.980   4.053   0.223
 2978SOL    HW2 9834   5.051   4.193   0.177
 2979SOL     OW 9835   3.827   1.001   3.942
 2979SOL    HW1 9836   3.834   0.914   3.892
 2979SOL    HW2 9837   3.792   0.983   4.034
 2980SOL     OW 9838   1.032   5.804   4.444
 2980SOL    HW1 9839   1.118   5.756   4.427
 2980SOL    HW2 9840   0.959   5.738   4.463
 2981SOL     OW 9841   1.971   1.302   5.986
 2981SOL    HW1 9842   2.058   1.303   5.938
 2981SOL    HW2 9843   1.981   1.345   6.076
 2982SOL     OW 9844   3.987   4.822   2.818
 2982SOL    HW1 9845   3.970   4.737   2.867
 2982SOL    HW2 9846   4.039   4.884   2.877
 2983SOL     OW 9847   0.785   1.486   2.657
 2983SOL    HW1 9848   0.783   1.405   2.598
 2983SOL    HW2 9849   0.833   1.560   2.609
 2984SOL     OW 9850   5.443   5.485   1.097
 2984SOL    HW1 9851   5.490   5.553   1.040
 2984SOL    HW2 9852   5.439   5.398   1.048
 2985SOL     OW 9853   1.538   2.457   5.679
 2985SOL    HW1 9854   1.481   2.410   5.747
 2985SOL    HW2 9855   1.608   2.395   5.646
 2986SOL     OW 9856   3.259   4.118   4.830
 2986SOL    HW1 9857   3.213   4.207   4.825
 2986SOL    HW2 9858   3.353   4.127   4.799
 2987SOL     OW 9859   6.454   1.329   4.441
 2987SOL    HW1 9860   6.399   1.292   4.516
 2987SOL    HW2 9861   6.398   1.391   4.386
 2988SOL     OW 9862   1.257   5.824   3.109
 2988SOL    HW1 9863   1.297   5.734   3.127
 2988SOL    HW2 9864   1.287   5.857   3.019
 2989SOL     OW 9865   6.248   5.698   6.425
 2989SOL    HW1 9866   6.311   5.676   6.500
 2989SOL    HW2 9867   6.229   5.796   6.424
 2990SOL     OW 9868   3.836   1.767   4.599
 2990SOL    HW1 9869   3.911   1.830   4.616
 2990SOL    HW2 9870   3.789   1.747   4.685
 2991SOL     OW 9871   6.587   4.476   5.448
 2991SOL    HW1 9872   6.537   4.405   5.498
 2991SOL    HW2 9873   6.685   4.459   5.455
 2992SOL     OW 9874   3.014   5.957   4.745
 2992SOL    HW1 9875   2.995   6.028   4.812
 2992SOL    HW2 9876   2.932   5.901   4.732
 2993SOL     OW 9877   0.485   5.070   1.421
 2993SOL    HW1 9878   0.542   5.152   1.413
 2993SOL    HW2 9879   0.540   4.989   1.403
 2994SOL     OW 9880   4.559   6.518   6.909
 2994SOL    HW1 9881   4.534   6.548   7.000
 2994SOL    HW2 9882   4.635   6.574   6.874
 2995SOL     OW 9883   2.898   2.398   5.948
 2995SOL    HW1 9884   2.941   2.329   6.006
 2995SOL    HW2 9885   2.811   2.426   5.989
 2996SOL     OW 9886   1.241   1.280   3.568
 2996SOL    HW1 9887   1.262   1.189   3.604
 2996SOL    HW2 9888   1.234   1.276   3.468
 2997SOL     OW 9889   6.327   0.426   2.787
 2997SOL    HW1 9890   6.421   0.394   2.788
 2997SOL    HW2 9891   6.270   0.362   2.735
 2998SOL     OW 9892   4.290   6.815   4.430
 2998SOL    HW1 9893   4.203   6.801   4.478
 2998SOL    HW2 9894   4.339   6.729   4.424
 2999SOL     OW 9895   2.737   5.008   4.906
 2999SOL    HW1 9896   2.676   4.975   4.979
 2999SOL    HW2 9897   2.785   5.090   4.937
 3000SOL     OW 9898   2.438   3.702   6.537
 3000SOL    HW1 9899   2.348   3.720   6.577
 3000SOL    HW2 9900   2.451   3.604   6.526
 3001SOL     OW 9901   5.526   0.299   6.503
 3001SOL    HW1 9902   5.450   0.342   6.553
 3001SOL    HW2 9903   5.494   0.214   6.461
 3002SOL     OW 9904   3.661   1.459   6.707
 3002SOL    HW1 9905   3.636   1.438   6.612
 3002SOL    HW2 9906   3.577   1.474   6.760
 3003SOL     OW 9907   1.966   6.262   0.163
 3003SOL    HW1 9908   1.873   6.255   0.199
 3003SOL    HW2 9909   1.997   6.358   0.168
 3004SOL     OW 9910   1.387   4.724   2.643
 3004SOL    HW1 9911   1.313   4.731   2.576
 3004SOL    HW2 9912   1.388   4.806   2.700
 3005SOL     OW 9913   3.210   1.898   0.469
 3005SOL    HW1 9914   3.180   1.994   0.474
 3005SOL    HW2 9915   3.302   1.894   0.431
 3006SOL     OW 9916   5.345   1.639   5.242
 3006SOL    HW1 9917   5.275   1.666   5.176
 3006SOL    HW2 9918   5.349   1.706   5.316
 3007SOL     OW 9919   5.446   5.134   1.285
 3007SOL    HW1 9920   5.453   5.035   1.277
 3007SOL    HW2 9921   5.388   5.157   1.363
 3008SOL     OW 9922   3.846   2.077   5.994
 3008SOL    HW1 9923   3.800   2.079   6.083
 3008SOL    HW2 9924   3.859   1.982   5.965
 3009SOL     OW 9925   0.342   1.543   2.492
 3009SOL    HW1 9926   0.272   1.481   2.527
 3009SOL    HW2 9927   0.299   1.616   2.438
 3010SOL     OW 9928   3.639   5.461   3.404
 3010SOL    HW1 9929   3.588   5.424   3.482
 3010SOL    HW2 9930   3.701   5.532   3.436
 3011SOL     OW 9931   6.093   1.492   1.706
 3011SOL    HW1 9932   6.133   1.400   1.706
 3011SOL    HW2 9933   6.135   1.546   1.634
 3012SOL     OW 9934   1.739   3.692   5.983
 3012SOL    HW1 9935   1.743   3.774   6.041
 3012SOL    HW2 9936   1.822   3.638   5.996
 3013SOL     OW 9937   5.975   5.824   4.601
 3013SOL    HW1 9938   5.960   5.754   4.670
 3013SOL    HW2 9939   6.072   5.828   4.577
 3014SOL     OW 9940   4.396   2.377   4.325
 3014SOL    HW1 9941   4.487   2.402   4.358
 3014SOL    HW2 9942   4.391   2.391   4.226
 3015SOL     OW 9943   3.493   1.970   0.422
 3015SOL    HW1 9944   3.580   1.922   0.409
 3015SOL    HW2 9945   3.482   2.040   0.352
 3016SOL     OW 9946   2.349   6.130   3.862
 3016SOL    HW1 9947   2.291   6.207   3.888
 3016SOL    HW2 9948   2.391   6.149   3.773
 3017SOL     OW 9949   6.608   4.878   2.503
 3017SOL    HW1 9950   6.579   4.943   2.433
 3017SOL    HW2 9951   6.689   4.914   2.551
 3018SOL     OW 9952   2.997   6.484   5.940
 3018SOL    HW1 9953   2.942   6.460   5.860
 3018SOL    HW2 9954   2.937   6.503   6.017
 3019SOL     OW 9955   0.859   0.133   6.975
 3019SOL    HW1 9956   0.783   0.176   0.007
 3019SOL    HW2 9957   0.823   0.059   6.918
 3020SOL     OW 9958   3.968   2.782   1.671
 3020SOL    HW1 9959   3.893   2.803   1.608
 3020SOL    HW2 9960   4.049   2.757   1.618
 3021SOL     OW 9961   3.004   6.517   6.598
 3021SOL    HW1 9962   3.066   6.581   6.551
 3021SOL    HW2 9963   2.967   6.452   6.532
 3022SOL     OW 9964   3.733   5.905   4.340
 3022SOL    HW1 9965   3.829   5.927   4.323
 3022SOL    HW2 9966   3.678   5.931   4.260
 3023SOL     OW 9967   3.900   0.371   2.600
 3023SOL    HW1 9968   3.856   0.429   2.668
 3023SOL    HW2 9969   3.876   0.276   2.616
 3024SOL     OW 9970   4.347   6.943   4.797
 3024SOL    HW1 9971   4.342   6.968   4.700
 3024SOL    HW2 9972   4.410   7.004   4.844
 3025SOL     OW 9973   3.234   0.823   0.459
 3025SOL    HW1 9974   3.288   0.785   0.384
 3025SOL    HW2 9975   3.148   0.859   0.424
 3026SOL     OW 9976   1.377   0.310   0.028
 3026SOL    HW1 9977   1.373   0.225   0.081
 3026SOL    HW2 9978   1.331   0.296   6.958
 3027SOL     OW 9979   3.908   0.525   3.016
 3027SOL    HW1 9980   3.838   0.561   3.078
 3027SOL    HW2 9981   3.988   0.496   3.069
 3028SOL     OW 9982   1.008   3.892   5.602
 3028SOL    HW1 9983   0.992   3.897   5.700
 3028SOL    HW2 9984   0.983   3.801   5.568
 3029SOL     OW 9985   0.082   2.718   5.373
 3029SOL    HW1 9986   0.065   2.812   5.401
 3029SOL    HW2 9987   0.097   2.715   5.275
 3030SOL     OW 9988   0.112   3.276   6.783
 3030SOL    HW1 9989   0.031   3.311   6.735
 3030SOL    HW2 9990   0.171   3.353   6.809
 3031SOL     OW 9991   0.672   3.975   0.227
 3031SOL    HW1 9992   0.578   3.982   0.194
 3031SOL    HW2 9993   0.682   4.030   0.310
 3032SOL     OW 9994   3.143   0.307   1.067
 3032SOL    HW1 9995   3.198   0.230   1.033
 3032SOL    HW2 9996   3.191   0.393   1.047
 3033SOL     OW 9997   6.326   2.188   1.492
 3033SOL    HW1 9998   6.278   2.101   1.480
 3033SOL    HW2 9999   6.295   2.233   1.575
 3034SOL     OW10000   1.471   5.644   3.111
 3034SOL    HW110001   1.516   5.715   3.164
 3034SOL    HW210002   1.468   5.559   3.163
 3035SOL     OW10003   0.465   3.228   6.880
 3035SOL    HW110004   0.404   3.151   6.898
 3035SOL    HW210005   0.458   3.254   6.784
 3036SOL     OW10006   2.004   1.286   6.486
 3036SOL    HW110007   2.035   1.202   6.442
 3036SOL    HW210008   1.906   1.279   6.506
 3037SOL     OW10009   6.298   6.036   5.305
 3037SOL    HW110010   6.233   6.091   5.254
 3037SOL    HW210011   6.354   5.983   5.242
 3038SOL     OW10012   5.278   6.305   5.810
 3038SOL    HW110013   5.281   6.229   5.745
 3038SOL    HW210014   5.358   6.363   5.798
 3039SOL     OW10015   6.673   3.850   0.574
 3039SOL    HW110016   6.678   3.836   0.673
 3039SOL    HW210017   6.766   3.856   0.536
 3040SOL     OW10018   3.884   3.893   6.139
 3040SOL    HW110019   3.969   3.893   6.086
 3040SOL    HW210020   3.829   3.973   6.113
 3041SOL     OW10021   2.011   2.764   4.304
 3041SOL    HW110022   1.932   2.789   4.246
 3041SOL    HW210023   2.001   2.806   4.394
 3042SOL     OW10024   4.587   5.863   1.899
 3042SOL    HW110025   4.588   5.963   1.905
 3042SOL    HW210026   4.521   5.826   1.963
 3043SOL     OW10027   2.455   4.811   1.812
 3043SOL    HW110028   2.550   4.825   1.840
 3043SOL    HW210029   2.403   4.775   1.889
 3044SOL     OW10030   3.611   3.947   5.903
 3044SOL    HW110031   3.593   3.958   6.000
 3044SOL    HW210032   3.531   3.978   5.851
 3045SOL     OW10033   4.770   0.576   3.205
 3045SOL    HW110034   4.700   0.634   3.162
 3045SOL    HW210035   4.742   0.480   3.199
 3046SOL     OW10036   2.585   0.694   6.286
 3046SOL    HW110037   2.559   0.599   6.270
 3046SOL    HW210038   2.508   0.754   6.265
 3047SOL     OW10039   6.522   0.564   2.002
 3047SOL    HW110040   6.547   0.660   2.014
 3047SOL    HW210041   6.448   0.556   1.935
 3048SOL     OW10042   3.869   2.105   1.876
 3048SOL    HW110043   3.781   2.152   1.886
 3048SOL    HW210044   3.927   2.156   1.811
 3049SOL     OW10045   1.561   6.849   2.471
 3049SOL    HW110046   1.641   6.799   2.504
 3049SOL    HW210047   1.551   6.934   2.523
 3050SOL     OW10048   2.868   1.586   1.917
 3050SOL    HW110049   2.841   1.640   1.838
 3050SOL    HW210050   2.968   1.575   1.918
 3051SOL     OW10051   2.290   3.803   0.083
 3051SOL    HW110052   2.293   3.880   0.019
 3051SOL    HW210053   2.219   3.738   0.055
 3052SOL     OW10054   5.385   6.679   1.455
 3052SOL    HW110055   5.288   6.653   1.449
 3052SOL    HW210056   5.441   6.605   1.419
 3053SOL     OW10057   6.916   1.766   0.228
 3053SOL    HW110058   6.969   1.850   0.220
 3053SOL    HW210059   6.966   1.691   0.185
 3054SOL     OW10060   6.631   1.898   0.688
 3054SOL    HW110061   6.714   1.931   0.643
 3054SOL    HW210062   6.590   1.826   0.632
 3055SOL     OW10063   5.407   0.624   4.034
 3055SOL    HW110064   5.439   0.692   3.968
 3055SOL    HW210065   5.308   0.614   4.026
 3056SOL     OW10066   6.162   0.177   4.729
 3056SOL    HW110067   6.151   0.251   4.796
 3056SOL    HW210068   6.259   0.155   4.720
 3057SOL     OW10069   3.804   6.103   2.764
 3057SOL    HW110070   3.730   6.083   2.700
 3057SOL    HW210071   3.797   6.041   2.843
 3058SOL     OW10072   0.315   4.751   1.644
 3058SOL    HW110073   0.344   4.781   1.554
 3058SOL    HW210074   0.217   4.768   1.656
 3059SOL     OW10075   2.846   2.278   4.025
 3059SOL    HW110076   2.794   2.193   4.026
 3059SOL    HW210077   2.889   2.292   4.114
 3060SOL     OW10078   0.895   5.757   0.438
 3060SOL    HW110079   0.872   5.734   0.532
 3060SOL    HW210080   0.892   5.857   0.427
 3061SOL     OW10081   6.858   6.772   5.111
 3061SOL    HW110082   6.956   6.790   5.119
 3061SOL    HW210083   6.842   6.704   5.040
 3062SOL     OW10084   2.061   0.338   0.305
 3062SOL    HW110085   2.022   0.399   0.373
 3062SOL    HW210086   2.101   0.258   0.350
 3063SOL     OW10087   2.615   5.042   2.021
 3063SOL    HW110088   2.657   4.962   1.978
 3063SOL    HW210089   2.516   5.035   2.016
 3064SOL     OW10090   5.737   4.092   2.912
 3064SOL    HW110091   5.717   4.189   2.900
 3064SOL    HW210092   5.789   4.078   2.996
 3065SOL     OW10093   1.997   0.947   0.302
 3065SOL    HW110094   1.991   0.848   0.294
 3065SOL    HW210095   2.092   0.976   0.294
 3066SOL     OW10096   4.731   5.404   0.842
 3066SOL    HW110097   4.760   5.387   0.748
 3066SOL    HW210098   4.678   5.326   0.876
 3067SOL     OW10099   3.224   2.125   5.273
 3067SOL    HW110100   3.230   2.219   5.238
 3067SOL    HW210101   3.162   2.072   5.215
 3068SOL     OW10102   6.629   0.207   0.512
 3068SOL    HW110103   6.558   0.276   0.497
 3068SOL    HW210104   6.718   0.244   0.487
 3069SOL     OW10105   6.527   6.538   1.614
 3069SOL    HW110106   6.542   6.630   1.650
 3069SOL    HW210107   6.519   6.542   1.515
 3070SOL     OW10108   2.479   1.544   0.601
 3070SOL    HW110109   2.381   1.559   0.589
 3070SOL    HW210110   2.517   1.617   0.659
 3071SOL     OW10111   5.820   6.277   3.082
 3071SOL    HW110112   5.787   6.183   3.076
 3071SOL    HW210113   5.870   6.289   3.168
 3072SOL     OW10114   2.110   6.149   6.965
 3072SOL    HW110115   2.062   6.182   0.028
 3072SOL    HW210116   2.155   6.062   6.986
 3073SOL     OW10117   5.788   3.243   4.214
 3073SOL    HW110118   5.843   3.187   4.153
 3073SOL    HW210119   5.849   3.300   4.270
 3074SOL     OW10120   5.847   4.196   1.283
 3074SOL    HW110121   5.815   4.108   1.250
 3074SOL    HW210122   5.922   4.182   1.348
 3075SOL     OW10123   2.832   6.310   1.603
 3075SOL    HW110124   2.746   6.340   1.644
 3075SOL    HW210125   2.813   6.264   1.516
 3076SOL     OW10126   6.888   0.421   4.397
 3076SOL    HW110127   6.832   0.430   4.315
 3076SOL    HW210128   6.933   0.332   4.398
 3077SOL     OW10129   5.381   5.745   1.596
 3077SOL    HW110130   5.295   5.790   1.619
 3077SOL    HW210131   5.364   5.649   1.575
 3078SOL     OW10132   0.231   2.737   2.656
 3078SOL    HW110133   0.254   2.654   2.604
 3078SOL    HW210134   0.137   2.764   2.634
 3079SOL     OW10135   2.277   2.789   2.873
 3079SOL    HW110136   2.296   2.872   2.926
 3079SOL    HW210137   2.321   2.710   2.918
 3080SOL     OW10138   4.751   4.201   2.559
 3080SOL    HW110139   4.774   4.110   2.525
 3080SOL    HW210140   4.698   4.194   2.643
 3081SOL     OW10141   0.641   2.422   5.318
 3081SOL    HW110142   0.719   2.479   5.296
 3081SOL    HW210143   0.630   2.416   5.417
 3082SOL     OW10144   3.046   6.249   3.997
 3082SOL    HW110145   3.002   6.162   4.015
 3082SOL    HW210146   2.984   6.308   3.944
 3083SOL     OW10147   3.316   5.926   4.097
 3083SOL    HW110148   3.287   5.838   4.058
 3083SOL    HW210149   3.313   5.920   4.197
 3084SOL     OW10150   6.680   4.127   4.891
 3084SOL    HW110151   6.586   4.094   4.887
 3084SOL    HW210152   6.705   4.164   4.801
 3085SOL     OW10153   6.128   4.071   0.921
 3085SOL    HW110154   6.134   4.052   0.823
 3085SOL    HW210155   6.048   4.128   0.939
 3086SOL     OW10156   4.551   1.266   1.170
 3086SOL    HW110157   4.555   1.225   1.261
 3086SOL    HW210158   4.578   1.198   1.102
 3087SOL     OW10159   0.712   5.294   3.936
 3087SOL    HW110160   0.625   5.343   3.939
 3087SOL    HW210161   0.787   5.359   3.945
 3088SOL     OW10162   1.949   5.050   5.022
 3088SOL    HW110163   1.976   5.127   5.080
 3088SOL    HW210164   1.954   4.966   5.075
 3089SOL     OW10165   1.392   2.965   6.511
 3089SOL    HW110166   1.388   3.064   6.528
 3089SOL    HW210167   1.468   2.926   6.563
 3090SOL     OW10168   2.407   2.384   1.531
 3090SOL    HW110169   2.414   2.476   1.491
 3090SOL    HW210170   2.375   2.392   1.626
 3091SOL     OW10171   1.401   0.677   0.905
 3091SOL    HW110172   1.450   0.713   0.826
 3091SOL    HW210173   1.384   0.579   0.892
 3092SOL     OW10174   4.646   0.759   0.310
 3092SOL    HW110175   4.634   0.836   0.248
 3092SOL    HW210176   4.734   0.767   0.357
 3093SOL     OW10177   5.499   6.475   5.776
 3093SOL    HW110178   5.557   6.541   5.824
 3093SOL    HW210179   5.517   6.481   5.678
 3094SOL     OW10180   1.870   6.758   4.569
 3094SOL    HW110181   1.935   6.682   4.578
 3094SOL    HW210182   1.878   6.799   4.478
 3095SOL     OW10183   2.165   5.128   5.381
 3095SOL    HW110184   2.071   5.097   5.398
 3095SOL    HW210185   2.201   5.084   5.299
 3096SOL     OW10186   1.804   6.121   5.395
 3096SOL    HW110187   1.825   6.085   5.304
 3096SOL    HW210188   1.763   6.212   5.387
 3097SOL     OW10189   5.994   2.057   0.207
 3097SOL    HW110190   6.027   2.001   0.283
 3097SOL    HW210191   6.067   2.117   0.175
 3098SOL     OW10192   2.476   3.065   0.871
 3098SOL    HW110193   2.381   3.043   0.848
 3098SOL    HW210194   2.479   3.109   0.961
 3099SOL     OW10195   0.621   0.020   3.297
 3099SOL    HW110196   0.631   6.984   3.213
 3099SOL    HW210197   0.710   0.055   3.325
 3100SOL     OW10198   6.675   5.903   4.328
 3100SOL    HW110199   6.671   5.966   4.405
 3100SOL    HW210200   6.598   5.922   4.266
 3101SOL     OW10201   5.648   6.988   6.777
 3101SOL    HW110202   5.594   6.916   6.733
 3101SOL    HW210203   5.699   6.949   6.853
 3102SOL     OW10204   6.767   4.974   2.038
 3102SOL    HW110205   6.730   4.883   2.057
 3102SOL    HW210206   6.774   5.026   2.123
 3103SOL     OW10207   4.274   0.727   2.484
 3103SOL    HW110208   4.241   0.758   2.395
 3103SOL    HW210209   4.211   0.757   2.555
 3104SOL     OW10210   4.798   0.435   4.816
 3104SOL    HW110211   4.893   0.423   4.844
 3104SOL    HW210212   4.758   0.346   4.793
 3105SOL     OW10213   6.387   4.293   1.493
 3105SOL    HW110214   6.356   4.298   1.587
 3105SOL    HW210215   6.480   4.258   1.490
 3106SOL     OW10216   6.338   0.979   3.532
 3106SOL    HW110217   6.331   1.078   3.546
 3106SOL    HW210218   6.430   0.957   3.498
 3107SOL     OW10219   4.805   1.126   4.880
 3107SOL    HW110220   4.781   1.160   4.790
 3107SOL    HW210221   4.871   1.052   4.872
 3108SOL     OW10222   0.974   6.015   4.272
 3108SOL    HW110223   1.007   5.942   4.332
 3108SOL    HW210224   1.010   6.103   4.303
 3109SOL     OW10225   5.613   6.411   2.915
 3109SOL    HW110226   5.665   6.339   2.960
 3109SOL    HW210227   5.523   6.420   2.958
 3110SOL     OW10228   1.218   2.397   2.202
 3110SOL    HW110229   1.225   2.446   2.289
 3110SOL    HW210230   1.310   2.374   2.170
 3111SOL     OW10231   6.624   5.502   3.716
 3111SOL    HW110232   6.670   5.567   3.655
 3111SOL    HW210233   6.547   5.548   3.760
 3112SOL     OW10234   4.685   2.871   6.971
 3112SOL    HW110235   4.690   2.774   6.997
 3112SOL    HW210236   4.595   2.890   6.933
 3113SOL     OW10237   2.655   5.743   3.548
 3113SOL    HW110238   2.754   5.753   3.547
 3113SOL    HW210239   2.627   5.673   3.482
 3114SOL     OW10240   4.144   1.541   0.938
 3114SOL    HW110241   4.172   1.633   0.913
 3114SOL    HW210242   4.210   1.503   1.003
 3115SOL     OW10243   3.832   3.557   6.392
 3115SOL    HW110244   3.902   3.538   6.323
 3115SOL    HW210245   3.745   3.517   6.364
 3116SOL     OW10246   0.697   2.968   6.573
 3116SOL    HW110247   0.719   2.874   6.601
 3116SOL    HW210248   0.779   3.024   6.578
 3117SOL     OW10249   4.438   3.677   5.360
 3117SOL    HW110250   4.397   3.768   5.355
 3117SOL    HW210251   4.532   3.681   5.327
 3118SOL     OW10252   1.038   5.706   2.263
 3118SOL    HW110253   0.960   5.693   2.202
 3118SOL    HW210254   1.067   5.617   2.298
 3119SOL     OW10255   1.951   3.473   6.041
 3119SOL    HW110256   1.977   3.380   6.015
 3119SOL    HW210257   1.999   3.539   5.983
 3120SOL     OW10258   3.111   6.838   4.776
 3120SOL    HW110259   3.055   6.886   4.709
 3120SOL    HW210260   3.123   6.895   4.857
 3121SOL     OW10261   0.458   1.014   3.771
 3121SOL    HW110262   0.516   1.069   3.711
 3121SOL    HW210263   0.409   1.075   3.834
 3122SOL     OW10264   4.173   6.488   6.224
 3122SOL    HW110265   4.166   6.388   6.225
 3122SOL    HW210266   4.118   6.524   6.148
 3123SOL     OW10267   2.857   1.746   3.685
 3123SOL    HW110268   2.899   1.728   3.597
 3123SOL    HW210269   2.915   1.810   3.737
 3124SOL     OW10270   3.844   0.048   4.759
 3124SOL    HW110271   3.927   0.017   4.807
 3124SOL    HW210272   3.766   0.039   4.820
 3125SOL     OW10273   6.994   2.337   5.135
 3125SOL    HW110274   6.973   2.245   5.102
 3125SOL    HW210275   0.007   2.394   5.059
 3126SOL     OW10276   5.016   4.602   5.464
 3126SOL    HW110277   5.075   4.620   5.543
 3126SOL    HW210278   4.988   4.506   5.465
 3127SOL     OW10279   1.433   3.100   4.908
 3127SOL    HW110280   1.439   3.052   4.995
 3127SOL    HW210281   1.518   3.089   4.857
 3128SOL     OW10282   2.305   0.516   5.948
 3128SOL    HW110283   2.265   0.492   6.036
 3128SOL    HW210284   2.404   0.527   5.958
 3129SOL     OW10285   6.234   3.600   6.106
 3129SOL    HW110286   6.173   3.651   6.045
 3129SOL    HW210287   6.318   3.576   6.057
 3130SOL     OW10288   1.632   3.944   1.400
 3130SOL    HW110289   1.614   4.031   1.355
 3130SOL    HW210290   1.652   3.960   1.497
 3131SOL     OW10291   0.326   2.627   1.145
 3131SOL    HW110292   0.359   2.533   1.146
 3131SOL    HW210293   0.256   2.639   1.215
 3132SOL     OW10294   4.044   5.387   5.952
 3132SOL    HW110295   4.074   5.293   5.938
 3132SOL    HW210296   3.962   5.387   6.010
 3133SOL     OW10297   3.651   1.543   3.963
 3133SOL    HW110298   3.685   1.451   3.943
 3133SOL    HW210299   3.671   1.566   4.058
 3134SOL     OW10300   4.677   4.042   1.799
 3134SOL    HW110301   4.594   4.094   1.821
 3134SOL    HW210302   4.669   4.004   1.707
 3135SOL     OW10303   4.716   0.888   5.616
 3135SOL    HW110304   4.683   0.812   5.560
 3135SOL    HW210305   4.641   0.952   5.633
 3136SOL     OW10306   5.409   0.796   1.328
 3136SOL    HW110307   5.403   0.737   1.248
 3136SOL    HW210308   5.498   0.839   1.331
 3137SOL     OW10309   6.604   0.760   3.149
 3137SOL    HW110310   6.512   0.794   3.131
 3137SOL    HW210311   6.604   0.705   3.233
 3138SOL     OW10312   6.221   4.584   3.534
 3138SOL    HW110313   6.223   4.578   3.634
 3138SOL    HW210314   6.132   4.621   3.505
 3139SOL     OW10315   5.167   6.380   0.479
 3139SOL    HW110316   5.188   6.329   0.563
 3139SOL    HW210317   5.135   6.472   0.504
 3140SOL     OW10318   6.751   0.330   0.134
 3140SOL    HW110319   6.654   0.308   0.144
 3140SOL    HW210320   6.799   0.309   0.219
 3141SOL     OW10321   0.092   6.262   6.495
 3141SOL    HW110322   0.059   6.355   6.509
 3141SOL    HW210323   0.192   6.261   6.503
 3142SOL     OW10324   3.782   6.352   1.964
 3142SOL    HW110325   3.823   6.440   1.939
 3142SOL    HW210326   3.708   6.367   2.028
 3143SOL     OW10327   6.370   1.817   6.597
 3143SOL    HW110328   6.298   1.870   6.641
 3143SOL    HW210329   6.398   1.862   6.513
 3144SOL     OW10330   4.304   3.962   1.753
 3144SOL    HW110331   4.366   4.033   1.786
 3144SOL    HW210332   4.330   3.935   1.661
 3145SOL     OW10333   1.991   6.030   1.176
 3145SOL    HW110334   2.042   6.103   1.130
 3145SOL    HW210335   1.952   6.066   1.261
 3146SOL     OW10336   1.476   0.438   3.405
 3146SOL    HW110337   1.448   0.527   3.442
 3146SOL    HW210338   1.462   0.368   3.475
 3147SOL     OW10339   3.645   5.159   0.922
 3147SOL    HW110340   3.629   5.104   1.003
 3147SOL    HW210341   3.560   5.205   0.896
 3148SOL     OW10342   5.639   6.244   4.649
 3148SOL    HW110343   5.580   6.238   4.730
 3148SOL    HW210344   5.710   6.174   4.655
 3149SOL     OW10345   2.166   1.094   5.843
 3149SOL    HW110346   2.117   1.034   5.780
 3149SOL    HW210347   2.171   1.186   5.805
 3150SOL     OW10348   6.035   5.519   4.186
 3150SOL    HW110349   5.955   5.463   4.166
 3150SOL    HW210350   6.108   5.497   4.121
 3151SOL     OW10351   5.641   1.577   5.216
 3151SOL    HW110352   5.566   1.641   5.230
 3151SOL    HW210353   5.644   1.549   5.120
 3152SOL     OW10354   1.234   5.514   0.655
 3152SOL    HW110355   1.227   5.517   0.755
 3152SOL    HW210356   1.255   5.421   0.626
 3153SOL     OW10357   5.649   4.716   1.427
 3153SOL    HW110358   5.581   4.647   1.400
 3153SOL    HW210359   5.693   4.687   1.512
 3154SOL     OW10360   5.994   0.997   6.570
 3154SOL    HW110361   6.037   0.963   6.654
 3154SOL    HW210362   5.896   0.977   6.574
 3155SOL     OW10363   6.180   4.481   0.834
 3155SOL    HW110364   6.176   4.581   0.839
 3155SOL    HW210365   6.232   4.454   0.753
 3156SOL     OW10366   3.011   3.135   3.588
 3156SOL    HW110367   3.106   3.153   3.613
 3156SOL    HW210368   2.963   3.094   3.666
 3157SOL     OW10369   2.517   2.183   4.492
 3157SOL    HW110370   2.588   2.231   4.544
 3157SOL    HW210371   2.549   2.091   4.471
 3158SOL     OW10372   4.628   0.851   3.108
 3158SOL    HW110373   4.543   0.903   3.104
 3158SOL    HW210374   4.690   0.892   3.175
 3159SOL     OW10375   5.378   1.332   6.589
 3159SOL    HW110376   5.460   1.342   6.532
 3159SOL    HW210377   5.378   1.403   6.659
 3160SOL     OW10378   0.529   6.271   5.658
 3160SOL    HW110379   0.463   6.269   5.733
 3160SOL    HW210380   0.484   6.243   5.573
 3161SOL     OW10381   1.725   1.689   3.252
 3161SOL    HW110382   1.810   1.662   3.206
 3161SOL    HW210383   1.746   1.749   3.328
 3162SOL     OW10384   1.199   6.427   2.256
 3162SOL    HW110385   1.253   6.379   2.325
 3162SOL    HW210386   1.238   6.518   2.240
 3163SOL     OW10387   4.318   2.757   6.237
 3163SOL    HW110388   4.242   2.693   6.225
 3163SOL    HW210389   4.283   2.851   6.236
 3164SOL     OW10390   4.556   4.921   1.259
 3164SOL    HW110391   4.576   4.830   1.223
 3164SOL    HW210392   4.474   4.957   1.215
 3165SOL     OW10393   0.767   6.757   1.025
 3165SOL    HW110394   0.846   6.817   1.015
 3165SOL    HW210395   0.713   6.784   1.105
 3166SOL     OW10396   4.577   1.572   4.762
 3166SOL    HW110397   4.504   1.523   4.809
 3166SOL    HW210398   4.645   1.604   4.828
 3167SOL     OW10399   6.575   3.663   0.891
 3167SOL    HW110400   6.634   3.736   0.859
 3167SOL    HW210401   6.516   3.697   0.965
 3168SOL     OW10402   4.430   2.488   6.776
 3168SOL    HW110403   4.409   2.496   6.679
 3168SOL    HW210404   4.348   2.457   6.825
 3169SOL     OW10405   1.837   3.608   4.863
 3169SOL    HW110406   1.825   3.519   4.909
 3169SOL    HW210407   1.777   3.675   4.906
 3170SOL     OW10408   3.973   0.499   1.218
 3170SOL    HW110409   4.050   0.441   1.194
 3170SOL    HW210410   3.981   0.528   1.314
 3171SOL     OW10411   0.668   0.388   1.229
 3171SOL    HW110412   0.702   0.477   1.200
 3171SOL    HW210413   0.573   0.397   1.261
 3172SOL     OW10414   0.143   4.802   0.106
 3172SOL    HW110415   0.232   4.837   0.079
 3172SOL    HW210416   0.083   4.798   0.026
 3173SOL     OW10417   3.001   2.276   0.287
 3173SOL    HW110418   3.025   2.181   0.264
 3173SOL    HW210419   2.959   2.278   0.378
 3174SOL     OW10420   2.971   2.685   6.538
 3174SOL    HW110421   2.927   2.653   6.621
 3174SOL    HW210422   2.931   2.772   6.510
 3175SOL     OW10423   0.041   0.887   0.436
 3175SOL    HW110424   6.963   0.860   0.442
 3175SOL    HW210425   0.100   0.807   0.449
 3176SOL     OW10426   1.373   4.479   4.927
 3176SOL    HW110427   1.326   4.547   4.984
 3176SOL    HW210428   1.458   4.519   4.890
 3177SOL     OW10429   4.828   4.005   4.185
 3177SOL    HW110430   4.839   4.017   4.284
 3177SOL    HW210431   4.897   3.941   4.151
 3178SOL     OW10432   6.040   1.884   0.418
 3178SOL    HW110433   6.120   1.924   0.464
 3178SOL    HW210434   5.962   1.887   0.480
 3179SOL     OW10435   1.644   3.029   2.048
 3179SOL    HW110436   1.659   3.002   1.953
 3179SOL    HW210437   1.547   3.023   2.069
 3180SOL     OW10438   4.597   1.327   6.847
 3180SOL    HW110439   4.648   1.241   6.841
 3180SOL    HW210440   4.520   1.315   6.910
 3181SOL     OW10441   0.113   1.317   2.928
 3181SOL    HW110442   0.070   1.405   2.945
 3181SOL    HW210443   0.200   1.331   2.880
 3182SOL     OW10444   2.639   1.094   5.076
 3182SOL    HW110445   2.591   1.035   5.011
 3182SOL    HW210446   2.682   1.170   5.026
 3183SOL     OW10447   4.261   4.337   1.688
 3183SOL    HW110448   4.241   4.315   1.593
 3183SOL    HW210449   4.345   4.290   1.716
 3184SOL     OW10450   1.042   2.680   2.402
 3184SOL    HW110451   1.027   2.758   2.463
 3184SOL    HW210452   1.138   2.677   2.374
 3185SOL     OW10453   6.292   5.871   0.123
 3185SOL    HW110454   6.254   5.957   0.156
 3185SOL    HW210455   6.253   5.849   0.034
 3186SOL     OW10456   4.126   1.511   2.174
 3186SOL    HW110457   4.057   1.442   2.151
 3186SOL    HW210458   4.178   1.481   2.254
 3187SOL     OW10459   4.422   3.917   0.554
 3187SOL    HW110460   4.344   3.861   0.578
 3187SOL    HW210461   4.412   4.008   0.595
 3188SOL     OW10462   3.181   6.732   4.420
 3188SOL    HW110463   3.168   6.658   4.354
 3188SOL    HW210464   3.133   6.709   4.505
 3189SOL     OW10465   1.413   1.711   1.879
 3189SOL    HW110466   1.443   1.634   1.823
 3189SOL    HW210467   1.490   1.747   1.931
 3190SOL     OW10468   6.955   6.581   0.465
 3190SOL    HW110469   0.002   6.552   0.395
 3190SOL    HW210470   6.953   6.681   0.470
 3191SOL     OW10471   4.746   6.911   1.082
 3191SOL    HW110472   4.789   6.879   0.998
 3191SOL    HW210473   4.664   6.856   1.101
 3192SOL     OW10474   6.808   2.649   0.984
 3192SOL    HW110475   6.783   2.706   1.062
 3192SOL    HW210476   6.811   2.553   1.012
 3193SOL     OW10477   4.125   1.844   6.564
 3193SOL    HW110478   4.143   1.753   6.527
 3193SOL    HW210479   4.211   1.892   6.578
 3194SOL     OW10480   1.156   3.265   5.774
 3194SOL    HW110481   1.066   3.227   5.793
 3194SOL    HW210482   1.208   3.275   5.859
 3195SOL     OW10483   2.654   2.458   3.146
 3195SOL    HW110484   2.707   2.432   3.227
 3195SOL    HW210485   2.664   2.388   3.076
 3196SOL     OW10486   0.406   0.826   5.488
 3196SOL    HW110487   0.382   0.891   5.415
 3196SOL    HW210488   0.496   0.849   5.525
 3197SOL     OW10489   1.912   6.245   3.463
 3197SOL    HW110490   1.854   6.326   3.466
 3197SOL    HW210491   1.864   6.168   3.505
 3198SOL     OW10492   5.860   1.995   5.460
 3198SOL    HW110493   5.920   2.030   5.388
 3198SOL    HW210494   5.772   1.969   5.419
 3199SOL     OW10495   4.739   2.743   2.068
 3199SOL    HW110496   4.838   2.727   2.074
 3199SOL    HW210497   4.722   2.838   2.044
 3200SOL     OW10498   0.190   3.031   1.884
 3200SOL    HW110499   0.104   3.058   1.841
 3200SOL    HW210500   0.178   3.027   1.983
 3201SOL     OW10501   5.083   4.347   4.286
 3201SOL    HW110502   5.109   4.250   4.283
 3201SOL    HW210503   5.010   4.359   4.354
 3202SOL     OW10504   0.907   4.778   1.599
 3202SOL    HW110505   0.932   4.758   1.505
 3202SOL    HW210506   0.808   4.771   1.610
 3203SOL     OW10507   6.428   2.554   6.337
 3203SOL    HW110508   6.364   2.597   6.273
 3203SOL    HW210509   6.473   2.477   6.292
 3204SOL     OW10510   4.897   6.337   1.792
 3204SOL    HW110511   4.818   6.334   1.731
 3204SOL    HW210512   4.960   6.263   1.770
 3205SOL     OW10513   6.917   3.394   6.639
 3205SOL    HW110514   6.870   3.316   6.597
 3205SOL    HW210515   6.885   3.406   6.733
 3206SOL     OW10516   0.356   6.341   5.844
 3206SOL    HW110517   0.256   6.348   5.848
 3206SOL    HW210518   0.391   6.310   5.932
 3207SOL     OW10519   1.039   0.782   5.359
 3207SOL    HW110520   0.995   0.692   5.356
 3207SOL    HW210521   0.983   0.847   5.308
 3208SOL     OW10522   4.615   6.739   5.600
 3208SOL    HW110523   4.642   6.751   5.695
 3208SOL    HW210524   4.658   6.657   5.563
 3209SOL     OW10525   4.052   5.430   3.134
 3209SOL    HW110526   4.027   5.507   3.075
 3209SOL    HW210527   4.030   5.452   3.229
 3210SOL     OW10528   0.739   4.016   1.190
 3210SOL    HW110529   0.780   3.961   1.118
 3210SOL    HW210530   0.784   3.995   1.277
 3211SOL     OW10531   1.872   3.379   1.244
 3211SOL    HW110532   1.841   3.286   1.266
 3211SOL    HW210533   1.794   3.442   1.248
 3212SOL     OW10534   2.593   1.089   0.520
 3212SOL    HW110535   2.669   1.145   0.551
 3212SOL    HW210536   2.547   1.048   0.599
 3213SOL     OW10537   6.928   6.098   2.305
 3213SOL    HW110538   7.012   6.109   2.253
 3213SOL    HW210539   6.901   6.001   2.305
 3214SOL     OW10540   4.942   5.742   0.712
 3214SOL    HW110541   4.985   5.827   0.683
 3214SOL    HW210542   4.951   5.731   0.811
 3215SOL     OW10543   0.660   3.220   0.807
 3215SOL    HW110544   0.663   3.246   0.903
 3215SOL    HW210545   0.605   3.287   0.756
 3216SOL     OW10546   5.541   5.381   1.338
 3216SOL    HW110547   5.498   5.291   1.340
 3216SOL    HW210548   5.492   5.440   1.273
 3217SOL     OW10549   0.368   5.524   2.688
 3217SOL    HW110550   0.271   5.544   2.704
 3217SOL    HW210551   0.382   5.504   2.591
 3218SOL     OW10552   4.057   0.030   3.962
 3218SOL    HW110553   3.991   7.002   4.021
 3218SOL    HW210554   4.130   6.985   3.937
 3219SOL     OW10555   0.317   2.229   3.397
 3219SOL    HW110556   0.403   2.221   3.446
 3219SOL    HW210557   0.317   2.166   3.319
 3220SOL     OW10558   6.694   6.196   5.937
 3220SOL    HW110559   6.630   6.220   5.864
 3220SOL    HW210560   6.713   6.098   5.934
 3221SOL     OW10561   3.061   0.056   1.603
 3221SOL    HW110562   3.050   6.976   1.620
 3221SOL    HW210563   2.971   0.099   1.595
 3222SOL     OW10564   4.257   1.665   2.827
 3222SOL    HW110565   4.284   1.752   2.786
 3222SOL    HW210566   4.324   1.639   2.897
 3223SOL     OW10567   1.921   5.478   6.769
 3223SOL    HW110568   1.938   5.575   6.753
 3223SOL    HW210569   1.986   5.444   6.836
 3224SOL     OW10570   4.454   3.163   0.052
 3224SOL    HW110571   4.449   3.262   0.040
 3224SOL    HW210572   4.496   3.121   6.990
 3225SOL     OW10573   4.613   3.354   5.908
 3225SOL    HW110574   4.536   3.372   5.969
 3225SOL    HW210575   4.614   3.424   5.836
 3226SOL     OW10576   1.597   1.929   4.517
 3226SOL    HW110577   1.551   1.951   4.603
 3226SOL    HW210578   1.663   2.002   4.495
 3227SOL     OW10579   2.883   1.759   6.440
 3227SOL    HW110580   2.851   1.852   6.427
 3227SOL    HW210581   2.818   1.709   6.499
 3228SOL     OW10582   5.644   4.358   2.843
 3228SOL    HW110583   5.725   4.412   2.819
 3228SOL    HW210584   5.565   4.394   2.794
 3229SOL     OW10585   3.178   1.878   5.584
 3229SOL    HW110586   3.099   1.818   5.593
 3229SOL    HW210587   3.236   1.846   5.509
 3230SOL     OW10588   1.662   3.718   4.015
 3230SOL    HW110589   1.658   3.814   4.044
 3230SOL    HW210590   1.750   3.701   3.971
 3231SOL     OW10591   2.697   0.547   1.981
 3231SOL    HW110592   2.614   0.566   2.034
 3231SOL    HW210593   2.672   0.498   1.898
 3232SOL     OW10594   3.924   4.993   4.655
 3232SOL    HW110595   3.944   4.916   4.715
 3232SOL    HW210596   3.905   5.074   4.710
 3233SOL     OW10597   1.077   2.679   1.580
 3233SOL    HW110598   1.064   2.747   1.652
 3233SOL    HW210599   1.055   2.720   1.491
 3234SOL     OW10600   0.262   1.456   0.363
 3234SOL    HW110601   0.234   1.398   0.439
 3234SOL    HW210602   0.362   1.466   0.364
 3235SOL     OW10603   5.090   0.790   1.427
 3235SOL    HW110604   5.116   0.846   1.348
 3235SOL    HW210605   5.153   0.713   1.435
 3236SOL     OW10606   1.558   3.064   0.264
 3236SOL    HW110607   1.613   3.135   0.306
 3236SOL    HW210608   1.480   3.043   0.323
 3237SOL     OW10609   5.606   1.664   3.584
 3237SOL    HW110610   5.547   1.606   3.640
 3237SOL    HW210611   5.626   1.618   3.497
 3238SOL     OW10612   6.995   5.087   0.934
 3238SOL    HW110613   6.937   5.096   0.853
 3238SOL    HW210614   0.073   5.093   0.907
 3239SOL     OW10615   6.452   1.599   0.970
 3239SOL    HW110616   6.375   1.664   0.971
 3239SOL    HW210617   6.537   1.650   0.959
 3240SOL     OW10618   1.694   6.311   5.674
 3240SOL    HW110619   1.620   6.359   5.721
 3240SOL    HW210620   1.778   6.318   5.728
 3241SOL     OW10621   5.066   1.448   5.050
 3241SOL    HW110622   5.146   1.389   5.061
 3241SOL    HW210623   5.032   1.441   4.956
 3242SOL     OW10624   3.120   4.643   0.852
 3242SOL    HW110625   3.097   4.694   0.935
 3242SOL    HW210626   3.195   4.690   0.805
 3243SOL     OW10627   5.198   4.606   0.459
 3243SOL    HW110628   5.263   4.541   0.500
 3243SOL    HW210629   5.137   4.640   0.530
 3244SOL     OW10630   4.928   6.031   0.519
 3244SOL    HW110631   4.973   6.029   0.430
 3244SOL    HW210632   4.979   6.090   0.581
 3245SOL     OW10633   4.891   2.456   4.981
 3245SOL    HW110634   4.907   2.554   4.997
 3245SOL    HW210635   4.957   2.403   5.035
 3246SOL     OW10636   5.712   0.860   3.106
 3246SOL    HW110637   5.740   0.931   3.171
 3246SOL    HW210638   5.650   0.899   3.038
 3247SOL     OW10639   6.289   4.858   3.213
 3247SOL    HW110640   6.349   4.938   3.213
 3247SOL    HW210641   6.314   4.798   3.289
 3248SOL     OW10642   6.778   3.615   2.056
 3248SOL    HW110643   6.719   3.696   2.066
 3248SOL    HW210644   6.733   3.549   1.995
 3249SOL     OW10645   3.573   3.844   4.749
 3249SOL    HW110646   3.550   3.850   4.652
 3249SOL    HW210647   3.490   3.830   4.803
 3250SOL     OW10648   5.607   0.172   2.102
 3250SOL    HW110649   5.608   0.208   2.196
 3250SOL    HW210650   5.535   0.104   2.094
 3251SOL     OW10651   3.856   0.878   2.103
 3251SOL    HW110652   3.794   0.881   2.025
 3251SOL    HW210653   3.908   0.792   2.102
 3252SOL     OW10654   2.229   2.286   2.196
 3252SOL    HW110655   2.234   2.362   2.132
 3252SOL    HW210656   2.307   2.289   2.258
 3253SOL     OW10657   5.920   3.236   2.372
 3253SOL    HW110658   5.916   3.302   2.447
 3253SOL    HW210659   6.004   3.251   2.319
 3254SOL     OW10660   5.132   5.298   5.434
 3254SOL    HW110661   5.066   5.352   5.485
 3254SOL    HW210662   5.223   5.308   5.476
 3255SOL     OW10663   5.299   6.391   1.719
 3255SOL    HW110664   5.305   6.452   1.797
 3255SOL    HW210665   5.391   6.377   1.680
 3256SOL     OW10666   4.217   0.747   6.957
 3256SOL    HW110667   4.193   0.844   6.953
 3256SOL    HW210668   4.311   0.734   6.925
 3257SOL     OW10669   1.367   2.221   1.500
 3257SOL    HW110670   1.313   2.219   1.415
 3257SOL    HW210671   1.419   2.306   1.504
 3258SOL     OW10672   4.014   4.896   1.755
 3258SOL    HW110673   4.001   4.880   1.853
 3258SOL    HW210674   4.034   4.809   1.709
 3259SOL     OW10675   4.640   5.518   3.821
 3259SOL    HW110676   4.667   5.518   3.725
 3259SOL    HW210677   4.695   5.585   3.871
 3260SOL     OW10678   1.546   1.848   1.258
 3260SOL    HW110679   1.592   1.934   1.276
 3260SOL    HW210680   1.448   1.864   1.245
 3261SOL     OW10681   4.608   6.698   0.182
 3261SOL    HW110682   4.553   6.616   0.194
 3261SOL    HW210683   4.705   6.675   0.183
 3262SOL     OW10684   3.542   2.080   2.468
 3262SOL    HW110685   3.500   2.073   2.377
 3262SOL    HW210686   3.580   1.992   2.494
 3263SOL     OW10687   3.269   1.509   3.514
 3263SOL    HW110688   3.296   1.420   3.550
 3263SOL    HW210689   3.350   1.566   3.501
 3264SOL     OW10690   1.586   4.160   1.173
 3264SOL    HW110691   1.523   4.238   1.165
 3264SOL    HW210692   1.679   4.192   1.156
 3265SOL     OW10693   4.723   1.479   5.582
 3265SOL    HW110694   4.749   1.402   5.641
 3265SOL    HW210695   4.805   1.519   5.541
 3266SOL     OW10696   0.619   2.805   0.250
 3266SOL    HW110697   0.681   2.739   0.293
 3266SOL    HW210698   0.629   2.801   0.151
 3267SOL     OW10699   3.928   1.222   0.069
 3267SOL    HW110700   3.898   1.292   0.134
 3267SOL    HW210701   3.968   1.266   7.006
 3268SOL     OW10702   1.246   4.474   0.379
 3268SOL    HW110703   1.284   4.408   0.444
 3268SOL    HW210704   1.211   4.553   0.428
 3269SOL     OW10705   4.513   4.784   2.075
 3269SOL    HW110706   4.508   4.695   2.031
 3269SOL    HW210707   4.606   4.798   2.110
 3270SOL     OW10708   1.258   4.127   5.211
 3270SOL    HW110709   1.226   4.187   5.285
 3270SOL    HW210710   1.319   4.178   5.151
 3271SOL     OW10711   5.529   3.946   2.918
 3271SOL    HW110712   5.548   3.862   2.968
 3271SOL    HW210713   5.609   4.006   2.920
 3272SOL     OW10714   3.514   3.746   6.982
 3272SOL    HW110715   3.584   3.773   6.915
 3272SOL    HW210716   3.440   3.698   6.936
 3273SOL     OW10717   0.594   6.383   1.702
 3273SOL    HW110718   0.597   6.293   1.659
 3273SOL    HW210719   0.503   6.400   1.738
 3274SOL     OW10720   4.275   0.995   1.221
 3274SOL    HW110721   4.186   1.019   1.261
 3274SOL    HW210722   4.347   1.040   1.274
 3275SOL     OW10723   0.543   0.565   6.270
 3275SOL    HW110724   0.608   0.635   6.300
 3275SOL    HW210725   0.547   0.555   6.171
 3276SOL     OW10726   3.687   6.070   0.402
 3276SOL    HW110727   3.785   6.053   0.415
 3276SOL    HW210728   3.643   5.987   0.367
 3277SOL     OW10729   5.145   0.299   0.085
 3277SOL    HW110730   5.173   0.221   0.141
 3277SOL    HW210731   5.118   0.267   7.012
 3278SOL     OW10732   0.245   1.017   5.674
 3278SOL    HW110733   0.277   0.923   5.681
 3278SOL    HW210734   0.323   1.079   5.671
 3279SOL     OW10735   6.667   0.932   0.873
 3279SOL    HW110736   6.757   0.894   0.848
 3279SOL    HW210737   6.666   1.030   0.855
 3280SOL     OW10738   3.745   4.973   5.714
 3280SOL    HW110739   3.788   5.062   5.701
 3280SOL    HW210740   3.651   4.986   5.745
 3281SOL     OW10741   1.968   5.003   0.860
 3281SOL    HW110742   1.877   4.996   0.821
 3281SOL    HW210743   2.005   5.095   0.844
 3282SOL     OW10744   1.201   5.222   4.688
 3282SOL    HW110745   1.110   5.182   4.685
 3282SOL    HW210746   1.225   5.246   4.782
 3283SOL     OW10747   3.494   1.259   0.947
 3283SOL    HW110748   3.530   1.169   0.971
 3283SOL    HW210749   3.489   1.267   0.847
 3284SOL     OW10750   6.229   6.301   6.734
 3284SOL    HW110751   6.254   6.204   6.740
 3284SOL    HW210752   6.130   6.310   6.739
 3285SOL     OW10753   5.568   2.736   3.543
 3285SOL    HW110754   5.496   2.725   3.612
 3285SOL    HW210755   5.556   2.668   3.472
 3286SOL     OW10756   4.163   3.483   2.653
 3286SOL    HW110757   4.159   3.411   2.584
 3286SOL    HW210758   4.254   3.487   2.693
 3287SOL     OW10759   1.750   6.238   6.943
 3287SOL    HW110760   1.844   6.270   6.932
 3287SOL    HW210761   1.731   6.167   6.875
 3288SOL     OW10762   0.624   5.636   6.845
 3288SOL    HW110763   0.691   5.676   6.783
 3288SOL    HW210764   0.566   5.708   6.884
 3289SOL     OW10765   2.388   6.555   4.989
 3289SOL    HW110766   2.290   6.570   5.005
 3289SOL    HW210767   2.434   6.643   4.983
 3290SOL     OW10768   0.573   0.046   1.713
 3290SOL    HW110769   0.499   0.107   1.686
 3290SOL    HW210770   0.552   6.970   1.684
 3291SOL     OW10771   1.425   6.375   0.476
 3291SOL    HW110772   1.483   6.296   0.458
 3291SOL    HW210773   1.467   6.457   0.437
 3292SOL     OW10774   0.564   0.722   0.006
 3292SOL    HW110775   0.479   0.768   0.031
 3292SOL    HW210776   0.640   0.763   0.057
 3293SOL     OW10777   6.828   3.278   3.292
 3293SOL    HW110778   6.759   3.331   3.242
 3293SOL    HW210779   6.919   3.307   3.265
 3294SOL     OW10780   0.803   1.092   6.168
 3294SOL    HW110781   0.808   0.992   6.165
 3294SOL    HW210782   0.812   1.128   6.075
 3295SOL     OW10783   1.900   2.841   1.819
 3295SOL    HW110784   1.841   2.921   1.808
 3295SOL    HW210785   1.861   2.765   1.768
 3296SOL     OW10786   1.647   6.242   1.917
 3296SOL    HW110787   1.615   6.294   1.837
 3296SOL    HW210788   1.677   6.306   1.988
 3297SOL     OW10789   3.098   0.412   4.621
 3297SOL    HW110790   3.054   0.378   4.538
 3297SOL    HW210791   3.047   0.490   4.657
 3298SOL     OW10792   5.712   2.089   4.114
 3298SOL    HW110793   5.704   2.183   4.082
 3298SOL    HW210794   5.625   2.041   4.103
 3299SOL     OW10795   1.494   6.417   4.364
 3299SOL    HW110796   1.550   6.343   4.327
 3299SOL    HW210797   1.520   6.433   4.460
 3300SOL     OW10798   0.537   0.546   6.003
 3300SOL    HW110799   0.563   0.546   5.906
 3300SOL    HW210800   0.439   0.562   6.011
 3301SOL     OW10801   2.062   3.241   2.926
 3301SOL    HW110802   2.147   3.188   2.921
 3301SOL    HW210803   2.037   3.272   2.834
 3302SOL     OW10804   1.778   5.776   5.671
 3302SOL    HW110805   1.700   5.714   5.681
 3302SOL    HW210806   1.745   5.871   5.674
 3303SOL     OW10807   3.833   2.927   1.902
 3303SOL    HW110808   3.772   2.949   1.826
 3303SOL    HW210809   3.927   2.948   1.875
 3304SOL     OW10810   1.622   5.461   4.338
 3304SOL    HW110811   1.616   5.362   4.346
 3304SOL    HW210812   1.529   5.500   4.332
 3305SOL     OW10813   1.919   1.304   3.360
 3305SOL    HW110814   1.937   1.317   3.262
 3305SOL    HW210815   1.971   1.224   3.392
 3306SOL     OW10816   1.954   5.575   3.941
 3306SOL    HW110817   2.048   5.551   3.966
 3306SOL    HW210818   1.939   5.673   3.958
 3307SOL     OW10819   6.905   5.946   6.718
 3307SOL    HW110820   6.901   5.904   6.809
 3307SOL    HW210821   6.886   6.044   6.726
 3308SOL     OW10822   4.837   5.777   6.793
 3308SOL    HW110823   4.831   5.869   6.755
 3308SOL    HW210824   4.811   5.780   6.890
 3309SOL     OW10825   0.775   5.042   2.903
 3309SOL    HW110826   0.739   5.111   2.965
 3309SOL    HW210827   0.699   5.003   2.850
 3310SOL     OW10828   6.572   4.249   5.246
 3310SOL    HW110829   6.552   4.343   5.275
 3310SOL    HW210830   6.625   4.203   5.317
 3311SOL     OW10831   2.440   3.710   1.620
 3311SOL    HW110832   2.501   3.633   1.602
 3311SOL    HW210833   2.492   3.795   1.620
 3312SOL     OW10834   3.676   4.670   5.950
 3312SOL    HW110835   3.703   4.637   5.859
 3312SOL    HW210836   3.579   4.651   5.965
 3313SOL     OW10837   0.031   5.351   2.770
 3313SOL    HW110838   0.049   5.254   2.757
 3313SOL    HW210839   6.977   5.363   2.838
 3314SOL     OW10840   1.825   1.956   4.160
 3314SOL    HW110841   1.779   1.872   4.189
 3314SOL    HW210842   1.892   1.984   4.228
 3315SOL     OW10843   5.969   3.422   4.336
 3315SOL    HW110844   5.979   3.513   4.296
 3315SOL    HW210845   6.059   3.380   4.349
 3316SOL     OW10846   3.970   1.717   6.127
 3316SOL    HW110847   3.919   1.692   6.209
 3316SOL    HW210848   4.029   1.795   6.147
 3317SOL     OW10849   4.585   3.168   1.618
 3317SOL    HW110850   4.581   3.095   1.686
 3317SOL    HW210851   4.664   3.227   1.636
 3318SOL     OW10852   3.037   0.329   0.766
 3318SOL    HW110853   3.072   0.264   0.833
 3318SOL    HW210854   2.937   0.333   0.772
 3319SOL     OW10855   6.025   0.182   4.468
 3319SOL    HW110856   6.075   0.110   4.421
 3319SOL    HW210857   6.039   0.174   4.567
 3320SOL     OW10858   5.600   0.854   5.378
 3320SOL    HW110859   5.633   0.817   5.465
 3320SOL    HW210860   5.556   0.943   5.395
 3321SOL     OW10861   3.686   2.211   1.558
 3321SOL    HW110862   3.653   2.295   1.516
 3321SOL    HW210863   3.685   2.220   1.657
 3322SOL     OW10864   5.267   3.215   1.532
 3322SOL    HW110865   5.291   3.258   1.619
 3322SOL    HW210866   5.248   3.286   1.464
 3323SOL     OW10867   2.343   4.193   6.429
 3323SOL    HW110868   2.334   4.104   6.474
 3323SOL    HW210869   2.292   4.192   6.343
 3324SOL     OW10870   1.034   3.655   6.244
 3324SOL    HW110871   0.953   3.680   6.297
 3324SOL    HW210872   1.095   3.600   6.300
 3325SOL     OW10873   1.875   2.455   6.268
 3325SOL    HW110874   1.961   2.415   6.301
 3325SOL    HW210875   1.895   2.533   6.209
 3326SOL     OW10876   5.979   1.604   2.264
 3326SOL    HW110877   6.077   1.606   2.280
 3326SOL    HW210878   5.933   1.659   2.334
 3327SOL     OW10879   3.257   6.417   1.288
 3327SOL    HW110880   3.194   6.495   1.283
 3327SOL    HW210881   3.287   6.405   1.383
 3328SOL     OW10882   4.478   1.680   2.000
 3328SOL    HW110883   4.501   1.630   2.083
 3328SOL    HW210884   4.558   1.683   1.940
 3329SOL     OW10885   5.564   0.940   4.085
 3329SOL    HW110886   5.537   1.030   4.052
 3329SOL    HW210887   5.510   0.870   4.038
 3330SOL     OW10888   6.082   6.073   1.306
 3330SOL    HW110889   6.158   6.083   1.242
 3330SOL    HW210890   6.111   6.103   1.397
 3331SOL     OW10891   0.694   3.460   2.276
 3331SOL    HW110892   0.620   3.431   2.215
 3331SOL    HW210893   0.655   3.487   2.364
 3332SOL     OW10894   6.269   4.038   0.500
 3332SOL    HW110895   6.361   4.058   0.534
 3332SOL    HW210896   6.232   4.118   0.453
 3333SOL     OW10897   2.672   3.994   6.693
 3333SOL    HW110898   2.750   4.045   6.659
 3333SOL    HW210899   2.609   3.975   6.618
 3334SOL     OW10900   2.076   4.050   2.239
 3334SOL    HW110901   2.156   4.102   2.269
 3334SOL    HW210902   2.105   3.969   2.189
 3335SOL     OW10903   4.753   0.058   6.411
 3335SOL    HW110904   4.705   6.995   6.378
 3335SOL    HW210905   4.712   0.140   6.371
 3336SOL     OW10906   1.549   6.485   4.632
 3336SOL    HW110907   1.540   6.571   4.683
 3336SOL    HW210908   1.495   6.414   4.676
 3337SOL     OW10909   2.924   4.205   1.282
 3337SOL    HW110910   2.993   4.215   1.210
 3337SOL    HW210911   2.902   4.295   1.319
 3338SOL     OW10912   0.363   3.047   1.067
 3338SOL    HW110913   0.370   2.975   0.999
 3338SOL    HW210914   0.300   3.118   1.035
 3339SOL     OW10915   1.317   6.453   6.863
 3339SOL    HW110916   1.257   6.376   6.843
 3339SOL    HW210917   1.262   6.536   6.876
 3340SOL     OW10918   3.346   1.225   3.201
 3340SOL    HW110919   3.390   1.313   3.217
 3340SOL    HW210920   3.295   1.227   3.115
 3341SOL     OW10921   1.852   4.457   3.884
 3341SOL    HW110922   1.944   4.428   3.908
 3341SOL    HW210923   1.847   4.557   3.886
 3342SOL     OW10924   1.131   0.001   3.628
 3342SOL    HW110925   1.096   0.094   3.623
 3342SOL    HW210926   1.063   6.955   3.592
 3343SOL     OW10927   5.881   4.515   6.891
 3343SOL    HW110928   5.879   4.543   6.795
 3343SOL    HW210929   5.874   4.596   6.950
 3344SOL     OW10930   5.762   4.019   3.900
 3344SOL    HW110931   5.798   4.111   3.882
 3344SOL    HW210932   5.673   4.009   3.854
 3345SOL     OW10933   1.320   4.174   6.500
 3345SOL    HW110934   1.252   4.201   6.567
 3345SOL    HW210935   1.340   4.077   6.509
 3346SOL     OW10936   1.249   1.127   6.892
 3346SOL    HW110937   1.210   1.035   6.898
 3346SOL    HW210938   1.347   1.120   6.872
 3347SOL     OW10939   1.163   2.139   5.618
 3347SOL    HW110940   1.153   2.220   5.675
 3347SOL    HW210941   1.209   2.164   5.533
 3348SOL     OW10942   4.108   3.385   4.808
 3348SOL    HW110943   4.048   3.309   4.780
 3348SOL    HW210944   4.097   3.402   4.906
 3349SOL     OW10945   1.932   5.033   3.527
 3349SOL    HW110946   1.936   5.133   3.523
 3349SOL    HW210947   1.838   5.005   3.549
 3350SOL     OW10948   0.343   2.584   6.165
 3350SOL    HW110949   0.338   2.627   6.256
 3350SOL    HW210950   0.251   2.555   6.138
 3351SOL     OW10951   4.716   0.988   2.197
 3351SOL    HW110952   4.687   1.068   2.249
 3351SOL    HW210953   4.804   1.007   2.153
 3352SOL     OW10954   6.428   2.822   1.004
 3352SOL    HW110955   6.497   2.890   1.026
 3352SOL    HW210956   6.371   2.804   1.084
 3353SOL     OW10957   3.196   5.947   1.435
 3353SOL    HW110958   3.150   5.999   1.362
 3353SOL    HW210959   3.143   5.955   1.519
 3354SOL     OW10960   3.950   2.418   5.324
 3354SOL    HW110961   3.933   2.461   5.413
 3354SOL    HW210962   4.008   2.477   5.269
 3355SOL     OW10963   1.664   1.764   6.133
 3355SOL    HW110964   1.564   1.758   6.140
 3355SOL    HW210965   1.705   1.747   6.222
 3356SOL     OW10966   1.081   5.508   6.093
 3356SOL    HW110967   1.086   5.526   5.995
 3356SOL    HW210968   0.986   5.487   6.118
 3357SOL     OW10969   2.675   3.472   1.767
 3357SOL    HW110970   2.578   3.456   1.787
 3357SOL    HW210971   2.720   3.385   1.748
 3358SOL     OW10972   4.486   1.693   2.511
 3358SOL    HW110973   4.510   1.694   2.413
 3358SOL    HW210974   4.402   1.745   2.525
 3359SOL     OW10975   0.290   5.889   3.078
 3359SOL    HW110976   0.311   5.924   3.170
 3359SOL    HW210977   0.226   5.950   3.033
 3360SOL     OW10978   1.269   1.389   6.347
 3360SOL    HW110979   1.211   1.376   6.427
 3360SOL    HW210980   1.358   1.424   6.376
 3361SOL     OW10981   6.873   5.112   4.448
 3361SOL    HW110982   6.949   5.082   4.505
 3361SOL    HW210983   6.885   5.208   4.424
 3362SOL     OW10984   3.785   1.578   2.607
 3362SOL    HW110985   3.706   1.541   2.656
 3362SOL    HW210986   3.858   1.599   2.672
 3363SOL     OW10987   6.873   2.169   1.838
 3363SOL    HW110988   6.846   2.258   1.875
 3363SOL    HW210989   6.792   2.113   1.824
 3364SOL     OW10990   2.185   4.715   4.000
 3364SOL    HW110991   2.114   4.720   4.070
 3364SOL    HW210992   2.145   4.685   3.913
 3365SOL     OW10993   0.016   2.792   4.738
 3365SOL    HW110994   6.995   2.874   4.696
 3365SOL    HW210995   0.063   2.738   4.668
 3366SOL     OW10996   5.365   4.625   4.422
 3366SOL    HW110997   5.283   4.666   4.462
 3366SOL    HW210998   5.444   4.649   4.478
 3367SOL     OW10999   3.957   3.724   2.501
 3367SOL    HW111000   4.031   3.743   2.565
 3367SOL    HW211001   3.990   3.664   2.429
 3368SOL     OW11002   0.771   5.778   6.668
 3368SOL    HW111003   0.689   5.764   6.613
 3368SOL    HW211004   0.805   5.871   6.654
 3369SOL     OW11005   3.746   2.308   0.923
 3369SOL    HW111006   3.727   2.370   0.846
 3369SOL    HW211007   3.662   2.262   0.951
 3370SOL     OW11008   6.689   6.703   1.358
 3370SOL    HW111009   6.754   6.631   1.382
 3370SOL    HW211010   6.680   6.709   1.259
 3371SOL     OW11011   2.776   3.208   1.707
 3371SOL    HW111012   2.810   3.203   1.801
 3371SOL    HW211013   2.820   3.138   1.652
 3372SOL     OW11014   6.663   1.920   6.993
 3372SOL    HW111015   6.647   1.845   0.040
 3372SOL    HW211016   6.676   2.005   0.025
 3373SOL     OW11017   0.312   2.391   4.059
 3373SOL    HW111018   0.337   2.378   4.155
 3373SOL    HW211019   0.212   2.392   4.050
 3374SOL     OW11020   1.246   6.593   3.690
 3374SOL    HW111021   1.172   6.647   3.731
 3374SOL    HW211022   1.240   6.499   3.722
 3375SOL     OW11023   6.745   4.642   0.356
 3375SOL    HW111024   6.747   4.729   0.308
 3375SOL    HW211025   6.700   4.573   0.299
 3376SOL     OW11026   3.426   2.917   5.090
 3376SOL    HW111027   3.359   2.885   5.157
 3376SOL    HW211028   3.515   2.877   5.111
 3377SOL     OW11029   6.562   5.239   5.875
 3377SOL    HW111030   6.590   5.261   5.969
 3377SOL    HW211031   6.577   5.319   5.816
 3378SOL     OW11032   1.893   6.811   6.947
 3378SOL    HW111033   1.883   6.891   7.006
 3378SOL    HW211034   1.963   6.751   6.985
 3379SOL     OW11035   0.939   1.934   5.057
 3379SOL    HW111036   0.960   1.880   5.139
 3379SOL    HW211037   1.001   2.013   5.052
 3380SOL     OW11038   4.510   6.684   5.094
 3380SOL    HW111039   4.504   6.634   5.008
 3380SOL    HW211040   4.419   6.716   5.120
 3381SOL     OW11041   6.744   2.907   1.468
 3381SOL    HW111042   6.679   2.932   1.539
 3381SOL    HW211043   6.831   2.880   1.511
 3382SOL     OW11044   0.558   2.594   6.493
 3382SOL    HW111045   0.467   2.631   6.473
 3382SOL    HW211046   0.548   2.501   6.529
 3383SOL     OW11047   3.475   5.491   1.044
 3383SOL    HW111048   3.406   5.549   1.088
 3383SOL    HW211049   3.485   5.518   0.948
 3384SOL     OW11050   1.816   3.113   0.442
 3384SOL    HW111051   1.816   3.213   0.447
 3384SOL    HW211052   1.909   3.080   0.428
 3385SOL     OW11053   6.868   3.766   5.077
 3385SOL    HW111054   6.934   3.826   5.123
 3385SOL    HW211055   6.792   3.820   5.043
 3386SOL     OW11056   5.482   4.203   0.256
 3386SOL    HW111057   5.439   4.134   0.315
 3386SOL    HW211058   5.425   4.217   0.175
 3387SOL     OW11059   4.488   0.127   3.265
 3387SOL    HW111060   4.395   0.106   3.233
 3387SOL    HW211061   4.500   0.089   3.357
 3388SOL     OW11062   5.646   3.021   2.489
 3388SOL    HW111063   5.668   2.965   2.569
 3388SOL    HW211064   5.612   3.110   2.519
 3389SOL     OW11065   6.478   5.715   6.214
 3389SOL    HW111066   6.390   5.747   6.247
 3389SOL    HW211067   6.549   5.738   6.281
 3390SOL     OW11068   4.961   0.035   5.967
 3390SOL    HW111069   4.968   7.007   5.879
 3390SOL    HW211070   4.874   0.084   5.974
 3391SOL     OW11071   4.600   2.654   3.806
 3391SOL    HW111072   4.607   2.583   3.735
 3391SOL    HW211073   4.505   2.682   3.815
 3392SOL     OW11074   3.320   6.262   4.268
 3392SOL    HW111075   3.345   6.241   4.174
 3392SOL    HW211076   3.227   6.230   4.286
 3393SOL     OW11077   6.352   6.284   0.290
 3393SOL    HW111078   6.311   6.215   0.349
 3393SOL    HW211079   6.340   6.256   0.194
 3394SOL     OW11080   5.114   3.715   1.009
 3394SOL    HW111081   5.161   3.744   0.926
 3394SOL    HW211082   5.100   3.794   1.069
 3395SOL     OW11083   5.018   2.387   3.381
 3395SOL    HW111084   5.006   2.406   3.284
 3395SOL    HW211085   5.050   2.293   3.394
 3396SOL     OW11086   5.563   1.490   3.338
 3396SOL    HW111087   5.625   1.437   3.279
 3396SOL    HW211088   5.478   1.507   3.288
 3397SOL     OW11089   3.350   5.310   6.844
 3397SOL    HW111090   3.441   5.318   6.884
 3397SOL    HW211091   3.331   5.215   6.821
 3398SOL     OW11092   1.223   0.458   4.416
 3398SOL    HW111093   1.306   0.470   4.471
 3398SOL    HW211094   1.226   0.369   4.370
 3399SOL     OW11095   5.687   5.183   3.027
 3399SOL    HW111096   5.741   5.205   2.946
 3399SOL    HW211097   5.695   5.085   3.048
 3400SOL     OW11098   5.748   3.514   6.771
 3400SOL    HW111099   5.726   3.417   6.766
 3400SOL    HW211100   5.676   3.567   6.727
 3401SOL     OW11101   6.543   3.679   6.187
 3401SOL    HW111102   6.476   3.703   6.258
 3401SOL    HW211103   6.543   3.750   6.117
 3402SOL     OW11104   5.293   5.871   6.543
 3402SOL    HW111105   5.293   5.941   6.471
 3402SOL    HW211106   5.198   5.847   6.565
 3403SOL     OW11107   4.483   5.142   6.689
 3403SOL    HW111108   4.535   5.060   6.712
 3403SOL    HW211109   4.411   5.155   6.757
 3404SOL     OW11110   5.171   2.282   1.076
 3404SOL    HW111111   5.134   2.253   0.987
 3404SOL    HW211112   5.225   2.207   1.115
 3405SOL     OW11113   5.986   3.859   6.461
 3405SOL    HW111114   5.999   3.890   6.556
 3405SOL    HW211115   6.050   3.785   6.442
 3406SOL     OW11116   1.190   3.498   2.324
 3406SOL    HW111117   1.158   3.498   2.230
 3406SOL    HW211118   1.219   3.591   2.349
 3407SOL     OW11119   1.524   4.362   6.821
 3407SOL    HW111120   1.586   4.406   6.886
 3407SOL    HW211121   1.429   4.384   6.845
 3408SOL     OW11122   4.978   2.738   4.443
 3408SOL    HW111123   4.970   2.638   4.450
 3408SOL    HW211124   5.005   2.763   4.350
 3409SOL     OW11125   4.137   6.283   0.176
 3409SOL    HW111126   4.167   6.316   0.087
 3409SOL    HW211127   4.152   6.184   0.181
 3410SOL     OW11128   6.720   6.367   1.666
 3410SOL    HW111129   6.636   6.418   1.649
 3410SOL    HW211130   6.700   6.269   1.662
 3411SOL     OW11131   0.432   2.668   0.591
 3411SOL    HW111132   0.372   2.649   0.668
 3411SOL    HW211133   0.503   2.598   0.586
 3412SOL     OW11134   4.905   3.549   1.449
 3412SOL    HW111135   4.896   3.570   1.352
 3412SOL    HW211136   4.871   3.457   1.467
 3413SOL     OW11137   6.392   1.893   1.231
 3413SOL    HW111138   6.362   1.910   1.325
 3413SOL    HW211139   6.388   1.795   1.212
 3414SOL     OW11140   3.301   2.322   5.690
 3414SOL    HW111141   3.244   2.282   5.619
 3414SOL    HW211142   3.352   2.249   5.737
 3415SOL     OW11143   1.943   2.712   3.954
 3415SOL    HW111144   1.905   2.753   3.871
 3415SOL    HW211145   1.968   2.617   3.937
 3416SOL     OW11146   5.147   6.801   0.675
 3416SOL    HW111147   5.109   6.711   0.692
 3416SOL    HW211148   5.245   6.800   0.690
 3417SOL     OW11149   0.549   6.370   4.452
 3417SOL    HW111150   0.621   6.359   4.521
 3417SOL    HW211151   0.590   6.375   4.361
 3418SOL     OW11152   3.962   5.603   3.472
 3418SOL    HW111153   3.903   5.554   3.536
 3418SOL    HW211154   3.912   5.623   3.388
 3419SOL     OW11155   3.341   5.385   5.933
 3419SOL    HW111156   3.244   5.384   5.911
 3419SOL    HW211157   3.354   5.363   6.029
 3420SOL     OW11158   6.048   3.316   3.274
 3420SOL    HW111159   6.029   3.223   3.305
 3420SOL    HW211160   5.964   3.358   3.240
 3421SOL     OW11161   4.965   1.444   3.610
 3421SOL    HW111162   5.014   1.503   3.546
 3421SOL    HW211163   4.952   1.354   3.568
 3422SOL     OW11164   2.818   0.326   0.096
 3422SOL    HW111165   2.908   0.319   0.139
 3422SOL    HW211166   2.773   0.411   0.126
 3423SOL     OW11167   6.865   4.810   6.179
 3423SOL    HW111168   6.942   4.855   6.224
 3423SOL    HW211169   6.859   4.715   6.209
 3424SOL     OW11170   2.327   6.604   1.058
 3424SOL    HW111171   2.408   6.650   1.023
 3424SOL    HW211172   2.268   6.671   1.104
 3425SOL     OW11173   4.751   4.706   2.630
 3425SOL    HW111174   4.709   4.621   2.599
 3425SOL    HW211175   4.746   4.775   2.558
 3426SOL     OW11176   4.660   2.605   1.328
 3426SOL    HW111177   4.594   2.551   1.276
 3426SOL    HW211178   4.666   2.697   1.290
 3427SOL     OW11179   0.757   1.689   0.990
 3427SOL    HW111180   0.772   1.600   1.033
 3427SOL    HW211181   0.845   1.733   0.972
 3428SOL     OW11182   3.494   4.836   6.939
 3428SOL    HW111183   3.407   4.861   6.982
 3428SOL    HW211184   3.497   4.870   6.845
 3429SOL     OW11185   0.642   2.353   1.330
 3429SOL    HW111186   0.547   2.381   1.320
 3429SOL    HW211187   0.654   2.261   1.294
 3430SOL     OW11188   2.051   5.611   5.434
 3430SOL    HW111189   2.060   5.531   5.375
 3430SOL    HW211190   2.045   5.693   5.378
 3431SOL     OW11191   1.637   5.966   1.903
 3431SOL    HW111192   1.639   6.066   1.901
 3431SOL    HW211193   1.683   5.933   1.985
 3432SOL     OW11194   2.312   4.497   5.610
 3432SOL    HW111195   2.371   4.569   5.646
 3432SOL    HW211196   2.360   4.447   5.538
 3433SOL     OW11197   1.208   0.249   5.040
 3433SOL    HW111198   1.228   0.274   4.945
 3433SOL    HW211199   1.199   0.331   5.095
 3434SOL     OW11200   3.732   1.386   2.359
 3434SOL    HW111201   3.777   1.362   2.273
 3434SOL    HW211202   3.723   1.485   2.365
 3435SOL     OW11203   2.219   1.530   1.369
 3435SOL    HW111204   2.319   1.533   1.376
 3435SOL    HW211205   2.181   1.618   1.399
 3436SOL     OW11206   3.831   5.887   0.179
 3436SOL    HW111207   3.880   5.923   0.258
 3436SOL    HW211208   3.733   5.885   0.199
 3437SOL     OW11209   2.747   6.614   5.594
 3437SOL    HW111210   2.843   6.641   5.595
 3437SOL    HW211211   2.690   6.694   5.612
 3438SOL     OW11212   0.844   3.265   1.090
 3438SOL    HW111213   0.762   3.230   1.136
 3438SOL    HW211214   0.845   3.364   1.094
 3439SOL     OW11215   3.271   5.867   4.374
 3439SOL    HW111216   3.311   5.776   4.359
 3439SOL    HW211217   3.254   5.880   4.472
 3440SOL     OW11218   3.335   2.869   2.436
 3440SOL    HW111219   3.299   2.816   2.359
 3440SOL    HW211220   3.349   2.964   2.409
 3441SOL     OW11221   6.600   5.970   6.331
 3441SOL    HW111222   6.575   6.008   6.242
 3441SOL    HW211223   6.690   6.004   6.357
 3442SOL     OW11224   2.139   3.869   1.568
 3442SOL    HW111225   2.043   3.844   1.554
 3442SOL    HW211226   2.181   3.804   1.631
 3443SOL     OW11227   3.940   6.124   2.414
 3443SOL    HW111228   3.965   6.028   2.417
 3443SOL    HW211229   3.865   6.137   2.349
 3444SOL     OW11230   4.480   5.236   0.127
 3444SOL    HW111231   4.383   5.243   0.148
 3444SOL    HW211232   4.496   5.154   0.072
 3445SOL     OW11233   5.611   5.112   2.371
 3445SOL    HW111234   5.623   5.071   2.462
 3445SOL    HW211235   5.513   5.114   2.348
 3446SOL     OW11236   6.213   0.430   1.400
 3446SOL    HW111237   6.191   0.523   1.370
 3446SOL    HW211238   6.294   0.398   1.351
 3447SOL     OW11239   4.718   6.526   0.473
 3447SOL    HW111240   4.694   6.429   0.465
 3447SOL    HW211241   4.662   6.568   0.545
 3448SOL     OW11242   3.419   6.943   6.242
 3448SOL    HW111243   3.365   6.933   6.325
 3448SOL    HW211244   3.359   6.962   6.164
 3449SOL     OW11245   5.585   5.112   4.724
 3449SOL    HW111246   5.537   5.200   4.730
 3449SOL    HW211247   5.577   5.077   4.631
 3450SOL     OW11248   0.853   1.596   6.505
 3450SOL    HW111249   0.861   1.535   6.426
 3450SOL    HW211250   0.814   1.546   6.582
 3451SOL     OW11251   2.718   6.371   6.736
 3451SOL    HW111252   2.801   6.328   6.700
 3451SOL    HW211253   2.700   6.336   6.828
 3452SOL     OW11254   5.547   0.620   6.857
 3452SOL    HW111255   5.505   0.571   6.933
 3452SOL    HW211256   5.643   0.638   6.877
 3453SOL     OW11257   5.727   5.398   5.996
 3453SOL    HW111258   5.745   5.422   6.092
 3453SOL    HW211259   5.788   5.451   5.937
 3454SOL     OW11260   0.917   3.607   5.551
 3454SOL    HW111261   0.898   3.618   5.453
 3454SOL    HW211262   0.831   3.609   5.602
 3455SOL     OW11263   2.334   1.428   4.499
 3455SOL    HW111264   2.241   1.448   4.528
 3455SOL    HW211265   2.334   1.353   4.434
 3456SOL     OW11266   5.745   4.690   1.685
 3456SOL    HW111267   5.796   4.753   1.744
 3456SOL    HW211268   5.647   4.695   1.708
 3457SOL     OW11269   4.448   5.675   4.070
 3457SOL    HW111270   4.445   5.714   4.162
 3457SOL    HW211271   4.433   5.576   4.075
 3458SOL     OW11272   4.423   1.089   2.398
 3458SOL    HW111273   4.345   1.113   2.340
 3458SOL    HW211274   4.408   1.122   2.491
 3459SOL     OW11275   5.039   2.548   2.632
 3459SOL    HW111276   4.963   2.487   2.655
 3459SOL    HW211277   5.054   2.613   2.707
 3460SOL     OW11278   3.533   1.910   6.776
 3460SOL    HW111279   3.483   1.949   6.699
 3460SOL    HW211280   3.468   1.866   6.839
 3461SOL     OW11281   4.706   3.576   0.062
 3461SOL    HW111282   4.760   3.656   0.036
 3461SOL    HW211283   4.765   3.495   0.059
 3462SOL     OW11284   0.679   3.990   5.315
 3462SOL    HW111285   0.653   3.972   5.220
 3462SOL    HW211286   0.769   4.033   5.317
 3463SOL     OW11287   0.481   4.311   1.328
 3463SOL    HW111288   0.457   4.216   1.310
 3463SOL    HW211289   0.567   4.314   1.379
 3464SOL     OW11290   0.051   4.936   6.313
 3464SOL    HW111291   0.140   4.897   6.289
 3464SOL    HW211292   0.045   4.943   6.413
 3465SOL     OW11293   1.644   2.435   1.862
 3465SOL    HW111294   1.692   2.426   1.949
 3465SOL    HW211295   1.703   2.403   1.788
 3466SOL     OW11296   6.820   5.498   5.936
 3466SOL    HW111297   6.848   5.516   6.030
 3466SOL    HW211298   6.724   5.472   5.933
 3467SOL     OW11299   1.671   2.706   6.178
 3467SOL    HW111300   1.752   2.703   6.119
 3467SOL    HW211301   1.699   2.701   6.274
 3468SOL     OW11302   4.273   6.225   2.546
 3468SOL    HW111303   4.345   6.182   2.491
 3468SOL    HW211304   4.200   6.158   2.563
 3469SOL     OW11305   5.982   0.600   3.275
 3469SOL    HW111306   5.939   0.598   3.365
 3469SOL    HW211307   6.055   0.669   3.274
 3470SOL     OW11308   6.885   4.302   0.510
 3470SOL    HW111309   6.974   4.272   0.541
 3470SOL    HW211310   6.855   4.246   0.432
 3471SOL     OW11311   4.165   5.360   4.392
 3471SOL    HW111312   4.162   5.261   4.408
 3471SOL    HW211313   4.088   5.387   4.334
 3472SOL     OW11314   1.768   0.678   2.706
 3472SOL    HW111315   1.728   0.639   2.623
 3472SOL    HW211316   1.866   0.693   2.692
 3473SOL     OW11317   6.825   1.283   6.603
 3473SOL    HW111318   6.758   1.286   6.529
 3473SOL    HW211319   6.780   1.304   6.690
 3474SOL     OW11320   2.981   5.245   1.889
 3474SOL    HW111321   3.057   5.309   1.876
 3474SOL    HW211322   2.929   5.271   1.970
 3475SOL     OW11323   0.766   6.156   4.782
 3475SOL    HW111324   0.846   6.096   4.784
 3475SOL    HW211325   0.688   6.107   4.741
 3476SOL     OW11326   3.714   1.746   3.040
 3476SOL    HW111327   3.666   1.785   3.119
 3476SOL    HW211328   3.782   1.679   3.071
 3477SOL     OW11329   3.124   5.473   1.309
 3477SOL    HW111330   3.100   5.448   1.403
 3477SOL    HW211331   3.167   5.395   1.264
 3478SOL     OW11332   2.303   5.411   5.016
 3478SOL    HW111333   2.305   5.424   5.115
 3478SOL    HW211334   2.396   5.409   4.980
 3479SOL     OW11335   1.029   1.283   2.877
 3479SOL    HW111336   0.993   1.275   2.785
 3479SOL    HW211337   0.974   1.348   2.930
 3480SOL     OW11338   6.748   0.157   4.718
 3480SOL    HW111339   6.791   0.246   4.701
 3480SOL    HW211340   6.804   0.105   4.783
 3481SOL     OW11341   4.432   0.488   6.818
 3481SOL    HW111342   4.446   0.421   6.891
 3481SOL    HW211343   4.436   0.581   6.857
 3482SOL     OW11344   5.871   1.392   1.106
 3482SOL    HW111345   5.933   1.421   1.033
 3482SOL    HW211346   5.777   1.418   1.082
 3483SOL     OW11347   3.944   1.176   1.703
 3483SOL    HW111348   3.910   1.187   1.797
 3483SOL    HW211349   4.013   1.245   1.684
 3484SOL     OW11350   2.852   3.664   1.815
 3484SOL    HW111351   2.923   3.605   1.778
 3484SOL    HW211352   2.765   3.615   1.818
 3485SOL     OW11353   1.460   6.925   4.296
 3485SOL    HW111354   1.406   6.926   4.380
 3485SOL    HW211355   1.458   7.016   4.254
 3486SOL     OW11356   2.730   1.573   3.068
 3486SOL    HW111357   2.825   1.601   3.056
 3486SOL    HW211358   2.706   1.506   2.998
 3487SOL     OW11359   5.728   1.979   5.862
 3487SOL    HW111360   5.656   2.025   5.914
 3487SOL    HW211361   5.790   2.047   5.822
 3488SOL     OW11362   5.517   2.404   4.323
 3488SOL    HW111363   5.545   2.434   4.232
 3488SOL    HW211364   5.592   2.354   4.366
 3489SOL     OW11365   3.015   6.766   0.637
 3489SOL    HW111366   3.018   6.679   0.686
 3489SOL    HW211367   3.021   6.749   0.539
 3490SOL     OW11368   4.643   4.271   6.620
 3490SOL    HW111369   4.644   4.347   6.554
 3490SOL    HW211370   4.689   4.299   6.704
 3491SOL     OW11371   5.497   2.996   4.691
 3491SOL    HW111372   5.506   3.043   4.778
 3491SOL    HW211373   5.410   3.020   4.648
 3492SOL     OW11374   0.641   6.116   1.081
 3492SOL    HW111375   0.563   6.080   1.131
 3492SOL    HW211376   0.700   6.040   1.052
 3493SOL     OW11377   6.467   5.432   6.559
 3493SOL    HW111378   6.385   5.380   6.533
 3493SOL    HW211379   6.440   5.508   6.619
 3494SOL     OW11380   3.947   0.365   1.517
 3494SOL    HW111381   4.007   0.341   1.593
 3494SOL    HW211382   3.958   0.299   1.443
 3495SOL     OW11383   4.390   4.980   2.227
 3495SOL    HW111384   4.422   4.910   2.163
 3495SOL    HW211385   4.379   4.939   2.317
 3496SOL     OW11386   0.509   3.459   0.941
 3496SOL    HW111387   0.582   3.508   0.892
 3496SOL    HW211388   0.533   3.452   1.037
 3497SOL     OW11389   4.294   6.961   2.997
 3497SOL    HW111390   4.268   6.937   2.904
 3497SOL    HW211391   4.391   6.940   3.010
 3498SOL     OW11392   2.267   2.385   0.174
 3498SOL    HW111393   2.249   2.363   0.270
 3498SOL    HW211394   2.250   2.304   0.117
 3499SOL     OW11395   5.142   2.818   4.217
 3499SOL    HW111396   5.109   2.909   4.192
 3499SOL    HW211397   5.163   2.766   4.134
 3500SOL     OW11398   0.514   4.188   5.431
 3500SOL    HW111399   0.567   4.271   5.442
 3500SOL    HW211400   0.566   4.122   5.377
 3501SOL     OW11401   1.051   5.205   3.641
 3501SOL    HW111402   1.133   5.153   3.666
 3501SOL    HW211403   0.986   5.145   3.595
 3502SOL     OW11404   7.006   2.412   2.253
 3502SOL    HW111405   7.011   2.325   2.301
 3502SOL    HW211406   6.910   2.439   2.243
 3503SOL     OW11407   5.942   5.999   5.154
 3503SOL    HW111408   5.860   6.022   5.101
 3503SOL    HW211409   6.000   6.080   5.163
 3504SOL     OW11410   2.246   2.532   1.115
 3504SOL    HW111411   2.215   2.473   1.041
 3504SOL    HW211412   2.324   2.587   1.084
 3505SOL     OW11413   5.358   4.949   5.005
 3505SOL    HW111414   5.380   4.877   4.939
 3505SOL    HW211415   5.441   4.974   5.056
 3506SOL     OW11416   4.608   5.704   5.486
 3506SOL    HW111417   4.628   5.624   5.430
 3506SOL    HW211418   4.678   5.774   5.470
 3507SOL     OW11419   2.414   0.494   6.832
 3507SOL    HW111420   2.509   0.477   6.807
 3507SOL    HW211421   2.402   0.477   6.930
 3508SOL     OW11422   3.786   2.936   6.115
 3508SOL    HW111423   3.697   2.906   6.081
 3508SOL    HW211424   3.855   2.866   6.093
 3509SOL     OW11425   4.969   0.012   6.221
 3509SOL    HW111426   4.905   0.079   6.259
 3509SOL    HW211427   4.961   0.012   6.121
 3510SOL     OW11428   2.064   2.433   1.894
 3510SOL    HW111429   2.048   2.346   1.849
 3510SOL    HW211430   1.984   2.457   1.949
 3511SOL     OW11431   1.479   4.724   6.720
 3511SOL    HW111432   1.512   4.791   6.788
 3511SOL    HW211433   1.506   4.632   6.749
 3512SOL     OW11434   6.955   4.042   0.727
 3512SOL    HW111435   0.003   4.093   0.672
 3512SOL    HW211436   6.917   4.101   0.798
 3513SOL     OW11437   5.719   4.355   0.617
 3513SOL    HW111438   5.701   4.286   0.687
 3513SOL    HW211439   5.772   4.314   0.543
 3514SOL     OW11440   0.341   0.839   1.953
 3514SOL    HW111441   0.268   0.808   1.892
 3514SOL    HW211442   0.382   0.922   1.915
 3515SOL     OW11443   4.092   6.413   2.871
 3515SOL    HW111444   4.173   6.444   2.922
 3515SOL    HW211445   4.066   6.482   2.804
 3516SOL     OW11446   4.810   0.988   0.670
 3516SOL    HW111447   4.845   0.997   0.763
 3516SOL    HW211448   4.824   1.075   0.621
 3517SOL     OW11449   0.645   2.463   0.077
 3517SOL    HW111450   0.719   2.522   0.044
 3517SOL    HW211451   0.685   2.388   0.130
 3518SOL     OW11452   5.284   4.105   5.167
 3518SOL    HW111453   5.317   4.038   5.233
 3518SOL    HW211454   5.295   4.197   5.205
 3519SOL     OW11455   1.868   0.373   6.297
 3519SOL    HW111456   1.890   0.447   6.361
 3519SOL    HW211457   1.922   0.292   6.320
 3520SOL     OW11458   3.045   5.000   0.852
 3520SOL    HW111459   2.981   5.015   0.777
 3520SOL    HW211460   2.997   4.956   0.928
 3521SOL     OW11461   5.701   3.339   1.396
 3521SOL    HW111462   5.612   3.367   1.362
 3521SOL    HW211463   5.769   3.347   1.323
 3522SOL     OW11464   4.012   5.577   2.369
 3522SOL    HW111465   3.932   5.528   2.335
 3522SOL    HW211466   4.011   5.577   2.469
 3523SOL     OW11467   2.873   4.424   5.592
 3523SOL    HW111468   2.956   4.369   5.593
 3523SOL    HW211469   2.846   4.443   5.498
 3524SOL     OW11470   2.501   1.261   1.217
 3524SOL    HW111471   2.434   1.191   1.189
 3524SOL    HW211472   2.591   1.218   1.226
 3525SOL     OW11473   0.791   3.698   2.149
 3525SOL    HW111474   0.726   3.760   2.194
 3525SOL    HW211475   0.775   3.605   2.179
 3526SOL     OW11476   1.330   6.132   3.654
 3526SOL    HW111477   1.354   6.197   3.581
 3526SOL    HW211478   1.231   6.134   3.668
 3527SOL     OW11479   6.157   3.311   5.889
 3527SOL    HW111480   6.232   3.254   5.923
 3527SOL    HW211481   6.194   3.396   5.853
 3528SOL     OW11482   1.145   5.465   3.680
 3528SOL    HW111483   1.096   5.379   3.665
 3528SOL    HW211484   1.123   5.501   3.771
 3529SOL     OW11485   4.041   6.784   5.077
 3529SOL    HW111486   4.044   6.848   5.154
 3529SOL    HW211487   4.005   6.696   5.109
 3530SOL     OW11488   2.539   5.054   3.257
 3530SOL    HW111489   2.521   5.141   3.212
 3530SOL    HW211490   2.459   4.994   3.247
 3531SOL     OW11491   4.736   4.565   1.373
 3531SOL    HW111492   4.751   4.648   1.427
 3531SOL    HW211493   4.640   4.560   1.346
 3532SOL     OW11494   3.288   0.046   0.708
 3532SOL    HW111495   3.194   0.062   0.678
 3532SOL    HW211496   3.294   0.054   0.807
 3533SOL     OW11497   1.189   2.334   3.232
 3533SOL    HW111498   1.276   2.289   3.213
 3533SOL    HW211499   1.201   2.402   3.304
 3534SOL     OW11500   5.924   0.995   5.365
 3534SOL    HW111501   5.831   0.966   5.343
 3534SOL    HW211502   5.924   1.041   5.454
 3535SOL     OW11503   6.454   5.618   0.566
 3535SOL    HW111504   6.425   5.701   0.614
 3535SOL    HW211505   6.470   5.640   0.470
 3536SOL     OW11506   2.120   2.768   3.635
 3536SOL    HW111507   2.122   2.770   3.535
 3536SOL    HW211508   2.025   2.771   3.666
 3537SOL     OW11509   2.492   4.839   0.326
 3537SOL    HW111510   2.431   4.762   0.345
 3537SOL    HW211511   2.532   4.872   0.411
 3538SOL     OW11512   2.216   1.177   4.266
 3538SOL    HW111513   2.138   1.194   4.206
 3538SOL    HW211514   2.301   1.192   4.216
 3539SOL     OW11515   5.821   3.877   6.206
 3539SOL    HW111516   5.761   3.800   6.226
 3539SOL    HW211517   5.808   3.949   6.275
 3540SOL     OW11518   2.380   1.324   5.645
 3540SOL    HW111519   2.431   1.241   5.621
 3540SOL    HW211520   2.282   1.305   5.636
 3541SOL     OW11521   2.748   2.777   6.714
 3541SOL    HW111522   2.687   2.706   6.751
 3541SOL    HW211523   2.733   2.787   6.616
 3542SOL     OW11524   6.571   3.082   0.988
 3542SOL    HW111525   6.574   3.175   0.953
 3542SOL    HW211526   6.619   3.077   1.075
 3543SOL     OW11527   1.845   3.703   4.356
 3543SOL    HW111528   1.785   3.696   4.436
 3543SOL    HW211529   1.929   3.651   4.373
 3544SOL     OW11530   2.075   4.668   6.255
 3544SOL    HW111531   2.022   4.718   6.324
 3544SOL    HW211532   2.012   4.629   6.187
 3545SOL     OW11533   3.791   4.681   6.984
 3545SOL    HW111534   3.728   4.754   6.960
 3545SOL    HW211535   3.791   4.612   6.911
 3546SOL     OW11536   6.682   5.138   3.107
 3546SOL    HW111537   6.721   5.068   3.167
 3546SOL    HW211538   6.732   5.224   3.119
 3547SOL     OW11539   0.016   4.260   5.250
 3547SOL    HW111540   0.112   4.239   5.230
 3547SOL    HW211541   6.976   4.226   5.176
 3548SOL     OW11542   5.932   0.347   5.385
 3548SOL    HW111543   6.025   0.371   5.414
 3548SOL    HW211544   5.934   0.258   5.339
 3549SOL     OW11545   1.849   4.413   5.800
 3549SOL    HW111546   1.816   4.499   5.761
 3549SOL    HW211547   1.949   4.412   5.798
 3550SOL     OW11548   5.730   2.132   4.488
 3550SOL    HW111549   5.692   2.040   4.498
 3550SOL    HW211550   5.806   2.130   4.423
 3551SOL     OW11551   3.844   1.584   4.169
 3551SOL    HW111552   3.882   1.496   4.138
 3551SOL    HW211553   3.886   1.658   4.118
 3552SOL     OW11554   6.459   6.126   2.154
 3552SOL    HW111555   6.541   6.125   2.096
 3552SOL    HW211556   6.380   6.094   2.101
 3553SOL     OW11557   3.720   5.665   6.614
 3553SOL    HW111558   3.773   5.639   6.695
 3553SOL    HW211559   3.680   5.756   6.629
 3554SOL     OW11560   4.970   2.599   0.984
 3554SOL    HW111561   4.970   2.699   0.974
 3554SOL    HW211562   5.058   2.562   0.954
 3555SOL     OW11563   1.213   2.699   4.207
 3555SOL    HW111564   1.208   2.636   4.130
 3555SOL    HW211565   1.284   2.767   4.189
 3556SOL     OW11566   3.694   1.260   3.970
 3556SOL    HW111567   3.690   1.165   3.940
 3556SOL    HW211568   3.769   1.272   4.035
 3557SOL     OW11569   1.074   6.146   3.766
 3557SOL    HW111570   1.023   6.228   3.739
 3557SOL    HW211571   1.099   6.153   3.862
 3558SOL     OW11572   2.531   4.272   1.288
 3558SOL    HW111573   2.545   4.271   1.387
 3558SOL    HW211574   2.480   4.355   1.262
 3559SOL     OW11575   0.994   6.028   4.947
 3559SOL    HW111576   1.056   6.084   5.002
 3559SOL    HW211577   1.044   5.987   4.871
 3560SOL     OW11578   1.920   4.677   3.149
 3560SOL    HW111579   1.972   4.743   3.202
 3560SOL    HW211580   1.884   4.720   3.067
 3561SOL     OW11581   5.243   3.772   5.939
 3561SOL    HW111582   5.300   3.778   6.021
 3561SOL    HW211583   5.301   3.754   5.859
 3562SOL     OW11584   3.408   1.835   3.674
 3562SOL    HW111585   3.458   1.767   3.620
 3562SOL    HW211586   3.376   1.908   3.614
 3563SOL     OW11587   6.084   1.992   6.250
 3563SOL    HW111588   6.086   1.901   6.293
 3563SOL    HW211589   6.176   2.030   6.249
 3564SOL     OW11590   0.659   4.856   3.204
 3564SOL    HW111591   0.621   4.816   3.288
 3564SOL    HW211592   0.748   4.816   3.185
 3565SOL     OW11593   3.360   5.909   3.518
 3565SOL    HW111594   3.449   5.888   3.478
 3565SOL    HW211595   3.373   5.943   3.612
 3566SOL     OW11596   6.363   1.449   6.313
 3566SOL    HW111597   6.281   1.464   6.258
 3566SOL    HW211598   6.435   1.512   6.284
 3567SOL     OW11599   0.343   2.342   6.543
 3567SOL    HW111600   0.394   2.334   6.629
 3567SOL    HW211601   0.398   2.305   6.468
 3568SOL     OW11602   5.640   3.934   5.188
 3568SOL    HW111603   5.610   3.855   5.241
 3568SOL    HW211604   5.606   3.926   5.094
 3569SOL     OW11605   3.019   2.090   6.001
 3569SOL    HW111606   3.111   2.052   5.999
 3569SOL    HW211607   2.982   2.092   5.909
 3570SOL     OW11608   4.801   0.606   6.301
 3570SOL    HW111609   4.737   0.596   6.225
 3570SOL    HW211610   4.751   0.635   6.383
 3571SOL     OW11611   0.355   5.131   0.409
 3571SOL    HW111612   0.450   5.105   0.427
 3571SOL    HW211613   0.353   5.214   0.354
 3572SOL     OW11614   5.517   4.125   3.452
 3572SOL    HW111615   5.492   4.111   3.547
 3572SOL    HW211616   5.607   4.170   3.447
 3573SOL     OW11617   0.661   4.546   3.733
 3573SOL    HW111618   0.581   4.489   3.748
 3573SOL    HW211619   0.742   4.502   3.770
 3574SOL     OW11620   6.980   4.713   0.599
 3574SOL    HW111621   6.979   4.780   0.525
 3574SOL    HW211622   7.015   4.755   0.682
 3575SOL     OW11623   5.384   4.457   2.749
 3575SOL    HW111624   5.310   4.466   2.816
 3575SOL    HW211625   5.352   4.402   2.672
 3576SOL     OW11626   2.406   1.928   5.317
 3576SOL    HW111627   2.460   1.867   5.258
 3576SOL    HW211628   2.350   1.872   5.379
 3577SOL     OW11629   1.097   2.591   6.038
 3577SOL    HW111630   1.063   2.679   6.071
 3577SOL    HW211631   1.196   2.595   6.025
 3578SOL     OW11632   3.374   2.568   0.763
 3578SOL    HW111633   3.343   2.478   0.795
 3578SOL    HW211634   3.298   2.613   0.715
 3579SOL     OW11635   6.424   3.931   4.332
 3579SOL    HW111636   6.501   3.868   4.323
 3579SOL    HW211637   6.452   4.022   4.301
 3580SOL     OW11638   6.047   2.601   0.995
 3580SOL    HW111639   6.063   2.516   0.945
 3580SOL    HW211640   6.084   2.594   1.088
 3581SOL     OW11641   7.014   6.167   3.905
 3581SOL    HW111642   0.068   6.101   3.887
 3581SOL    HW211643   0.037   6.256   3.926
 3582SOL     OW11644   1.026   1.918   6.041
 3582SOL    HW111645   0.947   1.901   5.982
 3582SOL    HW211646   1.104   1.946   5.985
 3583SOL     OW11647   1.443   3.423   6.422
 3583SOL    HW111648   1.377   3.453   6.354
 3583SOL    HW211649   1.522   3.380   6.377
 3584SOL     OW11650   5.694   5.785   0.042
 3584SOL    HW111651   5.747   5.799   0.126
 3584SOL    HW211652   5.752   5.741   6.992
 3585SOL     OW11653   4.282   5.582   5.128
 3585SOL    HW111654   4.269   5.635   5.212
 3585SOL    HW211655   4.310   5.643   5.054
 3586SOL     OW11656   0.276   2.145   5.444
 3586SOL    HW111657   0.258   2.199   5.361
 3586SOL    HW211658   0.194   2.143   5.501
 3587SOL     OW11659   3.118   5.049   6.282
 3587SOL    HW111660   3.192   5.107   6.319
 3587SOL    HW211661   3.101   5.074   6.187
 3588SOL     OW11662   1.122   2.842   4.772
 3588SOL    HW111663   1.148   2.936   4.795
 3588SOL    HW211664   1.100   2.837   4.674
 3589SOL     OW11665   4.074   2.236   4.872
 3589SOL    HW111666   4.056   2.279   4.784
 3589SOL    HW211667   4.091   2.308   4.940
 3590SOL     OW11668   0.908   2.733   6.226
 3590SOL    HW111669   1.000   2.771   6.226
 3590SOL    HW211670   0.843   2.800   6.191
 3591SOL     OW11671   4.938   3.594   6.607
 3591SOL    HW111672   4.886   3.532   6.666
 3591SOL    HW211673   5.007   3.542   6.556
 3592SOL     OW11674   6.564   4.474   2.374
 3592SOL    HW111675   6.650   4.466   2.424
 3592SOL    HW211676   6.489   4.439   2.430
 3593SOL     OW11677   1.900   5.801   4.586
 3593SOL    HW111678   1.871   5.894   4.608
 3593SOL    HW211679   1.981   5.778   4.640
 3594SOL     OW11680   4.400   0.469   3.037
 3594SOL    HW111681   4.381   0.492   3.132
 3594SOL    HW211682   4.335   0.400   3.005
 3595SOL     OW11683   2.376   5.079   6.885
 3595SOL    HW111684   2.339   5.169   6.861
 3595SOL    HW211685   2.327   5.008   6.833
 3596SOL     OW11686   6.396   2.582   3.340
 3596SOL    HW111687   6.492   2.569   3.366
 3596SOL    HW211688   6.338   2.523   3.397
 3597SOL     OW11689   2.251   0.665   5.284
 3597SOL    HW111690   2.194   0.596   5.239
 3597SOL    HW211691   2.341   0.666   5.242
 3598SOL     OW11692   1.198   5.909   6.564
 3598SOL    HW111693   1.157   5.872   6.647
 3598SOL    HW211694   1.285   5.863   6.547
 3599SOL     OW11695   0.872   1.754   5.747
 3599SOL    HW111696   0.909   1.832   5.696
 3599SOL    HW211697   0.793   1.784   5.801
 3600SOL     OW11698   1.161   3.494   0.240
 3600SOL    HW111699   1.159   3.439   0.156
 3600SOL    HW211700   1.076   3.546   0.247
 3601SOL     OW11701   5.910   4.996   0.226
 3601SOL    HW111702   6.003   4.976   0.255
 3601SOL    HW211703   5.847   4.927   0.263
 3602SOL     OW11704   1.101   2.166   0.678
 3602SOL    HW111705   1.171   2.161   0.749
 3602SOL    HW211706   1.057   2.256   0.681
 3603SOL     OW11707   3.120   6.755   3.859
 3603SOL    HW111708   3.087   6.849   3.869
 3603SOL    HW211709   3.098   6.722   3.767
 3604SOL     OW11710   0.069   4.891   3.438
 3604SOL    HW111711   0.075   4.924   3.532
 3604SOL    HW211712   0.100   4.962   3.375
 3605SOL     OW11713   5.177   3.925   4.984
 3605SOL    HW111714   5.228   3.983   5.048
 3605SOL    HW211715   5.109   3.872   5.035
 3606SOL     OW11716   0.282   6.177   5.544
 3606SOL    HW111717   0.248   6.227   5.464
 3606SOL    HW211718   0.214   6.179   5.617
 3607SOL     OW11719   5.000   6.253   0.924
 3607SOL    HW111720   4.951   6.166   0.927
 3607SOL    HW211721   5.022   6.283   1.017
 3608SOL     OW11722   6.315   2.363   2.994
 3608SOL    HW111723   6.234   2.315   3.027
 3608SOL    HW211724   6.314   2.457   3.029
 3609SOL     OW11725   0.721   0.531   4.070
 3609SOL    HW111726   0.759   0.454   4.018
 3609SOL    HW211727   0.765   0.536   4.159
 3610SOL     OW11728   1.421   6.716   5.790
 3610SOL    HW111729   1.324   6.694   5.793
 3610SOL    HW211730   1.433   6.808   5.752
 3611SOL     OW11731   4.715   6.514   5.988
 3611SOL    HW111732   4.686   6.432   5.938
 3611SOL    HW211733   4.646   6.537   6.057
 3612SOL     OW11734   6.134   0.190   6.120
 3612SOL    HW111735   6.117   0.288   6.132
 3612SOL    HW211736   6.047   0.140   6.122
 3613SOL     OW11737   4.558   5.419   1.938
 3613SOL    HW111738   4.502   5.431   2.020
 3613SOL    HW211739   4.592   5.508   1.908
 3614SOL     OW11740   3.699   3.657   2.573
 3614SOL    HW111741   3.779   3.695   2.526
 3614SOL    HW211742   3.680   3.565   2.537
 3615SOL     OW11743   5.601   6.110   7.005
 3615SOL    HW111744   5.606   6.034   6.941
 3615SOL    HW211745   5.693   6.143   0.006
 3616SOL     OW11746   0.252   2.883   5.936
 3616SOL    HW111747   0.168   2.881   5.991
 3616SOL    HW211748   0.230   2.865   5.840
 3617SOL     OW11749   4.078   1.128   6.607
 3617SOL    HW111750   4.014   1.126   6.684
 3617SOL    HW211751   4.124   1.039   6.601
 3618SOL     OW11752   2.357   2.146   5.165
 3618SOL    HW111753   2.356   2.060   5.217
 3618SOL    HW211754   2.403   2.131   5.078
 3619SOL     OW11755   5.774   3.024   3.805
 3619SOL    HW111756   5.809   3.118   3.805
 3619SOL    HW211757   5.793   2.981   3.717
 3620SOL     OW11758   6.185   5.810   6.090
 3620SOL    HW111759   6.240   5.816   6.007
 3620SOL    HW211760   6.164   5.902   6.123
 3621SOL     OW11761   3.767   2.892   5.747
 3621SOL    HW111762   3.699   2.959   5.779
 3621SOL    HW211763   3.805   2.922   5.660
 3622SOL     OW11764   1.820   1.996   4.887
 3622SOL    HW111765   1.844   2.065   4.820
 3622SOL    HW211766   1.793   1.911   4.840
 3623SOL     OW11767   6.374   5.529   4.109
 3623SOL    HW111768   6.377   5.572   4.019
 3623SOL    HW211769   6.437   5.451   4.110
 3624SOL     OW11770   2.308   6.157   2.262
 3624SOL    HW111771   2.279   6.062   2.256
 3624SOL    HW211772   2.272   6.208   2.183
 3625SOL     OW11773   5.677   3.524   0.090
 3625SOL    HW111774   5.740   3.597   0.118
 3625SOL    HW211775   5.693   3.443   0.146
 3626SOL     OW11776   1.267   3.147   6.294
 3626SOL    HW111777   1.311   3.072   6.344
 3626SOL    HW211778   1.336   3.197   6.242
 3627SOL     OW11779   3.419   2.932   3.478
 3627SOL    HW111780   3.413   2.834   3.458
 3627SOL    HW211781   3.475   2.946   3.559
 3628SOL     OW11782   1.467   0.849   1.657
 3628SOL    HW111783   1.481   0.917   1.729
 3628SOL    HW211784   1.542   0.783   1.658
 3629SOL     OW11785   6.706   2.296   4.555
 3629SOL    HW111786   6.747   2.206   4.537
 3629SOL    HW211787   6.621   2.284   4.607
 3630SOL     OW11788   5.056   2.701   3.293
 3630SOL    HW111789   5.076   2.675   3.387
 3630SOL    HW211790   4.969   2.750   3.289
 3631SOL     OW11791   1.817   6.849   3.718
 3631SOL    HW111792   1.757   6.923   3.749
 3631SOL    HW211793   1.823   6.779   3.790
 3632SOL     OW11794   4.888   6.219   1.483
 3632SOL    HW111795   4.789   6.219   1.469
 3632SOL    HW211796   4.924   6.311   1.469
 3633SOL     OW11797   3.694   1.657   5.467
 3633SOL    HW111798   3.784   1.685   5.436
 3633SOL    HW211799   3.651   1.732   5.516
 3634SOL     OW11800   0.737   4.848   4.582
 3634SOL    HW111801   0.707   4.781   4.513
 3634SOL    HW211802   0.658   4.880   4.634
 3635SOL     OW11803   2.538   6.973   6.211
 3635SOL    HW111804   2.497   6.897   6.261
 3635SOL    HW211805   2.636   6.978   6.231
 3636SOL     OW11806   0.766   5.644   0.088
 3636SOL    HW111807   0.682   5.670   0.136
 3636SOL    HW211808   0.752   5.652   7.007
 3637SOL     OW11809   6.457   1.886   1.556
 3637SOL    HW111810   6.457   1.792   1.589
 3637SOL    HW211811   6.362   1.916   1.539
 3638SOL     OW11812   0.407   4.682   4.709
 3638SOL    HW111813   0.360   4.638   4.632
 3638SOL    HW211814   0.399   4.624   4.790
 3639SOL     OW11815   3.435   4.187   1.564
 3639SOL    HW111816   3.374   4.110   1.577
 3639SOL    HW211817   3.492   4.199   1.646
 3640SOL     OW11818   3.600   0.918   0.549
 3640SOL    HW111819   3.611   0.829   0.503
 3640SOL    HW211820   3.521   0.915   0.609
 3641SOL     OW11821   5.185   2.955   3.960
 3641SOL    HW111822   5.197   2.880   3.894
 3641SOL    HW211823   5.088   2.978   3.965
 3642SOL     OW11824   4.896   0.802   0.455
 3642SOL    HW111825   4.852   0.849   0.531
 3642SOL    HW211826   4.931   0.868   0.389
 3643SOL     OW11827   2.810   5.684   5.315
 3643SOL    HW111828   2.747   5.693   5.237
 3643SOL    HW211829   2.892   5.636   5.286
 3644SOL     OW11830   7.010   1.721   1.778
 3644SOL    HW111831   6.934   1.717   1.843
 3644SOL    HW211832   7.004   1.645   1.715
 3645SOL     OW11833   6.900   3.310   3.568
 3645SOL    HW111834   6.976   3.372   3.546
 3645SOL    HW211835   6.861   3.273   3.484
 3646SOL     OW11836   6.655   4.617   6.443
 3646SOL    HW111837   6.715   4.591   6.518
 3646SOL    HW211838   6.559   4.613   6.474
 3647SOL     OW11839   2.470   3.959   6.483
 3647SOL    HW111840   2.505   3.975   6.391
 3647SOL    HW211841   2.459   3.860   6.498
 3648SOL     OW11842   3.907   4.899   2.290
 3648SOL    HW111843   3.945   4.827   2.347
 3648SOL    HW211844   3.826   4.939   2.335
 3649SOL     OW11845   4.701   2.800   1.772
 3649SOL    HW111846   4.672   2.888   1.811
 3649SOL    HW211847   4.722   2.736   1.846
 3650SOL     OW11848   0.449   5.192   1.016
 3650SOL    HW111849   0.522   5.242   1.062
 3650SOL    HW211850   0.415   5.119   1.076
 3651SOL     OW11851   0.461   6.994   3.923
 3651SOL    HW111852   0.531   6.994   3.994
 3651SOL    HW211853   0.454   6.902   3.883
 3652SOL     OW11854   5.367   6.558   3.376
 3652SOL    HW111855   5.384   6.459   3.379
 3652SOL    HW211856   5.422   6.598   3.302
 3653SOL     OW11857   0.439   1.381   4.433
 3653SOL    HW111858   0.396   1.398   4.345
 3653SOL    HW211859   0.524   1.433   4.439
 3654SOL     OW11860   2.303   4.727   0.722
 3654SOL    HW111861   2.368   4.651   0.718
 3654SOL    HW211862   2.325   4.794   0.651
 3655SOL     OW11863   1.520   6.409   3.221
 3655SOL    HW111864   1.481   6.497   3.249
 3655SOL    HW211865   1.467   6.372   3.144
 3656SOL     OW11866   1.025   3.763   2.012
 3656SOL    HW111867   0.931   3.751   2.046
 3656SOL    HW211868   1.078   3.815   2.078
 3657SOL     OW11869   4.882   4.963   6.170
 3657SOL    HW111870   4.898   5.030   6.242
 3657SOL    HW211871   4.784   4.956   6.151
 3658SOL     OW11872   1.839   5.710   5.159
 3658SOL    HW111873   1.804   5.617   5.149
 3658SOL    HW211874   1.939   5.709   5.159
 3659SOL     OW11875   1.388   3.231   4.501
 3659SOL    HW111876   1.419   3.136   4.489
 3659SOL    HW211877   1.402   3.282   4.416
 3660SOL     OW11878   5.332   0.325   3.190
 3660SOL    HW111879   5.430   0.333   3.173
 3660SOL    HW211880   5.282   0.384   3.128
 3661SOL     OW11881   5.351   1.870   5.432
 3661SOL    HW111882   5.440   1.876   5.477
 3661SOL    HW211883   5.290   1.940   5.468
 3662SOL     OW11884   4.477   6.889   3.838
 3662SOL    HW111885   4.484   6.945   3.921
 3662SOL    HW211886   4.383   6.855   3.829
 3663SOL     OW11887   1.911   2.157   0.744
 3663SOL    HW111888   1.942   2.194   0.657
 3663SOL    HW211889   1.934   2.060   0.749
 3664SOL     OW11890   5.569   1.844   2.064
 3664SOL    HW111891   5.573   1.749   2.034
 3664SOL    HW211892   5.660   1.873   2.095
 3665SOL     OW11893   2.320   6.237   5.255
 3665SOL    HW111894   2.288   6.309   5.316
 3665SOL    HW211895   2.257   6.160   5.258
 3666SOL     OW11896   0.990   4.328   3.519
 3666SOL    HW111897   1.031   4.288   3.601
 3666SOL    HW211898   0.891   4.317   3.522
 3667SOL     OW11899   0.774   1.054   2.399
 3667SOL    HW111900   0.756   0.970   2.451
 3667SOL    HW211901   0.818   1.032   2.313
 3668SOL     OW11902   1.736   1.025   2.433
 3668SOL    HW111903   1.834   1.010   2.418
 3668SOL    HW211904   1.723   1.107   2.489
 3669SOL     OW11905   5.006   0.995   3.815
 3669SOL    HW111906   5.056   0.977   3.730
 3669SOL    HW211907   4.941   0.922   3.831
 3670SOL     OW11908   2.761   4.997   0.370
 3670SOL    HW111909   2.775   4.900   0.390
 3670SOL    HW211910   2.845   5.036   0.335
 3671SOL     OW11911   5.739   0.998   3.772
 3671SOL    HW111912   5.737   1.031   3.867
 3671SOL    HW211913   5.834   0.991   3.741
 3672SOL     OW11914   5.629   1.836   1.616
 3672SOL    HW111915   5.669   1.776   1.547
 3672SOL    HW211916   5.586   1.914   1.571
 3673SOL     OW11917   4.392   6.424   6.396
 3673SOL    HW111918   4.373   6.443   6.493
 3673SOL    HW211919   4.331   6.480   6.339
 3674SOL     OW11920   0.807   6.951   5.119
 3674SOL    HW111921   0.833   6.886   5.048
 3674SOL    HW211922   0.754   0.007   5.078
 3675SOL     OW11923   1.887   3.256   4.454
 3675SOL    HW111924   1.908   3.338   4.400
 3675SOL    HW211925   1.848   3.283   4.542
 3676SOL     OW11926   5.406   4.207   3.721
 3676SOL    HW111927   5.458   4.284   3.684
 3676SOL    HW211928   5.309   4.219   3.700
 3677SOL     OW11929   1.889   5.946   3.226
 3677SOL    HW111930   1.889   5.895   3.140
 3677SOL    HW211931   1.916   5.886   3.301
 3678SOL     OW11932   0.489   1.985   5.479
 3678SOL    HW111933   0.540   1.977   5.394
 3678SOL    HW211934   0.407   2.040   5.464
 3679SOL     OW11935   1.106   0.603   3.353
 3679SOL    HW111936   1.163   0.600   3.272
 3679SOL    HW211937   1.023   0.549   3.337
 3680SOL     OW11938   5.710   2.514   3.701
 3680SOL    HW111939   5.668   2.599   3.668
 3680SOL    HW211940   5.641   2.458   3.746
 3681SOL     OW11941   0.515   6.974   6.024
 3681SOL    HW111942   0.464   6.991   6.109
 3681SOL    HW211943   0.524   0.042   5.974
 3682SOL     OW11944   5.864   2.177   7.009
 3682SOL    HW111945   5.828   2.133   6.927
 3682SOL    HW211946   5.903   2.108   0.051
 3683SOL     OW11947   6.938   0.654   2.910
 3683SOL    HW111948   6.944   0.586   2.983
 3683SOL    HW211949   0.005   0.707   2.907
 3684SOL     OW11950   1.963   4.295   6.869
 3684SOL    HW111951   2.061   4.313   6.859
 3684SOL    HW211952   1.940   4.286   6.966
 3685SOL     OW11953   6.594   6.292   6.448
 3685SOL    HW111954   6.605   6.367   6.513
 3685SOL    HW211955   6.683   6.263   6.415
 3686SOL     OW11956   5.643   6.012   3.574
 3686SOL    HW111957   5.618   5.928   3.622
 3686SOL    HW211958   5.706   6.065   3.631
 3687SOL     OW11959   3.414   5.634   4.997
 3687SOL    HW111960   3.504   5.591   4.991
 3687SOL    HW211961   3.423   5.727   5.031
 3688SOL     OW11962   6.471   3.453   6.030
 3688SOL    HW111963   6.516   3.534   6.068
 3688SOL    HW211964   6.448   3.390   6.104
 3689SOL     OW11965   2.315   0.155   6.353
 3689SOL    HW111966   2.388   0.131   6.417
 3689SOL    HW211967   2.310   0.086   6.280
 3690SOL     OW11968   5.050   5.747   0.252
 3690SOL    HW111969   5.049   5.759   0.153
 3690SOL    HW211970   5.084   5.831   0.295
 3691SOL     OW11971   2.621   3.027   6.761
 3691SOL    HW111972   2.676   2.944   6.752
 3691SOL    HW211973   2.659   3.099   6.703
 3692SOL     OW11974   0.587   5.405   5.538
 3692SOL    HW111975   0.591   5.494   5.493
 3692SOL    HW211976   0.616   5.333   5.475
 3693SOL     OW11977   2.011   3.283   2.668
 3693SOL    HW111978   2.056   3.359   2.621
 3693SOL    HW211979   2.058   3.198   2.646
 3694SOL     OW11980   1.183   5.636   2.773
 3694SOL    HW111981   1.152   5.724   2.809
 3694SOL    HW211982   1.237   5.650   2.690
 3695SOL     OW11983   6.753   2.878   1.751
 3695SOL    HW111984   6.678   2.813   1.764
 3695SOL    HW211985   6.734   2.962   1.802
 3696SOL     OW11986   3.301   5.645   5.374
 3696SOL    HW111987   3.368   5.582   5.413
 3696SOL    HW211988   3.348   5.726   5.339
 3697SOL     OW11989   0.127   6.715   2.720
 3697SOL    HW111990   0.116   6.664   2.635
 3697SOL    HW211991   0.037   6.740   2.756
 3698SOL     OW11992   2.126   1.044   4.495
 3698SOL    HW111993   2.140   0.945   4.494
 3698SOL    HW211994   2.153   1.083   4.407
 3699SOL     OW11995   0.887   2.288   3.735
 3699SOL    HW111996   0.967   2.260   3.788
 3699SOL    HW211997   0.833   2.352   3.789
 3700SOL     OW11998   0.367   6.661   5.142
 3700SOL    HW111999   0.311   6.586   5.177
 3700SOL    HW212000   0.460   6.628   5.126
 3701SOL     OW12001   1.240   0.551   3.938
 3701SOL    HW112002   1.335   0.539   3.908
 3701SOL    HW212003   1.239   0.582   4.033
 3702SOL     OW12004   5.753   6.994   2.287
 3702SOL    HW112005   5.682   0.022   2.341
 3702SOL    HW212006   5.841   7.004   2.332
 3703SOL     OW12007   5.499   1.165   5.647
 3703SOL    HW112008   5.518   1.093   5.714
 3703SOL    HW212009   5.520   1.131   5.556
 3704SOL     OW12010   3.719   1.932   1.557
 3704SOL    HW112011   3.683   2.024   1.571
 3704SOL    HW212012   3.819   1.936   1.549
 3705SOL     OW12013   4.464   4.926   3.588
 3705SOL    HW112014   4.443   4.949   3.493
 3705SOL    HW212015   4.540   4.981   3.621
 3706SOL     OW12016   1.576   2.834   6.649
 3706SOL    HW112017   1.659   2.838   6.704
 3706SOL    HW212018   1.553   2.739   6.630
 3707SOL     OW12019   5.632   4.414   4.445
 3707SOL    HW112020   5.558   4.375   4.389
 3707SOL    HW212021   5.592   4.461   4.524
 3708SOL     OW12022   7.000   0.760   6.011
 3708SOL    HW112023   0.026   0.821   6.077
 3708SOL    HW212024   6.940   0.813   5.951
 3709SOL     OW12025   2.996   0.703   0.631
 3709SOL    HW112026   2.902   0.677   0.653
 3709SOL    HW212027   2.996   0.789   0.581
 3710SOL     OW12028   6.632   5.226   6.139
 3710SOL    HW112029   6.652   5.282   6.219
 3710SOL    HW212030   6.582   5.144   6.166
 3711SOL     OW12031   0.426   0.223   4.021
 3711SOL    HW112032   0.516   0.267   4.022
 3711SOL    HW212033   0.432   0.136   3.973
 3712SOL     OW12034   0.035   5.907   0.039
 3712SOL    HW112035   0.109   5.972   0.056
 3712SOL    HW212036   0.074   5.820   0.010
 3713SOL     OW12037   1.159   6.169   5.120
 3713SOL    HW112038   1.143   6.197   5.214
 3713SOL    HW212039   1.242   6.213   5.085
 3714SOL     OW12040   5.201   5.870   5.692
 3714SOL    HW112041   5.178   5.786   5.741
 3714SOL    HW212042   5.117   5.919   5.668
 3715SOL     OW12043   6.793   4.453   2.517
 3715SOL    HW112044   6.891   4.470   2.511
 3715SOL    HW212045   6.773   4.358   2.491
 3716SOL     OW12046   6.388   0.137   4.946
 3716SOL    HW112047   6.355   0.082   5.023
 3716SOL    HW212048   6.344   0.226   4.947
 3717SOL     OW12049   5.985   6.753   6.470
 3717SOL    HW112050   6.017   6.680   6.409
 3717SOL    HW212051   6.058   6.819   6.485
 3718SOL     OW12052   1.643   1.005   0.156
 3718SOL    HW112053   1.615   0.929   0.097
 3718SOL    HW212054   1.688   0.969   0.238
 3719SOL     OW12055   5.115   4.808   0.956
 3719SOL    HW112056   5.183   4.876   0.984
 3719SOL    HW212057   5.146   4.765   0.871
 3720SOL     OW12058   5.993   2.774   6.759
 3720SOL    HW112059   5.994   2.699   6.826
 3720SOL    HW212060   6.022   2.859   6.803
 3721SOL     OW12061   5.876   4.483   1.557
 3721SOL    HW112062   5.825   4.480   1.470
 3721SOL    HW212063   5.837   4.554   1.615
 3722SOL     OW12064   6.444   5.864   0.688
 3722SOL    HW112065   6.512   5.911   0.631
 3722SOL    HW212066   6.356   5.910   0.678
 3723SOL     OW12067   6.431   5.541   1.821
 3723SOL    HW112068   6.454   5.635   1.795
 3723SOL    HW212069   6.333   5.536   1.842
 3724SOL     OW12070   1.654   4.132   4.971
 3724SOL    HW112071   1.733   4.183   5.005
 3724SOL    HW212072   1.686   4.058   4.911
 3725SOL     OW12073   5.621   5.325   0.800
 3725SOL    HW112074   5.558   5.403   0.795
 3725SOL    HW212075   5.602   5.273   0.883
 3726SOL     OW12076   5.755   3.665   0.338
 3726SOL    HW112077   5.692   3.741   0.351
 3726SOL    HW212078   5.846   3.701   0.316
 3727SOL     OW12079   6.868   2.101   5.403
 3727SOL    HW112080   6.920   2.122   5.321
 3727SOL    HW212081   6.802   2.028   5.383
 3728SOL     OW12082   1.419   3.656   6.585
 3728SOL    HW112083   1.408   3.576   6.526
 3728SOL    HW212084   1.378   3.637   6.674
 3729SOL     OW12085   0.925   2.607   3.628
 3729SOL    HW112086   0.878   2.685   3.587
 3729SOL    HW212087   0.974   2.636   3.710
 3730SOL     OW12088   2.827   5.254   5.712
 3730SOL    HW112089   2.775   5.332   5.677
 3730SOL    HW212090   2.764   5.186   5.750
 3731SOL     OW12091   6.802   0.789   0.445
 3731SOL    HW112092   6.763   0.699   0.424
 3731SOL    HW212093   6.745   0.860   0.405
 3732SOL     OW12094   2.709   1.595   6.575
 3732SOL    HW112095   2.713   1.515   6.635
 3732SOL    HW212096   2.624   1.645   6.591
 3733SOL     OW12097   1.193   3.965   2.167
 3733SOL    HW112098   1.199   4.065   2.155
 3733SOL    HW212099   1.273   3.922   2.125
 3734SOL     OW12100   5.665   1.521   2.491
 3734SOL    HW112101   5.728   1.597   2.506
 3734SOL    HW212102   5.628   1.526   2.398
 3735SOL     OW12103   2.052   1.083   3.422
 3735SOL    HW112104   2.116   1.060   3.349
 3735SOL    HW212105   2.033   1.002   3.477
 3736SOL     OW12106   0.280   2.292   0.700
 3736SOL    HW112107   0.234   2.371   0.740
 3736SOL    HW212108   0.340   2.250   0.767
 3737SOL     OW12109   5.141   0.267   3.340
 3737SOL    HW112110   5.086   0.349   3.345
 3737SOL    HW212111   5.225   0.286   3.288
 3738SOL     OW12112   6.716   6.450   2.148
 3738SOL    HW112113   6.727   6.462   2.049
 3738SOL    HW212114   6.643   6.510   2.181
 3739SOL     OW12115   2.610   4.486   1.753
 3739SOL    HW112116   2.708   4.504   1.761
 3739SOL    HW212117   2.565   4.510   1.839
 3740SOL     OW12118   5.802   0.637   0.723
 3740SOL    HW112119   5.785   0.684   0.809
 3740SOL    HW212120   5.895   0.602   0.722
 3741SOL     OW12121   5.181   3.331   1.093
 3741SOL    HW112122   5.138   3.368   1.011
 3741SOL    HW212123   5.172   3.398   1.168
 3742SOL     OW12124   3.042   1.602   6.912
 3742SOL    HW112125   3.060   1.605   7.010
 3742SOL    HW212126   3.099   1.531   6.870
 3743SOL     OW12127   5.395   3.004   1.466
 3743SOL    HW112128   5.344   3.087   1.485
 3743SOL    HW212129   5.411   2.996   1.368
 3744SOL     OW12130   0.968   5.493   2.884
 3744SOL    HW112131   1.033   5.553   2.836
 3744SOL    HW212132   0.965   5.517   2.981
 3745SOL     OW12133   3.707   5.080   1.587
 3745SOL    HW112134   3.613   5.107   1.567
 3745SOL    HW212135   3.711   4.980   1.598
 3746SOL     OW12136   5.325   1.317   3.132
 3746SOL    HW112137   5.417   1.291   3.103
 3746SOL    HW212138   5.304   1.409   3.097
 3747SOL     OW12139   2.532   6.769   5.243
 3747SOL    HW112140   2.564   6.675   5.229
 3747SOL    HW212141   2.466   6.771   5.318
 3748SOL     OW12142   5.992   1.007   0.647
 3748SOL    HW112143   5.923   0.987   0.578
 3748SOL    HW212144   6.079   1.031   0.602
 3749SOL     OW12145   1.667   5.753   3.818
 3749SOL    HW112146   1.624   5.842   3.829
 3749SOL    HW212147   1.598   5.686   3.790
 3750SOL     OW12148   1.255   3.985   0.509
 3750SOL    HW112149   1.183   3.929   0.470
 3750SOL    HW212150   1.341   3.934   0.509
 3751SOL     OW12151   0.409   3.579   1.671
 3751SOL    HW112152   0.387   3.488   1.706
 3751SOL    HW212153   0.421   3.575   1.572
 3752SOL     OW12154   5.176   0.529   6.487
 3752SOL    HW112155   5.173   0.435   6.521
 3752SOL    HW212156   5.083   0.560   6.467
 3753SOL     OW12157   6.496   6.779   4.879
 3753SOL    HW112158   6.523   6.871   4.907
 3753SOL    HW212159   6.573   6.717   4.890
 3754SOL     OW12160   2.429   0.991   1.151
 3754SOL    HW112161   2.338   1.025   1.129
 3754SOL    HW212162   2.421   0.906   1.203
 3755SOL     OW12163   4.824   4.804   5.084
 3755SOL    HW112164   4.898   4.748   5.046
 3755SOL    HW212165   4.746   4.746   5.107
 3756SOL     OW12166   3.000   5.146   6.039
 3756SOL    HW112167   2.976   5.234   6.079
 3756SOL    HW212168   2.921   5.107   5.993
 3757SOL     OW12169   6.127   5.111   1.006
 3757SOL    HW112170   6.061   5.186   1.012
 3757SOL    HW212171   6.090   5.030   1.053
 3758SOL     OW12172   2.464   1.563   4.714
 3758SOL    HW112173   2.443   1.657   4.742
 3758SOL    HW212174   2.430   1.548   4.621
 3759SOL     OW12175   4.203   0.091   6.103
 3759SOL    HW112176   4.107   0.115   6.092
 3759SOL    HW212177   4.258   0.141   6.036
 3760SOL     OW12178   1.335   1.295   4.309
 3760SOL    HW112179   1.290   1.368   4.257
 3760SOL    HW212180   1.283   1.210   4.298
 3761SOL     OW12181   0.289   1.029   5.296
 3761SOL    HW112182   0.241   1.066   5.217
 3761SOL    HW212183   0.232   0.958   5.339
 3762SOL     OW12184   1.592   4.823   1.017
 3762SOL    HW112185   1.629   4.869   0.936
 3762SOL    HW212186   1.647   4.742   1.037
 3763SOL     OW12187   0.658   3.394   6.950
 3763SOL    HW112188   0.710   3.368   0.013
 3763SOL    HW212189   0.590   3.323   6.930
 3764SOL     OW12190   1.503   0.073   2.598
 3764SOL    HW112191   1.557   0.157   2.609
 3764SOL    HW212192   1.413   0.085   2.640
 3765SOL     OW12193   5.124   1.509   1.041
 3765SOL    HW112194   5.106   1.528   1.138
 3765SOL    HW212195   5.075   1.576   0.985
 3766SOL     OW12196   1.734   1.688   4.231
 3766SOL    HW112197   1.748   1.638   4.317
 3766SOL    HW212198   1.636   1.705   4.218
 3767SOL     OW12199   2.712   4.309   7.018
 3767SOL    HW112200   2.637   4.293   6.954
 3767SOL    HW212201   2.771   4.228   0.002
 3768SOL     OW12202   0.502   6.860   4.539
 3768SOL    HW112203   0.447   6.777   4.538
 3768SOL    HW212204   0.468   6.922   4.609
 3769SOL     OW12205   5.841   5.313   4.901
 3769SOL    HW112206   5.808   5.387   4.959
 3769SOL    HW212207   5.763   5.261   4.866
 3770SOL     OW12208   1.211   0.647   6.338
 3770SOL    HW112209   1.136   0.644   6.404
 3770SOL    HW212210   1.175   0.667   6.247
 3771SOL     OW12211   5.259   3.272   0.299
 3771SOL    HW112212   5.352   3.246   0.276
 3771SOL    HW212213   5.214   3.310   0.218
 3772SOL     OW12214   0.439   0.852   0.331
 3772SOL    HW112215   0.522   0.857   0.386
 3772SOL    HW212216   0.430   0.935   0.277
 3773SOL     OW12217   5.726   3.405   5.809
 3773SOL    HW112218   5.636   3.365   5.797
 3773SOL    HW212219   5.787   3.337   5.851
 3774SOL     OW12220   5.830   5.356   1.144
 3774SOL    HW112221   5.904   5.372   1.079
 3774SOL    HW212222   5.759   5.300   1.101
 3775SOL     OW12223   4.734   5.613   2.674
 3775SOL    HW112224   4.718   5.557   2.756
 3775SOL    HW212225   4.792   5.562   2.610
 3776SOL     OW12226   3.963   2.048   6.532
 3776SOL    HW112227   3.994   2.120   6.593
 3776SOL    HW212228   4.037   1.982   6.517
 3777SOL     OW12229   3.306   5.155   3.382
 3777SOL    HW112230   3.213   5.184   3.409
 3777SOL    HW212231   3.302   5.064   3.342
 3778SOL     OW12232   2.764   5.220   2.593
 3778SOL    HW112233   2.860   5.211   2.618
 3778SOL    HW212234   2.744   5.158   2.518
 3779SOL     OW12235   0.568   4.920   0.663
 3779SOL    HW112236   0.666   4.941   0.662
 3779SOL    HW212237   0.516   5.004   0.670
 3780SOL     OW12238   5.708   4.782   4.866
 3780SOL    HW112239   5.745   4.861   4.915
 3780SOL    HW212240   5.759   4.770   4.781
 3781SOL     OW12241   0.647   7.010   4.109
 3781SOL    HW112242   0.732   0.027   4.070
 3781SOL    HW212243   0.668   6.941   4.178
 3782SOL     OW12244   2.473   0.470   3.043
 3782SOL    HW112245   2.439   0.499   2.953
 3782SOL    HW212246   2.457   0.372   3.054
 3783SOL     OW12247   5.855   5.297   4.075
 3783SOL    HW112248   5.915   5.300   3.995
 3783SOL    HW212249   5.777   5.358   4.061
 3784SOL     OW12250   5.402   2.984   2.878
 3784SOL    HW112251   5.354   2.909   2.923
 3784SOL    HW212252   5.361   3.000   2.788
 3785SOL     OW12253   1.898   3.182   5.602
 3785SOL    HW112254   1.881   3.280   5.591
 3785SOL    HW212255   1.816   3.131   5.577
 3786SOL     OW12256   2.478   4.676   3.280
 3786SOL    HW112257   2.562   4.705   3.327
 3786SOL    HW212258   2.418   4.755   3.269
 3787SOL     OW12259   6.371   1.393   2.477
 3787SOL    HW112260   6.454   1.341   2.498
 3787SOL    HW212261   6.389   1.455   2.401
 3788SOL     OW12262   0.326   4.606   5.255
 3788SOL    HW112263   0.253   4.603   5.187
 3788SOL    HW212264   0.402   4.661   5.220
 3789SOL     OW12265   0.285   4.314   4.979
 3789SOL    HW112266   0.349   4.390   4.967
 3789SOL    HW212267   0.279   4.291   5.076
 3790SOL     OW12268   1.189   4.719   5.878
 3790SOL    HW112269   1.272   4.747   5.927
 3790SOL    HW212270   1.130   4.667   5.940
 3791SOL     OW12271   5.088   1.000   6.308
 3791SOL    HW112272   5.038   0.922   6.272
 3791SOL    HW212273   5.030   1.081   6.308
 3792SOL     OW12274   1.030   2.093   3.172
 3792SOL    HW112275   1.028   2.098   3.072
 3792SOL    HW212276   1.075   2.174   3.209
 3793SOL     OW12277   4.509   6.859   2.354
 3793SOL    HW112278   4.569   6.870   2.434
 3793SOL    HW212279   4.441   6.932   2.354
 3794SOL     OW12280   2.062   2.391   1.277
 3794SOL    HW112281   2.113   2.452   1.216
 3794SOL    HW212282   1.967   2.384   1.246
 3795SOL     OW12283   5.021   5.996   1.372
 3795SOL    HW112284   5.112   6.023   1.341
 3795SOL    HW212285   4.966   6.078   1.391
 3796SOL     OW12286   3.971   1.809   2.471
 3796SOL    HW112287   3.915   1.891   2.479
 3796SOL    HW212288   3.917   1.729   2.499
 3797SOL     OW12289   0.877   3.299   2.432
 3797SOL    HW112290   0.820   3.352   2.369
 3797SOL    HW212291   0.923   3.361   2.495
 3798SOL     OW12292   2.392   5.860   3.439
 3798SOL    HW112293   2.315   5.891   3.494
 3798SOL    HW212294   2.470   5.840   3.499
 3799SOL     OW12295   6.309   2.851   3.870
 3799SOL    HW112296   6.227   2.845   3.813
 3799SOL    HW212297   6.350   2.760   3.879
 3800SOL     OW12298   5.505   1.939   4.002
 3800SOL    HW112299   5.435   1.978   3.942
 3800SOL    HW212300   5.547   1.859   3.958
 3801SOL     OW12301   6.140   6.539   1.478
 3801SOL    HW112302   6.149   6.629   1.522
 3801SOL    HW212303   6.145   6.468   1.547
 3802SOL     OW12304   1.711   2.314   1.614
 3802SOL    HW112305   1.645   2.387   1.597
 3802SOL    HW212306   1.671   2.226   1.591
 3803SOL     OW12307   4.148   3.578   2.325
 3803SOL    HW112308   4.219   3.648   2.318
 3803SOL    HW212309   4.121   3.549   2.234
 3804SOL     OW12310   4.711   1.134   3.248
 3804SOL    HW112311   4.617   1.156   3.275
 3804SOL    HW212312   4.766   1.218   3.250
 3805SOL     OW12313   1.675   3.053   1.245
 3805SOL    HW112314   1.757   3.071   1.300
 3805SOL    HW212315   1.614   2.991   1.295
 3806SOL     OW12316   4.020   3.829   5.820
 3806SOL    HW112317   4.015   3.733   5.795
 3806SOL    HW212318   4.084   3.842   5.895
 3807SOL     OW12319   1.717   5.443   2.798
 3807SOL    HW112320   1.638   5.499   2.824
 3807SOL    HW212321   1.778   5.435   2.877
 3808SOL     OW12322   4.282   0.934   0.228
 3808SOL    HW112323   4.257   0.897   0.318
 3808SOL    HW212324   4.203   0.927   0.167
 3809SOL     OW12325   5.396   2.066   2.001
 3809SOL    HW112326   5.451   1.983   2.006
 3809SOL    HW212327   5.310   2.052   2.051
 3810SOL     OW12328   5.109   2.741   3.725
 3810SOL    HW112329   5.051   2.726   3.806
 3810SOL    HW212330   5.090   2.670   3.658
 3811SOL     OW12331   0.123   6.045   4.401
 3811SOL    HW112332   0.046   6.101   4.433
 3811SOL    HW212333   0.147   6.072   4.308
 3812SOL     OW12334   4.697   4.987   5.254
 3812SOL    HW112335   4.695   4.954   5.348
 3812SOL    HW212336   4.758   4.930   5.200
 3813SOL     OW12337   4.688   3.085   0.569
 3813SOL    HW112338   4.596   3.097   0.605
 3813SOL    HW212339   4.685   3.028   0.486
 3814SOL     OW12340   6.216   0.040   5.889
 3814SOL    HW112341   6.190   0.110   5.955
 3814SOL    HW212342   6.152   0.042   5.812
 3815SOL     OW12343   3.545   2.132   1.280
 3815SOL    HW112344   3.483   2.086   1.343
 3815SOL    HW212345   3.622   2.072   1.258
 3816SOL     OW12346   1.027   5.555   6.802
 3816SOL    HW112347   1.091   5.530   6.875
 3816SOL    HW212348   0.960   5.481   6.791
 3817SOL     OW12349   5.147   3.667   2.627
 3817SOL    HW112350   5.145   3.591   2.562
 3817SOL    HW212351   5.194   3.745   2.586
 3818SOL     OW12352   6.375   1.095   6.721
 3818SOL    HW112353   6.332   1.025   6.778
 3818SOL    HW212354   6.306   1.136   6.661
 3819SOL     OW12355   5.712   5.278   1.971
 3819SOL    HW112356   5.704   5.377   1.962
 3819SOL    HW212357   5.685   5.235   1.884
 3820SOL     OW12358   5.192   0.275   3.883
 3820SOL    HW112359   5.225   0.223   3.961
 3820SOL    HW212360   5.268   0.323   3.840
 3821SOL     OW12361   2.611   1.116   1.978
 3821SOL    HW112362   2.664   1.197   2.001
 3821SOL    HW212363   2.515   1.142   1.963
 3822SOL     OW12364   2.459   0.079   0.723
 3822SOL    HW112365   2.411   0.002   0.680
 3822SOL    HW212366   2.412   0.106   0.807
 3823SOL     OW12367   2.956   3.734   6.374
 3823SOL    HW112368   2.964   3.712   6.277
 3823SOL    HW212369   2.861   3.719   6.404
 3824SOL     OW12370   0.708   3.259   0.179
 3824SOL    HW112371   0.608   3.258   0.183
 3824SOL    HW212372   0.745   3.306   0.259
 3825SOL     OW12373   0.329   5.592   0.500
 3825SOL    HW112374   0.421   5.573   0.466
 3825SOL    HW212375   0.268   5.518   0.473
 3826SOL     OW12376   1.043   3.790   0.390
 3826SOL    HW112377   1.013   3.725   0.320
 3826SOL    HW212378   1.014   3.758   0.480
 3827SOL     OW12379   2.000   1.188   1.911
 3827SOL    HW112380   1.918   1.189   1.852
 3827SOL    HW212381   2.028   1.094   1.927
 3828SOL     OW12382   3.565   3.389   3.411
 3828SOL    HW112383   3.524   3.374   3.501
 3828SOL    HW212384   3.660   3.418   3.421
 3829SOL     OW12385   1.755   4.951   1.900
 3829SOL    HW112386   1.687   5.024   1.906
 3829SOL    HW212387   1.826   4.965   1.969
 3830SOL     OW12388   0.610   0.661   5.194
 3830SOL    HW112389   0.543   0.713   5.141
 3830SOL    HW212390   0.628   0.709   5.280
 3831SOL     OW12391   4.755   2.550   2.668
 3831SOL    HW112392   4.687   2.506   2.610
 3831SOL    HW212393   4.772   2.643   2.636
 3832SOL     OW12394   6.750   0.895   2.985
 3832SOL    HW112395   6.754   0.854   2.894
 3832SOL    HW212396   6.711   0.829   3.049
 3833SOL     OW12397   0.318   6.400   6.749
 3833SOL    HW112398   0.259   6.481   6.746
 3833SOL    HW212399   0.319   6.356   6.660
 3834SOL     OW12400   4.056   4.136   1.235
 3834SOL    HW112401   4.020   4.062   1.293
 3834SOL    HW212402   4.138   4.105   1.188
 3835SOL     OW12403   3.799   5.491   4.715
 3835SOL    HW112404   3.760   5.528   4.630
 3835SOL    HW212405   3.899   5.493   4.708
 3836SOL     OW12406   0.928   4.756   6.218
 3836SOL    HW112407   0.978   4.675   6.190
 3836SOL    HW212408   0.970   4.837   6.178
 3837SOL     OW12409   4.490   4.252   6.094
 3837SOL    HW112410   4.471   4.342   6.053
 3837SOL    HW212411   4.486   4.259   6.194
 3838SOL     OW12412   1.120   3.593   4.572
 3838SOL    HW112413   1.080   3.502   4.569
 3838SOL    HW212414   1.154   3.617   4.481
 3839SOL     OW12415   5.755   1.100   3.279
 3839SOL    HW112416   5.745   1.037   3.357
 3839SOL    HW212417   5.839   1.153   3.290
 3840SOL     OW12418   2.540   1.178   6.708
 3840SOL    HW112419   2.527   1.155   6.611
 3840SOL    HW212420   2.636   1.164   6.733
 3841SOL     OW12421   0.141   4.062   4.945
 3841SOL    HW112422   0.177   4.019   5.028
 3841SOL    HW212423   0.188   4.149   4.930
 3842SOL     OW12424   2.633   2.909   1.493
 3842SOL    HW112425   2.561   2.966   1.453
 3842SOL    HW212426   2.720   2.933   1.451
 3843SOL     OW12427   5.764   4.877   2.241
 3843SOL    HW112428   5.709   4.959   2.250
 3843SOL    HW212429   5.841   4.882   2.305
 3844SOL     OW12430   0.907   2.903   5.290
 3844SOL    HW112431   0.934   2.813   5.324
 3844SOL    HW212432   0.881   2.962   5.366
 3845SOL     OW12433   2.685   3.985   5.703
 3845SOL    HW112434   2.674   4.083   5.722
 3845SOL    HW212435   2.630   3.933   5.768
 3846SOL     OW12436   6.831   5.444   3.457
 3846SOL    HW112437   6.894   5.450   3.380
 3846SOL    HW212438   6.806   5.537   3.486
 3847SOL     OW12439   5.246   1.728   3.820
 3847SOL    HW112440   5.164   1.767   3.777
 3847SOL    HW212441   5.237   1.733   3.919
 3848SOL     OW12442   4.486   5.485   2.512
 3848SOL    HW112443   4.407   5.474   2.451
 3848SOL    HW212444   4.482   5.576   2.554
 3849SOL     OW12445   1.538   1.018   6.051
 3849SOL    HW112446   1.626   0.997   6.093
 3849SOL    HW212447   1.519   1.116   6.059
 3850SOL     OW12448   2.734   3.307   1.449
 3850SOL    HW112449   2.784   3.303   1.536
 3850SOL    HW212450   2.645   3.351   1.464
 3851SOL     OW12451   0.911   4.767   2.399
 3851SOL    HW112452   0.895   4.779   2.301
 3851SOL    HW212453   1.003   4.797   2.422
 3852SOL     OW12454   4.125   6.254   3.901
 3852SOL    HW112455   4.036   6.264   3.947
 3852SOL    HW212456   4.169   6.344   3.894
 3853SOL     OW12457   0.633   4.088   3.300
 3853SOL    HW112458   0.725   4.068   3.332
 3853SOL    HW212459   0.633   4.174   3.250
 3854SOL     OW12460   1.694   3.078   2.802
 3854SOL    HW112461   1.613   3.022   2.819
 3854SOL    HW212462   1.737   3.049   2.716
 3855SOL     OW12463   5.804   6.265   6.267
 3855SOL    HW112464   5.719   6.234   6.224
 3855SOL    HW212465   5.783   6.327   6.342
 3856SOL     OW12466   6.949   0.547   5.780
 3856SOL    HW112467   6.924   0.626   5.724
 3856SOL    HW212468   6.942   0.572   5.877
 3857SOL     OW12469   6.868   6.690   0.135
 3857SOL    HW112470   6.776   6.728   0.128
 3857SOL    HW212471   6.864   6.590   0.126
 3858SOL     OW12472   1.864   0.816   5.392
 3858SOL    HW112473   1.862   0.770   5.480
 3858SOL    HW212474   1.849   0.749   5.319
 3859SOL     OW12475   6.205   1.185   2.801
 3859SOL    HW112476   6.155   1.103   2.829
 3859SOL    HW212477   6.304   1.168   2.807
 3860SOL     OW12478   2.987   0.621   5.296
 3860SOL    HW112479   2.921   0.554   5.262
 3860SOL    HW212480   3.072   0.576   5.321
 3861SOL     OW12481   4.295   4.691   3.175
 3861SOL    HW112482   4.292   4.594   3.152
 3861SOL    HW212483   4.391   4.720   3.186
 3862SOL     OW12484   0.353   0.665   4.683
 3862SOL    HW112485   0.431   0.689   4.740
 3862SOL    HW212486   0.288   0.612   4.737
 3863SOL     OW12487   5.582   2.786   6.956
 3863SOL    HW112488   5.664   2.829   6.920
 3863SOL    HW212489   5.529   2.853   7.008
 3864SOL     OW12490   2.582   0.202   5.270
 3864SOL    HW112491   2.635   0.119   5.255
 3864SOL    HW212492   2.560   0.244   5.182
 3865SOL     OW12493   3.046   0.285   0.247
 3865SOL    HW112494   2.998   0.235   0.319
 3865SOL    HW212495   3.053   0.381   0.274
 3866SOL     OW12496   3.461   0.884   1.049
 3866SOL    HW112497   3.376   0.936   1.055
 3866SOL    HW212498   3.538   0.946   1.060
 3867SOL     OW12499   1.111   4.848   3.717
 3867SOL    HW112500   1.198   4.890   3.689
 3867SOL    HW212501   1.042   4.868   3.647
 3868SOL     OW12502   3.062   6.823   0.365
 3868SOL    HW112503   3.113   6.833   0.280
 3868SOL    HW212504   2.986   6.888   0.366
 3869SOL     OW12505   5.460   3.921   4.936
 3869SOL    HW112506   5.444   4.019   4.951
 3869SOL    HW212507   5.377   3.870   4.956
 3870SOL     OW12508   5.536   6.205   6.528
 3870SOL    HW112509   5.443   6.185   6.498
 3870SOL    HW212510   5.550   6.304   6.529
 3871SOL     OW12511   3.723   0.549   3.208
 3871SOL    HW112512   3.717   0.478   3.278
 3871SOL    HW212513   3.653   0.618   3.225
 3872SOL     OW12514   3.826   2.983   4.017
 3872SOL    HW112515   3.770   2.951   4.094
 3872SOL    HW212516   3.889   3.054   4.048
 3873SOL     OW12517   6.042   2.895   1.316
 3873SOL    HW112518   6.053   2.971   1.381
 3873SOL    HW212519   5.948   2.860   1.322
 3874SOL     OW12520   4.226   6.000   0.123
 3874SOL    HW112521   4.315   5.988   0.079
 3874SOL    HW212522   4.183   5.911   0.137
 3875SOL     OW12523   2.135   2.703   1.891
 3875SOL    HW112524   2.128   2.603   1.886
 3875SOL    HW212525   2.048   2.744   1.860
 3876SOL     OW12526   4.223   5.347   0.927
 3876SOL    HW112527   4.304   5.371   0.873
 3876SOL    HW212528   4.147   5.327   0.865
 3877SOL     OW12529   6.030   3.175   0.509
 3877SOL    HW112530   6.020   3.238   0.432
 3877SOL    HW212531   6.102   3.208   0.570
 3878SOL     OW12532   3.603   6.892   4.628
 3878SOL    HW112533   3.606   6.956   4.551
 3878SOL    HW212534   3.652   6.808   4.603
 3879SOL     OW12535   5.044   5.232   1.574
 3879SOL    HW112536   5.068   5.312   1.519
 3879SOL    HW212537   4.964   5.187   1.533
 3880SOL     OW12538   5.963   4.903   3.762
 3880SOL    HW112539   6.020   4.951   3.696
 3880SOL    HW212540   5.918   4.826   3.716
 3881SOL     OW12541   0.859   3.977   1.422
 3881SOL    HW112542   0.784   3.952   1.484
 3881SOL    HW212543   0.928   4.029   1.473
 3882SOL     OW12544   1.017   1.529   5.270
 3882SOL    HW112545   0.950   1.565   5.336
 3882SOL    HW212546   1.017   1.587   5.189
 3883SOL     OW12547   4.084   1.043   3.802
 3883SOL    HW112548   4.161   1.069   3.861
 3883SOL    HW212549   4.003   1.026   3.859
 3884SOL     OW12550   0.188   5.236   3.531
 3884SOL    HW112551   0.106   5.277   3.569
 3884SOL    HW212552   0.269   5.273   3.577
 3885SOL     OW12553   6.639   0.630   2.500
 3885SOL    HW112554   6.556   0.588   2.539
 3885SOL    HW212555   6.663   0.582   2.416
 3886SOL     OW12556   6.253   6.099   4.809
 3886SOL    HW112557   6.347   6.134   4.818
 3886SOL    HW212558   6.257   6.003   4.782
 3887SOL     OW12559   0.802   0.395   6.305
 3887SOL    HW112560   0.731   0.343   6.353
 3887SOL    HW212561   0.803   0.489   6.338
 3888SOL     OW12562   6.457   0.210   5.524
 3888SOL    HW112563   6.414   0.223   5.435
 3888SOL    HW212564   6.450   0.294   5.577
 3889SOL     OW12565   6.692   3.191   5.803
 3889SOL    HW112566   6.620   3.255   5.777
 3889SOL    HW212567   6.732   3.219   5.890
 3890SOL     OW12568   5.449   5.714   3.226
 3890SOL    HW112569   5.461   5.754   3.135
 3890SOL    HW212570   5.355   5.680   3.235
 3891SOL     OW12571   6.028   4.323   4.676
 3891SOL    HW112572   6.037   4.345   4.773
 3891SOL    HW212573   5.977   4.238   4.665
 3892SOL     OW12574   6.990   2.088   1.238
 3892SOL    HW112575   6.954   2.073   1.330
 3892SOL    HW212576   0.066   2.054   1.233
 3893SOL     OW12577   4.244   4.461   1.012
 3893SOL    HW112578   4.187   4.428   0.936
 3893SOL    HW212579   4.209   4.423   1.098
 3894SOL     OW12580   3.235   2.792   1.007
 3894SOL    HW112581   3.274   2.716   1.059
 3894SOL    HW212582   3.194   2.757   0.923
 3895SOL     OW12583   1.432   0.283   5.675
 3895SOL    HW112584   1.498   0.356   5.695
 3895SOL    HW212585   1.426   0.222   5.754
 3896SOL     OW12586   0.268   1.298   5.891
 3896SOL    HW112587   0.317   1.245   5.960
 3896SOL    HW212588   0.181   1.252   5.870
 3897SOL     OW12589   3.655   5.765   2.286
 3897SOL    HW112590   3.631   5.857   2.254
 3897SOL    HW212591   3.728   5.728   2.228
 3898SOL     OW12592   3.675   3.548   4.295
 3898SOL    HW112593   3.738   3.591   4.360
 3898SOL    HW212594   3.725   3.482   4.238
 3899SOL     OW12595   5.645   0.633   3.898
 3899SOL    HW112596   5.591   0.573   3.956
 3899SOL    HW212597   5.741   0.602   3.898
 3900SOL     OW12598   5.499   2.740   3.874
 3900SOL    HW112599   5.432   2.715   3.804
 3900SOL    HW212600   5.549   2.821   3.845
 3901SOL     OW12601   2.974   6.685   5.035
 3901SOL    HW112602   3.074   6.680   5.036
 3901SOL    HW212603   2.938   6.615   4.973
 3902SOL     OW12604   6.301   3.766   2.596
 3902SOL    HW112605   6.370   3.808   2.655
 3902SOL    HW212606   6.285   3.825   2.517
 3903SOL     OW12607   4.579   5.277   0.548
 3903SOL    HW112608   4.664   5.281   0.602
 3903SOL    HW212609   4.594   5.221   0.467
 3904SOL     OW12610   1.841   6.685   5.313
 3904SOL    HW112611   1.759   6.706   5.261
 3904SOL    HW212612   1.826   6.602   5.367
 3905SOL     OW12613   6.176   0.341   5.599
 3905SOL    HW112614   6.248   0.287   5.555
 3905SOL    HW212615   6.218   0.407   5.662
 3906SOL     OW12616   3.197   5.097   5.446
 3906SOL    HW112617   3.265   5.146   5.501
 3906SOL    HW212618   3.106   5.128   5.470
 3907SOL     OW12619   6.524   6.778   5.474
 3907SOL    HW112620   6.477   6.694   5.448
 3907SOL    HW212621   6.615   6.780   5.432
 3908SOL     OW12622   1.369   0.648   0.303
 3908SOL    HW112623   1.359   0.625   0.206
 3908SOL    HW212624   1.373   0.747   0.314
 3909SOL     OW12625   0.921   5.308   5.713
 3909SOL    HW112626   0.981   5.235   5.679
 3909SOL    HW212627   0.934   5.390   5.657
 3910SOL     OW12628   3.714   3.870   2.137
 3910SOL    HW112629   3.800   3.822   2.150
 3910SOL    HW212630   3.639   3.813   2.171
 3911SOL     OW12631   4.113   1.540   6.855
 3911SOL    HW112632   4.150   1.618   6.806
 3911SOL    HW212633   4.180   1.506   6.921
 3912SOL     OW12634   3.228   0.781   6.499
 3912SOL    HW112635   3.163   0.748   6.566
 3912SOL    HW212636   3.202   0.872   6.468
 3913SOL     OW12637   2.714   5.650   6.497
 3913SOL    HW112638   2.616   5.631   6.497
 3913SOL    HW212639   2.735   5.715   6.569
 3914SOL     OW12640   3.798   0.845   1.042
 3914SOL    HW112641   3.874   0.832   1.106
 3914SOL    HW212642   3.723   0.784   1.065
 3915SOL     OW12643   4.309   6.315   1.683
 3915SOL    HW112644   4.396   6.346   1.643
 3915SOL    HW212645   4.317   6.314   1.783
 3916SOL     OW12646   1.641   6.335   2.864
 3916SOL    HW112647   1.593   6.386   2.793
 3916SOL    HW212648   1.738   6.358   2.861
 3917SOL     OW12649   0.964   5.038   0.274
 3917SOL    HW112650   0.876   5.084   0.275
 3917SOL    HW212651   0.979   4.996   0.184
 3918SOL     OW12652   4.411   6.526   2.198
 3918SOL    HW112653   4.383   6.576   2.116
 3918SOL    HW212654   4.511   6.529   2.206
 3919SOL     OW12655   3.106   6.716   6.434
 3919SOL    HW112656   3.158   6.801   6.425
 3919SOL    HW212657   3.030   6.717   6.369
 3920SOL     OW12658   2.817   1.980   6.674
 3920SOL    HW112659   2.837   2.058   6.614
 3920SOL    HW212660   2.900   1.925   6.685
 3921SOL     OW12661   0.557   3.053   0.371
 3921SOL    HW112662   0.563   2.962   0.332
 3921SOL    HW212663   0.501   3.112   0.313
 3922SOL     OW12664   5.556   4.854   0.936
 3922SOL    HW112665   5.559   4.756   0.955
 3922SOL    HW212666   5.648   4.892   0.940
 3923SOL     OW12667   6.152   1.846   6.897
 3923SOL    HW112668   6.135   1.878   6.803
 3923SOL    HW212669   6.109   1.757   6.910
 3924SOL     OW12670   0.515   5.140   3.101
 3924SOL    HW112671   0.476   5.230   3.121
 3924SOL    HW212672   0.441   5.074   3.089
 3925SOL     OW12673   4.313   4.400   0.686
 3925SOL    HW112674   4.328   4.390   0.784
 3925SOL    HW212675   4.239   4.465   0.670
 3926SOL     OW12676   6.912   6.313   3.434
 3926SOL    HW112677   7.001   6.318   3.478
 3926SOL    HW212678   6.888   6.217   3.417
 3927SOL     OW12679   6.778   3.897   4.679
 3927SOL    HW112680   6.780   3.811   4.627
 3927SOL    HW212681   6.865   3.944   4.668
 3928SOL     OW12682   3.348   5.239   4.524
 3928SOL    HW112683   3.265   5.281   4.487
 3928SOL    HW212684   3.340   5.139   4.520
 3929SOL     OW12685   0.194   2.157   6.685
 3929SOL    HW112686   0.243   2.228   6.636
 3929SOL    HW212687   0.109   2.136   6.637
 3930SOL     OW12688   1.592   2.308   3.909
 3930SOL    HW112689   1.568   2.341   4.000
 3930SOL    HW212690   1.659   2.235   3.916
 3931SOL     OW12691   2.433   1.638   2.771
 3931SOL    HW112692   2.407   1.544   2.792
 3931SOL    HW212693   2.423   1.695   2.853
 3932SOL     OW12694   1.580   4.221   3.424
 3932SOL    HW112695   1.566   4.264   3.514
 3932SOL    HW212696   1.535   4.277   3.354
 3933SOL     OW12697   2.103   6.574   6.623
 3933SOL    HW112698   2.154   6.566   6.537
 3933SOL    HW212699   2.068   6.667   6.633
 3934SOL     OW12700   0.471   1.435   1.324
 3934SOL    HW112701   0.512   1.366   1.265
 3934SOL    HW212702   0.421   1.390   1.398
 3935SOL     OW12703   1.938   0.316   4.987
 3935SOL    HW112704   1.918   0.263   5.069
 3935SOL    HW212705   1.869   0.387   4.975
 3936SOL     OW12706   0.060   5.658   5.468
 3936SOL    HW112707   0.005   5.585   5.508
 3936SOL    HW212708   0.009   5.700   5.393
 3937SOL     OW12709   0.566   0.040   2.557
 3937SOL    HW112710   0.525   6.968   2.572
 3937SOL    HW212711   0.586   0.082   2.645
 3938SOL     OW12712   6.406   3.227   3.998
 3938SOL    HW112713   6.419   3.150   4.060
 3938SOL    HW212714   6.479   3.227   3.929
 3939SOL     OW12715   3.269   1.598   3.146
 3939SOL    HW112716   3.296   1.601   3.242
 3939SOL    HW212717   3.315   1.672   3.097
 3940SOL     OW12718   3.919   4.833   2.033
 3940SOL    HW112719   3.827   4.814   2.000
 3940SOL    HW212720   3.916   4.855   2.130
 3941SOL     OW12721   6.072   1.296   5.331
 3941SOL    HW112722   6.113   1.230   5.394
 3941SOL    HW212723   5.975   1.275   5.319
 3942SOL     OW12724   0.912   6.301   5.550
 3942SOL    HW112725   0.888   6.395   5.574
 3942SOL    HW212726   0.875   6.278   5.460
 3943SOL     OW12727   0.684   3.332   2.741
 3943SOL    HW112728   0.623   3.353   2.817
 3943SOL    HW212729   0.773   3.304   2.776
 3944SOL     OW12730   5.321   3.919   5.351
 3944SOL    HW112731   5.394   3.927   5.420
 3944SOL    HW212732   5.235   3.897   5.397
 3945SOL     OW12733   1.060   2.389   2.589
 3945SOL    HW112734   0.971   2.416   2.551
 3945SOL    HW212735   1.048   2.313   2.652
 3946SOL     OW12736   6.153   4.577   5.653
 3946SOL    HW112737   6.158   4.484   5.618
 3946SOL    HW212738   6.167   4.577   5.752
 3947SOL     OW12739   6.063   5.491   1.437
 3947SOL    HW112740   6.158   5.518   1.455
 3947SOL    HW212741   6.003   5.532   1.506
 3948SOL     OW12742   0.403   4.822   0.486
 3948SOL    HW112743   0.489   4.822   0.536
 3948SOL    HW212744   0.333   4.870   0.539
 3949SOL     OW12745   5.384   0.139   2.888
 3949SOL    HW112746   5.376   0.239   2.893
 3949SOL    HW212747   5.293   0.098   2.887
 3950SOL     OW12748   3.153   4.058   1.509
 3950SOL    HW112749   3.066   4.034   1.553
 3950SOL    HW212750   3.135   4.088   1.415
 3951SOL     OW12751   0.287   0.313   6.675
 3951SOL    HW112752   0.290   0.372   6.756
 3951SOL    HW212753   0.257   0.366   6.596
 3952SOL     OW12754   5.742   3.443   4.492
 3952SOL    HW112755   5.823   3.482   4.447
 3952SOL    HW212756   5.662   3.499   4.472
 3953SOL     OW12757   3.357   4.251   0.190
 3953SOL    HW112758   3.286   4.238   0.259
 3953SOL    HW212759   3.440   4.204   0.219
 3954SOL     OW12760   5.857   5.447   5.580
 3954SOL    HW112761   5.791   5.496   5.637
 3954SOL    HW212762   5.889   5.366   5.628
 3955SOL     OW12763   4.643   6.952   0.019
 3955SOL    HW112764   4.557   7.003   0.024
 3955SOL    HW212765   4.637   6.871   0.077
 3956SOL     OW12766   0.998   1.660   3.793
 3956SOL    HW112767   1.022   1.705   3.707
 3956SOL    HW212768   0.921   1.708   3.835
 3957SOL     OW12769   4.205   6.977   3.263
 3957SOL    HW112770   4.239   6.897   3.313
 3957SOL    HW212771   4.251   6.983   3.175
 3958SOL     OW12772   5.315   0.484   6.238
 3958SOL    HW112773   5.266   0.469   6.324
 3958SOL    HW212774   5.265   0.552   6.183
 3959SOL     OW12775   3.711   6.768   0.630
 3959SOL    HW112776   3.620   6.771   0.589
 3959SOL    HW212777   3.734   6.675   0.656
 3960SOL     OW12778   5.455   1.785   6.090
 3960SOL    HW112779   5.464   1.864   6.030
 3960SOL    HW212780   5.516   1.796   6.169
 3961SOL     OW12781   5.642   2.665   2.100
 3961SOL    HW112782   5.700   2.725   2.155
 3961SOL    HW212783   5.555   2.650   2.147
 3962SOL     OW12784   1.915   5.251   6.620
 3962SOL    HW112785   1.886   5.274   6.527
 3962SOL    HW212786   1.904   5.331   6.679
 3963SOL     OW12787   4.537   4.402   3.670
 3963SOL    HW112788   4.537   4.387   3.571
 3963SOL    HW212789   4.461   4.463   3.694
 3964SOL     OW12790   4.549   4.790   4.975
 3964SOL    HW112791   4.590   4.742   4.898
 3964SOL    HW212792   4.531   4.885   4.949
 3965SOL     OW12793   4.047   3.471   6.233
 3965SOL    HW112794   4.076   3.400   6.298
 3965SOL    HW212795   4.007   3.427   6.152
 3966SOL     OW12796   6.388   5.333   0.264
 3966SOL    HW112797   6.322   5.367   0.197
 3966SOL    HW212798   6.438   5.256   0.227
 3967SOL     OW12799   1.645   4.629   2.647
 3967SOL    HW112800   1.642   4.585   2.737
 3967SOL    HW212801   1.558   4.675   2.630
 3968SOL     OW12802   0.076   0.455   1.007
 3968SOL    HW112803   0.152   0.400   1.041
 3968SOL    HW212804   0.082   0.462   0.908
 3969SOL     OW12805   1.221   3.501   2.955
 3969SOL    HW112806   1.218   3.403   2.933
 3969SOL    HW212807   1.259   3.551   2.878
 3970SOL     OW12808   5.028   5.015   3.766
 3970SOL    HW112809   5.025   4.944   3.695
 3970SOL    HW212810   5.005   4.974   3.855
 3971SOL     OW12811   2.613   4.973   2.469
 3971SOL    HW112812   2.692   4.912   2.464
 3971SOL    HW212813   2.589   4.988   2.565
 3972SOL     OW12814   1.378   5.132   1.564
 3972SOL    HW112815   1.465   5.083   1.575
 3972SOL    HW212816   1.310   5.070   1.524
 3973SOL     OW12817   2.140   4.355   5.818
 3973SOL    HW112818   2.204   4.400   5.756
 3973SOL    HW212819   2.160   4.257   5.820
 3974SOL     OW12820   1.565   6.914   5.425
 3974SOL    HW112821   1.583   6.819   5.450
 3974SOL    HW212822   1.488   6.949   5.478
 3975SOL     OW12823   5.347   0.702   6.584
 3975SOL    HW112824   5.297   0.678   6.501
 3975SOL    HW212825   5.444   0.677   6.572
 3976SOL     OW12826   1.703   5.227   1.633
 3976SOL    HW112827   1.625   5.177   1.593
 3976SOL    HW212828   1.786   5.172   1.624
 3977SOL     OW12829   3.068   4.227   5.296
 3977SOL    HW112830   2.972   4.236   5.322
 3977SOL    HW212831   3.075   4.170   5.213
 3978SOL     OW12832   5.629   0.246   4.624
 3978SOL    HW112833   5.641   0.298   4.708
 3978SOL    HW212834   5.660   0.300   4.546
 3979SOL     OW12835   2.413   6.022   1.452
 3979SOL    HW112836   2.404   5.926   1.426
 3979SOL    HW212837   2.413   6.078   1.370
 3980SOL     OW12838   6.732   4.251   6.575
 3980SOL    HW112839   6.790   4.322   6.613
 3980SOL    HW212840   6.760   4.231   6.481
 3981SOL     OW12841   1.764   1.790   6.401
 3981SOL    HW112842   1.723   1.880   6.417
 3981SOL    HW212843   1.859   1.791   6.433
 3982SOL     OW12844   1.871   0.847   4.359
 3982SOL    HW112845   1.970   0.835   4.353
 3982SOL    HW212846   1.828   0.805   4.279
 3983SOL     OW12847   4.240   5.574   3.925
 3983SOL    HW112848   4.252   5.507   3.998
 3983SOL    HW212849   4.293   5.656   3.946
 3984SOL     OW12850   1.519   0.886   2.607
 3984SOL    HW112851   1.546   0.819   2.538
 3984SOL    HW212852   1.597   0.946   2.627
 3985SOL     OW12853   2.930   4.740   6.672
 3985SOL    HW112854   2.973   4.653   6.645
 3985SOL    HW212855   2.981   4.780   6.748
 3986SOL     OW12856   0.359   2.311   3.100
 3986SOL    HW112857   0.264   2.334   3.122
 3986SOL    HW212858   0.416   2.326   3.181
 3987SOL     OW12859   2.460   6.079   4.478
 3987SOL    HW112860   2.460   6.122   4.388
 3987SOL    HW212861   2.381   6.111   4.531
 3988SOL     OW12862   3.228   2.919   6.501
 3988SOL    HW112863   3.244   2.830   6.460
 3988SOL    HW212864   3.217   2.988   6.429
 3989SOL     OW12865   6.267   1.610   0.408
 3989SOL    HW112866   6.250   1.706   0.429
 3989SOL    HW212867   6.259   1.596   0.309
 3990SOL     OW12868   5.850   1.649   3.756
 3990SOL    HW112869   5.796   1.672   3.676
 3990SOL    HW212870   5.870   1.551   3.757
 3991SOL     OW12871   5.876   1.885   2.088
 3991SOL    HW112872   5.946   1.833   2.137
 3991SOL    HW212873   5.892   1.878   1.990
 3992SOL     OW12874   4.046   2.465   6.490
 3992SOL    HW112875   4.012   2.553   6.456
 3992SOL    HW212876   4.136   2.447   6.451
 3993SOL     OW12877   0.586   2.560   3.199
 3993SOL    HW112878   0.633   2.568   3.287
 3993SOL    HW212879   0.652   2.569   3.125
 3994SOL     OW12880   0.935   2.523   5.819
 3994SOL    HW112881   0.841   2.494   5.831
 3994SOL    HW212882   0.966   2.572   5.900
 3995SOL     OW12883   2.074   3.359   4.223
 3995SOL    HW112884   2.049   3.264   4.205
 3995SOL    HW212885   2.091   3.407   4.137
 3996SOL     OW12886   0.690   1.172   4.519
 3996SOL    HW112887   0.648   1.207   4.436
 3996SOL    HW212888   0.676   1.073   4.524
 3997SOL     OW12889   4.893   3.306   2.553
 3997SOL    HW112890   4.980   3.354   2.544
 3997SOL    HW212891   4.875   3.256   2.468
 3998SOL     OW12892   4.976   1.186   2.579
 3998SOL    HW112893   4.879   1.207   2.591
 3998SOL    HW212894   4.994   1.094   2.612
 3999SOL     OW12895   5.230   3.458   3.626
 3999SOL    HW112896   5.262   3.441   3.719
 3999SOL    HW212897   5.306   3.451   3.562
 4000SOL     OW12898   3.026   5.180   2.652
 4000SOL    HW112899   3.083   5.115   2.601
 4000SOL    HW212900   3.078   5.263   2.671
 4001SOL     OW12901   1.371   2.000   3.981
 4001SOL    HW112902   1.326   2.036   3.899
 4001SOL    HW212903   1.459   1.960   3.957
 4002SOL     OW12904   2.807   3.276   0.385
 4002SOL    HW112905   2.859   3.192   0.402
 4002SOL    HW212906   2.826   3.342   0.458
 4003SOL     OW12907   2.635   6.523   5.189
 4003SOL    HW112908   2.612   6.427   5.205
 4003SOL    HW212909   2.696   6.529   5.110
 4004SOL     OW12910   6.503   2.445   4.009
 4004SOL    HW112911   6.443   2.510   3.963
 4004SOL    HW212912   6.453   2.400   4.083
 4005SOL     OW12913   5.058   5.147   0.863
 4005SOL    HW112914   5.158   5.146   0.861
 4005SOL    HW212915   5.023   5.082   0.795
 4006SOL     OW12916   4.196   5.161   2.005
 4006SOL    HW112917   4.173   5.131   2.097
 4006SOL    HW212918   4.237   5.086   1.954
 4007SOL     OW12919   0.633   2.904   1.828
 4007SOL    HW112920   0.600   2.863   1.913
 4007SOL    HW212921   0.558   2.908   1.761
 4008SOL     OW12922   3.179   1.467   4.032
 4008SOL    HW112923   3.172   1.536   4.103
 4008SOL    HW212924   3.232   1.502   3.955
 4009SOL     OW12925   4.794   2.816   0.588
 4009SOL    HW112926   4.781   2.830   0.490
 4009SOL    HW212927   4.706   2.820   0.635
 4010SOL     OW12928   1.787   3.675   1.059
 4010SOL    HW112929   1.856   3.633   1.000
 4010SOL    HW212930   1.832   3.731   1.129
 4011SOL     OW12931   1.005   0.771   1.448
 4011SOL    HW112932   0.958   0.691   1.412
 4011SOL    HW212933   1.057   0.746   1.529
 4012SOL     OW12934   4.320   4.942   1.853
 4012SOL    HW112935   4.342   4.870   1.919
 4012SOL    HW212936   4.404   4.982   1.818
 4013SOL     OW12937   2.792   0.464   0.999
 4013SOL    HW112938   2.757   0.452   0.906
 4013SOL    HW212939   2.822   0.376   1.035
 4014SOL     OW12940   4.497   5.962   3.281
 4014SOL    HW112941   4.562   5.905   3.231
 4014SOL    HW212942   4.407   5.919   3.281
 4015SOL     OW12943   4.351   5.672   6.651
 4015SOL    HW112944   4.343   5.607   6.726
 4015SOL    HW212945   4.444   5.708   6.649
 4016SOL     OW12946   1.618   5.759   6.845
 4016SOL    HW112947   1.554   5.744   6.769
 4016SOL    HW212948   1.635   5.673   6.892
 4017SOL     OW12949   0.288   6.895   6.646
 4017SOL    HW112950   0.198   6.902   6.689
 4017SOL    HW212951   0.284   6.829   6.571
 4018SOL     OW12952   6.033   6.611   2.117
 4018SOL    HW112953   5.938   6.583   2.124
 4018SOL    HW212954   6.039   6.707   2.092
 4019SOL     OW12955   5.900   3.913   2.337
 4019SOL    HW112956   5.979   3.852   2.331
 4019SOL    HW212957   5.816   3.861   2.321
 4020SOL     OW12958   5.884   2.378   5.992
 4020SOL    HW112959   5.809   2.316   6.016
 4020SOL    HW212960   5.970   2.327   5.992
 4021SOL     OW12961   2.902   3.444   5.345
 4021SOL    HW112962   2.908   3.374   5.416
 4021SOL    HW212963   2.836   3.514   5.372
 4022SOL     OW12964   3.977   0.383   0.195
 4022SOL    HW112965   4.059   0.434   0.222
 4022SOL    HW212966   3.994   0.335   0.110
 4023SOL     OW12967   6.800   1.397   4.178
 4023SOL    HW112968   6.891   1.383   4.216
 4023SOL    HW212969   6.784   1.332   4.103
 4024SOL     OW12970   2.667   5.519   4.466
 4024SOL    HW112971   2.616   5.510   4.381
 4024SOL    HW212972   2.758   5.556   4.447
 4025SOL     OW12973   0.742   5.910   5.005
 4025SOL    HW112974   0.829   5.955   4.987
 4025SOL    HW212975   0.678   5.931   4.930
 4026SOL     OW12976   6.603   6.492   3.871
 4026SOL    HW112977   6.506   6.508   3.855
 4026SOL    HW212978   6.632   6.540   3.953
 4027SOL     OW12979   2.980   3.694   2.163
 4027SOL    HW112980   2.998   3.769   2.227
 4027SOL    HW212981   3.016   3.718   2.073
 4028SOL     OW12982   2.019   2.658   3.352
 4028SOL    HW112983   2.013   2.634   3.255
 4028SOL    HW212984   2.097   2.719   3.367
 4029SOL     OW12985   2.786   4.357   6.725
 4029SOL    HW112986   2.808   4.398   6.636
 4029SOL    HW212987   2.748   4.427   6.785
 4030SOL     OW12988   1.573   1.554   6.915
 4030SOL    HW112989   1.651   1.540   6.975
 4030SOL    HW212990   1.491   1.570   6.970
 4031SOL     OW12991   4.690   6.357   3.220
 4031SOL    HW112992   4.744   6.348   3.305
 4031SOL    HW212993   4.602   6.312   3.232
 4032SOL     OW12994   6.453   0.115   3.204
 4032SOL    HW112995   6.493   0.028   3.176
 4032SOL    HW212996   6.503   0.190   3.162
 4033SOL     OW12997   3.158   3.223   2.414
 4033SOL    HW112998   3.082   3.284   2.438
 4033SOL    HW212999   3.229   3.275   2.367
 4034SOL     OW13000   6.805   1.821   4.955
 4034SOL    HW113001   6.899   1.790   4.941
 4034SOL    HW213002   6.764   1.770   5.030
 4035SOL     OW13003   0.319   2.614   0.814
 4035SOL    HW113004   0.358   2.618   0.906
 4035SOL    HW213005   0.220   2.619   0.819
 4036SOL     OW13006   5.012   6.887   2.380
 4036SOL    HW113007   4.972   6.820   2.318
 4036SOL    HW213008   5.033   6.971   2.328
 4037SOL     OW13009   1.892   1.880   0.807
 4037SOL    HW113010   1.911   1.859   0.903
 4037SOL    HW213011   1.794   1.882   0.792
 4038SOL     OW13012   4.427   4.548   1.993
 4038SOL    HW113013   4.336   4.582   1.970
 4038SOL    HW213014   4.432   4.450   1.975
 4039SOL     OW13015   4.811   4.743   1.559
 4039SOL    HW113016   4.816   4.688   1.643
 4039SOL    HW213017   4.901   4.784   1.541
 4040SOL     OW13018   2.851   0.289   5.798
 4040SOL    HW113019   2.786   0.244   5.737
 4040SOL    HW213020   2.924   0.330   5.744
 4041SOL     OW13021   2.444   5.758   1.433
 4041SOL    HW113022   2.483   5.737   1.343
 4041SOL    HW213023   2.435   5.673   1.486
 4042SOL     OW13024   6.332   5.163   2.654
 4042SOL    HW113025   6.384   5.230   2.601
 4042SOL    HW213026   6.336   5.187   2.751
 4043SOL     OW13027   5.075   2.138   3.976
 4043SOL    HW113028   5.076   2.209   4.047
 4043SOL    HW213029   4.987   2.091   3.979
 4044SOL     OW13030   5.137   0.516   4.001
 4044SOL    HW113031   5.047   0.483   4.030
 4044SOL    HW213032   5.190   0.440   3.964
 4045SOL     OW13033   2.860   4.945   6.518
 4045SOL    HW113034   2.907   4.870   6.563
 4045SOL    HW213035   2.761   4.936   6.532
 4046SOL     OW13036   0.570   1.301   3.700
 4046SOL    HW113037   0.525   1.379   3.657
 4046SOL    HW213038   0.522   1.278   3.785
 4047SOL     OW13039   2.642   2.646   0.798
 4047SOL    HW113040   2.681   2.573   0.742
 4047SOL    HW213041   2.562   2.685   0.753
 4048SOL     OW13042   5.644   1.321   2.691
 4048SOL    HW113043   5.568   1.339   2.753
 4048SOL    HW213044   5.640   1.383   2.613
 4049SOL     OW13045   6.116   6.091   0.139
 4049SOL    HW113046   6.194   6.106   0.078
 4049SOL    HW213047   6.037   6.143   0.105
 4050SOL     OW13048   2.106   6.569   0.632
 4050SOL    HW113049   2.033   6.636   0.621
 4050SOL    HW213050   2.194   6.611   0.614
 4051SOL     OW13051   3.519   3.266   0.200
 4051SOL    HW113052   3.545   3.359   0.174
 4051SOL    HW213053   3.593   3.224   0.253
 4052SOL     OW13054   6.876   0.633   1.934
 4052SOL    HW113055   6.829   0.573   1.999
 4052SOL    HW213056   6.829   0.631   1.846
 4053SOL     OW13057   3.147   5.222   3.900
 4053SOL    HW113058   3.149   5.207   3.999
 4053SOL    HW213059   3.240   5.240   3.867
 4054SOL     OW13060   1.112   2.833   1.345
 4054SOL    HW113061   1.021   2.868   1.322
 4054SOL    HW213062   1.159   2.900   1.403
 4055SOL     OW13063   3.792   3.502   5.800
 4055SOL    HW113064   3.793   3.556   5.884
 4055SOL    HW213065   3.765   3.560   5.723
 4056SOL     OW13066   3.974   3.029   0.341
 4056SOL    HW113067   4.057   3.084   0.349
 4056SOL    HW213068   3.961   2.975   0.424
 4057SOL     OW13069   5.126   2.035   1.375
 4057SOL    HW113070   5.032   2.027   1.340
 4057SOL    HW213071   5.190   2.027   1.299
 4058SOL     OW13072   1.479   0.892   4.544
 4058SOL    HW113073   1.464   0.793   4.553
 4058SOL    HW213074   1.536   0.909   4.464
 4059SOL     OW13075   1.204   2.846   3.508
 4059SOL    HW113076   1.170   2.794   3.429
 4059SOL    HW213077   1.262   2.921   3.476
 4060SOL     OW13078   4.694   5.942   4.953
 4060SOL    HW113079   4.761   5.939   5.027
 4060SOL    HW213080   4.721   5.878   4.881
 4061SOL     OW13081   3.322   4.923   1.813
 4061SOL    HW113082   3.337   4.968   1.901
 4061SOL    HW213083   3.379   4.841   1.808
 4062SOL     OW13084   3.365   1.744   2.670
 4062SOL    HW113085   3.425   1.707   2.741
 4062SOL    HW213086   3.270   1.734   2.698
 4063SOL     OW13087   5.509   6.728   5.245
 4063SOL    HW113088   5.497   6.818   5.203
 4063SOL    HW213089   5.429   6.671   5.226
 4064SOL     OW13090   1.751   6.456   3.450
 4064SOL    HW113091   1.761   6.555   3.440
 4064SOL    HW213092   1.684   6.423   3.384
 4065SOL     OW13093   0.812   6.830   0.403
 4065SOL    HW113094   0.829   6.864   0.495
 4065SOL    HW213095   0.894   6.841   0.348
 4066SOL     OW13096   5.381   5.184   2.618
 4066SOL    HW113097   5.429   5.269   2.598
 4066SOL    HW213098   5.419   5.142   2.701
 4067SOL     OW13099   6.119   3.135   2.197
 4067SOL    HW113100   6.159   3.154   2.286
 4067SOL    HW213101   6.127   3.037   2.177
 4068SOL     OW13102   3.419   0.953   4.258
 4068SOL    HW113103   3.372   0.872   4.295
 4068SOL    HW213104   3.463   1.003   4.333
 4069SOL     OW13105   3.974   4.303   6.440
 4069SOL    HW113106   3.955   4.355   6.357
 4069SOL    HW213107   3.895   4.246   6.462
 4070SOL     OW13108   0.986   3.491   2.618
 4070SOL    HW113109   1.066   3.463   2.670
 4070SOL    HW213110   1.015   3.533   2.532
 4071SOL     OW13111   1.150   0.470   5.149
 4071SOL    HW113112   1.213   0.509   5.216
 4071SOL    HW213113   1.058   0.503   5.167
 4072SOL     OW13114   0.678   6.345   4.207
 4072SOL    HW113115   0.733   6.271   4.169
 4072SOL    HW213116   0.686   6.426   4.149
 4073SOL     OW13117   2.450   5.826   6.309
 4073SOL    HW113118   2.450   5.788   6.217
 4073SOL    HW213119   2.448   5.926   6.304
 4074SOL     OW13120   0.986   2.570   2.146
 4074SOL    HW113121   1.012   2.583   2.242
 4074SOL    HW213122   1.043   2.499   2.106
 4075SOL     OW13123   4.181   2.195   2.148
 4075SOL    HW113124   4.108   2.177   2.083
 4075SOL    HW213125   4.238   2.271   2.116
 4076SOL     OW13126   2.359   3.360   5.950
 4076SOL    HW113127   2.261   3.377   5.961
 4076SOL    HW213128   2.382   3.361   5.853
 4077SOL     OW13129   3.319   6.680   6.960
 4077SOL    HW113130   3.310   6.730   6.874
 4077SOL    HW213131   3.333   6.744   0.017
 4078SOL     OW13132   6.864   5.157   1.515
 4078SOL    HW113133   6.845   5.230   1.581
 4078SOL    HW213134   6.861   5.069   1.561
 4079SOL     OW13135   0.531   2.063   3.344
 4079SOL    HW113136   0.576   1.988   3.297
 4079SOL    HW213137   0.583   2.147   3.330
 4080SOL     OW13138   2.776   3.447   0.604
 4080SOL    HW113139   2.706   3.504   0.561
 4080SOL    HW213140   2.747   3.423   0.696
 4081SOL     OW13141   1.562   1.812   3.633
 4081SOL    HW113142   1.532   1.881   3.568
 4081SOL    HW213143   1.572   1.853   3.723
 4082SOL     OW13144   1.424   2.126   0.864
 4082SOL    HW113145   1.418   2.131   0.765
 4082SOL    HW213146   1.336   2.095   0.901
 4083SOL     OW13147   5.897   3.995   3.111
 4083SOL    HW113148   5.994   4.015   3.103
 4083SOL    HW213149   5.884   3.905   3.153
 4084SOL     OW13150   5.009   2.484   3.131
 4084SOL    HW113151   4.940   2.502   3.061
 4084SOL    HW213152   5.025   2.566   3.184
 4085SOL     OW13153   2.589   5.819   0.598
 4085SOL    HW113154   2.533   5.744   0.562
 4085SOL    HW213155   2.560   5.905   0.558
 4086SOL     OW13156   0.014   5.049   1.205
 4086SOL    HW113157   7.010   5.046   1.108
 4086SOL    HW213158   0.002   5.142   1.239
 4087SOL     OW13159   2.324   1.114   2.754
 4087SOL    HW113160   2.396   1.051   2.783
 4087SOL    HW213161   2.297   1.094   2.660
 4088SOL     OW13162   6.559   1.648   6.221
 4088SOL    HW113163   6.602   1.701   6.294
 4088SOL    HW213164   6.516   1.710   6.156
 4089SOL     OW13165   6.361   5.083   4.761
 4089SOL    HW113166   6.277   5.070   4.709
 4089SOL    HW213167   6.425   5.138   4.707
 4090SOL     OW13168   2.107   5.754   5.169
 4090SOL    HW113169   2.197   5.710   5.175
 4090SOL    HW213170   2.118   5.849   5.138
 4091SOL     OW13171   0.710   6.186   0.028
 4091SOL    HW113172   0.619   6.183   7.004
 4091SOL    HW213173   0.703   6.168   0.126
 4092SOL     OW13174   6.027   2.628   3.954
 4092SOL    HW113175   5.994   2.589   3.868
 4092SOL    HW213176   5.956   2.621   4.024
 4093SOL     OW13177   5.343   6.579   1.115
 4093SOL    HW113178   5.340   6.523   1.032
 4093SOL    HW213179   5.399   6.660   1.098
 4094SOL     OW13180   1.240   4.891   6.308
 4094SOL    HW113181   1.174   4.920   6.239
 4094SOL    HW213182   1.289   4.811   6.275
 4095SOL     OW13183   0.865   3.406   0.659
 4095SOL    HW113184   0.786   3.354   0.627
 4095SOL    HW213185   0.949   3.364   0.625
 4096SOL     OW13186   3.493   0.836   6.258
 4096SOL    HW113187   3.431   0.894   6.310
 4096SOL    HW213188   3.587   0.856   6.284
 4097SOL     OW13189   5.213   4.426   5.298
 4097SOL    HW113190   5.128   4.478   5.299
 4097SOL    HW213191   5.216   4.366   5.378
 4098SOL     OW13192   1.145   2.698   1.067
 4098SOL    HW113193   1.077   2.685   0.995
 4098SOL    HW213194   1.100   2.727   1.151
 4099SOL     OW13195   3.352   5.229   0.805
 4099SOL    HW113196   3.304   5.210   0.891
 4099SOL    HW213197   3.308   5.177   0.731
 4100SOL     OW13198   0.626   6.801   4.285
 4100SOL    HW113199   0.716   6.840   4.306
 4100SOL    HW213200   0.561   6.827   4.357
 4101SOL     OW13201   1.013   1.192   6.738
 4101SOL    HW113202   1.079   1.196   6.813
 4101SOL    HW213203   0.945   1.122   6.757
 4102SOL     OW13204   1.832   0.120   0.369
 4102SOL    HW113205   1.913   0.177   0.384
 4102SOL    HW213206   1.765   0.137   0.441
 4103SOL     OW13207   0.357   0.351   2.132
 4103SOL    HW113208   0.293   0.378   2.205
 4103SOL    HW213209   0.381   0.432   2.078
 4104SOL     OW13210   0.490   4.738   3.400
 4104SOL    HW113211   0.417   4.782   3.348
 4104SOL    HW213212   0.453   4.659   3.449
 4105SOL     OW13213   6.422   0.675   2.680
 4105SOL    HW113214   6.362   0.748   2.714
 4105SOL    HW213215   6.394   0.588   2.720
 4106SOL     OW13216   0.357   2.914   3.864
 4106SOL    HW113217   0.310   2.923   3.776
 4106SOL    HW213218   0.291   2.893   3.936
 4107SOL     OW13219   0.676   6.233   0.711
 4107SOL    HW113220   0.671   6.136   0.734
 4107SOL    HW213221   0.669   6.287   0.795
 4108SOL     OW13222   6.148   5.041   4.598
 4108SOL    HW113223   6.054   5.052   4.632
 4108SOL    HW213224   6.158   5.089   4.511
 4109SOL     OW13225   6.060   6.553   4.788
 4109SOL    HW113226   6.008   6.601   4.859
 4109SOL    HW213227   6.157   6.572   4.800
 4110SOL     OW13228   3.983   3.358   5.984
 4110SOL    HW113229   4.073   3.386   5.951
 4110SOL    HW213230   3.913   3.395   5.923
 4111SOL     OW13231   5.777   4.802   6.197
 4111SOL    HW113232   5.768   4.876   6.131
 4111SOL    HW213233   5.814   4.721   6.151
 4112SOL     OW13234   4.517   6.212   4.236
 4112SOL    HW113235   4.524   6.293   4.178
 4112SOL    HW213236   4.551   6.132   4.187
 4113SOL     OW13237   5.479   6.199   4.897
 4113SOL    HW113238   5.426   6.165   4.819
 4113SOL    HW213239   5.444   6.158   4.981
 4114SOL     OW13240   5.559   1.934   3.593
 4114SOL    HW113241   5.590   1.840   3.608
 4114SOL    HW213242   5.633   1.997   3.614
 4115SOL     OW13243   2.920   4.903   3.144
 4115SOL    HW113244   2.995   4.903   3.077
 4115SOL    HW213245   2.954   4.934   3.232
 4116SOL     OW13246   4.218   1.834   3.193
 4116SOL    HW113247   4.304   1.817   3.241
 4116SOL    HW213248   4.164   1.900   3.245
 4117SOL     OW13249   0.907   3.236   2.875
 4117SOL    HW113250   1.000   3.268   2.858
 4117SOL    HW213251   0.907   3.136   2.881
 4118SOL     OW13252   4.997   6.927   7.002
 4118SOL    HW113253   4.926   6.899   6.938
 4118SOL    HW213254   5.069   6.977   6.953
 4119SOL     OW13255   2.952   1.797   3.405
 4119SOL    HW113256   2.942   1.700   3.383
 4119SOL    HW213257   3.036   1.832   3.363
 4120SOL     OW13258   3.145   1.330   5.947
 4120SOL    HW113259   3.051   1.352   5.973
 4120SOL    HW213260   3.173   1.388   5.871
 4121SOL     OW13261   6.611   0.057   3.858
 4121SOL    HW113262   6.678   0.005   3.806
 4121SOL    HW213263   6.571   0.128   3.800
 4122SOL     OW13264   1.259   6.557   4.414
 4122SOL    HW113265   1.201   6.514   4.483
 4122SOL    HW213266   1.324   6.490   4.378
 4123SOL     OW13267   4.204   4.774   5.131
 4123SOL    HW113268   4.178   4.710   5.203
 4123SOL    HW213269   4.174   4.866   5.155
 4124SOL     OW13270   6.911   0.036   0.871
 4124SOL    HW113271   6.943   6.979   0.813
 4124SOL    HW213272   6.904   0.119   0.816
 4125SOL     OW13273   4.326   2.428   3.031
 4125SOL    HW113274   4.232   2.401   3.052
 4125SOL    HW213275   4.345   2.411   2.934
 4126SOL     OW13276   1.627   3.504   3.387
 4126SOL    HW113277   1.704   3.448   3.357
 4126SOL    HW213278   1.641   3.532   3.482
 4127SOL     OW13279   5.291   3.478   4.998
 4127SOL    HW113280   5.328   3.559   5.044
 4127SOL    HW213281   5.242   3.505   4.915
 4128SOL     OW13282   0.659   3.701   1.322
 4128SOL    HW113283   0.574   3.722   1.274
 4128SOL    HW213284   0.654   3.734   1.416
 4129SOL     OW13285   3.063   1.178   0.187
 4129SOL    HW113286   3.065   1.219   0.278
 4129SOL    HW213287   2.991   1.220   0.132
 4130SOL     OW13288   6.082   2.403   0.288
 4130SOL    HW113289   6.121   2.335   0.226
 4130SOL    HW213290   6.150   2.429   0.357
 4131SOL     OW13291   0.325   1.982   3.209
 4131SOL    HW113292   0.398   2.014   3.269
 4131SOL    HW213293   0.353   1.993   3.113
 4132SOL     OW13294   5.137   4.182   3.602
 4132SOL    HW113295   5.155   4.246   3.528
 4132SOL    HW213296   5.135   4.089   3.566
 4133SOL     OW13297   3.467   5.987   1.423
 4133SOL    HW113298   3.526   5.906   1.432
 4133SOL    HW213299   3.371   5.958   1.424
 4134SOL     OW13300   1.872   3.998   0.851
 4134SOL    HW113301   1.913   3.950   0.774
 4134SOL    HW213302   1.897   3.952   0.936
 4135SOL     OW13303   0.432   2.651   1.708
 4135SOL    HW113304   0.369   2.596   1.653
 4135SOL    HW213305   0.526   2.635   1.677
 4136SOL     OW13306   1.321   3.738   3.209
 4136SOL    HW113307   1.328   3.774   3.302
 4136SOL    HW213308   1.317   3.638   3.212
 4137SOL     OW13309   1.823   3.176   0.754
 4137SOL    HW113310   1.903   3.149   0.701
 4137SOL    HW213311   1.819   3.123   0.839
 4138SOL     OW13312   3.661   5.469   2.632
 4138SOL    HW113313   3.710   5.545   2.589
 4138SOL    HW213314   3.727   5.407   2.674
 4139SOL     OW13315   1.475   1.110   4.866
 4139SOL    HW113316   1.452   1.197   4.823
 4139SOL    HW213317   1.558   1.122   4.921
 4140SOL     OW13318   3.488   1.193   4.672
 4140SOL    HW113319   3.539   1.269   4.631
 4140SOL    HW213320   3.411   1.230   4.725
 4141SOL     OW13321   5.493   7.005   1.239
 4141SOL    HW113322   5.514   6.938   1.168
 4141SOL    HW213323   5.432   6.964   1.307
 4142SOL     OW13324   6.418   4.001   0.818
 4142SOL    HW113325   6.326   4.019   0.855
 4142SOL    HW213326   6.486   4.019   0.888
 4143SOL     OW13327   5.739   2.961   1.106
 4143SOL    HW113328   5.797   2.989   1.182
 4143SOL    HW213329   5.755   2.865   1.085
 4144SOL     OW13330   4.997   1.608   0.170
 4144SOL    HW113331   5.095   1.608   0.190
 4144SOL    HW213332   4.977   1.538   0.101
 4145SOL     OW13333   0.751   6.321   1.357
 4145SOL    HW113334   0.790   6.388   1.294
 4145SOL    HW213335   0.825   6.271   1.402
 4146SOL     OW13336   6.733   0.190   3.467
 4146SOL    HW113337   6.651   0.214   3.518
 4146SOL    HW213338   6.780   0.273   3.437
 4147SOL     OW13339   4.440   4.842   5.767
 4147SOL    HW113340   4.506   4.767   5.759
 4147SOL    HW213341   4.483   4.927   5.736
 4148SOL     OW13342   2.742   0.296   4.655
 4148SOL    HW113343   2.720   0.250   4.741
 4148SOL    HW213344   2.742   0.230   4.581
 4149SOL     OW13345   0.104   4.341   1.305
 4149SOL    HW113346   0.188   4.393   1.318
 4149SOL    HW213347   0.064   4.318   1.394
 4150SOL     OW13348   0.389   0.570   5.583
 4150SOL    HW113349   0.364   0.664   5.560
 4150SOL    HW213350   0.360   0.509   5.509
 4151SOL     OW13351   2.828   6.390   5.748
 4151SOL    HW113352   2.775   6.450   5.688
 4151SOL    HW213353   2.773   6.364   5.827
 4152SOL     OW13354   3.918   5.857   1.102
 4152SOL    HW113355   3.916   5.757   1.090
 4152SOL    HW213356   3.879   5.880   1.191
 4153SOL     OW13357   5.782   5.310   1.464
 4153SOL    HW113358   5.744   5.266   1.545
 4153SOL    HW213359   5.708   5.352   1.411
 4154SOL     OW13360   6.938   5.233   4.057
 4154SOL    HW113361   6.873   5.280   3.999
 4154SOL    HW213362   6.904   5.141   4.079
 4155SOL     OW13363   0.124   0.888   1.087
 4155SOL    HW113364   0.152   0.983   1.080
 4155SOL    HW213365   0.204   0.831   1.106
 4156SOL     OW13366   6.094   5.509   5.478
 4156SOL    HW113367   5.999   5.480   5.492
 4156SOL    HW213368   6.102   5.607   5.495
 4157SOL     OW13369   5.386   5.591   3.831
 4157SOL    HW113370   5.362   5.516   3.893
 4157SOL    HW213371   5.403   5.554   3.740
 4158SOL     OW13372   0.762   3.049   2.305
 4158SOL    HW113373   0.779   3.127   2.366
 4158SOL    HW213374   0.755   2.966   2.359
 4159SOL     OW13375   1.568   3.307   3.026
 4159SOL    HW113376   1.659   3.288   3.064
 4159SOL    HW213377   1.572   3.389   2.970
 4160SOL     OW13378   5.412   0.203   6.902
 4160SOL    HW113379   5.473   0.230   6.828
 4160SOL    HW213380   5.462   0.146   6.968
 4161SOL     OW13381   1.129   2.073   0.991
 4161SOL    HW113382   1.063   2.142   0.963
 4161SOL    HW213383   1.168   2.097   1.079
 4162SOL     OW13384   5.973   6.281   0.533
 4162SOL    HW113385   5.889   6.276   0.588
 4162SOL    HW213386   6.041   6.337   0.581
 4163SOL     OW13387   5.096   0.580   3.743
 4163SOL    HW113388   5.067   0.490   3.712
 4163SOL    HW213389   5.121   0.575   3.840
 4164SOL     OW13390   1.338   6.984   4.767
 4164SOL    HW113391   1.352   6.923   4.690
 4164SOL    HW213392   1.265   0.031   4.745
 4165SOL     OW13393   4.041   0.411   5.616
 4165SOL    HW113394   4.063   0.324   5.572
 4165SOL    HW213395   3.945   0.434   5.597
 4166SOL     OW13396   5.476   1.088   0.755
 4166SOL    HW113397   5.532   1.031   0.695
 4166SOL    HW213398   5.387   1.044   0.770
 4167SOL     OW13399   3.195   3.799   6.948
 4167SOL    HW113400   3.237   3.889   6.961
 4167SOL    HW213401   3.245   3.731   7.001
 4168SOL     OW13402   0.192   4.010   1.253
 4168SOL    HW113403   0.239   4.097   1.264
 4168SOL    HW213404   0.222   3.966   1.168
 4169SOL     OW13405   6.551   5.315   4.635
 4169SOL    HW113406   6.482   5.384   4.659
 4169SOL    HW213407   6.629   5.361   4.592
 4170SOL     OW13408   4.597   3.108   6.007
 4170SOL    HW113409   4.512   3.056   6.000
 4170SOL    HW213410   4.584   3.197   5.963
 4171SOL     OW13411   6.010   5.769   0.838
 4171SOL    HW113412   6.057   5.697   0.788
 4171SOL    HW213413   6.075   5.818   0.896
 4172SOL     OW13414   2.032   1.541   6.598
 4172SOL    HW113415   2.126   1.541   6.631
 4172SOL    HW213416   2.009   1.449   6.564
 4173SOL     OW13417   5.527   3.861   4.644
 4173SOL    HW113418   5.616   3.840   4.604
 4173SOL    HW213419   5.540   3.891   4.739
 4174SOL     OW13420   4.697   1.244   2.337
 4174SOL    HW113421   4.735   1.242   2.429
 4174SOL    HW213422   4.599   1.224   2.341
 4175SOL     OW13423   1.683   4.770   4.190
 4175SOL    HW113424   1.638   4.682   4.176
 4175SOL    HW213425   1.645   4.838   4.127
 4176SOL     OW13426   3.930   6.417   1.449
 4176SOL    HW113427   3.854   6.424   1.384
 4176SOL    HW213428   3.977   6.330   1.437
 4177SOL     OW13429   5.821   4.760   5.779
 4177SOL    HW113430   5.838   4.780   5.683
 4177SOL    HW213431   5.823   4.661   5.793
 4178SOL     OW13432   4.270   6.350   4.264
 4178SOL    HW113433   4.292   6.324   4.170
 4178SOL    HW213434   4.187   6.302   4.293
 4179SOL     OW13435   5.426   3.676   3.240
 4179SOL    HW113436   5.461   3.586   3.214
 4179SOL    HW213437   5.327   3.678   3.228
 4180SOL     OW13438   4.252   3.323   0.766
 4180SOL    HW113439   4.284   3.381   0.691
 4180SOL    HW213440   4.327   3.306   0.830
 4181SOL     OW13441   4.103   0.993   6.912
 4181SOL    HW113442   4.111   1.092   6.916
 4181SOL    HW213443   4.006   0.968   6.908
 4182SOL     OW13444   0.600   5.774   3.410
 4182SOL    HW113445   0.681   5.827   3.435
 4182SOL    HW213446   0.597   5.763   3.310
 4183SOL     OW13447   2.678   1.558   6.966
 4183SOL    HW113448   2.595   1.520   6.924
 4183SOL    HW213449   2.706   1.640   6.916
 4184SOL     OW13450   3.202   6.942   2.599
 4184SOL    HW113451   3.134   6.876   2.568
 4184SOL    HW213452   3.196   6.952   2.698
 4185SOL     OW13453   1.098   4.445   2.886
 4185SOL    HW113454   1.056   4.354   2.882
 4185SOL    HW213455   1.158   4.458   2.807
 4186SOL     OW13456   2.571   4.884   6.546
 4186SOL    HW113457   2.540   4.864   6.639
 4186SOL    HW213458   2.507   4.948   6.503
 4187SOL     OW13459   3.687   3.665   5.587
 4187SOL    HW113460   3.690   3.755   5.629
 4187SOL    HW213461   3.603   3.657   5.532
 4188SOL     OW13462   5.340   0.823   5.563
 4188SOL    HW113463   5.376   0.774   5.484
 4188SOL    HW213464   5.302   0.911   5.532
 4189SOL     OW13465   2.928   5.118   4.649
 4189SOL    HW113466   2.945   5.019   4.644
 4189SOL    HW213467   2.943   5.149   4.743
 4190SOL     OW13468   0.808   0.781   0.885
 4190SOL    HW113469   0.881   0.844   0.861
 4190SOL    HW213470   0.747   0.769   0.806
 4191SOL     OW13471   4.854   4.364   3.750
 4191SOL    HW113472   4.786   4.361   3.823
 4191SOL    HW213473   4.832   4.438   3.686
 4192SOL     OW13474   0.874   1.427   3.785
 4192SOL    HW113475   0.791   1.455   3.737
 4192SOL    HW213476   0.937   1.504   3.791
 4193SOL     OW13477   6.444   0.779   0.789
 4193SOL    HW113478   6.525   0.831   0.818
 4193SOL    HW213479   6.463   0.681   0.798
 4194SOL     OW13480   5.346   6.991   4.814
 4194SOL    HW113481   5.398   6.956   4.737
 4194SOL    HW213482   5.289   6.919   4.851
 4195SOL     OW13483   3.838   6.363   1.098
 4195SOL    HW113484   3.814   6.449   1.144
 4195SOL    HW213485   3.898   6.383   1.020
 4196SOL     OW13486   6.193   2.642   2.546
 4196SOL    HW113487   6.104   2.672   2.511
 4196SOL    HW213488   6.179   2.595   2.634
 4197SOL     OW13489   4.853   5.304   5.915
 4197SOL    HW113490   4.905   5.228   5.876
 4197SOL    HW213491   4.781   5.331   5.850
 4198SOL     OW13492   6.286   1.939   0.524
 4198SOL    HW113493   6.324   2.030   0.542
 4198SOL    HW213494   6.361   1.876   0.504
 4199SOL     OW13495   1.844   1.984   6.087
 4199SOL    HW113496   1.801   1.895   6.100
 4199SOL    HW213497   1.937   1.983   6.124
 4200SOL     OW13498   3.187   0.642   5.960
 4200SOL    HW113499   3.274   0.617   6.003
 4200SOL    HW213500   3.148   0.721   6.007
 4201SOL     OW13501   5.992   6.546   3.579
 4201SOL    HW113502   6.063   6.617   3.582
 4201SOL    HW213503   5.932   6.557   3.658
 4202SOL     OW13504   3.798   5.569   5.865
 4202SOL    HW113505   3.787   5.667   5.855
 4202SOL    HW213506   3.866   5.536   5.799
 4203SOL     OW13507   3.437   4.526   6.778
 4203SOL    HW113508   3.465   4.464   6.705
 4203SOL    HW213509   3.439   4.620   6.743
 4204SOL     OW13510   4.065   3.600   3.651
 4204SOL    HW113511   4.080   3.504   3.627
 4204SOL    HW213512   4.063   3.655   3.568
 4205SOL     OW13513   4.054   6.168   3.448
 4205SOL    HW113514   4.009   6.163   3.537
 4205SOL    HW213515   4.145   6.209   3.459
 4206SOL     OW13516   6.613   0.569   5.526
 4206SOL    HW113517   6.633   0.502   5.454
 4206SOL    HW213518   6.567   0.523   5.602
 4207SOL     OW13519   1.836   1.650   1.649
 4207SOL    HW113520   1.847   1.553   1.626
 4207SOL    HW213521   1.807   1.701   1.568
 4208SOL     OW13522   0.140   3.360   5.276
 4208SOL    HW113523   0.169   3.378   5.182
 4208SOL    HW213524   0.164   3.437   5.334
 4209SOL     OW13525   6.723   0.453   3.749
 4209SOL    HW113526   6.651   0.388   3.725
 4209SOL    HW213527   6.796   0.405   3.797
 4210SOL     OW13528   3.997   3.105   2.091
 4210SOL    HW113529   4.011   3.020   2.040
 4210SOL    HW213530   3.926   3.091   2.160
 4211SOL     OW13531   4.300   6.945   6.274
 4211SOL    HW113532   4.236   6.870   6.293
 4211SOL    HW213533   4.265   7.001   6.199
 4212SOL     OW13534   6.432   1.664   2.719
 4212SOL    HW113535   6.506   1.725   2.691
 4212SOL    HW213536   6.380   1.636   2.639
 4213SOL     OW13537   2.132   0.583   1.662
 4213SOL    HW113538   2.062   0.555   1.728
 4213SOL    HW213539   2.095   0.655   1.603
 4214SOL     OW13540   1.171   4.962   5.609
 4214SOL    HW113541   1.079   4.928   5.630
 4214SOL    HW213542   1.167   5.061   5.593
 4215SOL     OW13543   5.171   0.285   5.712
 4215SOL    HW113544   5.128   0.195   5.702
 4215SOL    HW213545   5.170   0.332   5.623
 4216SOL     OW13546   1.755   1.287   2.857
 4216SOL    HW113547   1.691   1.364   2.860
 4216SOL    HW213548   1.849   1.321   2.848
 4217SOL     OW13549   1.279   0.766   2.432
 4217SOL    HW113550   1.347   0.829   2.468
 4217SOL    HW213551   1.188   0.799   2.455
 4218SOL     OW13552   4.165   1.118   1.847
 4218SOL    HW113553   4.073   1.123   1.810
 4218SOL    HW213554   4.176   1.032   1.898
 4219SOL     OW13555   3.705   6.258   3.883
 4219SOL    HW113556   3.773   6.288   3.951
 4219SOL    HW213557   3.723   6.163   3.858
 4220SOL     OW13558   6.467   3.240   3.419
 4220SOL    HW113559   6.422   3.188   3.491
 4220SOL    HW213560   6.518   3.316   3.459
 4221SOL     OW13561   5.446   4.999   6.188
 4221SOL    HW113562   5.390   5.072   6.149
 4221SOL    HW213563   5.506   4.963   6.117
 4222SOL     OW13564   0.161   2.164   2.621
 4222SOL    HW113565   0.104   2.175   2.539
 4222SOL    HW213566   0.102   2.148   2.700
 4223SOL     OW13567   3.341   3.172   6.774
 4223SOL    HW113568   3.394   3.254   6.795
 4223SOL    HW213569   3.345   3.108   6.852
 4224SOL     OW13570   4.693   4.265   4.232
 4224SOL    HW113571   4.734   4.207   4.302
 4224SOL    HW213572   4.684   4.213   4.147
 4225SOL     OW13573   3.216   1.943   5.840
 4225SOL    HW113574   3.138   1.892   5.877
 4225SOL    HW213575   3.205   1.952   5.741
 4226SOL     OW13576   1.252   0.627   2.174
 4226SOL    HW113577   1.158   0.641   2.144
 4226SOL    HW213578   1.277   0.696   2.242
 4227SOL     OW13579   3.899   5.121   1.384
 4227SOL    HW113580   3.834   5.185   1.344
 4227SOL    HW213581   3.992   5.158   1.377
 4228SOL     OW13582   1.020   4.816   5.206
 4228SOL    HW113583   0.943   4.781   5.153
 4228SOL    HW213584   0.989   4.841   5.297
 4229SOL     OW13585   5.019   6.045   6.051
 4229SOL    HW113586   4.933   6.015   6.008
 4229SOL    HW213587   5.008   6.044   6.150
 4230SOL     OW13588   0.979   5.987   2.676
 4230SOL    HW113589   0.995   5.926   2.754
 4230SOL    HW213590   0.935   6.070   2.708
 4231SOL     OW13591   5.771   0.020   5.126
 4231SOL    HW113592   5.759   0.111   5.165
 4231SOL    HW213593   5.859   7.000   5.155
 4232SOL     OW13594   0.468   4.873   2.954
 4232SOL    HW113595   0.534   4.898   3.025
 4232SOL    HW213596   0.492   4.919   2.868
 4233SOL     OW13597   0.351   0.250   6.074
 4233SOL    HW113598   0.286   0.197   6.130
 4233SOL    HW213599   0.304   0.284   5.993
 4234SOL     OW13600   2.156   6.065   4.523
 4234SOL    HW113601   2.182   5.970   4.507
 4234SOL    HW213602   2.130   6.078   4.618
 4235SOL     OW13603   5.328   3.961   5.702
 4235SOL    HW113604   5.364   3.868   5.712
 4235SOL    HW213605   5.392   4.016   5.648
 4236SOL     OW13606   6.768   3.682   2.569
 4236SOL    HW113607   6.705   3.616   2.611
 4236SOL    HW213608   6.852   3.686   2.624
 4237SOL     OW13609   5.333   5.878   2.747
 4237SOL    HW113610   5.335   5.928   2.660
 4237SOL    HW213611   5.243   5.838   2.761
 4238SOL     OW13612   2.760   5.996   2.815
 4238SOL    HW113613   2.845   5.945   2.827
 4238SOL    HW213614   2.693   5.966   2.883
 4239SOL     OW13615   6.264   2.270   2.514
 4239SOL    HW113616   6.205   2.214   2.456
 4239SOL    HW213617   6.229   2.363   2.518
 4240SOL     OW13618   2.558   5.790   0.100
 4240SOL    HW113619   2.622   5.833   0.037
 4240SOL    HW213620   2.510   5.716   0.054
 4241SOL     OW13621   6.311   0.562   0.245
 4241SOL    HW113622   6.257   0.556   0.161
 4241SOL    HW213623   6.268   0.624   0.309
 4242SOL     OW13624   2.934   1.371   3.777
 4242SOL    HW113625   2.923   1.302   3.705
 4242SOL    HW213626   2.986   1.331   3.852
 4243SOL     OW13627   6.607   2.860   3.345
 4243SOL    HW113628   6.624   2.762   3.350
 4243SOL    HW213629   6.688   2.910   3.374
 4244SOL     OW13630   4.481   4.307   1.385
 4244SOL    HW113631   4.449   4.214   1.408
 4244SOL    HW213632   4.518   4.350   1.466
 4245SOL     OW13633   0.320   1.244   6.475
 4245SOL    HW113634   0.273   1.181   6.537
 4245SOL    HW213635   0.418   1.225   6.477
 4246SOL     OW13636   6.709   4.015   3.422
 4246SOL    HW113637   6.680   4.051   3.511
 4246SOL    HW213638   6.654   3.936   3.398
 4247SOL     OW13639   2.930   5.720   3.536
 4247SOL    HW113640   2.937   5.696   3.439
 4247SOL    HW213641   3.013   5.692   3.584
 4248SOL     OW13642   3.353   1.795   2.985
 4248SOL    HW113643   3.320   1.883   3.021
 4248SOL    HW213644   3.453   1.795   2.984
 4249SOL     OW13645   5.443   2.337   3.535
 4249SOL    HW113646   5.450   2.270   3.608
 4249SOL    HW213647   5.377   2.307   3.467
 4250SOL     OW13648   6.054   4.579   2.851
 4250SOL    HW113649   5.996   4.607   2.928
 4250SOL    HW213650   6.147   4.611   2.866
 4251SOL     OW13651   5.199   4.575   1.810
 4251SOL    HW113652   5.157   4.647   1.865
 4251SOL    HW213653   5.134   4.500   1.799
 4252SOL     OW13654   5.221   6.973   6.593
 4252SOL    HW113655   5.153   6.929   6.535
 4252SOL    HW213656   5.287   0.005   6.536
 4253SOL     OW13657   3.336   0.124   0.981
 4253SOL    HW113658   3.346   0.053   1.050
 4253SOL    HW213659   3.398   0.200   1.002
 4254SOL     OW13660   0.858   3.470   1.771
 4254SOL    HW113661   0.762   3.445   1.770
 4254SOL    HW213662   0.887   3.498   1.680
 4255SOL     OW13663   6.936   4.123   3.910
 4255SOL    HW113664   6.914   4.210   3.954
 4255SOL    HW213665   0.002   4.086   3.949
 4256SOL     OW13666   1.854   6.535   0.870
 4256SOL    HW113667   1.802   6.517   0.786
 4256SOL    HW213668   1.887   6.449   0.908
 4257SOL     OW13669   2.704   0.481   4.361
 4257SOL    HW113670   2.713   0.392   4.405
 4257SOL    HW213671   2.747   0.551   4.418
 4258SOL     OW13672   4.475   6.106   0.866
 4258SOL    HW113673   4.454   6.067   0.777
 4258SOL    HW213674   4.409   6.179   0.888
 4259SOL     OW13675   2.706   0.726   0.649
 4259SOL    HW113676   2.681   0.819   0.676
 4259SOL    HW213677   2.706   0.719   0.549
 4260SOL     OW13678   5.842   0.195   1.492
 4260SOL    HW113679   5.826   0.232   1.400
 4260SOL    HW213680   5.757   0.156   1.527
 4261SOL     OW13681   1.801   0.182   3.019
 4261SOL    HW113682   1.853   0.128   3.085
 4261SOL    HW213683   1.767   0.123   2.946
 4262SOL     OW13684   0.687   4.841   6.254
 4262SOL    HW113685   0.688   4.887   6.342
 4262SOL    HW213686   0.770   4.787   6.243
 4263SOL     OW13687   3.200   6.694   3.023
 4263SOL    HW113688   3.298   6.689   3.003
 4263SOL    HW213689   3.186   6.692   3.122
 4264SOL     OW13690   0.076   2.450   2.682
 4264SOL    HW113691   0.117   2.506   2.610
 4264SOL    HW213692   0.112   2.357   2.676
 4265SOL     OW13693   4.629   1.624   1.326
 4265SOL    HW113694   4.530   1.606   1.330
 4265SOL    HW213695   4.678   1.537   1.327
 4266SOL     OW13696   1.967   5.238   0.350
 4266SOL    HW113697   2.026   5.170   0.307
 4266SOL    HW213698   1.934   5.302   0.281
 4267SOL     OW13699   1.733   3.012   3.818
 4267SOL    HW113700   1.640   2.980   3.837
 4267SOL    HW213701   1.771   3.056   3.899
 4268SOL     OW13702   1.374   6.024   0.291
 4268SOL    HW113703   1.392   6.040   0.194
 4268SOL    HW213704   1.281   5.989   0.302
 4269SOL     OW13705   2.997   0.674   2.234
 4269SOL    HW113706   2.922   0.653   2.296
 4269SOL    HW213707   3.083   0.676   2.285
 4270SOL     OW13708   4.143   3.499   3.374
 4270SOL    HW113709   4.232   3.461   3.349
 4270SOL    HW213710   4.071   3.438   3.342
 4271SOL     OW13711   6.460   1.203   0.034
 4271SOL    HW113712   6.419   1.281   0.082
 4271SOL    HW213713   6.402   1.123   0.044
 4272SOL     OW13714   6.473   2.580   4.524
 4272SOL    HW113715   6.569   2.579   4.495
 4272SOL    HW213716   6.468   2.598   4.622
 4273SOL     OW13717   4.706   6.621   4.684
 4273SOL    HW113718   4.750   6.543   4.729
 4273SOL    HW213719   4.704   6.606   4.585
 4274SOL     OW13720   0.821   6.120   1.840
 4274SOL    HW113721   0.866   6.088   1.757
 4274SOL    HW213722   0.886   6.176   1.893
 4275SOL     OW13723   6.560   1.813   4.567
 4275SOL    HW113724   6.475   1.850   4.530
 4275SOL    HW213725   6.541   1.731   4.620
 4276SOL     OW13726   1.532   4.361   3.668
 4276SOL    HW113727   1.504   4.318   3.754
 4276SOL    HW213728   1.631   4.350   3.656
 4277SOL     OW13729   6.427   4.615   3.368
 4277SOL    HW113730   6.358   4.584   3.434
 4277SOL    HW213731   6.481   4.537   3.338
 4278SOL     OW13732   6.596   0.234   4.236
 4278SOL    HW113733   6.530   0.203   4.168
 4278SOL    HW213734   6.622   0.157   4.295
 4279SOL     OW13735   3.142   0.650   3.969
 4279SOL    HW113736   3.205   0.711   4.018
 4279SOL    HW213737   3.080   0.705   3.912
 4280SOL     OW13738   4.462   0.521   5.481
 4280SOL    HW113739   4.522   0.588   5.438
 4280SOL    HW213740   4.477   0.431   5.440
 4281SOL     OW13741   0.438   4.349   3.725
 4281SOL    HW113742   0.430   4.297   3.640
 4281SOL    HW213743   0.363   4.325   3.787
 4282SOL     OW13744   3.046   4.219   5.948
 4282SOL    HW113745   3.100   4.266   5.878
 4282SOL    HW213746   3.043   4.121   5.926
 4283SOL     OW13747   0.944   1.096   3.463
 4283SOL    HW113748   0.866   1.043   3.430
 4283SOL    HW213749   0.912   1.168   3.525
 4284SOL     OW13750   3.896   4.792   1.153
 4284SOL    HW113751   3.799   4.770   1.145
 4284SOL    HW213752   3.915   4.826   1.245
 4285SOL     OW13753   1.132   0.476   5.602
 4285SOL    HW113754   1.154   0.525   5.686
 4285SOL    HW213755   1.206   0.487   5.536
 4286SOL     OW13756   4.584   6.874   6.301
 4286SOL    HW113757   4.584   6.776   6.282
 4286SOL    HW213758   4.494   6.912   6.279
 4287SOL     OW13759   5.575   2.036   6.446
 4287SOL    HW113760   5.642   2.078   6.384
 4287SOL    HW213761   5.504   2.103   6.469
 4288SOL     OW13762   6.838   5.541   3.882
 4288SOL    HW113763   6.753   5.515   3.837
 4288SOL    HW213764   6.821   5.560   3.978
 4289SOL     OW13765   6.715   3.226   6.476
 4289SOL    HW113766   6.713   3.306   6.416
 4289SOL    HW213767   6.663   3.152   6.433
 4290SOL     OW13768   1.267   6.554   2.992
 4290SOL    HW113769   1.171   6.542   3.019
 4290SOL    HW213770   1.271   6.596   2.902
 4291SOL     OW13771   4.718   3.613   0.778
 4291SOL    HW113772   4.704   3.619   0.680
 4291SOL    HW213773   4.741   3.518   0.802
 4292SOL     OW13774   5.525   2.991   0.365
 4292SOL    HW113775   5.591   2.916   0.365
 4292SOL    HW213776   5.518   3.029   0.457
 4293SOL     OW13777   2.531   3.685   0.473
 4293SOL    HW113778   2.487   3.595   0.470
 4293SOL    HW213779   2.629   3.675   0.457
 4294SOL     OW13780   2.156   2.485   6.659
 4294SOL    HW113781   2.163   2.568   6.713
 4294SOL    HW213782   2.242   2.434   6.665
 4295SOL     OW13783   4.185   5.893   4.732
 4295SOL    HW113784   4.105   5.838   4.759
 4295SOL    HW213785   4.226   5.853   4.650
 4296SOL     OW13786   3.018   0.026   0.658
 4296SOL    HW113787   2.967   0.047   0.575
 4296SOL    HW213788   3.030   6.946   0.666
 4297SOL     OW13789   5.057   0.524   7.009
 4297SOL    HW113790   5.103   0.439   0.018
 4297SOL    HW213791   5.108   0.566   6.934
 4298SOL     OW13792   3.859   5.061   0.120
 4298SOL    HW113793   3.765   5.092   0.104
 4298SOL    HW213794   3.860   4.961   0.128
 4299SOL     OW13795   0.745   2.729   6.656
 4299SOL    HW113796   0.817   2.691   6.714
 4299SOL    HW213797   0.702   2.656   6.603
 4300SOL     OW13798   3.443   6.525   0.302
 4300SOL    HW113799   3.525   6.481   0.340
 4300SOL    HW213800   3.459   6.623   0.293
 4301SOL     OW13801   3.930   1.610   1.563
 4301SOL    HW113802   3.918   1.709   1.572
 4301SOL    HW213803   3.863   1.574   1.498
 4302SOL     OW13804   1.289   6.850   6.604
 4302SOL    HW113805   1.262   6.826   6.510
 4302SOL    HW213806   1.242   6.790   6.668
 4303SOL     OW13807   0.205   4.445   4.159
 4303SOL    HW113808   0.214   4.401   4.070
 4303SOL    HW213809   0.291   4.492   4.181
 4304SOL     OW13810   3.149   3.944   3.197
 4304SOL    HW113811   3.236   3.968   3.240
 4304SOL    HW213812   3.163   3.869   3.133
 4305SOL     OW13813   0.129   6.808   5.119
 4305SOL    HW113814   0.116   6.830   5.216
 4305SOL    HW213815   0.218   6.764   5.106
 4306SOL     OW13816   5.628   4.155   5.693
 4306SOL    HW113817   5.672   4.071   5.723
 4306SOL    HW213818   5.671   4.233   5.739
 4307SOL     OW13819   4.848   4.036   5.730
 4307SOL    HW113820   4.917   3.965   5.717
 4307SOL    HW213821   4.793   4.046   5.646
 4308SOL     OW13822   6.290   4.765   0.461
 4308SOL    HW113823   6.359   4.694   0.470
 4308SOL    HW213824   6.230   4.765   0.541
 4309SOL     OW13825   1.108   1.379   0.365
 4309SOL    HW113826   1.094   1.298   0.308
 4309SOL    HW213827   1.191   1.366   0.419
 4310SOL     OW13828   1.391   2.741   2.098
 4310SOL    HW113829   1.324   2.679   2.058
 4310SOL    HW213830   1.472   2.745   2.039
 4311SOL     OW13831   2.093   5.868   2.783
 4311SOL    HW113832   2.153   5.802   2.828
 4311SOL    HW213833   2.114   5.960   2.815
 4312SOL     OW13834   1.965   5.068   1.248
 4312SOL    HW113835   1.903   5.132   1.203
 4312SOL    HW213836   2.046   5.055   1.191
 4313SOL     OW13837   4.537   1.443   1.740
 4313SOL    HW113838   4.609   1.481   1.797
 4313SOL    HW213839   4.476   1.516   1.710
 4314SOL     OW13840   6.222   1.419   4.343
 4314SOL    HW113841   6.153   1.473   4.391
 4314SOL    HW213842   6.184   1.328   4.322
 4315SOL     OW13843   2.221   6.344   2.461
 4315SOL    HW113844   2.255   6.280   2.393
 4315SOL    HW213845   2.291   6.412   2.483
 4316SOL     OW13846   5.582   0.497   1.846
 4316SOL    HW113847   5.610   0.474   1.939
 4316SOL    HW213848   5.590   0.416   1.788
 4317SOL     OW13849   4.808   2.524   4.619
 4317SOL    HW113850   4.782   2.576   4.700
 4317SOL    HW213851   4.755   2.556   4.540
 4318SOL     OW13852   0.985   3.712   5.010
 4318SOL    HW113853   1.038   3.628   4.993
 4318SOL    HW213854   1.029   3.766   5.082
 4319SOL     OW13855   2.022   1.926   1.660
 4319SOL    HW113856   1.961   1.859   1.703
 4319SOL    HW213857   2.117   1.896   1.671
 4320SOL     OW13858   5.443   5.200   0.291
 4320SOL    HW113859   5.406   5.291   0.306
 4320SOL    HW213860   5.407   5.138   0.361
 4321SOL     OW13861   0.162   6.475   5.053
 4321SOL    HW113862   0.067   6.459   5.024
 4321SOL    HW213863   0.224   6.453   4.977
 4322SOL     OW13864   6.125   2.473   6.652
 4322SOL    HW113865   6.064   2.552   6.641
 4322SOL    HW213866   6.080   2.403   6.706
 4323SOL     OW13867   4.664   3.899   1.263
 4323SOL    HW113868   4.740   3.965   1.266
 4323SOL    HW213869   4.648   3.871   1.169
 4324SOL     OW13870   5.647   4.423   6.684
 4324SOL    HW113871   5.587   4.503   6.674
 4324SOL    HW213872   5.645   4.391   6.778
 4325SOL     OW13873   2.472   0.889   1.577
 4325SOL    HW113874   2.568   0.915   1.566
 4325SOL    HW213875   2.415   0.972   1.581
 4326SOL     OW13876   4.946   4.862   3.984
 4326SOL    HW113877   4.919   4.913   4.066
 4326SOL    HW213878   5.030   4.811   4.003
 4327SOL     OW13879   6.014   6.129   1.602
 4327SOL    HW113880   6.034   6.220   1.641
 4327SOL    HW213881   5.937   6.137   1.539
 4328SOL     OW13882   4.660   3.968   5.501
 4328SOL    HW113883   4.643   4.053   5.451
 4328SOL    HW213884   4.685   3.896   5.435
 4329SOL     OW13885   4.550   1.526   5.781
 4329SOL    HW113886   4.608   1.524   5.700
 4329SOL    HW213887   4.454   1.514   5.755
 4330SOL     OW13888   2.401   6.589   4.240
 4330SOL    HW113889   2.312   6.546   4.255
 4330SOL    HW213890   2.388   6.683   4.209
 4331SOL     OW13891   5.649   1.240   2.000
 4331SOL    HW113892   5.673   1.334   2.024
 4331SOL    HW213893   5.566   1.213   2.048
 4332SOL     OW13894   5.578   3.360   2.031
 4332SOL    HW113895   5.599   3.335   2.126
 4332SOL    HW213896   5.479   3.354   2.016
 4333SOL     OW13897   3.535   0.940   4.644
 4333SOL    HW113898   3.507   0.907   4.734
 4333SOL    HW213899   3.522   1.039   4.640
 4334SOL     OW13900   1.297   2.721   2.374
 4334SOL    HW113901   1.341   2.736   2.286
 4334SOL    HW213902   1.328   2.791   2.439
 4335SOL     OW13903   3.317   3.302   2.773
 4335SOL    HW113904   3.221   3.278   2.791
 4335SOL    HW213905   3.320   3.391   2.727
 4336SOL     OW13906   3.186   6.284   6.657
 4336SOL    HW113907   3.242   6.253   6.580
 4336SOL    HW213908   3.116   6.347   6.625
 4337SOL     OW13909   0.536   4.328   1.046
 4337SOL    HW113910   0.577   4.419   1.042
 4337SOL    HW213911   0.540   4.294   1.140
 4338SOL     OW13912   6.151   6.686   5.200
 4338SOL    HW113913   6.076   6.621   5.190
 4338SOL    HW213914   6.167   6.704   5.297
 4339SOL     OW13915   5.473   3.550   5.473
 4339SOL    HW113916   5.559   3.575   5.427
 4339SOL    HW213917   5.444   3.459   5.443
 4340SOL     OW13918   6.643   2.474   1.632
 4340SOL    HW113919   6.706   2.533   1.683
 4340SOL    HW213920   6.551   2.514   1.633
 4341SOL     OW13921   0.300   6.184   2.353
 4341SOL    HW113922   0.331   6.167   2.447
 4341SOL    HW213923   0.299   6.098   2.302
 4342SOL     OW13924   5.987   4.224   3.588
 4342SOL    HW113925   6.087   4.223   3.593
 4342SOL    HW213926   5.953   4.131   3.581
 4343SOL     OW13927   2.469   6.287   5.045
 4343SOL    HW113928   2.420   6.248   5.123
 4343SOL    HW213929   2.437   6.380   5.029
 4344SOL     OW13930   0.485   4.801   2.036
 4344SOL    HW113931   0.499   4.882   1.980
 4344SOL    HW213932   0.427   4.736   1.987
 4345SOL     OW13933   3.195   3.618   4.926
 4345SOL    HW113934   3.111   3.580   4.966
 4345SOL    HW213935   3.227   3.694   4.984
 4346SOL     OW13936   1.916   2.887   2.183
 4346SOL    HW113937   1.836   2.841   2.144
 4346SOL    HW213938   1.939   2.846   2.271
 4347SOL     OW13939   6.903   6.861   2.775
 4347SOL    HW113940   6.942   6.927   2.711
 4347SOL    HW213941   6.862   6.909   2.852
 4348SOL     OW13942   0.225   4.278   3.386
 4348SOL    HW113943   0.167   4.313   3.459
 4348SOL    HW213944   0.186   4.304   3.297
 4349SOL     OW13945   6.545   2.289   2.461
 4349SOL    HW113946   6.573   2.230   2.537
 4349SOL    HW213947   6.451   2.321   2.476
 4350SOL     OW13948   3.857   1.526   4.441
 4350SOL    HW113949   3.864   1.612   4.492
 4350SOL    HW213950   3.843   1.546   4.344
 4351SOL     OW13951   1.776   4.775   0.789
 4351SOL    HW113952   1.744   4.737   0.702
 4351SOL    HW213953   1.875   4.764   0.796
 4352SOL     OW13954   6.908   3.614   2.296
 4352SOL    HW113955   6.877   3.624   2.201
 4352SOL    HW213956   6.839   3.653   2.358
 4353SOL     OW13957   4.172   2.863   6.482
 4353SOL    HW113958   4.134   2.881   6.573
 4353SOL    HW213959   4.148   2.938   6.420
 4354SOL     OW13960   2.315   6.817   5.405
 4354SOL    HW113961   2.258   6.752   5.455
 4354SOL    HW213962   2.264   6.851   5.326
 4355SOL     OW13963   1.961   0.348   2.861
 4355SOL    HW113964   1.953   0.446   2.881
 4355SOL    HW213965   1.923   0.295   2.937
 4356SOL     OW13966   5.149   4.043   0.821
 4356SOL    HW113967   5.163   3.960   0.767
 4356SOL    HW213968   5.054   4.046   0.852
 4357SOL     OW13969   6.976   1.071   1.373
 4357SOL    HW113970   6.956   1.065   1.276
 4357SOL    HW213971   6.893   1.094   1.424
 4358SOL     OW13972   0.389   6.926   0.356
 4358SOL    HW113973   0.413   6.837   0.315
 4358SOL    HW213974   0.301   6.956   0.320
 4359SOL     OW13975   2.007   1.086   6.302
 4359SOL    HW113976   2.013   1.011   6.368
 4359SOL    HW213977   1.922   1.077   6.249
 4360SOL     OW13978   1.356   3.022   3.354
 4360SOL    HW113979   1.390   3.020   3.260
 4360SOL    HW213980   1.425   3.062   3.414
 4361SOL     OW13981   2.462   2.980   1.292
 4361SOL    HW113982   2.471   3.026   1.204
 4361SOL    HW213983   2.366   2.953   1.306
 4362SOL     OW13984   5.938   5.897   3.469
 4362SOL    HW113985   5.977   5.926   3.557
 4362SOL    HW213986   5.845   5.862   3.484
 4363SOL     OW13987   5.310   2.241   1.423
 4363SOL    HW113988   5.224   2.216   1.377
 4363SOL    HW213989   5.291   2.267   1.517
 4364SOL     OW13990   3.153   3.424   4.557
 4364SOL    HW113991   3.203   3.389   4.477
 4364SOL    HW213992   3.056   3.431   4.535
 4365SOL     OW13993   2.499   1.150   2.297
 4365SOL    HW113994   2.485   1.234   2.245
 4365SOL    HW213995   2.500   1.072   2.234
 4366SOL     OW13996   6.214   0.160   0.099
 4366SOL    HW113997   6.186   0.115   0.014
 4366SOL    HW213998   6.149   0.232   0.121
 4367SOL     OW13999   2.018   4.159   4.537
 4367SOL    HW114000   1.942   4.216   4.568
 4367SOL    HW214001   2.065   4.120   4.616
 4368SOL     OW14002   3.739   4.252   0.475
 4368SOL    HW114003   3.680   4.178   0.508
 4368SOL    HW214004   3.762   4.313   0.551
 4369SOL     OW14005   4.156   5.378   2.748
 4369SOL    HW114006   4.167   5.348   2.653
 4369SOL    HW214007   4.223   5.449   2.769
 4370SOL     OW14008   3.787   5.538   1.761
 4370SOL    HW114009   3.830   5.527   1.851
 4370SOL    HW214010   3.849   5.507   1.690
 4371SOL     OW14011   1.000   1.980   1.888
 4371SOL    HW114012   1.072   2.049   1.896
 4371SOL    HW214013   0.970   1.952   1.979
 4372SOL     OW14014   2.836   1.612   2.789
 4372SOL    HW114015   2.807   1.522   2.823
 4372SOL    HW214016   2.756   1.660   2.752
 4373SOL     OW14017   6.044   2.338   6.880
 4373SOL    HW114018   5.959   2.303   6.920
 4373SOL    HW214019   6.107   2.262   6.864
 4374SOL     OW14020   0.945   1.772   0.739
 4374SOL    HW114021   0.915   1.687   0.695
 4374SOL    HW214022   0.982   1.833   0.669
 4375SOL     OW14023   4.574   6.980   3.021
 4375SOL    HW114024   4.593   6.994   3.118
 4375SOL    HW214025   4.620   6.897   2.989
 4376SOL     OW14026   0.361   6.711   1.713
 4376SOL    HW114027   0.392   6.685   1.805
 4376SOL    HW214028   0.415   6.663   1.645
 4377SOL     OW14029   5.558   4.567   0.051
 4377SOL    HW114030   5.488   4.554   0.122
 4377SOL    HW214031   5.647   4.540   0.087
 4378SOL     OW14032   1.968   2.629   2.624
 4378SOL    HW114033   1.971   2.684   2.708
 4378SOL    HW214034   1.873   2.612   2.599
 4379SOL     OW14035   1.761   2.267   2.744
 4379SOL    HW114036   1.845   2.298   2.789
 4379SOL    HW214037   1.755   2.308   2.653
 4380SOL     OW14038   0.905   6.939   2.784
 4380SOL    HW114039   0.873   6.922   2.877
 4380SOL    HW214040   0.938   6.854   2.744
 4381SOL     OW14041   1.570   4.671   5.740
 4381SOL    HW114042   1.667   4.681   5.719
 4381SOL    HW214043   1.519   4.663   5.654
 4382SOL     OW14044   6.858   3.491   5.135
 4382SOL    HW114045   6.885   3.586   5.122
 4382SOL    HW214046   6.914   3.450   5.207
 4383SOL     OW14047   0.793   2.495   6.217
 4383SOL    HW114048   0.843   2.581   6.226
 4383SOL    HW214049   0.705   2.512   6.172
 4384SOL     OW14050   5.947   1.638   5.037
 4384SOL    HW114051   6.033   1.588   5.029
 4384SOL    HW214052   5.946   1.690   5.123
 4385SOL     OW14053   6.008   2.485   4.688
 4385SOL    HW114054   6.056   2.433   4.617
 4385SOL    HW214055   5.920   2.443   4.706
 4386SOL     OW14056   1.961   3.106   6.269
 4386SOL    HW114057   1.885   3.088   6.332
 4386SOL    HW214058   2.019   3.179   6.306
 4387SOL     OW14059   6.823   1.394   1.045
 4387SOL    HW114060   6.826   1.400   1.145
 4387SOL    HW214061   6.864   1.476   1.006
 4388SOL     OW14062   4.843   2.330   6.917
 4388SOL    HW114063   4.937   2.320   6.885
 4388SOL    HW214064   4.843   2.347   7.015
 4389SOL     OW14065   6.567   3.223   0.655
 4389SOL    HW114066   6.597   3.134   0.690
 4389SOL    HW214067   6.583   3.293   0.724
 4390SOL     OW14068   3.813   0.836   1.450
 4390SOL    HW114069   3.906   0.813   1.479
 4390SOL    HW214070   3.774   0.758   1.400
 4391SOL     OW14071   2.067   5.367   6.962
 4391SOL    HW114072   2.091   5.364   0.041
 4391SOL    HW214073   2.137   5.319   6.909
 4392SOL     OW14074   6.984   3.173   4.402
 4392SOL    HW114075   0.063   3.171   4.423
 4392SOL    HW214076   6.953   3.268   4.391
 4393SOL     OW14077   5.916   0.640   2.769
 4393SOL    HW114078   5.878   0.647   2.861
 4393SOL    HW214079   5.846   0.663   2.701
 4394SOL     OW14080   6.470   5.927   2.359
 4394SOL    HW114081   6.508   5.962   2.444
 4394SOL    HW214082   6.490   5.991   2.284
 4395SOL     OW14083   2.558   6.529   2.189
 4395SOL    HW114084   2.645   6.516   2.140
 4395SOL    HW214085   2.482   6.516   2.125
 4396SOL     OW14086   2.143   1.798   3.802
 4396SOL    HW114087   2.127   1.833   3.710
 4396SOL    HW214088   2.188   1.869   3.857
 4397SOL     OW14089   0.375   1.852   4.656
 4397SOL    HW114090   0.280   1.846   4.629
 4397SOL    HW214091   0.395   1.783   4.726
 4398SOL     OW14092   0.387   3.617   5.783
 4398SOL    HW114093   0.389   3.716   5.766
 4398SOL    HW214094   0.347   3.599   5.873
 4399SOL     OW14095   2.375   0.247   2.291
 4399SOL    HW114096   2.419   0.292   2.213
 4399SOL    HW214097   2.396   0.149   2.290
 4400SOL     OW14098   3.465   6.186   5.337
 4400SOL    HW114099   3.399   6.261   5.340
 4400SOL    HW214100   3.418   6.101   5.359
 4401SOL     OW14101   3.597   6.995   5.957
 4401SOL    HW114102   3.537   0.049   5.921
 4401SOL    HW214103   3.545   6.909   5.963
 4402SOL     OW14104   2.442   0.351   2.062
 4402SOL    HW114105   2.408   0.297   1.985
 4402SOL    HW214106   2.442   0.448   2.036
 4403SOL     OW14107   1.206   0.728   1.652
 4403SOL    HW114108   1.305   0.746   1.645
 4403SOL    HW214109   1.190   0.630   1.642
 4404SOL     OW14110   1.411   4.903   5.762
 4404SOL    HW114111   1.463   4.823   5.730
 4404SOL    HW214112   1.339   4.924   5.695
 4405SOL     OW14113   1.449   3.949   1.081
 4405SOL    HW114114   1.510   4.022   1.112
 4405SOL    HW214115   1.496   3.892   1.014
 4406SOL     OW14116   0.740   3.581   0.848
 4406SOL    HW114117   0.777   3.509   0.789
 4406SOL    HW214118   0.780   3.573   0.939
 4407SOL     OW14119   6.326   5.189   0.502
 4407SOL    HW114120   6.341   5.248   0.423
 4407SOL    HW214121   6.228   5.187   0.524
 4408SOL     OW14122   3.061   0.903   1.152
 4408SOL    HW114123   3.066   0.806   1.130
 4408SOL    HW214124   2.967   0.935   1.141
 4409SOL     OW14125   5.065   0.927   2.605
 4409SOL    HW114126   5.111   0.844   2.636
 4409SOL    HW214127   4.968   0.908   2.590
 4410SOL     OW14128   1.169   4.874   6.817
 4410SOL    HW114129   1.218   4.871   6.730
 4410SOL    HW214130   1.072   4.894   6.800
 4411SOL     OW14131   3.905   4.157   5.018
 4411SOL    HW114132   3.987   4.212   5.032
 4411SOL    HW214133   3.901   4.125   4.923
 4412SOL     OW14134   4.600   6.004   4.065
 4412SOL    HW114135   4.509   5.996   4.024
 4412SOL    HW214136   4.669   5.982   3.996
 4413SOL     OW14137   6.166   5.215   4.367
 4413SOL    HW114138   6.239   5.179   4.308
 4413SOL    HW214139   6.171   5.315   4.367
 4414SOL     OW14140   3.138   5.231   1.002
 4414SOL    HW114141   3.113   5.135   0.986
 4414SOL    HW214142   3.076   5.291   0.953
 4415SOL     OW14143   4.374   2.805   0.992
 4415SOL    HW114144   4.340   2.899   0.995
 4415SOL    HW214145   4.334   2.758   0.913
 4416SOL     OW14146   3.891   1.136   4.315
 4416SOL    HW114147   3.795   1.166   4.313
 4416SOL    HW214148   3.938   1.180   4.392
 4417SOL     OW14149   5.715   4.619   3.319
 4417SOL    HW114150   5.669   4.549   3.265
 4417SOL    HW214151   5.663   4.704   3.316
 4418SOL     OW14152   6.545   1.766   2.498
 4418SOL    HW114153   6.629   1.715   2.482
 4418SOL    HW214154   6.549   1.852   2.447
 4419SOL     OW14155   5.644   6.900   6.395
 4419SOL    HW114156   5.679   6.835   6.328
 4419SOL    HW214157   5.584   6.853   6.460
 4420SOL     OW14158   4.872   1.019   1.743
 4420SOL    HW114159   4.914   0.930   1.760
 4420SOL    HW214160   4.923   1.090   1.791
 4421SOL     OW14161   2.415   1.175   5.237
 4421SOL    HW114162   2.393   1.228   5.156
 4421SOL    HW214163   2.482   1.104   5.214
 4422SOL     OW14164   2.022   3.576   6.860
 4422SOL    HW114165   2.077   3.520   6.922
 4422SOL    HW214166   2.009   3.667   6.899
 4423SOL     OW14167   0.052   3.146   5.809
 4423SOL    HW114168   0.113   3.102   5.744
 4423SOL    HW214169   6.987   3.092   5.821
 4424SOL     OW14170   5.549   1.234   4.329
 4424SOL    HW114171   5.574   1.154   4.385
 4424SOL    HW214172   5.457   1.221   4.292
 4425SOL     OW14173   2.628   4.078   0.227
 4425SOL    HW114174   2.563   4.013   0.265
 4425SOL    HW214175   2.580   4.164   0.206
 4426SOL     OW14176   0.123   1.881   3.837
 4426SOL    HW114177   0.113   1.830   3.752
 4426SOL    HW214178   0.112   1.819   3.915
 4427SOL     OW14179   0.512   6.196   3.119
 4427SOL    HW114180   0.492   6.277   3.064
 4427SOL    HW214181   0.550   6.125   3.060
 4428SOL     OW14182   3.371   0.490   3.373
 4428SOL    HW114183   3.273   0.496   3.393
 4428SOL    HW214184   3.390   0.535   3.286
 4429SOL     OW14185   3.066   6.846   2.840
 4429SOL    HW114186   3.009   6.789   2.780
 4429SOL    HW214187   3.115   6.787   2.904
 4430SOL     OW14188   4.925   3.871   4.522
 4430SOL    HW114189   4.897   3.809   4.595
 4430SOL    HW214190   5.001   3.831   4.470
 4431SOL     OW14191   2.697   1.393   1.953
 4431SOL    HW114192   2.784   1.441   1.942
 4431SOL    HW214193   2.645   1.397   1.868
 4432SOL     OW14194   2.705   3.484   6.085
 4432SOL    HW114195   2.668   3.502   5.994
 4432SOL    HW214196   2.742   3.569   6.123
 4433SOL     OW14197   5.095   1.982   4.220
 4433SOL    HW114198   5.080   1.980   4.122
 4433SOL    HW214199   5.183   2.025   4.240
 4434SOL     OW14200   5.077   1.227   3.045
 4434SOL    HW114201   5.057   1.139   3.004
 4434SOL    HW214202   5.172   1.227   3.079
 4435SOL     OW14203   5.002   2.940   1.841
 4435SOL    HW114204   5.016   2.879   1.763
 4435SOL    HW214205   4.906   2.967   1.846
 4436SOL     OW14206   4.266   1.369   1.499
 4436SOL    HW114207   4.215   1.410   1.575
 4436SOL    HW214208   4.324   1.296   1.534
 4437SOL     OW14209   6.971   2.711   2.613
 4437SOL    HW114210   6.939   2.616   2.603
 4437SOL    HW214211   6.931   2.767   2.540
 4438SOL     OW14212   5.167   0.101   6.818
 4438SOL    HW114213   5.174   0.054   6.730
 4438SOL    HW214214   5.251   0.152   6.835
 4439SOL     OW14215   6.959   4.284   1.550
 4439SOL    HW114216   6.912   4.318   1.631
 4439SOL    HW214217   7.017   4.207   1.575
 4440SOL     OW14218   2.779   4.674   0.483
 4440SOL    HW114219   2.781   4.628   0.394
 4440SOL    HW214220   2.841   4.627   0.546
 4441SOL     OW14221   0.408   2.254   2.784
 4441SOL    HW114222   0.341   2.231   2.713
 4441SOL    HW214223   0.360   2.266   2.871
 4442SOL     OW14224   2.069   5.401   4.560
 4442SOL    HW114225   2.144   5.412   4.625
 4442SOL    HW214226   2.038   5.491   4.529
 4443SOL     OW14227   1.057   3.632   6.728
 4443SOL    HW114228   1.082   3.729   6.723
 4443SOL    HW214229   0.984   3.613   6.663
 4444SOL     OW14230   3.198   4.038   5.070
 4444SOL    HW114231   3.215   4.056   4.973
 4444SOL    HW214232   3.142   3.955   5.078
 4445SOL     OW14233   1.566   6.658   0.400
 4445SOL    HW114234   1.616   6.737   0.436
 4445SOL    HW214235   1.566   6.661   0.300
 4446SOL     OW14236   5.329   0.947   1.618
 4446SOL    HW114237   5.253   0.891   1.583
 4446SOL    HW214238   5.416   0.906   1.590
 4447SOL     OW14239   5.424   4.422   5.652
 4447SOL    HW114240   5.431   4.358   5.575
 4447SOL    HW214241   5.332   4.416   5.691
 4448SOL     OW14242   2.504   3.991   1.603
 4448SOL    HW114243   2.478   4.080   1.641
 4448SOL    HW214244   2.484   3.990   1.505
 4449SOL     OW14245   4.771   0.934   6.069
 4449SOL    HW114246   4.724   0.860   6.021
 4449SOL    HW214247   4.833   0.980   6.006
 4450SOL     OW14248   3.613   3.021   5.378
 4450SOL    HW114249   3.651   2.983   5.293
 4450SOL    HW214250   3.544   2.958   5.415
 4451SOL     OW14251   6.439   4.934   2.874
 4451SOL    HW114252   6.381   5.013   2.893
 4451SOL    HW214253   6.509   4.959   2.807
 4452SOL     OW14254   4.903   6.244   4.209
 4452SOL    HW114255   4.849   6.206   4.285
 4452SOL    HW214256   5.000   6.232   4.228
 4453SOL     OW14257   1.293   3.278   1.458
 4453SOL    HW114258   1.328   3.327   1.538
 4453SOL    HW214259   1.357   3.289   1.382
 4454SOL     OW14260   1.643   1.950   0.397
 4454SOL    HW114261   1.574   1.881   0.422
 4454SOL    HW214262   1.721   1.905   0.355
 4455SOL     OW14263   4.376   6.558   6.002
 4455SOL    HW114264   4.374   6.458   6.013
 4455SOL    HW214265   4.365   6.581   5.906
 4456SOL     OW14266   2.935   6.162   1.836
 4456SOL    HW114267   2.904   6.224   1.764
 4456SOL    HW214268   2.886   6.075   1.829
 4457SOL     OW14269   4.284   1.263   2.624
 4457SOL    HW114270   4.298   1.203   2.703
 4457SOL    HW214271   4.187   1.267   2.601
 4458SOL     OW14272   1.872   2.566   0.638
 4458SOL    HW114273   1.880   2.655   0.594
 4458SOL    HW214274   1.805   2.572   0.712
 4459SOL     OW14275   4.045   1.307   4.515
 4459SOL    HW114276   4.030   1.404   4.500
 4459SOL    HW214277   4.037   1.286   4.612
 4460SOL     OW14278   1.940   2.678   6.080
 4460SOL    HW114279   1.990   2.738   6.142
 4460SOL    HW214280   1.937   2.720   5.989
 4461SOL     OW14281   1.673   6.993   0.840
 4461SOL    HW114282   1.645   6.903   0.875
 4461SOL    HW214283   1.677   0.041   0.915
 4462SOL     OW14284   5.645   5.216   1.696
 4462SOL    HW114285   5.589   5.134   1.689
 4462SOL    HW214286   5.586   5.295   1.715
 4463SOL     OW14287   4.854   1.470   0.662
 4463SOL    HW114288   4.902   1.515   0.586
 4463SOL    HW214289   4.760   1.450   0.635
 4464SOL     OW14290   0.634   5.537   0.450
 4464SOL    HW114291   0.665   5.463   0.510
 4464SOL    HW214292   0.713   5.575   0.401
 4465SOL     OW14293   3.570   5.747   1.464
 4465SOL    HW114294   3.493   5.710   1.412
 4465SOL    HW214295   3.572   5.706   1.555
 4466SOL     OW14296   1.276   2.069   3.742
 4466SOL    HW114297   1.246   1.986   3.695
 4466SOL    HW214298   1.306   2.136   3.675
 4467SOL     OW14299   1.973   5.711   2.602
 4467SOL    HW114300   1.874   5.727   2.605
 4467SOL    HW214301   2.019   5.779   2.660
 4468SOL     OW14302   1.814   3.996   0.368
 4468SOL    HW114303   1.753   3.920   0.345
 4468SOL    HW214304   1.906   3.976   0.334
 4469SOL     OW14305   3.394   0.309   1.896
 4469SOL    HW114306   3.433   0.376   1.832
 4469SOL    HW214307   3.298   0.295   1.874
 4470SOL     OW14308   0.183   2.566   2.137
 4470SOL    HW114309   0.114   2.503   2.173
 4470SOL    HW214310   0.210   2.536   2.046
 4471SOL     OW14311   0.608   2.016   6.592
 4471SOL    HW114312   0.602   2.101   6.540
 4471SOL    HW214313   0.685   1.962   6.559
 4472SOL     OW14314   0.963   3.322   1.981
 4472SOL    HW114315   0.914   3.235   1.976
 4472SOL    HW214316   0.918   3.390   1.924
 4473SOL     OW14317   5.724   2.819   4.600
 4473SOL    HW114318   5.659   2.888   4.570
 4473SOL    HW214319   5.730   2.747   4.531
 4474SOL     OW14320   2.005   0.571   2.457
 4474SOL    HW114321   2.009   0.646   2.524
 4474SOL    HW214322   2.000   0.609   2.365
 4475SOL     OW14323   1.265   4.258   2.160
 4475SOL    HW114324   1.350   4.253   2.107
 4475SOL    HW214325   1.283   4.307   2.246
 4476SOL     OW14326   4.986   0.393   2.923
 4476SOL    HW114327   4.912   0.459   2.922
 4476SOL    HW214328   4.958   0.311   2.974
 4477SOL     OW14329   1.999   6.975   5.005
 4477SOL    HW114330   1.929   6.998   4.938
 4477SOL    HW214331   1.997   0.023   5.080
 4478SOL     OW14332   3.470   0.112   3.190
 4478SOL    HW114333   3.543   0.100   3.122
 4478SOL    HW214334   3.396   0.165   3.150
 4479SOL     OW14335   0.665   1.875   0.842
 4479SOL    HW114336   0.698   1.797   0.894
 4479SOL    HW214337   0.566   1.871   0.833
 4480SOL     OW14338   1.160   4.250   5.446
 4480SOL    HW114339   1.112   4.294   5.523
 4480SOL    HW214340   1.186   4.157   5.473
 4481SOL     OW14341   3.621   5.483   4.938
 4481SOL    HW114342   3.669   5.444   5.017
 4481SOL    HW214343   3.680   5.479   4.858
 4482SOL     OW14344   1.436   2.708   5.006
 4482SOL    HW114345   1.405   2.711   4.911
 4482SOL    HW214346   1.532   2.738   5.011
 4483SOL     OW14347   5.751   2.528   2.482
 4483SOL    HW114348   5.678   2.460   2.472
 4483SOL    HW214349   5.713   2.620   2.472
 4484SOL     OW14350   3.330   2.128   6.137
 4484SOL    HW114351   3.351   2.202   6.073
 4484SOL    HW214352   3.391   2.050   6.119
 4485SOL     OW14353   5.559   1.878   4.612
 4485SOL    HW114354   5.517   1.807   4.554
 4485SOL    HW214355   5.487   1.940   4.645
 4486SOL     OW14356   5.595   5.223   5.459
 4486SOL    HW114357   5.535   5.143   5.459
 4486SOL    HW214358   5.688   5.195   5.485
 4487SOL     OW14359   2.826   2.926   6.480
 4487SOL    HW114360   2.867   2.966   6.398
 4487SOL    HW214361   2.727   2.940   6.478
 4488SOL     OW14362   0.453   3.312   5.622
 4488SOL    HW114363   0.424   3.355   5.708
 4488SOL    HW214364   0.498   3.379   5.564
 4489SOL     OW14365   5.272   5.538   5.182
 4489SOL    HW114366   5.355   5.526   5.129
 4489SOL    HW214367   5.269   5.630   5.221
 4490SOL     OW14368   6.006   2.293   1.876
 4490SOL    HW114369   5.940   2.223   1.902
 4490SOL    HW214370   5.959   2.381   1.866
 4491SOL     OW14371   6.620   3.218   3.822
 4491SOL    HW114372   6.682   3.149   3.785
 4491SOL    HW214373   6.672   3.284   3.876
 4492SOL     OW14374   6.027   4.836   1.555
 4492SOL    HW114375   6.043   4.764   1.623
 4492SOL    HW214376   5.966   4.802   1.484
 4493SOL     OW14377   4.911   5.392   4.615
 4493SOL    HW114378   4.975   5.368   4.687
 4493SOL    HW214379   4.847   5.461   4.648
 4494SOL     OW14380   0.421   0.907   6.450
 4494SOL    HW114381   0.324   0.910   6.426
 4494SOL    HW214382   0.468   0.985   6.409
 4495SOL     OW14383   3.979   6.074   4.701
 4495SOL    HW114384   4.057   6.030   4.657
 4495SOL    HW214385   4.001   6.094   4.797
 4496SOL     OW14386   5.751   6.373   1.085
 4496SOL    HW114387   5.838   6.403   1.124
 4496SOL    HW214388   5.676   6.416   1.135
 4497SOL     OW14389   5.153   2.029   6.571
 4497SOL    HW114390   5.200   2.112   6.601
 4497SOL    HW214391   5.189   2.001   6.482
 4498SOL     OW14392   0.436   3.237   0.168
 4498SOL    HW114393   0.418   3.183   0.086
 4498SOL    HW214394   0.376   3.317   0.170
 4499SOL     OW14395   5.632   3.723   3.941
 4499SOL    HW114396   5.683   3.790   3.886
 4499SOL    HW214397   5.678   3.709   4.028
 4500SOL     OW14398   3.127   3.043   4.543
 4500SOL    HW114399   3.098   2.983   4.618
 4500SOL    HW214400   3.215   3.084   4.565
 4501SOL     OW14401   6.850   3.505   2.929
 4501SOL    HW114402   6.769   3.473   2.978
 4501SOL    HW214403   6.886   3.586   2.974
 4502SOL     OW14404   0.401   2.955   6.690
 4502SOL    HW114405   0.487   2.983   6.646
 4502SOL    HW214406   0.421   2.887   6.760
 4503SOL     OW14407   3.527   0.020   1.703
 4503SOL    HW114408   3.483   6.949   1.711
 4503SOL    HW214409   3.476   0.088   1.755
 4504SOL     OW14410   6.586   0.970   4.632
 4504SOL    HW114411   6.554   0.884   4.671
 4504SOL    HW214412   6.570   1.044   4.698
 4505SOL     OW14413   6.212   5.124   1.898
 4505SOL    HW114414   6.273   5.173   1.837
 4505SOL    HW214415   6.120   5.163   1.893
 4506SOL     OW14416   4.755   2.926   3.570
 4506SOL    HW114417   4.847   2.963   3.572
 4506SOL    HW214418   4.728   2.897   3.662
 4507SOL     OW14419   5.968   4.577   3.131
 4507SOL    HW114420   6.036   4.530   3.187
 4507SOL    HW214421   5.891   4.606   3.188
 4508SOL     OW14422   1.887   5.437   0.190
 4508SOL    HW114423   1.819   5.394   0.131
 4508SOL    HW214424   1.855   5.529   0.216
 4509SOL     OW14425   4.576   2.363   2.221
 4509SOL    HW114426   4.530   2.391   2.137
 4509SOL    HW214427   4.552   2.268   2.242
 4510SOL     OW14428   3.906   1.851   4.025
 4510SOL    HW114429   3.871   1.902   4.104
 4510SOL    HW214430   3.923   1.914   3.949
 4511SOL     OW14431   5.792   3.876   6.713
 4511SOL    HW114432   5.765   3.922   6.629
 4511SOL    HW214433   5.742   3.915   6.790
 4512SOL     OW14434   2.712   1.362   5.667
 4512SOL    HW114435   2.748   1.276   5.631
 4512SOL    HW214436   2.727   1.436   5.601
 4513SOL     OW14437   0.649   5.064   6.444
 4513SOL    HW114438   0.640   5.156   6.407
 4513SOL    HW214439   0.744   5.046   6.467
 4514SOL     OW14440   4.129   2.368   6.076
 4514SOL    HW114441   4.226   2.352   6.059
 4514SOL    HW214442   4.082   2.387   5.990
 4515SOL     OW14443   0.105   1.882   5.495
 4515SOL    HW114444   0.160   1.878   5.579
 4515SOL    HW214445   0.146   1.947   5.431
 4516SOL     OW14446   2.208   0.205   0.504
 4516SOL    HW114447   2.234   0.287   0.555
 4516SOL    HW214448   2.284   0.175   0.447
 4517SOL     OW14449   4.570   0.665   6.490
 4517SOL    HW114450   4.535   0.698   6.403
 4517SOL    HW214451   4.560   0.736   6.560
 4518SOL     OW14452   0.134   0.311   2.309
 4518SOL    HW114453   0.079   0.394   2.302
 4518SOL    HW214454   0.093   0.239   2.253
 4519SOL     OW14455   6.742   6.905   1.526
 4519SOL    HW114456   6.730   6.990   1.474
 4519SOL    HW214457   6.717   6.827   1.468
 4520SOL     OW14458   4.245   6.370   5.370
 4520SOL    HW114459   4.336   6.375   5.412
 4520SOL    HW214460   4.235   6.283   5.322
 4521SOL     OW14461   6.280   1.914   4.778
 4521SOL    HW114462   6.270   1.834   4.719
 4521SOL    HW214463   6.364   1.906   4.832
 4522SOL     OW14464   5.353   5.188   3.451
 4522SOL    HW114465   5.384   5.195   3.356
 4522SOL    HW214466   5.323   5.095   3.470
 4523SOL     OW14467   0.834   4.542   0.313
 4523SOL    HW114468   0.898   4.532   0.237
 4523SOL    HW214469   0.880   4.588   0.389
 4524SOL     OW14470   6.405   2.643   2.003
 4524SOL    HW114471   6.491   2.593   1.991
 4524SOL    HW214472   6.398   2.675   2.097
 4525SOL     OW14473   4.866   2.449   5.741
 4525SOL    HW114474   4.958   2.458   5.703
 4525SOL    HW214475   4.814   2.533   5.722
 4526SOL     OW14476   0.188   0.213   6.303
 4526SOL    HW114477   0.122   0.271   6.351
 4526SOL    HW214478   0.147   0.123   6.286
 4527SOL     OW14479   6.138   1.342   3.868
 4527SOL    HW114480   6.119   1.266   3.931
 4527SOL    HW214481   6.234   1.367   3.874
 4528SOL     OW14482   4.657   0.637   0.044
 4528SOL    HW114483   4.635   0.636   0.141
 4528SOL    HW214484   4.751   0.671   0.031
 4529SOL     OW14485   2.020   0.328   4.725
 4529SOL    HW114486   1.991   0.311   4.819
 4529SOL    HW214487   1.981   0.257   4.665
 4530SOL     OW14488   1.737   5.127   4.089
 4530SOL    HW114489   1.742   5.220   4.051
 4530SOL    HW214490   1.718   5.062   4.015
 4531SOL     OW14491   0.526   2.877   5.187
 4531SOL    HW114492   0.471   2.944   5.237
 4531SOL    HW214493   0.597   2.924   5.135
 4532SOL     OW14494   6.690   1.203   2.516
 4532SOL    HW114495   6.700   1.299   2.490
 4532SOL    HW214496   6.620   1.194   2.587
 4533SOL     OW14497   1.291   1.898   2.018
 4533SOL    HW114498   1.316   1.821   1.960
 4533SOL    HW214499   1.279   1.867   2.113
 4534SOL     OW14500   4.907   4.264   4.814
 4534SOL    HW114501   4.899   4.348   4.761
 4534SOL    HW214502   5.002   4.231   4.809
 4535SOL     OW14503   3.315   0.865   3.037
 4535SOL    HW114504   3.415   0.874   3.033
 4535SOL    HW214505   3.273   0.927   2.971
 4536SOL     OW14506   4.172   1.539   4.277
 4536SOL    HW114507   4.172   1.444   4.248
 4536SOL    HW214508   4.166   1.543   4.377
 4537SOL     OW14509   4.202   3.424   0.208
 4537SOL    HW114510   4.106   3.406   0.230
 4537SOL    HW214511   4.207   3.487   0.130
 4538SOL     OW14512   1.533   0.266   2.850
 4538SOL    HW114513   1.592   0.310   2.782
 4538SOL    HW214514   1.589   0.227   2.923
 4539SOL     OW14515   3.405   6.153   4.667
 4539SOL    HW114516   3.421   6.222   4.596
 4539SOL    HW214517   3.439   6.188   4.754
 4540SOL     OW14518   2.433   2.444   6.682
 4540SOL    HW114519   2.494   2.382   6.731
 4540SOL    HW214520   2.454   2.539   6.707
 4541SOL     OW14521   5.986   1.637   6.956
 4541SOL    HW114522   6.045   1.597   0.009
 4541SOL    HW214523   5.931   1.565   6.915
 4542SOL     OW14524   0.126   1.786   1.440
 4542SOL    HW114525   0.214   1.789   1.488
 4542SOL    HW214526   0.135   1.835   1.353
 4543SOL     OW14527   4.488   2.203   1.126
 4543SOL    HW114528   4.504   2.118   1.176
 4543SOL    HW214529   4.390   2.213   1.107
 4544SOL     OW14530   3.406   5.580   6.582
 4544SOL    HW114531   3.499   5.551   6.563
 4544SOL    HW214532   3.342   5.514   6.542
 4545SOL     OW14533   5.477   2.864   4.179
 4545SOL    HW114534   5.443   2.827   4.093
 4545SOL    HW214535   5.529   2.794   4.228
 4546SOL     OW14536   1.618   1.242   4.566
 4546SOL    HW114537   1.576   1.153   4.547
 4546SOL    HW214538   1.581   1.278   4.652
 4547SOL     OW14539   6.471   2.118   1.092
 4547SOL    HW114540   6.431   2.102   1.001
 4547SOL    HW214541   6.459   2.037   1.148
 4548SOL     OW14542   1.444   3.292   3.817
 4548SOL    HW114543   1.380   3.359   3.854
 4548SOL    HW214544   1.526   3.289   3.874
 4549SOL     OW14545   6.084   4.370   2.057
 4549SOL    HW114546   6.113   4.388   1.963
 4549SOL    HW214547   6.004   4.310   2.056
 4550SOL     OW14548   0.930   5.318   3.361
 4550SOL    HW114549   0.910   5.227   3.326
 4550SOL    HW214550   0.992   5.366   3.299
 4551SOL     OW14551   0.116   3.494   4.574
 4551SOL    HW114552   0.034   3.436   4.566
 4551SOL    HW214553   0.152   3.487   4.667
 4552SOL     OW14554   6.759   2.253   1.563
 4552SOL    HW114555   6.690   2.231   1.494
 4552SOL    HW214556   6.736   2.340   1.606
 4553SOL     OW14557   4.036   4.052   6.837
 4553SOL    HW114558   4.058   4.094   6.926
 4553SOL    HW214559   3.941   4.071   6.814
 4554SOL     OW14560   6.354   6.806   1.326
 4554SOL    HW114561   6.314   6.832   1.414
 4554SOL    HW214562   6.385   6.711   1.330
 4555SOL     OW14563   2.660   1.882   5.021
 4555SOL    HW114564   2.721   1.912   5.095
 4555SOL    HW214565   2.714   1.833   4.952
 4556SOL     OW14566   5.131   3.153   4.284
 4556SOL    HW114567   5.046   3.151   4.336
 4556SOL    HW214568   5.209   3.158   4.347
 4557SOL     OW14569   4.773   5.895   5.419
 4557SOL    HW114570   4.792   5.904   5.321
 4557SOL    HW214571   4.852   5.853   5.464
 4558SOL     OW14572   6.889   4.620   5.125
 4558SOL    HW114573   6.835   4.645   5.205
 4558SOL    HW214574   6.828   4.595   5.049
 4559SOL     OW14575   0.604   3.343   1.798
 4559SOL    HW114576   0.609   3.243   1.810
 4559SOL    HW214577   0.564   3.384   1.879
 4560SOL     OW14578   5.182   4.219   1.615
 4560SOL    HW114579   5.205   4.153   1.686
 4560SOL    HW214580   5.116   4.285   1.651
 4561SOL     OW14581   2.611   2.024   2.872
 4561SOL    HW114582   2.690   1.967   2.898
 4561SOL    HW214583   2.529   1.966   2.866
 4562SOL     OW14584   2.079   6.709   5.974
 4562SOL    HW114585   2.062   6.807   5.990
 4562SOL    HW214586   1.999   6.668   5.930
 4563SOL     OW14587   0.503   2.909   0.856
 4563SOL    HW114588   0.570   2.983   0.848
 4563SOL    HW214589   0.524   2.837   0.790
 4564SOL     OW14590   0.074   5.818   2.258
 4564SOL    HW114591   0.128   5.886   2.209
 4564SOL    HW214592   0.001   5.785   2.199
 4565SOL     OW14593   0.559   0.448   5.016
 4565SOL    HW114594   0.610   0.456   4.930
 4565SOL    HW214595   0.565   0.534   5.066
 4566SOL     OW14596   6.725   2.808   0.055
 4566SOL    HW114597   6.641   2.794   0.004
 4566SOL    HW214598   6.714   2.773   0.148
 4567SOL     OW14599   6.529   1.166   6.034
 4567SOL    HW114600   6.594   1.241   6.043
 4567SOL    HW214601   6.478   1.176   5.949
 4568SOL     OW14602   1.800   3.073   6.063
 4568SOL    HW114603   1.845   3.074   5.974
 4568SOL    HW214604   1.869   3.076   6.135
 4569SOL     OW14605   1.919   1.577   3.106
 4569SOL    HW114606   1.939   1.479   3.101
 4569SOL    HW214607   1.949   1.622   3.021
 4570SOL     OW14608   0.321   0.031   2.312
 4570SOL    HW114609   0.410   0.065   2.282
 4570SOL    HW214610   0.333   6.961   2.359
 4571SOL     OW14611   4.493   4.189   6.364
 4571SOL    HW114612   4.555   4.127   6.412
 4571SOL    HW214613   4.408   4.198   6.416
 4572SOL     OW14614   2.107   0.491   6.497
 4572SOL    HW114615   2.187   0.532   6.453
 4572SOL    HW214616   2.136   0.413   6.552
 4573SOL     OW14617   6.443   0.413   0.440
 4573SOL    HW114618   6.387   0.448   0.365
 4573SOL    HW214619   6.390   0.412   0.524
 4574SOL     OW14620   5.807   3.430   0.447
 4574SOL    HW114621   5.789   3.522   0.414
 4574SOL    HW214622   5.905   3.413   0.448
 4575SOL     OW14623   5.676   1.205   6.026
 4575SOL    HW114624   5.667   1.159   5.938
 4575SOL    HW214625   5.668   1.137   6.100
 4576SOL     OW14626   3.026   6.246   5.645
 4576SOL    HW114627   3.023   6.148   5.666
 4576SOL    HW214628   2.965   6.295   5.708
 4577SOL     OW14629   0.968   2.232   4.470
 4577SOL    HW114630   0.948   2.134   4.464
 4577SOL    HW214631   1.023   2.259   4.392
 4578SOL     OW14632   0.900   2.467   5.271
 4578SOL    HW114633   0.982   2.451   5.217
 4578SOL    HW214634   0.908   2.419   5.358
 4579SOL     OW14635   3.975   0.323   3.379
 4579SOL    HW114636   3.959   0.337   3.477
 4579SOL    HW214637   3.961   0.227   3.356
 4580SOL     OW14638   5.365   4.401   0.883
 4580SOL    HW114639   5.360   4.321   0.942
 4580SOL    HW214640   5.279   4.410   0.832
 4581SOL     OW14641   2.008   5.401   2.148
 4581SOL    HW114642   1.966   5.423   2.236
 4581SOL    HW214643   2.106   5.385   2.161
 4582SOL     OW14644   4.495   1.016   4.787
 4582SOL    HW114645   4.555   0.980   4.716
 4582SOL    HW214646   4.548   1.073   4.850
 4583SOL     OW14647   2.920   2.212   6.981
 4583SOL    HW114648   2.933   2.312   6.976
 4583SOL    HW214649   2.968   2.169   6.904
 4584SOL     OW14650   0.472   4.494   5.684
 4584SOL    HW114651   0.451   4.522   5.778
 4584SOL    HW214652   0.410   4.541   5.621
 4585SOL     OW14653   2.295   5.681   3.225
 4585SOL    HW114654   2.318   5.757   3.286
 4585SOL    HW214655   2.258   5.605   3.279
 4586SOL     OW14656   3.997   4.459   0.577
 4586SOL    HW114657   4.021   4.533   0.640
 4586SOL    HW214658   3.916   4.486   0.524
 4587SOL     OW14659   3.236   4.106   3.775
 4587SOL    HW114660   3.206   4.076   3.865
 4587SOL    HW214661   3.325   4.152   3.783
 4588SOL     OW14662   2.439   3.521   5.411
 4588SOL    HW114663   2.363   3.478   5.361
 4588SOL    HW214664   2.521   3.466   5.399
 4589SOL     OW14665   6.421   0.896   2.186
 4589SOL    HW114666   6.500   0.873   2.130
 4589SOL    HW214667   6.341   0.844   2.156
 4590SOL     OW14668   4.419   5.208   1.113
 4590SOL    HW114669   4.363   5.129   1.139
 4590SOL    HW214670   4.359   5.284   1.088
 4591SOL     OW14671   1.488   0.261   4.446
 4591SOL    HW114672   1.556   0.246   4.517
 4591SOL    HW214673   1.533   0.292   4.362
 4592SOL     OW14674   2.207   1.407   3.008
 4592SOL    HW114675   2.246   1.414   3.100
 4592SOL    HW214676   2.280   1.385   2.943
 4593SOL     OW14677   5.048   5.730   2.553
 4593SOL    HW114678   5.049   5.772   2.644
 4593SOL    HW214679   5.013   5.637   2.559
 4594SOL     OW14680   2.368   1.375   2.746
 4594SOL    HW114681   2.314   1.412   2.670
 4594SOL    HW214682   2.360   1.275   2.746
 4595SOL     OW14683   4.679   3.317   5.553
 4595SOL    HW114684   4.682   3.412   5.583
 4595SOL    HW214685   4.715   3.258   5.625
 4596SOL     OW14686   6.429   0.451   2.374
 4596SOL    HW114687   6.419   0.550   2.364
 4596SOL    HW214688   6.339   0.409   2.381
 4597SOL     OW14689   4.130   5.097   6.585
 4597SOL    HW114690   4.186   5.073   6.505
 4597SOL    HW214691   4.150   5.032   6.659
 4598SOL     OW14692   1.686   5.951   0.612
 4598SOL    HW114693   1.721   5.887   0.543
 4598SOL    HW214694   1.751   5.959   0.687
 4599SOL     OW14695   1.521   4.644   0.042
 4599SOL    HW114696   1.581   4.722   0.023
 4599SOL    HW214697   1.483   4.652   0.134
 4600SOL     OW14698   1.219   5.576   5.807
 4600SOL    HW114699   1.205   5.550   5.711
 4600SOL    HW214700   1.293   5.643   5.812
 4601SOL     OW14701   1.941   1.115   5.278
 4601SOL    HW114702   1.909   1.025   5.251
 4601SOL    HW214703   2.021   1.106   5.339
 4602SOL     OW14704   2.856   6.440   0.588
 4602SOL    HW114705   2.935   6.380   0.578
 4602SOL    HW214706   2.802   6.413   0.668
 4603SOL     OW14707   3.691   6.501   0.621
 4603SOL    HW114708   3.671   6.458   0.533
 4603SOL    HW214709   3.634   6.460   0.692
 4604SOL     OW14710   4.123   0.348   6.960
 4604SOL    HW114711   4.215   0.361   6.998
 4604SOL    HW214712   4.077   0.437   6.952
 4605SOL     OW14713   1.813   6.660   2.445
 4605SOL    HW114714   1.758   6.577   2.437
 4605SOL    HW214715   1.865   6.657   2.530
 4606SOL     OW14716   0.912   6.823   2.409
 4606SOL    HW114717   0.840   6.761   2.441
 4606SOL    HW214718   0.948   6.790   2.322
 4607SOL     OW14719   1.977   3.175   2.160
 4607SOL    HW114720   2.040   3.201   2.233
 4607SOL    HW214721   1.929   3.091   2.185
 4608SOL     OW14722   0.430   6.047   3.417
 4608SOL    HW114723   0.499   6.084   3.355
 4608SOL    HW214724   0.452   5.952   3.439
 4609SOL     OW14725   4.601   4.917   6.768
 4609SOL    HW114726   4.692   4.958   6.763
 4609SOL    HW214727   4.591   4.869   6.855
 4610SOL     OW14728   5.079   1.949   0.591
 4610SOL    HW114729   4.983   1.945   0.565
 4610SOL    HW214730   5.124   1.863   0.566
 4611SOL     OW14731   0.878   6.268   6.351
 4611SOL    HW114732   0.912   6.173   6.347
 4611SOL    HW214733   0.779   6.268   6.341
 4612SOL     OW14734   1.237   6.205   0.569
 4612SOL    HW114735   1.302   6.279   0.550
 4612SOL    HW214736   1.247   6.134   0.499
 4613SOL     OW14737   1.622   5.602   1.967
 4613SOL    HW114738   1.718   5.626   1.982
 4613SOL    HW214739   1.616   5.534   1.894
 4614SOL     OW14740   6.445   3.341   2.452
 4614SOL    HW114741   6.461   3.439   2.435
 4614SOL    HW214742   6.519   3.305   2.509
 4615SOL     OW14743   1.815   0.726   6.902
 4615SOL    HW114744   1.816   0.643   6.846
 4615SOL    HW214745   1.884   0.789   6.868
 4616SOL     OW14746   6.316   1.140   4.644
 4616SOL    HW114747   6.323   1.040   4.647
 4616SOL    HW214748   6.385   1.180   4.703
 4617SOL     OW14749   0.717   2.297   2.286
 4617SOL    HW114750   0.788   2.286   2.215
 4617SOL    HW214751   0.757   2.343   2.365
 4618SOL     OW14752   2.222   2.778   5.180
 4618SOL    HW114753   2.197   2.736   5.093
 4618SOL    HW214754   2.243   2.874   5.166
 4619SOL     OW14755   3.077   6.327   3.338
 4619SOL    HW114756   3.128   6.319   3.252
 4619SOL    HW214757   3.020   6.409   3.335
 4620SOL     OW14758   2.583   4.859   0.882
 4620SOL    HW114759   2.655   4.894   0.942
 4620SOL    HW214760   2.538   4.781   0.926
 4621SOL     OW14761   4.872   0.455   2.529
 4621SOL    HW114762   4.825   0.444   2.617
 4621SOL    HW214763   4.822   0.520   2.473
 4622SOL     OW14764   3.442   4.638   0.377
 4622SOL    HW114765   3.405   4.551   0.410
 4622SOL    HW214766   3.432   4.643   0.277
 4623SOL     OW14767   5.684   6.085   1.237
 4623SOL    HW114768   5.642   6.008   1.285
 4623SOL    HW214769   5.621   6.120   1.168
 4624SOL     OW14770   3.647   0.109   2.976
 4624SOL    HW114771   3.706   0.030   2.959
 4624SOL    HW214772   3.612   0.145   2.889
 4625SOL     OW14773   1.951   4.721   1.272
 4625SOL    HW114774   1.916   4.802   1.318
 4625SOL    HW214775   1.903   4.640   1.306
 4626SOL     OW14776   5.603   4.206   2.402
 4626SOL    HW114777   5.510   4.224   2.368
 4626SOL    HW214778   5.600   4.133   2.470
 4627SOL     OW14779   2.102   4.445   5.276
 4627SOL    HW114780   2.160   4.389   5.217
 4627SOL    HW214781   2.126   4.541   5.265
 4628SOL     OW14782   4.776   4.111   4.457
 4628SOL    HW114783   4.800   4.037   4.521
 4628SOL    HW214784   4.750   4.192   4.509
 4629SOL     OW14785   2.803   5.173   5.232
 4629SOL    HW114786   2.825   5.244   5.300
 4629SOL    HW214787   2.855   5.090   5.254
 4630SOL     OW14788   2.618   6.239   1.927
 4630SOL    HW114789   2.651   6.184   2.004
 4630SOL    HW214790   2.531   6.202   1.895
 4631SOL     OW14791   1.496   5.872   3.579
 4631SOL    HW114792   1.465   5.872   3.674
 4631SOL    HW214793   1.417   5.876   3.518
 4632SOL     OW14794   2.742   4.712   2.826
 4632SOL    HW114795   2.696   4.645   2.767
 4632SOL    HW214796   2.679   4.743   2.897
 4633SOL     OW14797   5.926   0.588   5.097
 4633SOL    HW114798   5.827   0.595   5.085
 4633SOL    HW214799   5.951   0.615   5.190
 4634SOL     OW14800   2.333   4.189   5.563
 4634SOL    HW114801   2.257   4.184   5.498
 4634SOL    HW214802   2.354   4.097   5.597
 4635SOL     OW14803   5.058   3.642   1.662
 4635SOL    HW114804   5.012   3.611   1.579
 4635SOL    HW214805   4.991   3.650   1.736
 4636SOL     OW14806   1.920   4.176   0.090
 4636SOL    HW114807   1.836   4.208   0.134
 4636SOL    HW214808   1.942   4.084   0.124
 4637SOL     OW14809   0.863   6.541   1.223
 4637SOL    HW114810   0.839   6.624   1.173
 4637SOL    HW214811   0.897   6.566   1.314
 4638SOL     OW14812   4.382   4.336   0.143
 4638SOL    HW114813   4.319   4.259   0.152
 4638SOL    HW214814   4.372   4.396   0.223
 4639SOL     OW14815   3.394   3.467   6.066
 4639SOL    HW114816   3.325   3.538   6.053
 4639SOL    HW214817   3.357   3.379   6.038
 4640SOL     OW14818   4.965   3.924   3.839
 4640SOL    HW114819   5.013   3.853   3.891
 4640SOL    HW214820   4.891   3.962   3.894
 4641SOL     OW14821   2.275   0.412   4.714
 4641SOL    HW114822   2.181   0.380   4.698
 4641SOL    HW214823   2.338   0.359   4.658
 4642SOL     OW14824   1.064   6.758   3.782
 4642SOL    HW114825   1.054   6.709   3.869
 4642SOL    HW214826   0.974   6.785   3.749
 4643SOL     OW14827   6.867   2.009   0.536
 4643SOL    HW114828   6.933   2.032   0.465
 4643SOL    HW214829   6.882   2.068   0.616
 4644SOL     OW14830   0.652   5.252   5.317
 4644SOL    HW114831   0.642   5.162   5.360
 4644SOL    HW214832   0.740   5.257   5.270
 4645SOL     OW14833   0.720   0.287   3.919
 4645SOL    HW114834   0.774   0.206   3.894
 4645SOL    HW214835   0.731   0.357   3.849
 4646SOL     OW14836   2.108   5.591   3.486
 4646SOL    HW114837   2.185   5.640   3.527
 4646SOL    HW214838   2.135   5.496   3.467
 4647SOL     OW14839   1.813   0.241   3.355
 4647SOL    HW114840   1.723   0.251   3.312
 4647SOL    HW214841   1.847   0.148   3.342
 4648SOL     OW14842   3.371   0.586   3.114
 4648SOL    HW114843   3.355   0.679   3.081
 4648SOL    HW214844   3.288   0.532   3.103
 4649SOL     OW14845   5.256   0.835   7.016
 4649SOL    HW114846   5.253   0.753   6.958
 4649SOL    HW214847   5.248   0.916   6.958
 4650SOL     OW14848   4.682   5.870   2.661
 4650SOL    HW114849   4.761   5.929   2.676
 4650SOL    HW214850   4.710   5.774   2.666
 4651SOL     OW14851   6.218   3.575   0.133
 4651SOL    HW114852   6.180   3.537   0.049
 4651SOL    HW214853   6.275   3.506   0.179
 4652SOL     OW14854   5.768   6.412   3.995
 4652SOL    HW114855   5.746   6.407   4.092
 4652SOL    HW214856   5.715   6.344   3.945
 4653SOL     OW14857   4.716   5.661   0.966
 4653SOL    HW114858   4.717   5.563   0.948
 4653SOL    HW214859   4.810   5.696   0.965
 4654SOL     OW14860   0.638   6.910   0.050
 4654SOL    HW114861   0.651   6.817   0.085
 4654SOL    HW214862   0.689   6.922   6.983
 4655SOL     OW14863   6.251   3.950   1.141
 4655SOL    HW114864   6.194   4.004   1.079
 4655SOL    HW214865   6.288   4.009   1.213
 4656SOL     OW14866   1.158   0.379   2.081
 4656SOL    HW114867   1.226   0.450   2.098
 4656SOL    HW214868   1.079   0.420   2.036
 4657SOL     OW14869   4.308   5.797   1.473
 4657SOL    HW114870   4.320   5.894   1.492
 4657SOL    HW214871   4.223   5.783   1.422
 4658SOL     OW14872   3.434   0.472   3.894
 4658SOL    HW114873   3.453   0.423   3.979
 4658SOL    HW214874   3.420   0.569   3.913
 4659SOL     OW14875   3.295   4.248   5.804
 4659SOL    HW114876   3.360   4.180   5.769
 4659SOL    HW214877   3.331   4.340   5.788
 4660SOL     OW14878   0.924   5.106   5.345
 4660SOL    HW114879   0.892   5.028   5.398
 4660SOL    HW214880   0.901   5.093   5.249
 4661SOL     OW14881   3.088   4.373   6.377
 4661SOL    HW114882   2.999   4.391   6.336
 4661SOL    HW214883   3.157   4.365   6.305
 4662SOL     OW14884   3.289   0.050   5.212
 4662SOL    HW114885   3.378   0.008   5.229
 4662SOL    HW214886   3.273   0.055   5.113
 4663SOL     OW14887   0.234   1.401   1.144
 4663SOL    HW114888   0.298   1.413   1.220
 4663SOL    HW214889   0.171   1.479   1.141
 4664SOL     OW14890   1.793   1.167   0.911
 4664SOL    HW114891   1.758   1.246   0.861
 4664SOL    HW214892   1.725   1.136   0.977
 4665SOL     OW14893   3.521   6.040   6.468
 4665SOL    HW114894   3.568   6.034   6.379
 4665SOL    HW214895   3.560   6.114   6.522
 4666SOL     OW14896   2.360   2.590   0.033
 4666SOL    HW114897   2.361   2.668   0.096
 4666SOL    HW214898   2.325   2.509   0.080
 4667SOL     OW14899   6.688   3.845   1.931
 4667SOL    HW114900   6.721   3.882   2.018
 4667SOL    HW214901   6.589   3.860   1.924
 4668SOL     OW14902   4.538   2.125   3.299
 4668SOL    HW114903   4.633   2.154   3.314
 4668SOL    HW214904   4.535   2.056   3.227
 4669SOL     OW14905   4.875   6.120   0.000
 4669SOL    HW114906   4.887   6.165   0.089
 4669SOL    HW214907   4.806   6.169   6.966
 4670SOL     OW14908   1.788   2.709   5.852
 4670SOL    HW114909   1.844   2.667   5.782
 4670SOL    HW214910   1.693   2.713   5.821
 4671SOL     OW14911   0.046   3.208   0.164
 4671SOL    HW114912   0.030   3.303   0.136
 4671SOL    HW214913   0.079   3.155   0.085
 4672SOL     OW14914   2.552   4.965   5.384
 4672SOL    HW114915   2.534   4.992   5.290
 4672SOL    HW214916   2.532   4.868   5.396
 4673SOL     OW14917   4.562   7.014   2.126
 4673SOL    HW114918   4.582   6.994   2.222
 4673SOL    HW214919   4.542   0.094   2.116
 4674SOL     OW14920   4.968   0.787   6.188
 4674SOL    HW114921   4.927   0.850   6.123
 4674SOL    HW214922   4.898   0.725   6.224
 4675SOL     OW14923   2.299   1.518   6.623
 4675SOL    HW114924   2.338   1.472   6.702
 4675SOL    HW214925   2.330   1.473   6.539
 4676SOL     OW14926   6.069   6.307   4.219
 4676SOL    HW114927   6.159   6.350   4.231
 4676SOL    HW214928   6.038   6.271   4.307
 4677SOL     OW14929   2.350   1.396   6.384
 4677SOL    HW114930   2.448   1.380   6.377
 4677SOL    HW214931   2.302   1.333   6.322
 4678SOL     OW14932   2.023   4.296   2.807
 4678SOL    HW114933   1.987   4.383   2.841
 4678SOL    HW214934   2.105   4.271   2.859
 4679SOL     OW14935   3.317   1.161   0.034
 4679SOL    HW114936   3.231   1.194   0.074
 4679SOL    HW214937   3.392   1.178   0.098
 4680SOL     OW14938   2.569   1.331   0.720
 4680SOL    HW114939   2.499   1.264   0.746
 4680SOL    HW214940   2.529   1.401   0.662
 4681SOL     OW14941   5.247   6.194   6.048
 4681SOL    HW114942   5.148   6.179   6.050
 4681SOL    HW214943   5.270   6.253   5.971
 4682SOL     OW14944   4.357   4.542   5.533
 4682SOL    HW114945   4.291   4.577   5.599
 4682SOL    HW214946   4.343   4.443   5.522
 4683SOL     OW14947   4.142   4.971   3.009
 4683SOL    HW114948   4.142   5.070   2.993
 4683SOL    HW214949   4.084   4.951   3.088
 4684SOL     OW14950   6.613   2.015   5.605
 4684SOL    HW114951   6.622   1.926   5.649
 4684SOL    HW214952   6.703   2.057   5.594
 4685SOL     OW14953   0.586   6.377   5.350
 4685SOL    HW114954   0.684   6.362   5.342
 4685SOL    HW214955   0.567   6.431   5.433
 4686SOL     OW14956   4.699   5.139   0.310
 4686SOL    HW114957   4.776   5.078   0.327
 4686SOL    HW214958   4.633   5.094   0.250
 4687SOL     OW14959   6.347   4.108   5.194
 4687SOL    HW114960   6.340   4.075   5.100
 4687SOL    HW214961   6.436   4.152   5.208
 4688SOL     OW14962   6.104   3.914   5.244
 4688SOL    HW114963   6.143   4.004   5.264
 4688SOL    HW214964   6.176   3.845   5.248
 4689SOL     OW14965   5.988   0.266   0.199
 4689SOL    HW114966   5.972   0.178   0.244
 4689SOL    HW214967   5.978   0.340   0.265
 4690SOL     OW14968   1.345   0.579   0.002
 4690SOL    HW114969   1.360   0.481   7.008
 4690SOL    HW214970   1.266   0.608   6.966
 4691SOL     OW14971   2.881   4.777   2.194
 4691SOL    HW114972   2.860   4.705   2.127
 4691SOL    HW214973   2.842   4.752   2.282
 4692SOL     OW14974   6.138   5.535   1.861
 4692SOL    HW114975   6.107   5.554   1.768
 4692SOL    HW214976   6.141   5.436   1.876
 4693SOL     OW14977   0.840   1.054   3.094
 4693SOL    HW114978   0.805   1.116   3.024
 4693SOL    HW214979   0.783   1.062   3.176
 4694SOL     OW14980   2.305   6.926   0.238
 4694SOL    HW114981   2.210   6.918   0.266
 4694SOL    HW214982   2.343   6.835   0.224
 4695SOL     OW14983   2.207   3.379   1.626
 4695SOL    HW114984   2.259   3.411   1.705
 4695SOL    HW214985   2.183   3.283   1.637
 4696SOL     OW14986   6.970   3.976   6.510
 4696SOL    HW114987   0.041   3.974   6.464
 4696SOL    HW214988   6.934   3.884   6.517
 4697SOL     OW14989   2.376   3.586   0.786
 4697SOL    HW114990   2.285   3.583   0.828
 4697SOL    HW214991   2.445   3.599   0.858
 4698SOL     OW14992   4.778   5.789   3.350
 4698SOL    HW114993   4.728   5.791   3.264
 4698SOL    HW214994   4.730   5.729   3.415
 4699SOL     OW14995   1.900   6.587   1.800
 4699SOL    HW114996   1.805   6.582   1.832
 4699SOL    HW214997   1.904   6.561   1.704
 4700SOL     OW14998   6.716   1.498   2.452
 4700SOL    HW114999   6.692   1.490   2.549
 4700SOL    HW215000   6.798   1.553   2.443
 4701SOL     OW15001   2.281   1.858   0.126
 4701SOL    HW115002   2.256   1.884   0.219
 4701SOL    HW215003   2.373   1.889   0.106
 4702SOL     OW15004   5.870   5.072   6.966
 4702SOL    HW115005   5.875   5.031   0.039
 4702SOL    HW215006   5.931   5.151   6.962
 4703SOL     OW15007   1.074   1.809   1.537
 4703SOL    HW115008   1.021   1.763   1.465
 4703SOL    HW215009   1.015   1.873   1.586
 4704SOL     OW15010   1.532   6.656   6.888
 4704SOL    HW115011   1.501   6.562   6.872
 4704SOL    HW215012   1.567   6.665   6.981
 4705SOL     OW15013   3.315   3.463   2.372
 4705SOL    HW115014   3.363   3.548   2.347
 4705SOL    HW215015   3.380   3.387   2.373
 4706SOL     OW15016   3.939   6.670   6.544
 4706SOL    HW115017   3.977   6.578   6.552
 4706SOL    HW215018   3.927   6.710   6.635
 4707SOL     OW15019   2.463   5.964   1.119
 4707SOL    HW115020   2.540   5.906   1.145
 4707SOL    HW215021   2.425   5.932   1.032
 4708SOL     OW15022   1.298   2.062   6.571
 4708SOL    HW115023   1.348   1.984   6.533
 4708SOL    HW215024   1.362   2.139   6.583
 4709SOL     OW15025   4.567   5.872   6.305
 4709SOL    HW115026   4.565   5.818   6.221
 4709SOL    HW215027   4.513   5.826   6.375
 4710SOL     OW15028   3.987   1.270   5.051
 4710SOL    HW115029   4.033   1.211   5.118
 4710SOL    HW215030   3.907   1.312   5.093
 4711SOL     OW15031   5.604   1.124   1.538
 4711SOL    HW115032   5.632   1.149   1.631
 4711SOL    HW215033   5.555   1.201   1.497
 4712SOL     OW15034   3.057   4.440   0.206
 4712SOL    HW115035   2.968   4.469   0.241
 4712SOL    HW215036   3.123   4.437   0.281
 4713SOL     OW15037   3.436   3.076   0.856
 4713SOL    HW115038   3.483   2.994   0.825
 4713SOL    HW215039   3.345   3.052   0.889
 4714SOL     OW15040   1.172   2.259   6.961
 4714SOL    HW115041   1.154   2.340   6.904
 4714SOL    HW215042   1.157   2.176   6.907
 4715SOL     OW15043   6.874   2.852   2.379
 4715SOL    HW115044   6.779   2.823   2.375
 4715SOL    HW215045   6.920   2.828   2.293
 4716SOL     OW15046   4.734   6.013   6.495
 4716SOL    HW115047   4.697   5.963   6.417
 4716SOL    HW215048   4.703   6.108   6.492
 4717SOL     OW15049   0.608   6.714   3.594
 4717SOL    HW115050   0.600   6.625   3.550
 4717SOL    HW215051   0.553   6.781   3.544
 4718SOL     OW15052   5.541   2.771   0.791
 4718SOL    HW115053   5.535   2.747   0.888
 4718SOL    HW215054   5.623   2.731   0.752
 4719SOL     OW15055   5.432   3.102   2.192
 4719SOL    HW115056   5.520   3.136   2.224
 4719SOL    HW215057   5.404   3.024   2.248
 4720SOL     OW15058   2.167   5.706   5.928
 4720SOL    HW115059   2.259   5.730   5.898
 4720SOL    HW215060   2.118   5.659   5.855
 4721SOL     OW15061   6.288   2.334   1.730
 4721SOL    HW115062   6.208   2.348   1.788
 4721SOL    HW215063   6.371   2.352   1.783
 4722SOL     OW15064   0.763   6.074   6.553
 4722SOL    HW115065   0.841   6.089   6.492
 4722SOL    HW215066   0.682   6.054   6.499
 4723SOL     OW15067   1.806   4.280   6.136
 4723SOL    HW115068   1.820   4.194   6.087
 4723SOL    HW215069   1.794   4.261   6.234
 4724SOL     OW15070   5.219   6.228   2.879
 4724SOL    HW115071   5.218   6.319   2.838
 4724SOL    HW215072   5.309   6.187   2.869
 4725SOL     OW15073   5.996   6.218   2.685
 4725SOL    HW115074   5.931   6.294   2.686
 4725SOL    HW215075   6.034   6.208   2.593
 4726SOL     OW15076   1.418   2.386   6.324
 4726SOL    HW115077   1.494   2.388   6.259
 4726SOL    HW215078   1.344   2.330   6.287
 4727SOL     OW15079   0.979   6.307   0.269
 4727SOL    HW115080   0.895   6.302   0.323
 4727SOL    HW215081   1.055   6.268   0.323
 4728SOL     OW15082   5.256   0.583   1.423
 4728SOL    HW115083   5.322   0.648   1.386
 4728SOL    HW215084   5.303   0.499   1.450
 4729SOL     OW15085   2.367   1.661   1.152
 4729SOL    HW115086   2.366   1.754   1.188
 4729SOL    HW215087   2.398   1.598   1.223
 4730SOL     OW15088   3.525   5.681   4.698
 4730SOL    HW115089   3.525   5.611   4.627
 4730SOL    HW215090   3.536   5.638   4.788
 4731SOL     OW15091   4.350   0.016   6.534
 4731SOL    HW115092   4.436   0.067   6.535
 4731SOL    HW215093   4.336   6.994   6.443
 4732SOL     OW15094   0.894   3.198   5.848
 4732SOL    HW115095   0.870   3.102   5.839
 4732SOL    HW215096   0.846   3.238   5.926
 4733SOL     OW15097   1.634   4.378   4.027
 4733SOL    HW115098   1.706   4.401   3.962
 4733SOL    HW215099   1.564   4.323   3.981
 4734SOL     OW15100   4.822   2.469   0.445
 4734SOL    HW115101   4.739   2.414   0.431
 4734SOL    HW215102   4.854   2.503   0.356
 4735SOL     OW15103   0.196   5.546   4.777
 4735SOL    HW115104   0.173   5.450   4.791
 4735SOL    HW215105   0.189   5.568   4.680
 4736SOL     OW15106   6.931   2.322   6.732
 4736SOL    HW115107   6.938   2.229   6.768
 4736SOL    HW215108   6.940   2.387   6.807
 4737SOL     OW15109   2.210   4.439   2.462
 4737SOL    HW115110   2.289   4.452   2.403
 4737SOL    HW215111   2.126   4.456   2.410
 4738SOL     OW15112   0.226   6.520   3.235
 4738SOL    HW115113   0.255   6.442   3.291
 4738SOL    HW215114   0.131   6.542   3.254
 4739SOL     OW15115   4.191   6.380   3.286
 4739SOL    HW115116   4.101   6.412   3.315
 4739SOL    HW215117   4.181   6.297   3.231
 4740SOL     OW15118   1.288   1.162   1.077
 4740SOL    HW115119   1.270   1.121   0.987
 4740SOL    HW215120   1.237   1.112   1.147
 4741SOL     OW15121   3.693   3.520   1.398
 4741SOL    HW115122   3.639   3.602   1.413
 4741SOL    HW215123   3.658   3.470   1.319
 4742SOL     OW15124   3.025   6.683   5.688
 4742SOL    HW115125   3.109   6.652   5.732
 4742SOL    HW215126   2.974   6.743   5.750
 4743SOL     OW15127   1.631   3.821   2.878
 4743SOL    HW115128   1.651   3.914   2.910
 4743SOL    HW215129   1.712   3.764   2.889
 4744SOL     OW15130   1.985   4.440   0.661
 4744SOL    HW115131   1.946   4.357   0.702
 4744SOL    HW215132   1.961   4.519   0.717
 4745SOL     OW15133   2.811   3.337   5.710
 4745SOL    HW115134   2.796   3.283   5.793
 4745SOL    HW215135   2.898   3.385   5.717
 4746SOL     OW15136   5.112   6.066   3.276
 4746SOL    HW115137   5.091   5.994   3.342
 4746SOL    HW215138   5.211   6.079   3.271
 4747SOL     OW15139   1.745   3.901   0.037
 4747SOL    HW115140   1.699   3.899   6.966
 4747SOL    HW215141   1.676   3.916   0.109
 4748SOL     OW15142   2.526   5.499   1.588
 4748SOL    HW115143   2.603   5.559   1.568
 4748SOL    HW215144   2.552   5.404   1.573
 4749SOL     OW15145   2.355   6.369   5.699
 4749SOL    HW115146   2.390   6.297   5.758
 4749SOL    HW215147   2.413   6.377   5.618
 4750SOL     OW15148   6.875   4.118   5.085
 4750SOL    HW115149   6.941   4.130   5.011
 4750SOL    HW215150   6.784   4.145   5.054
 4751SOL     OW15151   4.305   1.964   2.957
 4751SOL    HW115152   4.264   1.914   3.033
 4751SOL    HW215153   4.232   2.004   2.901
 4752SOL     OW15154   4.227   1.247   6.872
 4752SOL    HW115155   4.186   1.273   6.784
 4752SOL    HW215156   4.203   1.314   6.941
 4753SOL     OW15157   6.737   0.083   4.449
 4753SOL    HW115158   6.826   0.118   4.420
 4753SOL    HW215159   6.734   0.076   4.548
 4754SOL     OW15160   5.657   4.134   4.491
 4754SOL    HW115161   5.622   4.226   4.475
 4754SOL    HW215162   5.619   4.071   4.423
 4755SOL     OW15163   2.806   0.875   0.236
 4755SOL    HW115164   2.735   0.939   0.206
 4755SOL    HW215165   2.890   0.892   0.184
 4756SOL     OW15166   5.783   2.956   5.919
 4756SOL    HW115167   5.760   2.878   5.860
 4756SOL    HW215168   5.703   3.017   5.926
 4757SOL     OW15169   2.662   2.109   1.559
 4757SOL    HW115170   2.582   2.076   1.610
 4757SOL    HW215171   2.738   2.122   1.622
 4758SOL     OW15172   1.422   6.632   3.345
 4758SOL    HW115173   1.470   6.678   3.420
 4758SOL    HW215174   1.388   6.701   3.280
 4759SOL     OW15175   0.084   5.187   5.999
 4759SOL    HW115176   0.075   5.088   5.991
 4759SOL    HW215177   0.001   5.226   6.038
 4760SOL     OW15178   2.474   1.866   0.459
 4760SOL    HW115179   2.540   1.853   0.386
 4760SOL    HW215180   2.504   1.817   0.541
 4761SOL     OW15181   0.989   6.378   0.661
 4761SOL    HW115182   0.893   6.378   0.632
 4761SOL    HW215183   1.018   6.284   0.676
 4762SOL     OW15184   1.582   5.204   1.905
 4762SOL    HW115185   1.631   5.235   1.824
 4762SOL    HW215186   1.516   5.274   1.933
 4763SOL     OW15187   6.115   0.619   2.579
 4763SOL    HW115188   6.122   0.520   2.573
 4763SOL    HW215189   6.048   0.643   2.649
 4764SOL     OW15190   4.791   4.008   5.153
 4764SOL    HW115191   4.758   4.088   5.204
 4764SOL    HW215192   4.768   3.925   5.204
 4765SOL     OW15193   3.855   0.836   5.156
 4765SOL    HW115194   3.795   0.863   5.231
 4765SOL    HW215195   3.836   0.895   5.076
 4766SOL     OW15196   5.721   5.564   3.505
 4766SOL    HW115197   5.640   5.532   3.554
 4766SOL    HW215198   5.716   5.533   3.410
 4767SOL     OW15199   3.017   5.221   4.870
 4767SOL    HW115200   3.065   5.184   4.949
 4767SOL    HW215201   2.961   5.300   4.898
 4768SOL     OW15202   4.674   1.899   6.121
 4768SOL    HW115203   4.738   1.976   6.123
 4768SOL    HW215204   4.710   1.825   6.178
 4769SOL     OW15205   5.048   5.890   7.010
 4769SOL    HW115206   5.138   5.924   0.019
 4769SOL    HW215207   4.979   5.961   0.008
 4770SOL     OW15208   6.765   1.623   4.451
 4770SOL    HW115209   6.745   1.569   4.370
 4770SOL    HW215210   6.693   1.691   4.465
 4771SOL     OW15211   3.292   6.388   5.692
 4771SOL    HW115212   3.204   6.348   5.666
 4771SOL    HW215213   3.279   6.451   5.769
 4772SOL     OW15214   3.803   4.840   0.450
 4772SOL    HW115215   3.726   4.877   0.397
 4772SOL    HW215216   3.776   4.833   0.546
 4773SOL     OW15217   6.846   5.248   5.304
 4773SOL    HW115218   6.784   5.325   5.292
 4773SOL    HW215219   6.897   5.260   5.389
 4774SOL     OW15220   1.576   3.752   0.916
 4774SOL    HW115221   1.657   3.741   0.974
 4774SOL    HW215222   1.527   3.665   0.910
 4775SOL     OW15223   5.013   6.168   3.050
 4775SOL    HW115224   5.040   6.127   3.137
 4775SOL    HW215225   5.092   6.169   2.988
 4776SOL     OW15226   0.911   0.122   5.259
 4776SOL    HW115227   0.934   0.176   5.178
 4776SOL    HW215228   0.855   0.043   5.231
 4777SOL     OW15229   1.339   4.993   1.224
 4777SOL    HW115230   1.438   5.006   1.234
 4777SOL    HW215231   1.300   4.969   1.313
 4778SOL     OW15232   6.807   3.434   3.957
 4778SOL    HW115233   6.844   3.521   3.921
 4778SOL    HW215234   6.874   3.393   4.019
 4779SOL     OW15235   5.252   0.418   2.962
 4779SOL    HW115236   5.153   0.400   2.954
 4779SOL    HW215237   5.277   0.493   2.901
 4780SOL     OW15238   6.200   2.214   0.148
 4780SOL    HW115239   6.195   2.198   0.049
 4780SOL    HW215240   6.274   2.158   0.186
 4781SOL     OW15241   2.557   5.492   2.980
 4781SOL    HW115242   2.523   5.580   2.945
 4781SOL    HW215243   2.497   5.418   2.950
 4782SOL     OW15244   6.014   5.539   6.477
 4782SOL    HW115245   6.107   5.570   6.455
 4782SOL    HW215246   5.948   5.603   6.438
 4783SOL     OW15247   4.895   3.374   0.072
 4783SOL    HW115248   4.889   3.279   0.105
 4783SOL    HW215249   4.985   3.411   0.094
 4784SOL     OW15250   5.987   2.137   6.485
 4784SOL    HW115251   5.902   2.121   6.436
 4784SOL    HW215252   6.064   2.102   6.432
 4785SOL     OW15253   0.795   5.913   3.161
 4785SOL    HW115254   0.783   5.943   3.255
 4785SOL    HW215255   0.707   5.885   3.123
 4786SOL     OW15256   2.518   0.316   0.605
 4786SOL    HW115257   2.501   0.221   0.630
 4786SOL    HW215258   2.600   0.322   0.548
 4787SOL     OW15259   4.187   1.303   3.061
 4787SOL    HW115260   4.116   1.284   3.128
 4787SOL    HW215261   4.186   1.401   3.039
 4788SOL     OW15262   6.566   6.505   6.936
 4788SOL    HW115263   6.473   6.474   6.952
 4788SOL    HW215264   6.590   6.574   7.005
 4789SOL     OW15265   5.840   1.761   2.453
 4789SOL    HW115266   5.906   1.834   2.474
 4789SOL    HW215267   5.749   1.801   2.443
 4790SOL     OW15268   5.592   1.887   5.558
 4790SOL    HW115269   5.531   1.867   5.634
 4790SOL    HW215270   5.613   1.985   5.557
 4791SOL     OW15271   0.584   2.758   1.121
 4791SOL    HW115272   0.589   2.784   1.218
 4791SOL    HW215273   0.489   2.734   1.099
 4792SOL     OW15274   2.749   4.679   3.711
 4792SOL    HW115275   2.736   4.630   3.797
 4792SOL    HW215276   2.668   4.667   3.654
 4793SOL     OW15277   1.732   2.777   5.322
 4793SOL    HW115278   1.651   2.724   5.346
 4793SOL    HW215279   1.722   2.870   5.356
 4794SOL     OW15280   5.234   6.670   4.834
 4794SOL    HW115281   5.331   6.645   4.832
 4794SOL    HW215282   5.190   6.641   4.749
 4795SOL     OW15283   6.254   2.343   4.175
 4795SOL    HW115284   6.294   2.313   4.262
 4795SOL    HW215285   6.176   2.285   4.153
 4796SOL     OW15286   4.110   0.763   4.914
 4796SOL    HW115287   4.145   0.704   4.987
 4796SOL    HW215288   4.011   0.749   4.904
 4797SOL     OW15289   0.594   0.112   5.060
 4797SOL    HW115290   0.585   0.212   5.053
 4797SOL    HW215291   0.544   0.080   5.140
 4798SOL     OW15292   0.305   4.193   5.627
 4798SOL    HW115293   0.263   4.280   5.652
 4798SOL    HW215294   0.383   4.210   5.567
 4799SOL     OW15295   3.902   1.615   0.743
 4799SOL    HW115296   3.996   1.605   0.775
 4799SOL    HW215297   3.900   1.683   0.669
 4800SOL     OW15298   2.527   2.658   6.824
 4800SOL    HW115299   2.461   2.623   6.891
 4800SOL    HW215300   2.492   2.742   6.784
 4801SOL     OW15301   3.277   2.797   0.029
 4801SOL    HW115302   3.199   2.810   6.986
 4801SOL    HW215303   3.332   2.880   0.032
 4802SOL     OW15304   0.117   6.510   1.925
 4802SOL    HW115305   0.121   6.513   1.826
 4802SOL    HW215306   0.073   6.594   1.959
 4803SOL     OW15307   0.215   4.525   7.014
 4803SOL    HW115308   0.176   4.610   0.032
 4803SOL    HW215309   0.205   4.453   0.065
 4804SOL     OW15310   6.843   6.423   1.335
 4804SOL    HW115311   6.876   6.368   1.259
 4804SOL    HW215312   6.900   6.407   1.415
 4805SOL     OW15313   6.029   0.947   2.809
 4805SOL    HW115314   6.025   0.974   2.712
 4805SOL    HW215315   5.975   0.864   2.823
 4806SOL     OW15316   1.523   4.359   2.477
 4806SOL    HW115317   1.441   4.408   2.448
 4806SOL    HW215318   1.514   4.331   2.572
 4807SOL     OW15319   0.588   4.630   6.987
 4807SOL    HW115320   0.615   4.556   0.031
 4807SOL    HW215321   0.575   4.714   0.022
 4808SOL     OW15322   4.487   5.671   0.235
 4808SOL    HW115323   4.529   5.586   0.267
 4808SOL    HW215324   4.463   5.663   0.139
 4809SOL     OW15325   3.442   4.816   0.624
 4809SOL    HW115326   3.454   4.752   0.548
 4809SOL    HW215327   3.530   4.832   0.669
 4810SOL     OW15328   1.129   3.855   2.827
 4810SOL    HW115329   1.041   3.863   2.780
 4810SOL    HW215330   1.113   3.838   2.925
 4811SOL     OW15331   3.102   3.929   2.341
 4811SOL    HW115332   3.063   3.968   2.424
 4811SOL    HW215333   3.136   4.003   2.283
 4812SOL     OW15334   0.632   6.351   2.722
 4812SOL    HW115335   0.730   6.366   2.734
 4812SOL    HW215336   0.590   6.433   2.684
 4813SOL     OW15337   5.628   1.406   6.192
 4813SOL    HW115338   5.591   1.368   6.277
 4813SOL    HW215339   5.639   1.333   6.125
 4814SOL     OW15340   0.111   3.179   0.905
 4814SOL    HW115341   0.039   3.215   0.846
 4814SOL    HW215342   0.119   3.234   0.987
 4815SOL     OW15343   5.477   4.167   3.068
 4815SOL    HW115344   5.488   4.078   3.023
 4815SOL    HW215345   5.538   4.234   3.027
 4816SOL     OW15346   2.142   4.954   1.067
 4816SOL    HW115347   2.056   4.957   1.016
 4816SOL    HW215348   2.219   4.951   1.003
 4817SOL     OW15349   2.444   1.446   0.301
 4817SOL    HW115350   2.450   1.479   0.395
 4817SOL    HW215351   2.408   1.353   0.301
 4818SOL     OW15352   0.468   0.543   4.458
 4818SOL    HW115353   0.380   0.537   4.410
 4818SOL    HW215354   0.454   0.581   4.549
 4819SOL     OW15355   2.208   2.244   1.451
 4819SOL    HW115356   2.275   2.312   1.482
 4819SOL    HW215357   2.144   2.287   1.387
 4820SOL     OW15358   6.254   2.198   0.647
 4820SOL    HW115359   6.314   2.265   0.602
 4820SOL    HW215360   6.306   2.146   0.714
 4821SOL     OW15361   0.452   0.006   1.970
 4821SOL    HW115362   0.497   0.012   1.881
 4821SOL    HW215363   0.482   0.082   2.028
 4822SOL     OW15364   1.666   3.508   4.190
 4822SOL    HW115365   1.765   3.503   4.202
 4822SOL    HW215366   1.643   3.585   4.131
 4823SOL     OW15367   0.907   0.749   4.002
 4823SOL    HW115368   0.964   0.719   4.079
 4823SOL    HW215369   0.843   0.676   3.978
 4824SOL     OW15370   5.225   1.781   4.087
 4824SOL    HW115371   5.177   1.817   4.166
 4824SOL    HW215372   5.314   1.745   4.116
 4825SOL     OW15373   2.021   1.956   5.060
 4825SOL    HW115374   1.940   1.969   5.002
 4825SOL    HW215375   2.101   1.995   5.014
 4826SOL     OW15376   0.263   0.662   6.244
 4826SOL    HW115377   0.171   0.637   6.273
 4826SOL    HW215378   0.328   0.639   6.316
 4827SOL     OW15379   5.742   2.179   1.834
 4827SOL    HW115380   5.732   2.215   1.741
 4827SOL    HW215381   5.652   2.166   1.875
 4828SOL     OW15382   5.795   2.995   1.412
 4828SOL    HW115383   5.723   2.947   1.461
 4828SOL    HW215384   5.759   3.080   1.374
 4829SOL     OW15385   4.217   6.373   6.916
 4829SOL    HW115386   4.211   6.468   6.885
 4829SOL    HW215387   4.313   6.350   6.934
 4830SOL     OW15388   4.272   6.494   3.507
 4830SOL    HW115389   4.320   6.423   3.557
 4830SOL    HW215390   4.231   6.455   3.424
 4831SOL     OW15391   0.340   5.088   6.509
 4831SOL    HW115392   0.326   5.044   6.421
 4831SOL    HW215393   0.433   5.072   6.540
 4832SOL     OW15394   3.289   3.131   5.540
 4832SOL    HW115395   3.226   3.145   5.463
 4832SOL    HW215396   3.369   3.189   5.528
 4833SOL     OW15397   5.368   2.206   3.280
 4833SOL    HW115398   5.287   2.222   3.224
 4833SOL    HW215399   5.404   2.115   3.261
 4834SOL     OW15400   4.024   6.669   1.027
 4834SOL    HW115401   4.067   6.658   1.117
 4834SOL    HW215402   3.991   6.762   1.017
 4835SOL     OW15403   0.257   1.302   6.218
 4835SOL    HW115404   0.336   1.278   6.162
 4835SOL    HW215405   0.275   1.280   6.313
 4836SOL     OW15406   4.884   2.936   4.090
 4836SOL    HW115407   4.808   2.935   4.155
 4836SOL    HW215408   4.886   3.023   4.042
 4837SOL     OW15409   5.853   4.184   2.034
 4837SOL    HW115410   5.847   4.200   2.132
 4837SOL    HW215411   5.767   4.211   1.991
 4838SOL     OW15412   0.631   4.586   1.014
 4838SOL    HW115413   0.637   4.592   0.914
 4838SOL    HW215414   0.575   4.661   1.048
 4839SOL     OW15415   1.351   2.609   6.060
 4839SOL    HW115416   1.396   2.697   6.048
 4839SOL    HW215417   1.398   2.556   6.130
 4840SOL     OW15418   0.609   5.686   5.923
 4840SOL    HW115419   0.674   5.686   5.847
 4840SOL    HW215420   0.543   5.759   5.910
 4841SOL     OW15421   3.300   6.122   1.769
 4841SOL    HW115422   3.266   6.204   1.815
 4841SOL    HW215423   3.381   6.089   1.817
 4842SOL     OW15424   3.503   4.879   2.418
 4842SOL    HW115425   3.492   4.781   2.437
 4842SOL    HW215426   3.531   4.891   2.322
 4843SOL     OW15427   5.965   2.939   0.626
 4843SOL    HW115428   5.891   2.953   0.691
 4843SOL    HW215429   5.986   3.025   0.580
 4844SOL     OW15430   6.477   3.507   5.466
 4844SOL    HW115431   6.466   3.595   5.514
 4844SOL    HW215432   6.397   3.492   5.408
 4845SOL     OW15433   5.672   5.495   5.381
 4845SOL    HW115434   5.641   5.401   5.396
 4845SOL    HW215435   5.741   5.519   5.448
 4846SOL     OW15436   0.019   2.633   3.790
 4846SOL    HW115437   7.015   2.540   3.822
 4846SOL    HW215438   0.103   2.630   3.736
 4847SOL     OW15439   2.652   1.123   6.163
 4847SOL    HW115440   2.584   1.135   6.090
 4847SOL    HW215441   2.666   1.209   6.211
 4848SOL     OW15442   1.629   0.752   3.799
 4848SOL    HW115443   1.655   0.843   3.831
 4848SOL    HW215444   1.606   0.758   3.702
 4849SOL     OW15445   1.591   6.401   6.754
 4849SOL    HW115446   1.631   6.351   6.831
 4849SOL    HW215447   1.498   6.368   6.737
 4850SOL     OW15448   4.506   1.444   2.650
 4850SOL    HW115449   4.519   1.519   2.586
 4850SOL    HW215450   4.434   1.384   2.618
 4851SOL     OW15451   4.148   5.816   6.060
 4851SOL    HW115452   4.112   5.842   5.970
 4851SOL    HW215453   4.104   5.730   6.089
 4852SOL     OW15454   1.057   6.539   5.146
 4852SOL    HW115455   1.086   6.526   5.240
 4852SOL    HW215456   1.119   6.491   5.084
 4853SOL     OW15457   2.800   1.080   3.390
 4853SOL    HW115458   2.733   1.142   3.349
 4853SOL    HW215459   2.838   1.021   3.319
 4854SOL     OW15460   4.514   0.151   1.835
 4854SOL    HW115461   4.513   0.143   1.935
 4854SOL    HW215462   4.486   0.064   1.795
 4855SOL     OW15463   6.152   2.855   2.158
 4855SOL    HW115464   6.166   2.856   2.059
 4855SOL    HW215465   6.191   2.771   2.197
 4856SOL     OW15466   1.776   3.754   2.609
 4856SOL    HW115467   1.725   3.671   2.588
 4856SOL    HW215468   1.799   3.755   2.706
 4857SOL     OW15469   2.182   2.078   4.872
 4857SOL    HW115470   2.280   2.091   4.858
 4857SOL    HW215471   2.139   2.166   4.892
 4858SOL     OW15472   0.660   0.346   4.416
 4858SOL    HW115473   0.748   0.386   4.438
 4858SOL    HW215474   0.590   0.417   4.414
 4859SOL     OW15475   7.007   0.798   4.655
 4859SOL    HW115476   0.084   0.830   4.658
 4859SOL    HW215477   6.993   0.743   4.572
 4860SOL     OW15478   3.996   4.851   1.421
 4860SOL    HW115479   4.094   4.863   1.440
 4860SOL    HW215480   3.948   4.937   1.436
 4861SOL     OW15481   5.245   4.971   6.912
 4861SOL    HW115482   5.274   4.890   6.861
 4861SOL    HW215483   5.287   4.971   7.003
 4862SOL     OW15484   2.514   4.606   4.431
 4862SOL    HW115485   2.450   4.680   4.408
 4862SOL    HW215486   2.491   4.525   4.376
 4863SOL     OW15487   6.018   3.858   1.520
 4863SOL    HW115488   6.038   3.804   1.602
 4863SOL    HW215489   5.919   3.874   1.514
 4864SOL     OW15490   4.145   1.090   2.864
 4864SOL    HW115491   4.070   1.050   2.918
 4864SOL    HW215492   4.171   1.178   2.904
 4865SOL     OW15493   2.466   0.260   4.575
 4865SOL    HW115494   2.546   0.272   4.633
 4865SOL    HW215495   2.490   0.284   4.480
 4866SOL     OW15496   6.136   2.478   1.542
 4866SOL    HW115497   6.195   2.434   1.609
 4866SOL    HW215498   6.151   2.577   1.545
 4867SOL     OW15499   3.523   5.281   2.063
 4867SOL    HW115500   3.525   5.376   2.094
 4867SOL    HW215501   3.560   5.276   1.970
 4868SOL     OW15502   6.713   5.549   2.821
 4868SOL    HW115503   6.693   5.519   2.728
 4868SOL    HW215504   6.709   5.649   2.825
 4869SOL     OW15505   1.822   1.114   1.263
 4869SOL    HW115506   1.921   1.096   1.261
 4869SOL    HW215507   1.806   1.212   1.266
 4870SOL     OW15508   0.086   6.021   1.876
 4870SOL    HW115509   0.127   6.037   1.966
 4870SOL    HW215510   7.010   5.988   1.889
 4871SOL     OW15511   1.396   0.964   3.767
 4871SOL    HW115512   1.492   0.980   3.743
 4871SOL    HW215513   1.338   1.022   3.710
 4872SOL     OW15514   6.273   6.515   3.482
 4872SOL    HW115515   6.193   6.527   3.423
 4872SOL    HW215516   6.274   6.587   3.552
 4873SOL     OW15517   6.590   5.725   3.070
 4873SOL    HW115518   6.627   5.661   3.137
 4873SOL    HW215519   6.525   5.786   3.116
 4874SOL     OW15520   6.669   3.473   2.718
 4874SOL    HW115521   6.681   3.381   2.683
 4874SOL    HW215522   6.735   3.489   2.792
 4875SOL     OW15523   6.098   2.407   1.284
 4875SOL    HW115524   6.132   2.440   1.372
 4875SOL    HW215525   6.165   2.427   1.212
 4876SOL     OW15526   5.952   1.911   3.729
 4876SOL    HW115527   6.035   1.886   3.679
 4876SOL    HW215528   5.899   1.829   3.750
 4877SOL     OW15529   1.636   2.075   6.495
 4877SOL    HW115530   1.589   2.147   6.546
 4877SOL    HW215531   1.658   2.107   6.403
 4878SOL     OW15532   6.141   1.377   2.624
 4878SOL    HW115533   6.147   1.297   2.683
 4878SOL    HW215534   6.230   1.393   2.580
 4879SOL     OW15535   3.786   0.094   2.691
 4879SOL    HW115536   3.839   0.031   2.747
 4879SOL    HW215537   3.763   0.050   2.604
 4880SOL     OW15538   5.279   3.151   0.760
 4880SOL    HW115539   5.221   3.099   0.823
 4880SOL    HW215540   5.221   3.206   0.700
 4881SOL     OW15541   1.675   0.423   0.042
 4881SOL    HW115542   1.763   0.393   0.004
 4881SOL    HW215543   1.601   0.376   7.012
 4882SOL     OW15544   5.098   0.852   5.020
 4882SOL    HW115545   5.068   0.794   5.096
 4882SOL    HW215546   5.145   0.932   5.056
 4883SOL     OW15547   4.875   5.056   1.770
 4883SOL    HW115548   4.938   4.990   1.812
 4883SOL    HW215549   4.913   5.148   1.778
 4884SOL     OW15550   2.513   6.639   1.286
 4884SOL    HW115551   2.515   6.540   1.304
 4884SOL    HW215552   2.472   6.686   1.364
 4885SOL     OW15553   2.782   5.338   2.098
 4885SOL    HW115554   2.756   5.297   2.185
 4885SOL    HW215555   2.719   5.413   2.077
 4886SOL     OW15556   0.763   5.675   1.390
 4886SOL    HW115557   0.820   5.598   1.363
 4886SOL    HW215558   0.670   5.662   1.357
 4887SOL     OW15559   0.982   0.327   2.575
 4887SOL    HW115560   1.036   0.395   2.623
 4887SOL    HW215561   0.930   0.273   2.641
 4888SOL     OW15562   2.638   0.175   3.776
 4888SOL    HW115563   2.738   0.172   3.775
 4888SOL    HW215564   2.603   0.142   3.689
 4889SOL     OW15565   6.786   1.587   5.621
 4889SOL    HW115566   6.828   1.497   5.623
 4889SOL    HW215567   6.826   1.644   5.692
 4890SOL     OW15568   0.443   1.084   6.936
 4890SOL    HW115569   0.482   1.083   6.844
 4890SOL    HW215570   0.411   1.177   6.957
 4891SOL     OW15571   1.824   4.540   6.752
 4891SOL    HW115572   1.848   4.445   6.773
 4891SOL    HW215573   1.803   4.549   6.655
 4892SOL     OW15574   3.688   6.146   1.450
 4892SOL    HW115575   3.617   6.076   1.457
 4892SOL    HW215576   3.668   6.220   1.514
 4893SOL     OW15577   6.937   3.079   1.727
 4893SOL    HW115578   6.858   3.132   1.757
 4893SOL    HW215579   6.912   2.983   1.721
 4894SOL     OW15580   2.298   1.317   3.538
 4894SOL    HW115581   2.216   1.266   3.567
 4894SOL    HW215582   2.284   1.353   3.446
 4895SOL     OW15583   0.880   4.188   3.945
 4895SOL    HW115584   0.889   4.131   4.026
 4895SOL    HW215585   0.786   4.185   3.912
 4896SOL     OW15586   1.686   4.494   1.840
 4896SOL    HW115587   1.706   4.486   1.938
 4896SOL    HW215588   1.672   4.590   1.816
 4897SOL     OW15589   2.045   3.516   5.645
 4897SOL    HW115590   2.063   3.566   5.730
 4897SOL    HW215591   2.090   3.561   5.568
 4898SOL     OW15592   4.377   0.784   4.200
 4898SOL    HW115593   4.391   0.758   4.295
 4898SOL    HW215594   4.286   0.825   4.190
 4899SOL     OW15595   5.673   5.573   3.212
 4899SOL    HW115596   5.588   5.623   3.226
 4899SOL    HW215597   5.732   5.623   3.150
 4900SOL     OW15598   3.208   6.273   4.947
 4900SOL    HW115599   3.260   6.324   5.015
 4900SOL    HW215600   3.204   6.325   4.862
 4901SOL     OW15601   3.201   0.723   5.135
 4901SOL    HW115602   3.102   0.712   5.128
 4901SOL    HW215603   3.230   0.708   5.229
 4902SOL     OW15604   2.049   1.809   4.769
 4902SOL    HW115605   2.091   1.895   4.798
 4902SOL    HW215606   2.007   1.821   4.679
 4903SOL     OW15607   4.181   5.692   0.016
 4903SOL    HW115608   4.257   5.752   7.009
 4903SOL    HW215609   4.209   5.597   0.004
 4904SOL     OW15610   2.236   0.226   4.244
 4904SOL    HW115611   2.327   0.266   4.239
 4904SOL    HW215612   2.185   0.248   4.161
 4905SOL     OW15613   3.601   6.792   2.661
 4905SOL    HW115614   3.678   6.745   2.706
 4905SOL    HW215615   3.520   6.783   2.718
 4906SOL     OW15616   5.018   2.293   6.443
 4906SOL    HW115617   4.947   2.354   6.477
 4906SOL    HW215618   5.043   2.228   6.515
 4907SOL     OW15619   4.590   5.644   1.751
 4907SOL    HW115620   4.492   5.632   1.767
 4907SOL    HW215621   4.625   5.715   1.810
 4908SOL     OW15622   5.507   5.183   7.011
 4908SOL    HW115623   5.499   5.141   0.084
 4908SOL    HW215624   5.515   5.282   0.003
 4909SOL     OW15625   0.054   6.914   3.956
 4909SOL    HW115626   0.099   6.969   3.885
 4909SOL    HW215627   0.121   6.890   4.026
 4910SOL     OW15628   5.651   0.546   5.054
 4910SOL    HW115629   5.600   0.486   5.116
 4910SOL    HW215630   5.587   0.588   4.989
 4911SOL     OW15631   1.421   4.224   3.915
 4911SOL    HW115632   1.355   4.286   3.957
 4911SOL    HW215633   1.380   4.134   3.903
 4912SOL     OW15634   5.693   1.363   6.469
 4912SOL    HW115635   5.739   1.449   6.493
 4912SOL    HW215636   5.757   1.303   6.421
 4913SOL     OW15637   3.712   2.664   5.288
 4913SOL    HW115638   3.684   2.684   5.382
 4913SOL    HW215639   3.688   2.570   5.264
 4914SOL     OW15640   3.414   0.532   4.646
 4914SOL    HW115641   3.371   0.570   4.728
 4914SOL    HW215642   3.362   0.454   4.614
 4915SOL     OW15643   3.861   6.426   5.813
 4915SOL    HW115644   3.937   6.490   5.815
 4915SOL    HW215645   3.823   6.416   5.905
 4916SOL     OW15646   1.207   0.432   3.699
 4916SOL    HW115647   1.225   0.457   3.794
 4916SOL    HW215648   1.250   0.499   3.638
 4917SOL     OW15649   2.716   5.510   1.308
 4917SOL    HW115650   2.703   5.541   1.214
 4917SOL    HW215651   2.697   5.586   1.370
 4918SOL     OW15652   5.124   5.481   2.882
 4918SOL    HW115653   5.140   5.428   2.799
 4918SOL    HW215654   5.164   5.434   2.961
 4919SOL     OW15655   2.632   2.975   0.433
 4919SOL    HW115656   2.600   2.880   0.442
 4919SOL    HW215657   2.679   2.985   0.345
 4920SOL     OW15658   6.035   1.134   4.566
 4920SOL    HW115659   6.022   1.036   4.582
 4920SOL    HW215660   6.120   1.164   4.608
 4921SOL     OW15661   1.130   5.009   0.499
 4921SOL    HW115662   1.072   5.005   0.417
 4921SOL    HW215663   1.128   5.102   0.536
 4922SOL     OW15664   2.613   2.303   4.986
 4922SOL    HW115665   2.592   2.364   4.910
 4922SOL    HW215666   2.574   2.339   5.071
 4923SOL     OW15667   4.109   2.102   2.822
 4923SOL    HW115668   4.111   2.104   2.722
 4923SOL    HW215669   4.031   2.046   2.853
 4924SOL     OW15670   2.999   1.004   4.853
 4924SOL    HW115671   3.091   0.998   4.813
 4924SOL    HW215672   2.931   1.005   4.780
 4925SOL     OW15673   6.636   0.039   2.243
 4925SOL    HW115674   6.676   7.014   2.323
 4925SOL    HW215675   6.539   0.059   2.260
 4926SOL     OW15676   4.937   1.266   0.491
 4926SOL    HW115677   4.858   1.218   0.454
 4926SOL    HW215678   4.910   1.319   0.571
 4927SOL     OW15679   3.571   3.895   4.438
 4927SOL    HW115680   3.481   3.852   4.429
 4927SOL    HW215681   3.643   3.826   4.428
 4928SOL     OW15682   2.051   6.834   6.732
 4928SOL    HW115683   2.143   6.810   6.763
 4928SOL    HW215684   1.984   6.812   6.803
 4929SOL     OW15685   0.257   6.094   4.174
 4929SOL    HW115686   0.326   6.160   4.146
 4929SOL    HW215687   0.291   6.001   4.158
 4930SOL     OW15688   5.152   0.854   3.382
 4930SOL    HW115689   5.096   0.906   3.317
 4930SOL    HW215690   5.192   0.776   3.335
 4931SOL     OW15691   0.192   6.646   0.676
 4931SOL    HW115692   0.152   6.631   0.586
 4931SOL    HW215693   0.231   6.738   0.681
 4932SOL     OW15694   3.084   3.117   2.124
 4932SOL    HW115695   3.160   3.164   2.080
 4932SOL    HW215696   3.070   3.155   2.215
 4933SOL     OW15697   2.154   0.214   3.198
 4933SOL    HW115698   2.127   0.308   3.218
 4933SOL    HW215699   2.224   0.214   3.127
 4934SOL     OW15700   3.117   5.977   2.332
 4934SOL    HW115701   3.178   5.898   2.340
 4934SOL    HW215702   3.027   5.947   2.301
 4935SOL     OW15703   2.207   1.616   6.285
 4935SOL    HW115704   2.147   1.668   6.346
 4935SOL    HW215705   2.256   1.546   6.337
 4936SOL     OW15706   2.224   4.436   1.677
 4936SOL    HW115707   2.274   4.445   1.763
 4936SOL    HW215708   2.219   4.525   1.632
 4937SOL     OW15709   6.390   3.176   5.677
 4937SOL    HW115710   6.440   3.094   5.650
 4937SOL    HW215711   6.448   3.256   5.665
 4938SOL     OW15712   2.672   5.494   5.699
 4938SOL    HW115713   2.701   5.571   5.642
 4938SOL    HW215714   2.717   5.498   5.788
 4939SOL     OW15715   5.886   1.810   4.538
 4939SOL    HW115716   5.966   1.803   4.479
 4939SOL    HW215717   5.913   1.793   4.633
 4940SOL     OW15718   0.070   1.333   4.668
 4940SOL    HW115719   7.007   1.322   4.610
 4940SOL    HW215720   0.075   1.256   4.731
 4941SOL     OW15721   5.337   2.591   5.356
 4941SOL    HW115722   5.273   2.547   5.293
 4941SOL    HW215723   5.288   2.622   5.437
 4942SOL     OW15724   5.245   2.577   5.903
 4942SOL    HW115725   5.164   2.526   5.932
 4942SOL    HW215726   5.219   2.670   5.877
 4943SOL     OW15727   4.466   3.439   0.012
 4943SOL    HW115728   4.399   3.472   6.964
 4943SOL    HW215729   4.540   3.507   0.021
 4944SOL     OW15730   2.134   4.671   1.547
 4944SOL    HW115731   2.056   4.701   1.601
 4944SOL    HW215732   2.104   4.646   1.455
 4945SOL     OW15733   1.050   0.009   4.321
 4945SOL    HW115734   0.963   0.026   4.273
 4945SOL    HW215735   1.115   0.081   4.298
 4946SOL     OW15736   1.261   4.432   6.886
 4946SOL    HW115737   1.222   4.518   6.918
 4946SOL    HW215738   1.197   4.386   6.825
 4947SOL     OW15739   2.155   1.048   1.000
 4947SOL    HW115740   2.142   0.949   1.004
 4947SOL    HW215741   2.154   1.079   0.905
 4948SOL     OW15742   1.304   2.520   2.565
 4948SOL    HW115743   1.299   2.611   2.523
 4948SOL    HW215744   1.213   2.481   2.571
 4949SOL     OW15745   4.966   6.586   6.080
 4949SOL    HW115746   4.926   6.575   6.172
 4949SOL    HW215747   4.893   6.581   6.012
 4950SOL     OW15748   2.095   6.062   4.175
 4950SOL    HW115749   2.190   6.069   4.204
 4950SOL    HW215750   2.035   6.076   4.254
 4951SOL     OW15751   5.428   1.403   4.877
 4951SOL    HW115752   5.517   1.424   4.917
 4951SOL    HW215753   5.409   1.467   4.803
 4952SOL     OW15754   0.278   0.601   5.972
 4952SOL    HW115755   0.264   0.623   6.069
 4952SOL    HW215756   0.209   0.535   5.943
 4953SOL     OW15757   2.494   6.028   2.633
 4953SOL    HW115758   2.444   5.942   2.640
 4953SOL    HW215759   2.568   6.018   2.565
 4954SOL     OW15760   4.199   3.087   6.843
 4954SOL    HW115761   4.241   3.164   6.794
 4954SOL    HW215762   4.131   3.044   6.784
 4955SOL     OW15763   2.835   6.277   6.463
 4955SOL    HW115764   2.833   6.205   6.532
 4955SOL    HW215765   2.745   6.319   6.455
 4956SOL     OW15766   2.035   6.560   4.650
 4956SOL    HW115767   2.120   6.547   4.600
 4956SOL    HW215768   2.053   6.559   4.748
 4957SOL     OW15769   6.889   1.933   1.991
 4957SOL    HW115770   6.817   1.868   1.965
 4957SOL    HW215771   6.857   2.026   1.974
 4958SOL     OW15772   0.002   5.217   5.535
 4958SOL    HW115773   6.985   5.302   5.574
 4958SOL    HW215774   0.101   5.214   5.546
 4959SOL     OW15775   6.218   1.605   6.501
 4959SOL    HW115776   6.277   1.533   6.465
 4959SOL    HW215777   6.274   1.675   6.545
 4960SOL     OW15778   3.426   5.265   3.848
 4960SOL    HW115779   3.418   5.165   3.846
 4960SOL    HW215780   3.481   5.292   3.926
 4961SOL     OW15781   4.869   1.336   6.085
 4961SOL    HW115782   4.953   1.301   6.043
 4961SOL    HW215783   4.887   1.358   6.181
 4962SOL     OW15784   6.518   1.801   0.457
 4962SOL    HW115785   6.561   1.711   0.466
 4962SOL    HW215786   6.561   1.850   0.381
 4963SOL     OW15787   6.272   6.032   6.721
 4963SOL    HW115788   6.287   5.981   6.637
 4963SOL    HW215789   6.264   5.968   6.798
 4964SOL     OW15790   2.760   6.869   3.885
 4964SOL    HW115791   2.829   6.891   3.816
 4964SOL    HW215792   2.782   6.780   3.926
 4965SOL     OW15793   0.199   0.632   3.127
 4965SOL    HW115794   0.185   0.727   3.101
 4965SOL    HW215795   0.224   0.628   3.224
 4966SOL     OW15796   2.248   6.852   4.984
 4966SOL    HW115797   2.155   6.871   5.015
 4966SOL    HW215798   2.246   6.827   4.887
 4967SOL     OW15799   3.976   4.478   6.785
 4967SOL    HW115800   4.002   4.489   6.881
 4967SOL    HW215801   4.041   4.528   6.728
 4968SOL     OW15802   6.408   2.606   3.821
 4968SOL    HW115803   6.341   2.546   3.777
 4968SOL    HW215804   6.476   2.635   3.754
 4969SOL     OW15805   2.442   0.530   2.776
 4969SOL    HW115806   2.462   0.467   2.702
 4969SOL    HW215807   2.342   0.539   2.786
 4970SOL     OW15808   1.936   2.248   3.594
 4970SOL    HW115809   1.922   2.170   3.534
 4970SOL    HW215810   2.034   2.267   3.603
 4971SOL     OW15811   6.485   6.283   4.157
 4971SOL    HW115812   6.418   6.339   4.206
 4971SOL    HW215813   6.531   6.340   4.088
 4972SOL     OW15814   2.348   3.133   0.068
 4972SOL    HW115815   2.302   3.097   7.005
 4972SOL    HW215816   2.332   3.232   0.074
 4973SOL     OW15817   1.375   0.492   2.461
 4973SOL    HW115818   1.300   0.557   2.445
 4973SOL    HW215819   1.361   0.411   2.405
 4974SOL     OW15820   6.135   4.898   1.320
 4974SOL    HW115821   6.159   4.808   1.284
 4974SOL    HW215822   6.112   4.891   1.417
 4975SOL     OW15823   5.540   4.890   5.496
 4975SOL    HW115824   5.550   4.842   5.409
 4975SOL    HW215825   5.443   4.901   5.517
 4976SOL     OW15826   2.490   0.317   3.966
 4976SOL    HW115827   2.552   0.245   3.935
 4976SOL    HW215828   2.425   0.338   3.893
 4977SOL     OW15829   3.894   4.302   0.252
 4977SOL    HW115830   3.832   4.379   0.241
 4977SOL    HW215831   3.889   4.269   0.347
 4978SOL     OW15832   0.134   4.544   5.085
 4978SOL    HW115833   0.163   4.494   5.003
 4978SOL    HW215834   0.034   4.548   5.087
 4979SOL     OW15835   0.428   0.121   5.673
 4979SOL    HW115836   0.410   0.036   5.722
 4979SOL    HW215837   0.525   0.125   5.649
 4980SOL     OW15838   4.739   6.046   3.479
 4980SOL    HW115839   4.642   6.065   3.497
 4980SOL    HW215840   4.746   5.982   3.402
 4981SOL     OW15841   4.923   6.587   6.388
 4981SOL    HW115842   4.835   6.621   6.423
 4981SOL    HW215843   4.996   6.648   6.418
 4982SOL     OW15844   2.482   1.612   5.852
 4982SOL    HW115845   2.523   1.521   5.860
 4982SOL    HW215846   2.408   1.621   5.918
 4983SOL     OW15847   5.341   2.365   4.567
 4983SOL    HW115848   5.249   2.405   4.566
 4983SOL    HW215849   5.397   2.407   4.496
 4984SOL     OW15850   6.118   4.742   4.066
 4984SOL    HW115851   6.062   4.676   4.116
 4984SOL    HW215852   6.139   4.706   3.975
 4985SOL     OW15853   6.420   6.250   3.309
 4985SOL    HW115854   6.473   6.295   3.380
 4985SOL    HW215855   6.347   6.196   3.350
 4986SOL     OW15856   6.118   4.227   2.461
 4986SOL    HW115857   6.057   4.257   2.388
 4986SOL    HW215858   6.087   4.264   2.549
 4987SOL     OW15859   1.142   0.971   0.928
 4987SOL    HW115860   1.098   0.908   0.865
 4987SOL    HW215861   1.073   1.012   0.988
 4988SOL     OW15862   5.523   0.711   3.628
 4988SOL    HW115863   5.572   0.718   3.714
 4988SOL    HW215864   5.430   0.747   3.639
 4989SOL     OW15865   5.522   0.283   1.258
 4989SOL    HW115866   5.501   0.186   1.254
 4989SOL    HW215867   5.467   0.326   1.329
 4990SOL     OW15868   2.065   1.502   5.307
 4990SOL    HW115869   2.114   1.430   5.257
 4990SOL    HW215870   2.067   1.586   5.254
 4991SOL     OW15871   6.702   4.258   4.634
 4991SOL    HW115872   6.774   4.308   4.683
 4991SOL    HW215873   6.744   4.193   4.571
 4992SOL     OW15874   4.868   0.670   4.664
 4992SOL    HW115875   4.892   0.634   4.574
 4992SOL    HW215876   4.849   0.595   4.726
 4993SOL     OW15877   3.350   4.962   4.124
 4993SOL    HW115878   3.286   5.039   4.121
 4993SOL    HW215879   3.386   4.952   4.217
 4994SOL     OW15880   2.137   0.128   2.794
 4994SOL    HW115881   2.081   0.209   2.813
 4994SOL    HW215882   2.195   0.146   2.714
 4995SOL     OW15883   6.864   2.951   5.769
 4995SOL    HW115884   6.803   3.030   5.784
 4995SOL    HW215885   6.846   2.912   5.679
 4996SOL     OW15886   1.567   1.569   2.775
 4996SOL    HW115887   1.598   1.547   2.868
 4996SOL    HW215888   1.539   1.665   2.772
 4997SOL     OW15889   5.653   2.152   3.320
 4997SOL    HW115890   5.626   2.157   3.417
 4997SOL    HW215891   5.590   2.208   3.266
 4998SOL     OW15892   1.780   4.014   5.606
 4998SOL    HW115893   1.741   3.978   5.691
 4998SOL    HW215894   1.760   3.951   5.531
 4999SOL     OW15895   6.150   4.418   1.132
 4999SOL    HW115896   6.119   4.323   1.140
 4999SOL    HW215897   6.190   4.432   1.042
 5000SOL     OW15898   2.820   6.687   4.132
 5000SOL    HW115899   2.858   6.708   4.223
 5000SOL    HW215900   2.753   6.613   4.140
 5001SOL     OW15901   1.190   3.997   0.776
 5001SOL    HW115902   1.129   4.073   0.798
 5001SOL    HW215903   1.211   3.999   0.678
 5002SOL     OW15904   1.292   3.228   3.600
 5002SOL    HW115905   1.296   3.282   3.684
 5002SOL    HW215906   1.385   3.217   3.564
 5003SOL     OW15907   2.354   6.580   2.821
 5003SOL    HW115908   2.401   6.543   2.900
 5003SOL    HW215909   2.385   6.533   2.738
 5004SOL     OW15910   2.783   5.008   5.968
 5004SOL    HW115911   2.807   4.969   6.057
 5004SOL    HW215912   2.707   4.955   5.929
 5005SOL     OW15913   3.368   2.346   0.532
 5005SOL    HW115914   3.315   2.418   0.487
 5005SOL    HW215915   3.361   2.356   0.632
 5006SOL     OW15916   4.804   6.883   6.818
 5006SOL    HW115917   4.828   6.955   6.754
 5006SOL    HW215918   4.744   6.920   6.889
 5007SOL     OW15919   1.621   0.098   6.970
 5007SOL    HW115920   1.640   0.005   6.937
 5007SOL    HW215921   1.584   0.094   0.044
 5008SOL     OW15922   6.188   0.067   3.134
 5008SOL    HW115923   6.281   0.078   3.168
 5008SOL    HW215924   6.135   0.150   3.151
 5009SOL     OW15925   1.915   6.209   1.388
 5009SOL    HW115926   1.993   6.183   1.445
 5009SOL    HW215927   1.832   6.212   1.445
 5010SOL     OW15928   3.742   3.184   3.081
 5010SOL    HW115929   3.767   3.280   3.086
 5010SOL    HW215930   3.656   3.169   3.130
 5011SOL     OW15931   1.482   3.853   2.658
 5011SOL    HW115932   1.526   3.843   2.747
 5011SOL    HW215933   1.521   3.931   2.610
 5012SOL     OW15934   4.961   3.727   6.359
 5012SOL    HW115935   4.921   3.702   6.447
 5012SOL    HW215936   5.051   3.684   6.350
 5013SOL     OW15937   5.101   1.712   6.699
 5013SOL    HW115938   5.120   1.759   6.612
 5013SOL    HW215939   5.069   1.778   6.766
 5014SOL     OW15940   5.303   4.152   1.017
 5014SOL    HW115941   5.238   4.125   0.945
 5014SOL    HW215942   5.312   4.078   1.083
 5015SOL     OW15943   4.696   2.317   4.117
 5015SOL    HW115944   4.692   2.314   4.217
 5015SOL    HW215945   4.730   2.229   4.083
 5016SOL     OW15946   2.716   2.469   0.586
 5016SOL    HW115947   2.810   2.469   0.552
 5016SOL    HW215948   2.655   2.433   0.516
 5017SOL     OW15949   1.770   1.856   6.888
 5017SOL    HW115950   1.688   1.870   6.944
 5017SOL    HW215951   1.791   1.940   6.838
 5018SOL     OW15952   0.311   4.482   1.419
 5018SOL    HW115953   0.381   4.436   1.365
 5018SOL    HW215954   0.334   4.475   1.516
 5019SOL     OW15955   1.513   5.083   6.639
 5019SOL    HW115956   1.434   5.023   6.623
 5019SOL    HW215957   1.481   5.174   6.665
 5020SOL     OW15958   4.649   6.955   6.041
 5020SOL    HW115959   4.643   6.923   6.136
 5020SOL    HW215960   4.636   0.036   6.039
 5021SOL     OW15961   1.233   1.979   5.846
 5021SOL    HW115962   1.209   2.022   5.759
 5021SOL    HW215963   1.252   1.882   5.832
 5022SOL     OW15964   1.547   0.242   0.288
 5022SOL    HW115965   1.464   0.273   0.335
 5022SOL    HW215966   1.587   0.317   0.237
 5023SOL     OW15967   6.309   3.033   0.838
 5023SOL    HW115968   6.379   2.977   0.883
 5023SOL    HW215969   6.223   2.981   0.834
 5024SOL     OW15970   6.266   5.859   2.519
 5024SOL    HW115971   6.305   5.887   2.607
 5024SOL    HW215972   6.326   5.889   2.445
 5025SOL     OW15973   4.052   1.784   2.195
 5025SOL    HW115974   4.090   1.692   2.189
 5025SOL    HW215975   4.054   1.815   2.290
 5026SOL     OW15976   5.746   6.712   6.595
 5026SOL    HW115977   5.720   6.806   6.617
 5026SOL    HW215978   5.833   6.712   6.545
 5027SOL     OW15979   0.778   6.557   2.526
 5027SOL    HW115980   0.696   6.594   2.570
 5027SOL    HW215981   0.752   6.491   2.456
 5028SOL     OW15982   0.597   6.397   3.524
 5028SOL    HW115983   0.512   6.432   3.485
 5028SOL    HW215984   0.576   6.332   3.597
 5029SOL     OW15985   0.071   3.392   3.257
 5029SOL    HW115986   0.072   3.467   3.323
 5029SOL    HW215987   0.139   3.411   3.186
 5030SOL     OW15988   6.630   0.933   6.094
 5030SOL    HW115989   6.587   1.023   6.090
 5030SOL    HW215990   6.574   0.872   6.151
 5031SOL     OW15991   5.668   0.360   4.851
 5031SOL    HW115992   5.721   0.277   4.872
 5031SOL    HW215993   5.693   0.432   4.915
 5032SOL     OW15994   1.471   3.582   0.537
 5032SOL    HW115995   1.562   3.551   0.565
 5032SOL    HW215996   1.460   3.679   0.559
 5033SOL     OW15997   2.249   5.572   6.706
 5033SOL    HW115998   2.318   5.609   6.644
 5033SOL    HW215999   2.166   5.627   6.699
 5034SOL     OW16000   6.276   1.421   3.094
 5034SOL    HW116001   6.360   1.398   3.045
 5034SOL    HW216002   6.294   1.419   3.192
 5035SOL     OW16003   6.343   4.277   0.372
 5035SOL    HW116004   6.372   4.211   0.303
 5035SOL    HW216005   6.322   4.364   0.327
 5036SOL     OW16006   0.344   4.963   6.842
 5036SOL    HW116007   0.416   4.925   6.783
 5036SOL    HW216008   0.367   5.057   6.867
 5037SOL     OW16009   5.514   2.658   2.744
 5037SOL    HW116010   5.525   2.635   2.647
 5037SOL    HW216011   5.429   2.620   2.779
 5038SOL     OW16012   1.810   4.103   5.893
 5038SOL    HW116013   1.730   4.135   5.842
 5038SOL    HW216014   1.892   4.145   5.856
 5039SOL     OW16015   2.857   3.165   5.487
 5039SOL    HW116016   2.826   3.202   5.574
 5039SOL    HW216017   2.786   3.105   5.449
 5040SOL     OW16018   1.950   4.802   6.440
 5040SOL    HW116019   2.020   4.775   6.506
 5040SOL    HW216020   1.898   4.879   6.477
 5041SOL     OW16021   1.779   2.411   1.216
 5041SOL    HW116022   1.679   2.415   1.207
 5041SOL    HW216023   1.820   2.403   1.125
 5042SOL     OW16024   5.990   3.209   0.873
 5042SOL    HW116025   6.013   3.156   0.792
 5042SOL    HW216026   6.042   3.175   0.951
 5043SOL     OW16027   2.594   1.368   5.911
 5043SOL    HW116028   2.541   1.283   5.919
 5043SOL    HW216029   2.641   1.369   5.823
 5044SOL     OW16030   6.304   6.230   2.362
 5044SOL    HW116031   6.351   6.183   2.287
 5044SOL    HW216032   6.206   6.210   2.358
 5045SOL     OW16033   5.781   3.277   0.203
 5045SOL    HW116034   5.798   3.320   0.292
 5045SOL    HW216035   5.781   3.178   0.213
 5046SOL     OW16036   3.520   4.181   4.749
 5046SOL    HW116037   3.574   4.143   4.824
 5046SOL    HW216038   3.576   4.186   4.667
 5047SOL     OW16039   0.417   2.988   2.320
 5047SOL    HW116040   0.451   3.029   2.235
 5047SOL    HW216041   0.489   2.933   2.362
 5048SOL     OW16042   0.418   1.024   1.374
 5048SOL    HW116043   0.439   1.118   1.403
 5048SOL    HW216044   0.449   0.960   1.443
 5049SOL     OW16045   6.108   1.810   4.384
 5049SOL    HW116046   6.185   1.873   4.397
 5049SOL    HW216047   6.129   1.746   4.310
 5050SOL     OW16048   1.021   1.170   1.835
 5050SOL    HW116049   1.068   1.084   1.820
 5050SOL    HW216050   0.923   1.159   1.815
 5051SOL     OW16051   4.502   3.267   0.370
 5051SOL    HW116052   4.518   3.350   0.316
 5051SOL    HW216053   4.461   3.197   0.313
 5052SOL     OW16054   2.780   5.485   5.965
 5052SOL    HW116055   2.803   5.393   5.999
 5052SOL    HW216056   2.841   5.552   6.007
 5053SOL     OW16057   1.920   3.948   3.932
 5053SOL    HW116058   1.839   3.957   3.875
 5053SOL    HW216059   1.918   4.017   4.005
 5054SOL     OW16060   3.672   5.625   5.312
 5054SOL    HW116061   3.605   5.562   5.353
 5054SOL    HW216062   3.740   5.572   5.261
 5055SOL     OW16063   1.194   7.004   5.401
 5055SOL    HW116064   1.157   0.078   5.411
 5055SOL    HW216065   1.166   6.967   5.312
 5056SOL     OW16066   6.440   3.707   0.500
 5056SOL    HW116067   6.531   3.741   0.524
 5056SOL    HW216068   6.373   3.780   0.508
 5057SOL     OW16069   0.433   5.277   4.925
 5057SOL    HW116070   0.495   5.278   4.847
 5057SOL    HW216071   0.342   5.248   4.896
 5058SOL     OW16072   2.421   3.374   5.673
 5058SOL    HW116073   2.330   3.355   5.636
 5058SOL    HW216074   2.490   3.328   5.617
 5059SOL     OW16075   5.633   3.211   3.569
 5059SOL    HW116076   5.579   3.157   3.634
 5059SOL    HW216077   5.724   3.228   3.608
 5060SOL     OW16078   0.277   2.736   5.581
 5060SOL    HW116079   0.361   2.682   5.574
 5060SOL    HW216080   0.216   2.712   5.505
 5061SOL     OW16081   3.284   3.134   3.652
 5061SOL    HW116082   3.346   3.068   3.611
 5061SOL    HW216083   3.291   3.221   3.603
 5062SOL     OW16084   5.975   1.420   3.029
 5062SOL    HW116085   5.987   1.323   3.007
 5062SOL    HW216086   6.017   1.476   2.958
 5063SOL     OW16087   1.578   6.591   2.125
 5063SOL    HW116088   1.483   6.589   2.156
 5063SOL    HW216089   1.620   6.677   2.153
 5064SOL     OW16090   4.603   4.336   1.658
 5064SOL    HW116091   4.551   4.261   1.700
 5064SOL    HW216092   4.595   4.418   1.715
 5065SOL     OW16093   0.861   1.948   3.386
 5065SOL    HW116094   0.778   1.921   3.337
 5065SOL    HW216095   0.901   2.028   3.340
 5066SOL     OW16096   3.991   4.205   0.974
 5066SOL    HW116097   3.895   4.225   0.959
 5066SOL    HW216098   4.009   4.201   1.073
 5067SOL     OW16099   2.957   1.413   2.413
 5067SOL    HW116100   2.936   1.511   2.419
 5067SOL    HW216101   3.033   1.399   2.349
 5068SOL     OW16102   3.254   4.884   0.085
 5068SOL    HW116103   3.232   4.854   0.178
 5068SOL    HW216104   3.241   4.983   0.077
 5069SOL     OW16105   1.843   2.110   5.853
 5069SOL    HW116106   1.849   2.033   5.917
 5069SOL    HW216107   1.827   2.195   5.904
 5070SOL     OW16108   5.001   4.980   4.601
 5070SOL    HW116109   4.958   4.989   4.690
 5070SOL    HW216110   4.952   5.037   4.534
 5071SOL     OW16111   3.802   1.713   3.518
 5071SOL    HW116112   3.810   1.722   3.617
 5071SOL    HW216113   3.855   1.633   3.488
 5072SOL     OW16114   1.743   1.354   1.342
 5072SOL    HW116115   1.645   1.367   1.356
 5072SOL    HW216116   1.794   1.411   1.406
 5073SOL     OW16117   1.135   4.440   0.748
 5073SOL    HW116118   1.182   4.380   0.683
 5073SOL    HW216119   1.076   4.385   0.808
 5074SOL     OW16120   3.135   2.100   2.004
 5074SOL    HW116121   3.083   2.177   1.966
 5074SOL    HW216122   3.083   2.059   2.080
 5075SOL     OW16123   1.467   2.273   6.586
 5075SOL    HW116124   1.455   2.318   6.497
 5075SOL    HW216125   1.467   2.342   6.658
 5076SOL     OW16126   5.442   6.818   0.852
 5076SOL    HW116127   5.538   6.826   0.824
 5076SOL    HW216128   5.401   6.909   0.855
 5077SOL     OW16129   1.180   4.338   5.869
 5077SOL    HW116130   1.257   4.401   5.856
 5077SOL    HW216131   1.204   4.270   5.938
 5078SOL     OW16132   0.620   0.823   4.063
 5078SOL    HW116133   0.523   0.841   4.054
 5078SOL    HW216134   0.640   0.730   4.032
 5079SOL     OW16135   2.325   2.791   4.891
 5079SOL    HW116136   2.348   2.871   4.946
 5079SOL    HW216137   2.374   2.711   4.927
 5080SOL     OW16138   6.185   6.073   5.882
 5080SOL    HW116139   6.242   5.992   5.870
 5080SOL    HW216140   6.089   6.047   5.871
 5081SOL     OW16141   2.156   3.932   5.892
 5081SOL    HW116142   2.233   3.973   5.942
 5081SOL    HW216143   2.145   3.979   5.804
 5082SOL     OW16144   4.976   6.736   1.397
 5082SOL    HW116145   5.004   6.751   1.302
 5082SOL    HW216146   4.887   6.781   1.412
 5083SOL     OW16147   2.817   0.335   2.755
 5083SOL    HW116148   2.868   0.292   2.830
 5083SOL    HW216149   2.828   0.435   2.760
 5084SOL     OW16150   0.640   5.055   3.628
 5084SOL    HW116151   0.625   5.031   3.724
 5084SOL    HW216152   0.615   4.977   3.570
 5085SOL     OW16153   6.535   2.808   5.686
 5085SOL    HW116154   6.440   2.777   5.685
 5085SOL    HW216155   6.558   2.846   5.596
 5086SOL     OW16156   1.653   4.944   2.894
 5086SOL    HW116157   1.564   4.934   2.939
 5086SOL    HW216158   1.640   4.988   2.805
 5087SOL     OW16159   1.273   5.192   2.186
 5087SOL    HW116160   1.293   5.286   2.159
 5087SOL    HW216161   1.174   5.181   2.198
 5088SOL     OW16162   6.015   6.527   3.892
 5088SOL    HW116163   5.999   6.625   3.894
 5088SOL    HW216164   5.929   6.479   3.905
 5089SOL     OW16165   6.423   4.864   3.530
 5089SOL    HW116166   6.390   4.790   3.471
 5089SOL    HW216167   6.404   4.841   3.625
 5090SOL     OW16168   1.421   2.898   2.539
 5090SOL    HW116169   1.465   2.980   2.505
 5090SOL    HW216170   1.485   2.847   2.596
 5091SOL     OW16171   6.975   1.459   1.651
 5091SOL    HW116172   6.943   1.526   1.584
 5091SOL    HW216173   0.048   1.427   1.626
 5092SOL     OW16174   3.301   3.370   3.546
 5092SOL    HW116175   3.267   3.462   3.525
 5092SOL    HW216176   3.300   3.314   3.464
 5093SOL     OW16177   2.826   1.191   0.660
 5093SOL    HW116178   2.749   1.254   0.673
 5093SOL    HW216179   2.866   1.168   0.748
 5094SOL     OW16180   2.428   5.617   6.498
 5094SOL    HW116181   2.412   5.534   6.445
 5094SOL    HW216182   2.421   5.697   6.438
 5095SOL     OW16183   6.976   2.388   2.935
 5095SOL    HW116184   6.916   2.457   2.974
 5095SOL    HW216185   7.010   2.420   2.847
 5096SOL     OW16186   4.789   4.573   6.596
 5096SOL    HW116187   4.761   4.665   6.568
 5096SOL    HW216188   4.771   4.508   6.522
 5097SOL     OW16189   0.954   0.009   6.174
 5097SOL    HW116190   1.004   0.082   6.220
 5097SOL    HW216191   0.912   6.967   6.243
 5098SOL     OW16192   2.872   0.750   2.002
 5098SOL    HW116193   2.811   0.676   1.977
 5098SOL    HW216194   2.912   0.731   2.092
 5099SOL     OW16195   0.758   0.005   1.407
 5099SOL    HW116196   0.756   6.971   1.492
 5099SOL    HW216197   0.704   6.975   1.337
 5100SOL     OW16198   2.947   5.582   4.534
 5100SOL    HW116199   2.999   5.568   4.618
 5100SOL    HW216200   2.978   5.666   4.489
 5101SOL     OW16201   3.841   6.844   6.165
 5101SOL    HW116202   3.817   6.912   6.095
 5101SOL    HW216203   3.882   6.890   6.244
 5102SOL     OW16204   5.107   6.133   4.521
 5102SOL    HW116205   5.105   6.035   4.502
 5102SOL    HW216206   5.095   6.148   4.619
 5103SOL     OW16207   0.037   1.308   4.260
 5103SOL    HW116208   0.121   1.362   4.264
 5103SOL    HW216209   0.059   1.212   4.247
 5104SOL     OW16210   1.668   6.153   2.260
 5104SOL    HW116211   1.675   6.217   2.183
 5104SOL    HW216212   1.760   6.126   2.288
 5105SOL     OW16213   2.705   2.547   0.056
 5105SOL    HW116214   2.649   2.589   7.003
 5105SOL    HW216215   2.758   2.617   0.103
 5106SOL     OW16216   4.353   1.534   0.603
 5106SOL    HW116217   4.425   1.532   0.534
 5106SOL    HW216218   4.394   1.551   0.693
 5107SOL     OW16219   4.240   2.224   1.521
 5107SOL    HW116220   4.338   2.214   1.538
 5107SOL    HW216221   4.210   2.154   1.455
 5108SOL     OW16222   4.091   4.082   5.251
 5108SOL    HW116223   4.052   3.998   5.213
 5108SOL    HW216224   4.018   4.139   5.288
 5109SOL     OW16225   0.726   1.937   6.841
 5109SOL    HW116226   0.813   1.922   6.795
 5109SOL    HW216227   0.654   1.951   6.773
 5110SOL     OW16228   0.773   0.081   5.985
 5110SOL    HW116229   0.838   0.054   6.056
 5110SOL    HW216230   0.711   0.151   6.021
 5111SOL     OW16231   0.960   0.887   4.775
 5111SOL    HW116232   0.936   0.983   4.765
 5111SOL    HW216233   0.947   0.859   4.870
 5112SOL     OW16234   1.262   0.110   2.701
 5112SOL    HW116235   1.235   0.192   2.751
 5112SOL    HW216236   1.195   0.091   2.629
 5113SOL     OW16237   2.140   6.198   0.976
 5113SOL    HW116238   2.225   6.246   0.953
 5113SOL    HW216239   2.117   6.135   0.902
 5114SOL     OW16240   3.939   0.113   6.927
 5114SOL    HW116241   3.979   0.058   6.853
 5114SOL    HW216242   3.992   0.197   6.938
 5115SOL     OW16243   1.283   5.106   3.177
 5115SOL    HW116244   1.226   5.065   3.249
 5115SOL    HW216245   1.250   5.198   3.157
 5116SOL     OW16246   0.915   6.475   0.051
 5116SOL    HW116247   0.867   6.441   6.988
 5116SOL    HW216248   0.917   6.404   0.121
 5117SOL     OW16249   1.611   3.957   4.155
 5117SOL    HW116250   1.526   3.982   4.202
 5117SOL    HW216251   1.689   3.999   4.201
 5118SOL     OW16252   5.537   0.830   0.099
 5118SOL    HW116253   5.444   0.817   0.064
 5118SOL    HW216254   5.550   0.926   0.124
 5119SOL     OW16255   5.305   0.435   2.433
 5119SOL    HW116256   5.396   0.440   2.474
 5119SOL    HW216257   5.236   0.425   2.505
 5120SOL     OW16258   4.415   0.019   4.492
 5120SOL    HW116259   4.381   6.943   4.487
 5120SOL    HW216260   4.514   0.018   4.481
 5121SOL     OW16261   3.056   2.800   6.891
 5121SOL    HW116262   3.024   2.864   6.820
 5121SOL    HW216263   3.045   2.706   6.859
 5122SOL     OW16264   3.349   6.337   3.435
 5122SOL    HW116265   3.357   6.375   3.527
 5122SOL    HW216266   3.256   6.353   3.401
 5123SOL     OW16267   4.192   2.249   3.921
 5123SOL    HW116268   4.097   2.246   3.952
 5123SOL    HW216269   4.222   2.157   3.896
 5124SOL     OW16270   2.321   5.455   4.696
 5124SOL    HW116271   2.326   5.466   4.795
 5124SOL    HW216272   2.365   5.533   4.651
 5125SOL     OW16273   6.334   4.107   4.094
 5125SOL    HW116274   6.333   4.077   3.998
 5125SOL    HW216275   6.254   4.070   4.141
 5126SOL     OW16276   6.289   5.299   5.954
 5126SOL    HW116277   6.252   5.345   5.873
 5126SOL    HW216278   6.369   5.245   5.929
 5127SOL     OW16279   0.261   3.850   0.352
 5127SOL    HW116280   0.333   3.790   0.387
 5127SOL    HW216281   0.268   3.855   0.253
 5128SOL     OW16282   0.408   0.390   6.366
 5128SOL    HW116283   0.459   0.458   6.312
 5128SOL    HW216284   0.362   0.327   6.305
 5129SOL     OW16285   6.509   0.187   2.760
 5129SOL    HW116286   6.592   0.175   2.814
 5129SOL    HW216287   6.498   0.111   2.697
 5130SOL     OW16288   0.597   5.535   3.657
 5130SOL    HW116289   0.647   5.452   3.637
 5130SOL    HW216290   0.627   5.609   3.597
 5131SOL     OW16291   2.273   4.980   4.189
 5131SOL    HW116292   2.357   5.004   4.140
 5131SOL    HW216293   2.203   5.048   4.171
 5132SOL     OW16294   3.446   3.008   0.047
 5132SOL    HW116295   3.500   2.976   6.987
 5132SOL    HW216296   3.500   3.070   0.102
 5133SOL     OW16297   2.194   5.359   0.179
 5133SOL    HW116298   2.258   5.394   0.248
 5133SOL    HW216299   2.189   5.260   0.186
 5134SOL     OW16300   0.555   3.697   2.851
 5134SOL    HW116301   0.641   3.648   2.840
 5134SOL    HW216302   0.535   3.750   2.769
 5135SOL     OW16303   5.823   3.123   4.805
 5135SOL    HW116304   5.832   3.111   4.706
 5135SOL    HW216305   5.799   3.035   4.847
 5136SOL     OW16306   4.034   0.773   5.707
 5136SOL    HW116307   4.094   0.693   5.713
 5136SOL    HW216308   4.083   0.847   5.662
 5137SOL     OW16309   4.965   3.186   5.442
 5137SOL    HW116310   4.925   3.095   5.456
 5137SOL    HW216311   5.043   3.178   5.380
 5138SOL     OW16312   2.990   2.931   5.367
 5138SOL    HW116313   2.909   2.879   5.341
 5138SOL    HW216314   2.963   3.008   5.424
 5139SOL     OW16315   1.133   0.562   3.040
 5139SOL    HW116316   1.135   0.659   3.016
 5139SOL    HW216317   1.176   0.509   2.967
 5140SOL     OW16318   4.251   2.476   0.044
 5140SOL    HW116319   4.218   2.566   0.014
 5140SOL    HW216320   4.227   2.408   6.993
 5141SOL     OW16321   0.019   3.351   0.649
 5141SOL    HW116322   0.087   3.314   0.585
 5141SOL    HW216323   6.964   3.284   0.662
 5142SOL     OW16324   5.894   6.998   3.346
 5142SOL    HW116325   5.965   0.029   3.396
 5142SOL    HW216326   5.905   6.899   3.362
 5143SOL     OW16327   6.706   4.535   3.790
 5143SOL    HW116328   6.737   4.451   3.746
 5143SOL    HW216329   6.781   4.601   3.791
 5144SOL     OW16330   0.552   4.898   6.627
 5144SOL    HW116331   0.597   4.964   6.568
 5144SOL    HW216332   0.576   4.805   6.599
 5145SOL     OW16333   2.867   4.957   5.465
 5145SOL    HW116334   2.792   5.024   5.468
 5145SOL    HW216335   2.862   4.907   5.378
 5146SOL     OW16336   3.556   4.426   5.354
 5146SOL    HW116337   3.457   4.443   5.359
 5146SOL    HW216338   3.586   4.434   5.259
 5147SOL     OW16339   0.119   5.113   2.787
 5147SOL    HW116340   0.106   5.053   2.709
 5147SOL    HW216341   0.141   5.059   2.868
 5148SOL     OW16342   6.569   6.336   1.378
 5148SOL    HW116343   6.660   6.377   1.372
 5148SOL    HW216344   6.501   6.399   1.341
 5149SOL     OW16345   6.125   5.777   3.002
 5149SOL    HW116346   6.122   5.864   2.953
 5149SOL    HW216347   6.184   5.714   2.953
 5150SOL     OW16348   2.134   5.353   3.020
 5150SOL    HW116349   2.047   5.402   3.019
 5150SOL    HW216350   2.128   5.276   3.083
 5151SOL     OW16351   5.727   2.401   0.830
 5151SOL    HW116352   5.740   2.469   0.758
 5151SOL    HW216353   5.810   2.396   0.886
 5152SOL     OW16354   2.641   4.779   0.115
 5152SOL    HW116355   2.655   4.845   0.041
 5152SOL    HW216356   2.612   4.828   0.198
 5153SOL     OW16357   2.106   0.177   7.006
 5153SOL    HW116358   2.066   0.259   0.030
 5153SOL    HW216359   2.073   0.169   6.912
 5154SOL     OW16360   1.044   3.144   6.152
 5154SOL    HW116361   1.125   3.143   6.210
 5154SOL    HW216362   0.964   3.169   6.207
 5155SOL     OW16363   4.185   6.692   2.321
 5155SOL    HW116364   4.268   6.656   2.280
 5155SOL    HW216365   4.207   6.772   2.377
 5156SOL     OW16366   5.720   3.642   5.918
 5156SOL    HW116367   5.743   3.555   5.875
 5156SOL    HW216368   5.664   3.625   6.000
 5157SOL     OW16369   3.865   2.000   3.422
 5157SOL    HW116370   3.868   1.900   3.425
 5157SOL    HW216371   3.936   2.037   3.481
 5158SOL     OW16372   3.786   1.296   1.933
 5158SOL    HW116373   3.689   1.274   1.935
 5158SOL    HW216374   3.799   1.391   1.905
 5159SOL     OW16375   0.165   3.665   4.004
 5159SOL    HW116376   0.111   3.723   3.943
 5159SOL    HW216377   0.247   3.714   4.033
 5160SOL     OW16378   0.142   5.103   3.290
 5160SOL    HW116379   0.182   5.180   3.339
 5160SOL    HW216380   0.207   5.070   3.221
 5161SOL     OW16381   1.362   3.647   5.853
 5161SOL    HW116382   1.442   3.603   5.812
 5161SOL    HW216383   1.282   3.588   5.840
 5162SOL     OW16384   1.227   5.106   2.883
 5162SOL    HW116385   1.249   5.192   2.930
 5162SOL    HW216386   1.143   5.119   2.829
 5163SOL     OW16387   3.498   6.478   6.957
 5163SOL    HW116388   3.432   6.405   6.935
 5163SOL    HW216389   3.449   6.565   6.965
 5164SOL     OW16390   4.231   2.320   6.852
 5164SOL    HW116391   4.286   2.242   6.882
 5164SOL    HW216392   4.183   2.296   6.768
 5165SOL     OW16393   6.171   4.415   6.138
 5165SOL    HW116394   6.123   4.338   6.096
 5165SOL    HW216395   6.107   4.470   6.191
 5166SOL     OW16396   0.683   5.371   2.684
 5166SOL    HW116397   0.641   5.434   2.618
 5166SOL    HW216398   0.612   5.330   2.741
 5167SOL     OW16399   6.368   6.437   6.112
 5167SOL    HW116400   6.341   6.408   6.204
 5167SOL    HW216401   6.459   6.479   6.116
 5168SOL     OW16402   5.310   4.099   2.393
 5168SOL    HW116403   5.246   4.084   2.317
 5168SOL    HW216404   5.294   4.029   2.463
 5169SOL     OW16405   3.649   1.753   4.802
 5169SOL    HW116406   3.629   1.846   4.831
 5169SOL    HW216407   3.565   1.709   4.772
 5170SOL     OW16408   0.730   4.469   5.947
 5170SOL    HW116409   0.681   4.403   5.890
 5170SOL    HW216410   0.679   4.555   5.949
 5171SOL     OW16411   1.020   6.056   4.595
 5171SOL    HW116412   1.052   5.962   4.584
 5171SOL    HW216413   0.931   6.065   4.549
 5172SOL     OW16414   0.859   2.232   2.045
 5172SOL    HW116415   0.786   2.168   2.022
 5172SOL    HW216416   0.932   2.184   2.094
 5173SOL     OW16417   5.102   4.676   6.222
 5173SOL    HW116418   5.137   4.759   6.266
 5173SOL    HW216419   5.157   4.655   6.141
 5174SOL     OW16420   2.424   4.616   3.604
 5174SOL    HW116421   2.387   4.609   3.512
 5174SOL    HW216422   2.430   4.713   3.630
 5175SOL     OW16423   2.184   3.417   6.648
 5175SOL    HW116424   2.161   3.503   6.603
 5175SOL    HW216425   2.173   3.426   6.747
 5176SOL     OW16426   4.607   2.665   6.710
 5176SOL    HW116427   4.541   2.598   6.745
 5176SOL    HW216428   4.680   2.680   6.777
 5177SOL     OW16429   5.374   0.446   7.003
 5177SOL    HW116430   5.373   0.353   6.967
 5177SOL    HW216431   5.329   0.448   0.074
 5178SOL     OW16432   0.894   4.295   1.825
 5178SOL    HW116433   0.830   4.310   1.750
 5178SOL    HW216434   0.843   4.292   1.911
 5179SOL     OW16435   3.879   6.316   4.083
 5179SOL    HW116436   3.894   6.280   4.175
 5179SOL    HW216437   3.862   6.415   4.087
 5180SOL     OW16438   3.170   3.034   0.932
 5180SOL    HW116439   3.176   2.943   0.974
 5180SOL    HW216440   3.076   3.050   0.901
 5181SOL     OW16441   6.222   1.614   1.929
 5181SOL    HW116442   6.168   1.558   1.866
 5181SOL    HW216443   6.253   1.559   2.006
 5182SOL     OW16444   3.821   4.585   1.608
 5182SOL    HW116445   3.810   4.679   1.641
 5182SOL    HW216446   3.742   4.530   1.635
 5183SOL     OW16447   4.961   1.447   2.672
 5183SOL    HW116448   5.049   1.493   2.678
 5183SOL    HW216449   4.972   1.359   2.625
 5184SOL     OW16450   0.146   2.699   4.490
 5184SOL    HW116451   0.235   2.657   4.506
 5184SOL    HW216452   0.088   2.637   4.437
 5185SOL     OW16453   5.560   0.982   2.920
 5185SOL    HW116454   5.545   0.926   2.839
 5185SOL    HW216455   5.492   1.055   2.923
 5186SOL     OW16456   6.158   3.191   1.378
 5186SOL    HW116457   6.166   3.280   1.423
 5186SOL    HW216458   6.192   3.198   1.284
 5187SOL     OW16459   0.686   6.608   4.123
 5187SOL    HW116460   0.637   6.626   4.038
 5187SOL    HW216461   0.667   6.681   4.189
 5188SOL     OW16462   0.443   5.761   0.943
 5188SOL    HW116463   0.374   5.689   0.951
 5188SOL    HW216464   0.405   5.849   0.970
 5189SOL     OW16465   4.551   4.715   0.517
 5189SOL    HW116466   4.624   4.690   0.453
 5189SOL    HW216467   4.589   4.773   0.589
 5190SOL     OW16468   0.324   3.385   4.339
 5190SOL    HW116469   0.274   3.471   4.348
 5190SOL    HW216470   0.272   3.311   4.381
 5191SOL     OW16471   4.156   0.344   1.696
 5191SOL    HW116472   4.123   0.357   1.789
 5191SOL    HW216473   4.256   0.351   1.695
 5192SOL     OW16474   2.816   5.749   2.421
 5192SOL    HW116475   2.855   5.681   2.360
 5192SOL    HW216476   2.819   5.715   2.515
 5193SOL     OW16477   4.612   4.387   4.966
 5193SOL    HW116478   4.521   4.424   4.943
 5193SOL    HW216479   4.666   4.380   4.882
 5194SOL     OW16480   4.324   1.663   0.038
 5194SOL    HW116481   4.282   1.708   6.977
 5194SOL    HW216482   4.419   1.641   0.016
 5195SOL     OW16483   5.834   6.063   4.728
 5195SOL    HW116484   5.875   5.986   4.680
 5195SOL    HW216485   5.902   6.136   4.737
 5196SOL     OW16486   3.467   4.314   0.492
 5196SOL    HW116487   3.543   4.299   0.429
 5196SOL    HW216488   3.502   4.339   0.582
 5197SOL     OW16489   2.099   5.533   4.922
 5197SOL    HW116490   2.045   5.473   4.863
 5197SOL    HW216491   2.178   5.483   4.958
 5198SOL     OW16492   3.731   6.857   3.065
 5198SOL    HW116493   3.694   6.764   3.073
 5198SOL    HW216494   3.682   6.918   3.127
 5199SOL     OW16495   1.383   5.888   0.872
 5199SOL    HW116496   1.437   5.938   0.805
 5199SOL    HW216497   1.304   5.944   0.900
 5200SOL     OW16498   1.542   2.024   5.498
 5200SOL    HW116499   1.626   1.991   5.540
 5200SOL    HW216500   1.480   1.947   5.482
 5201SOL     OW16501   6.808   6.258   4.273
 5201SOL    HW116502   6.731   6.228   4.329
 5201SOL    HW216503   6.796   6.223   4.180
 5202SOL     OW16504   6.075   4.496   5.221
 5202SOL    HW116505   6.045   4.415   5.271
 5202SOL    HW216506   5.995   4.553   5.199
 5203SOL     OW16507   2.237   1.220   6.213
 5203SOL    HW116508   2.165   1.166   6.256
 5203SOL    HW216509   2.197   1.276   6.140
 5204SOL     OW16510   4.370   6.503   6.655
 5204SOL    HW116511   4.304   6.576   6.638
 5204SOL    HW216512   4.436   6.533   6.723
 5205SOL     OW16513   6.937   6.069   0.233
 5205SOL    HW116514   6.967   6.011   0.158
 5205SOL    HW216515   6.845   6.042   0.262
 5206SOL     OW16516   0.077   5.064   0.380
 5206SOL    HW116517   0.175   5.082   0.385
 5206SOL    HW216518   0.061   4.965   0.382
 5207SOL     OW16519   1.466   6.771   3.629
 5207SOL    HW116520   1.383   6.725   3.661
 5207SOL    HW216521   1.545   6.737   3.679
 5208SOL     OW16522   5.608   1.796   0.060
 5208SOL    HW116523   5.548   1.830   0.133
 5208SOL    HW216524   5.702   1.790   0.095
 5209SOL     OW16525   5.653   0.019   1.617
 5209SOL    HW116526   5.559   7.005   1.632
 5209SOL    HW216527   5.694   6.987   1.541
 5210SOL     OW16528   4.689   2.898   0.329
 5210SOL    HW116529   4.722   2.966   0.263
 5210SOL    HW216530   4.641   2.825   0.282
 5211SOL     OW16531   4.060   2.468   5.827
 5211SOL    HW116532   4.130   2.539   5.817
 5211SOL    HW216533   4.101   2.378   5.807
 5212SOL     OW16534   1.182   2.941   0.576
 5212SOL    HW116535   1.083   2.934   0.585
 5212SOL    HW216536   1.219   2.854   0.544
 5213SOL     OW16537   4.470   3.563   0.923
 5213SOL    HW116538   4.374   3.590   0.916
 5213SOL    HW216539   4.524   3.610   0.854
 5214SOL     OW16540   4.778   2.442   6.499
 5214SOL    HW116541   4.779   2.534   6.539
 5214SOL    HW216542   4.688   2.400   6.514
 5215SOL     OW16543   0.757   4.668   4.387
 5215SOL    HW116544   0.699   4.647   4.308
 5215SOL    HW216545   0.832   4.728   4.359
 5216SOL     OW16546   4.010   4.559   1.404
 5216SOL    HW116547   4.034   4.656   1.413
 5216SOL    HW216548   3.962   4.529   1.486
 5217SOL     OW16549   3.931   5.141   4.432
 5217SOL    HW116550   3.834   5.138   4.406
 5217SOL    HW216551   3.948   5.075   4.505
 5218SOL     OW16552   0.741   0.921   1.105
 5218SOL    HW116553   0.653   0.956   1.071
 5218SOL    HW216554   0.790   0.876   1.031
 5219SOL     OW16555   3.273   1.256   4.883
 5219SOL    HW116556   3.253   1.180   4.944
 5219SOL    HW216557   3.322   1.327   4.934
 5220SOL     OW16558   1.243   5.993   2.596
 5220SOL    HW116559   1.149   6.010   2.624
 5220SOL    HW216560   1.244   5.955   2.503
 5221SOL     OW16561   6.403   1.952   3.313
 5221SOL    HW116562   6.324   1.928   3.256
 5221SOL    HW216563   6.416   2.051   3.313
 5222SOL     OW16564   3.715   6.943   2.469
 5222SOL    HW116565   3.783   6.870   2.461
 5222SOL    HW216566   3.657   6.926   2.549
 5223SOL     OW16567   6.493   2.617   0.277
 5223SOL    HW116568   6.482   2.543   0.210
 5223SOL    HW216569   6.422   2.609   0.347
 5224SOL     OW16570   6.477   3.011   4.810
 5224SOL    HW116571   6.538   2.974   4.740
 5224SOL    HW216572   6.475   3.111   4.803
 5225SOL     OW16573   0.088   1.150   3.964
 5225SOL    HW116574   0.011   1.210   3.940
 5225SOL    HW216575   0.060   1.088   4.038
 5226SOL     OW16576   6.611   6.417   4.460
 5226SOL    HW116577   6.529   6.466   4.491
 5226SOL    HW216578   6.683   6.484   4.439
 5227SOL     OW16579   0.616   3.277   5.287
 5227SOL    HW116580   0.713   3.253   5.292
 5227SOL    HW216581   0.560   3.197   5.309
 5228SOL     OW16582   0.015   2.464   0.767
 5228SOL    HW116583   0.009   2.537   0.835
 5228SOL    HW216584   6.982   2.491   0.685
 5229SOL     OW16585   2.818   6.620   0.381
 5229SOL    HW116586   2.837   6.569   0.465
 5229SOL    HW216587   2.793   6.714   0.404
 5230SOL     OW16588   0.358   5.752   2.030
 5230SOL    HW116589   0.387   5.803   1.949
 5230SOL    HW216590   0.415   5.670   2.041
 5231SOL     OW16591   4.448   2.432   4.077
 5231SOL    HW116592   4.546   2.416   4.074
 5231SOL    HW216593   4.418   2.468   3.988
 5232SOL     OW16594   1.611   3.466   6.076
 5232SOL    HW116595   1.703   3.428   6.089
 5232SOL    HW216596   1.619   3.562   6.047
 5233SOL     OW16597   4.712   1.241   2.595
 5233SOL    HW116598   4.653   1.167   2.625
 5233SOL    HW216599   4.663   1.328   2.600
 5234SOL     OW16600   2.400   2.209   6.257
 5234SOL    HW116601   2.415   2.297   6.303
 5234SOL    HW216602   2.434   2.213   6.164
 5235SOL     OW16603   1.720   2.562   0.871
 5235SOL    HW116604   1.682   2.624   0.939
 5235SOL    HW216605   1.787   2.501   0.914
 5236SOL     OW16606   4.388   5.346   2.161
 5236SOL    HW116607   4.335   5.388   2.235
 5236SOL    HW216608   4.331   5.281   2.111
 5237SOL     OW16609   0.731   0.516   4.805
 5237SOL    HW116610   0.682   0.597   4.772
 5237SOL    HW216611   0.826   0.521   4.777
 5238SOL     OW16612   0.632   5.129   0.407
 5238SOL    HW116613   0.670   5.180   0.484
 5238SOL    HW216614   0.640   5.184   0.324
 5239SOL     OW16615   3.771   3.276   5.644
 5239SOL    HW116616   3.758   3.373   5.664
 5239SOL    HW216617   3.685   3.227   5.657
 5240SOL     OW16618   3.000   2.369   5.394
 5240SOL    HW116619   3.052   2.310   5.456
 5240SOL    HW216620   3.033   2.357   5.301
 5241SOL     OW16621   0.175   5.308   4.447
 5241SOL    HW116622   0.209   5.247   4.375
 5241SOL    HW216623   0.155   5.255   4.529
 5242SOL     OW16624   6.881   6.981   6.992
 5242SOL    HW116625   6.855   6.886   6.971
 5242SOL    HW216626   6.825   0.025   6.938
 5243SOL     OW16627   1.869   5.893   1.515
 5243SOL    HW116628   1.964   5.907   1.543
 5243SOL    HW216629   1.822   5.839   1.584
 5244SOL     OW16630   3.053   4.754   6.381
 5244SOL    HW116631   3.051   4.854   6.374
 5244SOL    HW216632   3.121   4.727   6.449
 5245SOL     OW16633   4.215   4.094   0.308
 5245SOL    HW116634   4.172   4.060   0.391
 5245SOL    HW216635   4.312   4.070   0.309
 5246SOL     OW16636   6.319   2.828   1.276
 5246SOL    HW116637   6.224   2.826   1.308
 5246SOL    HW216638   6.380   2.832   1.355
 5247SOL     OW16639   2.732   0.452   6.278
 5247SOL    HW116640   2.786   0.535   6.268
 5247SOL    HW216641   2.743   0.395   6.196
 5248SOL     OW16642   6.074   1.943   2.728
 5248SOL    HW116643   6.097   1.924   2.633
 5248SOL    HW216644   6.135   1.891   2.788
 5249SOL     OW16645   0.604   5.714   6.448
 5249SOL    HW116646   0.681   5.748   6.393
 5249SOL    HW216647   0.554   5.645   6.396
 5250SOL     OW16648   1.941   5.893   6.976
 5250SOL    HW116649   2.014   5.850   0.013
 5250SOL    HW216650   1.981   5.932   6.893
 5251SOL     OW16651   0.808   3.479   6.736
 5251SOL    HW116652   0.729   3.485   6.796
 5251SOL    HW216653   0.853   3.391   6.748
 5252SOL     OW16654   2.010   6.314   0.552
 5252SOL    HW116655   1.933   6.335   0.491
 5252SOL    HW216656   2.057   6.399   0.577
 5253SOL     OW16657   6.280   4.472   4.502
 5253SOL    HW116658   6.206   4.428   4.452
 5253SOL    HW216659   6.246   4.556   4.545
 5254SOL     OW16660   5.008   0.975   2.942
 5254SOL    HW116661   4.932   0.914   2.920
 5254SOL    HW216662   5.095   0.927   2.931
 5255SOL     OW16663   5.288   2.159   5.026
 5255SOL    HW116664   5.327   2.148   5.118
 5255SOL    HW216665   5.341   2.227   4.976
 5256SOL     OW16666   4.637   1.892   3.967
 5256SOL    HW116667   4.566   1.962   3.971
 5256SOL    HW216668   4.627   1.838   3.883
 5257SOL     OW16669   5.561   6.769   1.881
 5257SOL    HW116670   5.515   6.836   1.822
 5257SOL    HW216671   5.606   6.701   1.824
 5258SOL     OW16672   6.302   3.010   1.795
 5258SOL    HW116673   6.213   3.052   1.780
 5258SOL    HW216674   6.290   2.912   1.811
 5259SOL     OW16675   4.754   6.326   2.313
 5259SOL    HW116676   4.706   6.266   2.377
 5259SOL    HW216677   4.712   6.417   2.315
 5260SOL     OW16678   4.840   3.259   0.404
 5260SOL    HW116679   4.900   3.179   0.409
 5260SOL    HW216680   4.746   3.231   0.420
 5261SOL     OW16681   0.611   4.114   6.408
 5261SOL    HW116682   0.604   4.069   6.497
 5261SOL    HW216683   0.706   4.115   6.379
 5262SOL     OW16684   2.505   1.417   3.895
 5262SOL    HW116685   2.547   1.398   3.806
 5262SOL    HW216686   2.413   1.453   3.882
 5263SOL     OW16687   1.936   1.669   3.921
 5263SOL    HW116688   1.961   1.686   4.016
 5263SOL    HW216689   2.011   1.699   3.861
 5264SOL     OW16690   0.063   2.539   1.775
 5264SOL    HW116691   0.112   2.622   1.801
 5264SOL    HW216692   0.111   2.459   1.812
 5265SOL     OW16693   6.156   3.717   3.908
 5265SOL    HW116694   6.172   3.661   3.826
 5265SOL    HW216695   6.177   3.813   3.888
 5266SOL     OW16696   2.955   5.543   0.027
 5266SOL    HW116697   3.017   5.615   7.014
 5266SOL    HW216698   2.904   5.507   6.967
 5267SOL     OW16699   5.333   3.004   4.950
 5267SOL    HW116700   5.368   2.956   5.031
 5267SOL    HW216701   5.394   3.080   4.928
 5268SOL     OW16702   5.713   1.254   0.431
 5268SOL    HW116703   5.671   1.337   0.396
 5268SOL    HW216704   5.642   1.183   0.442
 5269SOL     OW16705   1.313   5.915   2.838
 5269SOL    HW116706   1.408   5.942   2.854
 5269SOL    HW216707   1.286   5.939   2.745
 5270SOL     OW16708   6.019   1.073   0.919
 5270SOL    HW116709   6.067   1.160   0.913
 5270SOL    HW216710   5.998   1.039   0.828
 5271SOL     OW16711   6.353   5.609   5.743
 5271SOL    HW116712   6.437   5.570   5.705
 5271SOL    HW216713   6.276   5.548   5.723
 5272SOL     OW16714   3.130   5.647   1.841
 5272SOL    HW116715   3.167   5.683   1.756
 5272SOL    HW216716   3.030   5.646   1.837
 5273SOL     OW16717   0.012   3.102   4.075
 5273SOL    HW116718   6.947   3.067   4.118
 5273SOL    HW216719   0.019   3.200   4.090
 5274SOL     OW16720   5.836   6.935   2.620
 5274SOL    HW116721   5.744   6.938   2.581
 5274SOL    HW216722   5.891   6.866   2.572
 5275SOL     OW16723   3.878   2.108   1.370
 5275SOL    HW116724   3.820   2.047   1.317
 5275SOL    HW216725   3.821   2.169   1.425
 5276SOL     OW16726   2.036   0.244   0.750
 5276SOL    HW116727   2.061   0.155   0.712
 5276SOL    HW216728   2.090   0.261   0.833
 5277SOL     OW16729   1.596   1.367   2.317
 5277SOL    HW116730   1.622   1.422   2.397
 5277SOL    HW216731   1.507   1.324   2.333
 5278SOL     OW16732   5.977   6.791   3.883
 5278SOL    HW116733   5.969   6.824   3.977
 5278SOL    HW216734   5.888   6.802   3.837
 5279SOL     OW16735   2.343   5.452   6.313
 5279SOL    HW116736   2.358   5.355   6.297
 5279SOL    HW216737   2.327   5.498   6.226
 5280SOL     OW16738   2.664   6.163   4.725
 5280SOL    HW116739   2.625   6.215   4.649
 5280SOL    HW216740   2.725   6.223   4.779
 5281SOL     OW16741   0.240   2.535   2.495
 5281SOL    HW116742   0.277   2.442   2.494
 5281SOL    HW216743   0.263   2.581   2.410
 5282SOL     OW16744   2.903   1.865   4.056
 5282SOL    HW116745   2.964   1.872   3.977
 5282SOL    HW216746   2.817   1.912   4.036
 5283SOL     OW16747   4.411   6.712   1.526
 5283SOL    HW116748   4.393   6.809   1.540
 5283SOL    HW216749   4.327   6.667   1.497
 5284SOL     OW16750   4.870   4.006   3.360
 5284SOL    HW116751   4.810   4.048   3.428
 5284SOL    HW216752   4.949   3.965   3.406
 5285SOL     OW16753   2.440   4.804   3.975
 5285SOL    HW116754   2.487   4.872   4.030
 5285SOL    HW216755   2.350   4.785   4.015
 5286SOL     OW16756   1.711   4.471   6.991
 5286SOL    HW116757   1.653   4.547   0.002
 5286SOL    HW216758   1.764   4.499   6.911
 5287SOL     OW16759   2.839   0.025   0.876
 5287SOL    HW116760   2.749   0.004   0.837
 5287SOL    HW216761   2.906   0.035   0.802
 5288SOL     OW16762   3.125   0.342   1.955
 5288SOL    HW116763   3.159   0.379   2.041
 5288SOL    HW216764   3.099   0.417   1.894
 5289SOL     OW16765   1.744   5.013   6.503
 5289SOL    HW116766   1.676   5.034   6.573
 5289SOL    HW216767   1.758   5.093   6.444
 5290SOL     OW16768   1.901   5.909   4.890
 5290SOL    HW116769   1.805   5.900   4.863
 5290SOL    HW216770   1.950   5.825   4.866
 5291SOL     OW16771   2.936   5.371   6.188
 5291SOL    HW116772   2.949   5.456   6.240
 5291SOL    HW216773   2.908   5.298   6.251
 5292SOL     OW16774   6.236   3.183   6.576
 5292SOL    HW116775   6.166   3.256   6.571
 5292SOL    HW216776   6.323   3.223   6.605
 5293SOL     OW16777   0.219   0.623   4.915
 5293SOL    HW116778   0.237   0.531   4.950
 5293SOL    HW216779   0.156   0.670   4.976
 5294SOL     OW16780   4.640   3.577   5.726
 5294SOL    HW116781   4.739   3.564   5.736
 5294SOL    HW216782   4.616   3.672   5.748
 5295SOL     OW16783   6.242   0.872   2.951
 5295SOL    HW116784   6.164   0.901   2.896
 5295SOL    HW216785   6.233   0.775   2.974
 5296SOL     OW16786   2.030   4.977   0.027
 5296SOL    HW116787   2.114   4.949   7.000
 5296SOL    HW216788   1.956   4.981   6.978
 5297SOL     OW16789   2.451   2.122   1.744
 5297SOL    HW116790   2.412   2.206   1.707
 5297SOL    HW216791   2.478   2.136   1.839
 5298SOL     OW16792   0.329   5.438   1.186
 5298SOL    HW116793   0.329   5.479   1.095
 5298SOL    HW216794   0.303   5.341   1.179
 5299SOL     OW16795   2.967   2.215   0.569
 5299SOL    HW116796   2.973   2.313   0.553
 5299SOL    HW216797   3.021   2.191   0.650
 5300SOL     OW16798   0.629   5.727   2.544
 5300SOL    HW116799   0.723   5.757   2.526
 5300SOL    HW216800   0.607   5.742   2.640
 5301SOL     OW16801   4.453   1.386   0.235
 5301SOL    HW116802   4.366   1.427   0.264
 5301SOL    HW216803   4.436   1.320   0.163
 5302SOL     OW16804   5.503   4.841   3.289
 5302SOL    HW116805   5.460   4.884   3.368
 5302SOL    HW216806   5.432   4.805   3.228
 5303SOL     OW16807   6.783   6.135   4.035
 5303SOL    HW116808   6.863   6.137   3.976
 5303SOL    HW216809   6.701   6.123   3.980
 5304SOL     OW16810   6.141   1.872   5.658
 5304SOL    HW116811   6.055   1.831   5.686
 5304SOL    HW216812   6.153   1.860   5.559
 5305SOL     OW16813   1.574   6.669   4.227
 5305SOL    HW116814   1.542   6.757   4.261
 5305SOL    HW216815   1.516   6.596   4.262
 5306SOL     OW16816   0.986   5.632   5.201
 5306SOL    HW116817   0.905   5.691   5.207
 5306SOL    HW216818   1.061   5.673   5.254
 5307SOL     OW16819   4.176   6.646   6.863
 5307SOL    HW116820   4.208   6.684   6.776
 5307SOL    HW216821   4.142   6.720   6.921
 5308SOL     OW16822   0.436   0.068   4.695
 5308SOL    HW116823   0.479   0.154   4.724
 5308SOL    HW216824   0.413   0.013   4.776
 5309SOL     OW16825   3.064   3.981   2.622
 5309SOL    HW116826   3.008   3.902   2.648
 5309SOL    HW216827   3.100   4.026   2.703
 5310SOL     OW16828   5.376   2.660   2.195
 5310SOL    HW116829   5.339   2.747   2.161
 5310SOL    HW216830   5.349   2.586   2.133
 5311SOL     OW16831   0.165   6.045   0.771
 5311SOL    HW116832   0.102   6.032   0.695
 5311SOL    HW216833   0.119   6.022   0.857
 5312SOL     OW16834   6.654   4.332   2.115
 5312SOL    HW116835   6.614   4.250   2.075
 5312SOL    HW216836   6.590   4.372   2.181
 5313SOL     OW16837   1.142   5.599   0.052
 5313SOL    HW116838   1.236   5.621   0.078
 5313SOL    HW216839   1.085   5.681   0.061
 5314SOL     OW16840   4.103   4.574   0.245
 5314SOL    HW116841   4.007   4.574   0.273
 5314SOL    HW216842   4.154   4.508   0.300
 5315SOL     OW16843   4.244   4.470   1.289
 5315SOL    HW116844   4.309   4.416   1.343
 5315SOL    HW216845   4.158   4.477   1.339
 5316SOL     OW16846   6.251   5.241   4.960
 5316SOL    HW116847   6.283   5.167   4.901
 5316SOL    HW216848   6.183   5.296   4.911
 5317SOL     OW16849   6.109   1.236   4.842
 5317SOL    HW116850   6.128   1.273   4.933
 5317SOL    HW216851   6.185   1.179   4.813
 5318SOL     OW16852   0.419   1.761   5.907
 5318SOL    HW116853   0.387   1.673   5.872
 5318SOL    HW216854   0.360   1.791   5.982
 5319SOL     OW16855   4.628   0.115   0.270
 5319SOL    HW116856   4.547   0.171   0.285
 5319SOL    HW216857   4.645   0.058   0.351
 5320SOL     OW16858   5.670   5.209   6.593
 5320SOL    HW116859   5.667   5.157   6.679
 5320SOL    HW216860   5.601   5.174   6.530
 5321SOL     OW16861   1.018   5.227   2.214
 5321SOL    HW116862   1.033   5.283   2.295
 5321SOL    HW216863   0.965   5.278   2.147
 5322SOL     OW16864   3.959   6.600   6.094
 5322SOL    HW116865   3.935   6.696   6.103
 5322SOL    HW216866   3.902   6.545   6.154
 5323SOL     OW16867   3.633   3.249   0.803
 5323SOL    HW116868   3.604   3.334   0.848
 5323SOL    HW216869   3.558   3.183   0.806
 5324SOL     OW16870   3.605   2.528   1.735
 5324SOL    HW116871   3.688   2.583   1.731
 5324SOL    HW216872   3.623   2.445   1.788
 5325SOL     OW16873   6.082   6.548   3.262
 5325SOL    HW116874   6.154   6.503   3.209
 5325SOL    HW216875   6.064   6.639   3.224
 5326SOL     OW16876   5.930   4.898   2.474
 5326SOL    HW116877   6.022   4.901   2.514
 5326SOL    HW216878   5.868   4.853   2.538
 5327SOL     OW16879   0.813   5.907   6.031
 5327SOL    HW116880   0.896   5.882   5.981
 5327SOL    HW216881   0.736   5.854   5.996
 5328SOL     OW16882   3.784   2.409   5.676
 5328SOL    HW116883   3.880   2.419   5.650
 5328SOL    HW216884   3.777   2.403   5.776
 5329SOL     OW16885   0.310   3.925   6.557
 5329SOL    HW116886   0.251   3.994   6.599
 5329SOL    HW216887   0.284   3.834   6.591
 5330SOL     OW16888   3.405   4.278   6.931
 5330SOL    HW116889   3.410   4.369   6.892
 5330SOL    HW216890   3.402   4.284   0.013
 5331SOL     OW16891   5.272   1.154   1.376
 5331SOL    HW116892   5.289   1.074   1.433
 5331SOL    HW216893   5.340   1.158   1.302
 5332SOL     OW16894   6.279   4.234   6.818
 5332SOL    HW116895   6.202   4.254   6.757
 5332SOL    HW216896   6.247   4.232   6.913
 5333SOL     OW16897   1.152   0.743   3.775
 5333SOL    HW116898   1.055   0.738   3.752
 5333SOL    HW216899   1.170   0.687   3.856
 5334SOL     OW16900   4.065   5.016   5.164
 5334SOL    HW116901   4.145   5.076   5.171
 5334SOL    HW216902   3.991   5.065   5.118
 5335SOL     OW16903   0.225   4.906   2.087
 5335SOL    HW116904   0.236   4.970   2.011
 5335SOL    HW216905   0.261   4.817   2.061
 5336SOL     OW16906   2.166   1.983   3.559
 5336SOL    HW116907   2.079   1.988   3.510
 5336SOL    HW216908   2.230   1.926   3.508
 5337SOL     OW16909   5.995   5.307   1.753
 5337SOL    HW116910   5.932   5.367   1.703
 5337SOL    HW216911   5.979   5.315   1.851
 5338SOL     OW16912   5.375   1.439   0.131
 5338SOL    HW116913   5.469   1.458   0.156
 5338SOL    HW216914   5.314   1.507   0.172
 5339SOL     OW16915   5.893   1.447   2.731
 5339SOL    HW116916   5.983   1.446   2.689
 5339SOL    HW216917   5.834   1.381   2.686
 5340SOL     OW16918   5.815   3.631   1.396
 5340SOL    HW116919   5.882   3.616   1.323
 5340SOL    HW216920   5.725   3.598   1.366
 5341SOL     OW16921   3.288   4.947   5.250
 5341SOL    HW116922   3.363   4.894   5.289
 5341SOL    HW216923   3.244   5.001   5.322
 5342SOL     OW16924   4.889   6.412   4.741
 5342SOL    HW116925   4.841   6.326   4.754
 5342SOL    HW216926   4.944   6.408   4.657
 5343SOL     OW16927   3.795   3.430   5.171
 5343SOL    HW116928   3.879   3.447   5.119
 5343SOL    HW216929   3.779   3.505   5.235
 5344SOL     OW16930   0.516   1.542   6.978
 5344SOL    HW116931   0.570   1.458   6.985
 5344SOL    HW216932   0.571   1.620   7.007
 5345SOL     OW16933   4.898   0.744   0.027
 5345SOL    HW116934   4.962   0.671   0.052
 5345SOL    HW216935   4.931   0.791   6.963
 5346SOL     OW16936   2.506   5.505   4.224
 5346SOL    HW116937   2.444   5.430   4.246
 5346SOL    HW216938   2.455   5.579   4.180
 5347SOL     OW16939   6.765   3.726   3.373
 5347SOL    HW116940   6.682   3.708   3.321
 5347SOL    HW216941   6.841   3.745   3.310
 5348SOL     OW16942   0.012   1.084   5.521
 5348SOL    HW116943   0.009   1.037   5.433
 5348SOL    HW216944   0.105   1.077   5.558
 5349SOL     OW16945   2.273   3.473   1.174
 5349SOL    HW116946   2.313   3.558   1.208
 5349SOL    HW216947   2.240   3.419   1.252
 5350SOL     OW16948   2.307   6.503   5.371
 5350SOL    HW116949   2.256   6.581   5.407
 5350SOL    HW216950   2.402   6.508   5.401
 5351SOL     OW16951   0.500   5.507   2.068
 5351SOL    HW116952   0.526   5.537   2.160
 5351SOL    HW216953   0.472   5.411   2.071
 5352SOL     OW16954   2.339   4.323   2.827
 5352SOL    HW116955   2.420   4.371   2.860
 5352SOL    HW216956   2.278   4.388   2.782
 5353SOL     OW16957   3.955   5.210   3.333
 5353SOL    HW116958   3.893   5.209   3.411
 5353SOL    HW216959   4.045   5.240   3.362
 5354SOL     OW16960   2.448   4.277   0.159
 5354SOL    HW116961   2.478   4.353   0.101
 5354SOL    HW216962   2.350   4.262   0.146
 5355SOL     OW16963   5.898   4.490   4.509
 5355SOL    HW116964   5.823   4.432   4.478
 5355SOL    HW216965   5.957   4.439   4.571
 5356SOL     OW16966   0.019   3.617   1.918
 5356SOL    HW116967   0.090   3.664   1.971
 5356SOL    HW216968   6.948   3.638   1.957
 5357SOL     OW16969   3.871   4.512   1.083
 5357SOL    HW116970   3.908   4.578   1.149
 5357SOL    HW216971   3.836   4.432   1.133
 5358SOL     OW16972   4.633   2.021   0.718
 5358SOL    HW116973   4.535   2.035   0.703
 5358SOL    HW216974   4.669   2.097   0.773
 5359SOL     OW16975   2.020   1.780   6.464
 5359SOL    HW116976   2.032   1.687   6.500
 5359SOL    HW216977   2.056   1.846   6.530
 5360SOL     OW16978   5.508   5.471   3.614
 5360SOL    HW116979   5.426   5.502   3.568
 5360SOL    HW216980   5.493   5.378   3.650
 5361SOL     OW16981   1.863   6.636   3.890
 5361SOL    HW116982   1.864   6.583   3.975
 5361SOL    HW216983   1.786   6.607   3.834
 5362SOL     OW16984   6.167   6.448   2.675
 5362SOL    HW116985   6.129   6.357   2.691
 5362SOL    HW216986   6.118   6.515   2.731
 5363SOL     OW16987   5.227   6.494   5.299
 5363SOL    HW116988   5.299   6.510   5.366
 5363SOL    HW216989   5.261   6.516   5.208
 5364SOL     OW16990   5.997   7.011   2.391
 5364SOL    HW116991   6.055   6.996   2.472
 5364SOL    HW216992   6.054   0.008   2.311
 5365SOL     OW16993   3.760   3.158   2.271
 5365SOL    HW116994   3.784   3.211   2.353
 5365SOL    HW216995   3.758   3.061   2.294
 5366SOL     OW16996   6.757   0.496   2.151
 5366SOL    HW116997   6.729   0.436   2.226
 5366SOL    HW216998   6.677   0.517   2.094
 5367SOL     OW16999   6.629   6.808   0.920
 5367SOL    HW117000   6.722   6.842   0.903
 5367SOL    HW217001   6.596   6.845   1.007
 5368SOL     OW17002   6.569   6.323   2.419
 5368SOL    HW117003   6.483   6.289   2.380
 5368SOL    HW217004   6.620   6.372   2.348
 5369SOL     OW17005   2.889   5.932   1.349
 5369SOL    HW117006   2.941   5.849   1.329
 5369SOL    HW217007   2.944   6.012   1.324
 5370SOL     OW17008   4.280   3.515   1.363
 5370SOL    HW117009   4.252   3.531   1.268
 5370SOL    HW217010   4.377   3.536   1.373
 5371SOL     OW17011   6.699   5.057   5.672
 5371SOL    HW117012   6.673   5.101   5.758
 5371SOL    HW217013   6.672   4.961   5.674
 5372SOL     OW17014   1.535   6.470   2.654
 5372SOL    HW117015   1.480   6.554   2.661
 5372SOL    HW217016   1.563   6.457   2.559
 5373SOL     OW17017   3.878   6.793   5.698
 5373SOL    HW117018   3.787   6.762   5.669
 5373SOL    HW217019   3.869   6.879   5.749
 5374SOL     OW17020   2.771   3.989   1.212
 5374SOL    HW117021   2.790   4.021   1.119
 5374SOL    HW217022   2.795   4.062   1.277
 5375SOL     OW17023   0.787   5.387   5.941
 5375SOL    HW117024   0.837   5.365   5.857
 5375SOL    HW217025   0.689   5.379   5.924
 5376SOL     OW17026   1.390   2.379   1.983
 5376SOL    HW117027   1.337   2.459   1.956
 5376SOL    HW217028   1.482   2.386   1.946
 5377SOL     OW17029   1.108   0.545   2.669
 5377SOL    HW117030   1.191   0.600   2.684
 5377SOL    HW217031   1.028   0.599   2.693
 5378SOL     OW17032   6.583   0.382   1.710
 5378SOL    HW117033   6.610   0.305   1.769
 5378SOL    HW217034   6.498   0.359   1.663
 5379SOL     OW17035   1.051   3.065   5.091
 5379SOL    HW117036   1.009   3.001   5.155
 5379SOL    HW217037   1.123   3.018   5.039
 5380SOL     OW17038   2.881   0.200   1.064
 5380SOL    HW117039   2.845   0.140   0.991
 5380SOL    HW217040   2.978   0.215   1.050
 5381SOL     OW17041   6.121   6.009   2.284
 5381SOL    HW117042   6.038   6.038   2.332
 5381SOL    HW217043   6.147   5.918   2.315
 5382SOL     OW17044   3.041   2.209   2.653
 5382SOL    HW117045   3.078   2.127   2.698
 5382SOL    HW217046   3.096   2.229   2.571
 5383SOL     OW17047   1.630   2.669   4.381
 5383SOL    HW117048   1.658   2.688   4.475
 5383SOL    HW217049   1.693   2.604   4.340
 5384SOL     OW17050   4.787   5.777   4.763
 5384SOL    HW117051   4.747   5.697   4.809
 5384SOL    HW217052   4.784   5.763   4.664
 5385SOL     OW17053   5.765   3.342   4.945
 5385SOL    HW117054   5.812   3.270   4.893
 5385SOL    HW217055   5.740   3.416   4.883
 5386SOL     OW17056   5.780   1.274   4.209
 5386SOL    HW117057   5.701   1.269   4.270
 5386SOL    HW217058   5.761   1.338   4.134
 5387SOL     OW17059   2.614   6.812   3.501
 5387SOL    HW117060   2.623   6.719   3.466
 5387SOL    HW217061   2.574   6.809   3.592
 5388SOL     OW17062   1.621   6.637   3.015
 5388SOL    HW117063   1.707   6.662   3.059
 5388SOL    HW217064   1.618   6.538   3.004
 5389SOL     OW17065   4.169   1.668   4.825
 5389SOL    HW117066   4.072   1.669   4.849
 5389SOL    HW217067   4.183   1.608   4.746
 5390SOL     OW17068   5.101   4.212   3.951
 5390SOL    HW117069   5.135   4.304   3.930
 5390SOL    HW217070   5.162   4.167   4.015
 5391SOL     OW17071   2.980   1.921   0.050
 5391SOL    HW117072   2.893   1.873   0.056
 5391SOL    HW217073   2.963   2.018   0.031
 5392SOL     OW17074   5.282   3.638   2.181
 5392SOL    HW117075   5.348   3.603   2.114
 5392SOL    HW217076   5.198   3.584   2.175
 5393SOL     OW17077   4.050   0.658   5.183
 5393SOL    HW117078   3.986   0.727   5.150
 5393SOL    HW217079   4.127   0.703   5.228
 5394SOL     OW17080   0.627   6.363   0.935
 5394SOL    HW117081   0.665   6.305   1.007
 5394SOL    HW217082   0.529   6.346   0.927
 5395SOL     OW17083   4.901   1.086   0.928
 5395SOL    HW117084   4.886   1.076   1.026
 5395SOL    HW217085   4.927   1.180   0.908
 5396SOL     OW17086   5.330   5.473   1.528
 5396SOL    HW117087   5.237   5.444   1.505
 5396SOL    HW217088   5.393   5.446   1.455
 5397SOL     OW17089   0.068   2.009   1.721
 5397SOL    HW117090   0.053   1.911   1.735
 5397SOL    HW217091   0.004   2.061   1.777
 5398SOL     OW17092   3.323   2.024   3.483
 5398SOL    HW117093   3.268   2.081   3.543
 5398SOL    HW217094   3.416   2.060   3.479
 5399SOL     OW17095   2.610   6.797   5.996
 5399SOL    HW117096   2.565   6.864   6.056
 5399SOL    HW217097   2.691   6.762   6.042
 5400SOL     OW17098   3.204   3.434   0.714
 5400SOL    HW117099   3.296   3.455   0.682
 5400SOL    HW217100   3.155   3.384   0.642
 5401SOL     OW17101   5.609   4.022   2.624
 5401SOL    HW117102   5.704   3.991   2.620
 5401SOL    HW217103   5.581   4.031   2.719
 5402SOL     OW17104   3.111   6.517   0.702
 5402SOL    HW117105   3.169   6.561   0.633
 5402SOL    HW217106   3.157   6.434   0.736
 5403SOL     OW17107   5.178   3.367   6.816
 5403SOL    HW117108   5.201   3.306   6.892
 5403SOL    HW217109   5.132   3.315   6.744
 5404SOL     OW17110   1.094   0.677   1.125
 5404SOL    HW117111   1.152   0.757   1.112
 5404SOL    HW217112   1.084   0.628   1.038
 5405SOL     OW17113   5.915   5.505   6.964
 5405SOL    HW117114   5.955   5.463   0.027
 5405SOL    HW217115   5.985   5.557   6.915
 5406SOL     OW17116   2.182   0.919   4.823
 5406SOL    HW117117   2.229   0.835   4.794
 5406SOL    HW217118   2.196   0.933   4.921
 5407SOL     OW17119   3.205   1.430   0.650
 5407SOL    HW117120   3.303   1.446   0.657
 5407SOL    HW217121   3.162   1.506   0.602
 5408SOL     OW17122   3.011   1.295   4.767
 5408SOL    HW117123   3.076   1.291   4.844
 5408SOL    HW217124   3.060   1.276   4.682
 5409SOL     OW17125   6.847   1.509   2.127
 5409SOL    HW117126   6.875   1.414   2.116
 5409SOL    HW217127   6.915   1.557   2.183
 5410SOL     OW17128   0.629   2.883   6.970
 5410SOL    HW117129   0.689   2.947   0.001
 5410SOL    HW217130   0.675   2.852   6.886
 5411SOL     OW17131   5.397   4.668   6.864
 5411SOL    HW117132   5.458   4.645   6.940
 5411SOL    HW217133   5.451   4.674   6.779
 5412SOL     OW17134   2.259   1.361   5.948
 5412SOL    HW117135   2.330   1.359   5.878
 5412SOL    HW217136   2.213   1.450   5.946
 5413SOL     OW17137   0.846   6.907   6.404
 5413SOL    HW117138   0.764   6.962   6.388
 5413SOL    HW217139   0.854   6.888   6.502
 5414SOL     OW17140   6.467   4.708   5.449
 5414SOL    HW117141   6.522   4.624   5.439
 5414SOL    HW217142   6.503   4.779   5.388
 5415SOL     OW17143   3.299   5.941   0.321
 5415SOL    HW117144   3.207   5.908   0.301
 5415SOL    HW217145   3.297   6.040   0.335
 5416SOL     OW17146   2.534   4.912   5.093
 5416SOL    HW117147   2.470   4.945   5.024
 5416SOL    HW217148   2.504   4.823   5.127
 5417SOL     OW17149   4.052   0.181   4.448
 5417SOL    HW117150   3.977   0.237   4.483
 5417SOL    HW217151   4.120   0.240   4.405
 5418SOL     OW17152   5.330   5.606   4.704
 5418SOL    HW117153   5.386   5.635   4.626
 5418SOL    HW217154   5.269   5.680   4.730
 5419SOL     OW17155   4.455   6.470   0.177
 5419SOL    HW117156   4.379   6.513   0.225
 5419SOL    HW217157   4.465   6.375   0.207
 5420SOL     OW17158   2.311   1.898   0.840
 5420SOL    HW117159   2.375   1.964   0.802
 5420SOL    HW217160   2.321   1.810   0.792
 5421SOL     OW17161   3.612   5.263   1.807
 5421SOL    HW117162   3.659   5.347   1.779
 5421SOL    HW217163   3.627   5.192   1.738
 5422SOL     OW17164   2.104   5.756   4.787
 5422SOL    HW117165   2.197   5.790   4.772
 5422SOL    HW217166   2.107   5.679   4.852
 5423SOL     OW17167   5.879   5.392   0.698
 5423SOL    HW117168   5.872   5.454   0.620
 5423SOL    HW217169   5.789   5.383   0.741
 5424SOL     OW17170   5.064   3.846   4.205
 5424SOL    HW117171   5.103   3.937   4.190
 5424SOL    HW217172   5.096   3.810   4.292
 5425SOL     OW17173   6.432   2.602   4.799
 5425SOL    HW117174   6.480   2.668   4.857
 5425SOL    HW217175   6.344   2.640   4.771
 5426SOL     OW17176   4.252   5.445   2.373
 5426SOL    HW117177   4.214   5.358   2.405
 5426SOL    HW217178   4.177   5.510   2.358
 5427SOL     OW17179   5.005   3.019   0.423
 5427SOL    HW117180   5.097   2.980   0.416
 5427SOL    HW217181   4.947   2.958   0.476
 5428SOL     OW17182   4.860   6.975   2.001
 5428SOL    HW117183   4.821   6.904   1.943
 5428SOL    HW217184   4.798   6.994   2.078
 5429SOL     OW17185   1.923   0.038   4.601
 5429SOL    HW117186   1.890   0.012   4.510
 5429SOL    HW217187   2.018   0.007   4.612
 5430SOL     OW17188   1.930   2.904   5.083
 5430SOL    HW117189   1.990   2.944   5.013
 5430SOL    HW217190   1.969   2.922   5.173
 5431SOL     OW17191   3.055   4.090   6.362
 5431SOL    HW117192   3.030   4.186   6.374
 5431SOL    HW217193   3.140   4.083   6.310
 5432SOL     OW17194   4.941   5.287   6.781
 5432SOL    HW117195   4.962   5.259   6.875
 5432SOL    HW217196   5.021   5.330   6.740
 5433SOL     OW17197   1.597   0.218   1.062
 5433SOL    HW117198   1.598   0.231   1.162
 5433SOL    HW217199   1.503   0.203   1.032
 5434SOL     OW17200   4.680   0.877   4.590
 5434SOL    HW117201   4.748   0.820   4.636
 5434SOL    HW217202   4.720   0.919   4.509
 5435SOL     OW17203   6.409   3.708   1.095
 5435SOL    HW117204   6.365   3.798   1.091
 5435SOL    HW217205   6.483   3.710   1.161
 5436SOL     OW17206   6.595   5.026   3.868
 5436SOL    HW117207   6.687   4.991   3.884
 5436SOL    HW217208   6.528   4.965   3.910
 5437SOL     OW17209   3.834   4.726   5.590
 5437SOL    HW117210   3.813   4.642   5.639
 5437SOL    HW217211   3.797   4.804   5.641
 5438SOL     OW17212   4.890   5.270   2.203
 5438SOL    HW117213   4.877   5.282   2.104
 5438SOL    HW217214   4.802   5.277   2.250
 5439SOL     OW17215   0.906   3.610   0.214
 5439SOL    HW117216   0.807   3.613   0.227
 5439SOL    HW217217   0.927   3.633   0.119
 5440SOL     OW17218   5.721   6.549   3.754
 5440SOL    HW117219   5.729   6.540   3.853
 5440SOL    HW217220   5.694   6.642   3.730
 5441SOL     OW17221   5.277   3.331   3.273
 5441SOL    HW117222   5.187   3.373   3.263
 5441SOL    HW217223   5.340   3.370   3.205
 5442SOL     OW17224   3.688   6.998   3.344
 5442SOL    HW117225   3.604   0.030   3.323
 5442SOL    HW217226   3.695   6.984   3.443
 5443SOL     OW17227   4.542   6.565   4.092
 5443SOL    HW117228   4.640   6.550   4.084
 5443SOL    HW217229   4.524   6.663   4.099
 5444SOL     OW17230   6.711   1.647   4.138
 5444SOL    HW117231   6.625   1.654   4.087
 5444SOL    HW217232   6.736   1.550   4.147
 5445SOL     OW17233   5.206   4.631   3.393
 5445SOL    HW117234   5.284   4.610   3.453
 5445SOL    HW217235   5.238   4.674   3.309
 5446SOL     OW17236   5.852   4.733   4.631
 5446SOL    HW117237   5.866   4.647   4.582
 5446SOL    HW217238   5.940   4.774   4.651
 5447SOL     OW17239   1.982   1.715   1.342
 5447SOL    HW117240   2.029   1.629   1.327
 5447SOL    HW217241   2.042   1.779   1.389
 5448SOL     OW17242   4.714   4.940   3.880
 5448SOL    HW117243   4.710   4.988   3.792
 5448SOL    HW217244   4.806   4.902   3.893
 5449SOL     OW17245   2.499   1.500   1.352
 5449SOL    HW117246   2.507   1.417   1.298
 5449SOL    HW217247   2.589   1.526   1.386
 5450SOL     OW17248   3.599   6.493   1.302
 5450SOL    HW117249   3.507   6.529   1.318
 5450SOL    HW217250   3.653   6.562   1.254
 5451SOL     OW17251   1.499   5.957   3.865
 5451SOL    HW117252   1.461   6.049   3.854
 5451SOL    HW217253   1.425   5.893   3.884
 5452SOL     OW17254   2.706   4.523   0.969
 5452SOL    HW117255   2.699   4.488   1.063
 5452SOL    HW217256   2.734   4.449   0.908
 5453SOL     OW17257   5.303   4.346   2.034
 5453SOL    HW117258   5.283   4.361   1.937
 5453SOL    HW217259   5.266   4.257   2.062
 5454SOL     OW17260   5.467   6.028   1.605
 5454SOL    HW117261   5.529   5.959   1.643
 5454SOL    HW217262   5.372   5.999   1.620
 5455SOL     OW17263   6.991   1.949   3.451
 5455SOL    HW117264   0.062   1.984   3.480
 5455SOL    HW217265   6.947   1.902   3.528
 5456SOL     OW17266   3.762   1.402   6.274
 5456SOL    HW117267   3.732   1.388   6.179
 5456SOL    HW217268   3.817   1.324   6.304
 5457SOL     OW17269   6.417   2.043   0.810
 5457SOL    HW117270   6.353   1.966   0.807
 5457SOL    HW217271   6.506   2.012   0.776
 5458SOL     OW17272   6.850   4.586   0.930
 5458SOL    HW117273   6.828   4.684   0.931
 5458SOL    HW217274   6.915   4.566   1.004
 5459SOL     OW17275   1.972   4.956   4.771
 5459SOL    HW117276   1.893   4.894   4.761
 5459SOL    HW217277   1.970   4.999   4.861
 5460SOL     OW17278   2.750   0.245   2.522
 5460SOL    HW117279   2.810   0.294   2.458
 5460SOL    HW217280   2.775   0.268   2.616
 5461SOL     OW17281   0.792   1.307   4.954
 5461SOL    HW117282   0.761   1.234   4.894
 5461SOL    HW217283   0.729   1.384   4.949
 5462SOL     OW17284   5.524   6.448   6.250
 5462SOL    HW117285   5.459   6.497   6.192
 5462SOL    HW217286   5.506   6.350   6.245
 5463SOL     OW17287   6.907   1.759   6.720
 5463SOL    HW117288   6.970   1.753   6.797
 5463SOL    HW217289   6.824   1.707   6.741
 5464SOL     OW17290   5.980   5.744   5.141
 5464SOL    HW117291   6.055   5.725   5.078
 5464SOL    HW217292   5.966   5.843   5.148
 5465SOL     OW17293   0.003   0.256   3.158
 5465SOL    HW117294   0.023   0.250   3.061
 5465SOL    HW217295   0.038   0.176   3.205
 5466SOL     OW17296   6.270   2.702   5.728
 5466SOL    HW117297   6.261   2.633   5.799
 5466SOL    HW217298   6.190   2.763   5.731
 5467SOL     OW17299   5.844   3.746   3.175
 5467SOL    HW117300   5.772   3.758   3.108
 5467SOL    HW217301   5.816   3.678   3.243
 5468SOL     OW17302   6.969   2.539   4.364
 5468SOL    HW117303   6.889   2.566   4.310
 5468SOL    HW217304   6.966   2.441   4.381
 5469SOL     OW17305   3.518   5.803   6.037
 5469SOL    HW117306   3.595   5.746   6.066
 5469SOL    HW217307   3.466   5.755   5.966
 5470SOL     OW17308   3.898   5.195   3.880
 5470SOL    HW117309   3.849   5.129   3.824
 5470SOL    HW217310   3.991   5.207   3.845
 5471SOL     OW17311   5.451   0.647   2.185
 5471SOL    HW117312   5.381   0.654   2.256
 5471SOL    HW217313   5.415   0.594   2.108
 5472SOL     OW17314   2.983   3.803   6.763
 5472SOL    HW117315   3.060   3.783   6.823
 5472SOL    HW217316   3.013   3.862   6.689
 5473SOL     OW17317   2.022   3.600   0.154
 5473SOL    HW117318   2.031   3.503   0.133
 5473SOL    HW217319   1.926   3.627   0.146
 5474SOL     OW17320   0.510   5.797   4.270
 5474SOL    HW117321   0.608   5.817   4.265
 5474SOL    HW217322   0.471   5.845   4.349
 5475SOL     OW17323   1.636   1.774   0.995
 5475SOL    HW117324   1.583   1.803   0.915
 5475SOL    HW217325   1.587   1.799   1.078
 5476SOL     OW17326   2.211   4.756   5.155
 5476SOL    HW117327   2.196   4.726   5.061
 5476SOL    HW217328   2.228   4.854   5.156
 5477SOL     OW17329   1.888   3.575   3.169
 5477SOL    HW117330   1.982   3.596   3.142
 5477SOL    HW217331   1.888   3.531   3.259
 5478SOL     OW17332   4.748   6.512   5.535
 5478SOL    HW117333   4.822   6.545   5.477
 5478SOL    HW217334   4.756   6.414   5.547
 5479SOL     OW17335   4.404   1.431   4.902
 5479SOL    HW117336   4.338   1.469   4.966
 5479SOL    HW217337   4.468   1.373   4.951
 5480SOL     OW17338   5.593   4.975   5.162
 5480SOL    HW117339   5.676   4.976   5.105
 5480SOL    HW217340   5.616   4.936   5.251
 5481SOL     OW17341   4.950   0.900   4.821
 5481SOL    HW117342   5.010   0.868   4.895
 5481SOL    HW217343   4.926   0.823   4.762
 5482SOL     OW17344   3.440   4.075   2.637
 5482SOL    HW117345   3.365   4.103   2.697
 5482SOL    HW217346   3.422   3.984   2.600
 5483SOL     OW17347   6.965   2.075   5.068
 5483SOL    HW117348   0.034   2.030   5.045
 5483SOL    HW217349   6.892   2.036   5.010
 5484SOL     OW17350   6.160   0.471   3.567
 5484SOL    HW117351   6.220   0.474   3.487
 5484SOL    HW217352   6.212   0.442   3.647
 5485SOL     OW17353   3.172   6.486   4.771
 5485SOL    HW117354   3.080   6.526   4.769
 5485SOL    HW217355   3.237   6.556   4.798
 5486SOL     OW17356   1.396   6.142   4.503
 5486SOL    HW117357   1.372   6.100   4.415
 5486SOL    HW217358   1.465   6.087   4.549
 5487SOL     OW17359   5.471   3.360   6.670
 5487SOL    HW117360   5.479   3.406   6.758
 5487SOL    HW217361   5.396   3.294   6.673
 5488SOL     OW17362   5.493   1.343   1.412
 5488SOL    HW117363   5.496   1.268   1.346
 5488SOL    HW217364   5.461   1.426   1.366
 5489SOL     OW17365   0.893   4.698   1.107
 5489SOL    HW117366   0.971   4.679   1.046
 5489SOL    HW217367   0.810   4.662   1.066
 5490SOL     OW17368   3.322   0.525   0.984
 5490SOL    HW117369   3.361   0.469   0.910
 5490SOL    HW217370   3.277   0.604   0.944
 5491SOL     OW17371   1.867   3.444   6.300
 5491SOL    HW117372   1.828   3.369   6.353
 5491SOL    HW217373   1.898   3.410   6.211
 5492SOL     OW17374   0.978   1.822   6.772
 5492SOL    HW117375   1.027   1.805   6.687
 5492SOL    HW217376   0.956   1.735   6.816
 5493SOL     OW17377   4.046   3.660   4.195
 5493SOL    HW117378   4.051   3.635   4.098
 5493SOL    HW217379   3.996   3.589   4.245
 5494SOL     OW17380   6.213   2.677   0.084
 5494SOL    HW117381   6.274   2.599   0.075
 5494SOL    HW217382   6.145   2.675   0.010
 5495SOL     OW17383   3.767   2.469   1.415
 5495SOL    HW117384   3.855   2.473   1.367
 5495SOL    HW217385   3.693   2.488   1.351
 5496SOL     OW17386   2.558   0.077   3.519
 5496SOL    HW117387   2.590   7.005   3.489
 5496SOL    HW217388   2.595   0.147   3.458
 5497SOL     OW17389   0.073   2.185   3.807
 5497SOL    HW117390   0.158   2.235   3.791
 5497SOL    HW217391   0.082   2.092   3.771
 5498SOL     OW17392   5.404   6.896   1.678
 5498SOL    HW117393   5.404   6.818   1.615
 5498SOL    HW217394   5.320   6.948   1.666
 5499SOL     OW17395   0.688   0.975   3.324
 5499SOL    HW117396   0.606   1.031   3.322
 5499SOL    HW217397   0.670   0.886   3.282
 5500SOL     OW17398   1.805   6.545   6.698
 5500SOL    HW117399   1.727   6.484   6.713
 5500SOL    HW217400   1.858   6.553   6.782
 5501SOL     OW17401   3.744   0.104   0.997
 5501SOL    HW117402   3.798   0.121   0.915
 5501SOL    HW217403   3.696   0.187   1.024
 5502SOL     OW17404   5.406   3.964   0.140
 5502SOL    HW117405   5.390   4.054   0.098
 5502SOL    HW217406   5.322   3.910   0.137
 5503SOL     OW17407   6.953   5.257   3.208
 5503SOL    HW117408   6.933   5.222   3.116
 5503SOL    HW217409   7.005   5.188   3.259
 5504SOL     OW17410   4.134   1.474   5.270
 5504SOL    HW117411   4.065   1.410   5.237
 5504SOL    HW217412   4.169   1.529   5.194
 5505SOL     OW17413   1.904   5.766   4.303
 5505SOL    HW117414   1.900   5.669   4.278
 5505SOL    HW217415   1.938   5.774   4.397
 5506SOL     OW17416   0.486   1.226   6.079
 5506SOL    HW117417   0.533   1.138   6.069
 5506SOL    HW217418   0.549   1.293   6.118
 5507SOL     OW17419   2.496   6.841   3.120
 5507SOL    HW117420   2.579   6.803   3.080
 5507SOL    HW217421   2.436   6.875   3.047
 5508SOL     OW17422   2.025   0.933   6.782
 5508SOL    HW117423   2.031   0.833   6.781
 5508SOL    HW217424   2.116   0.972   6.795
 5509SOL     OW17425   1.171   6.427   0.923
 5509SOL    HW117426   1.109   6.374   0.865
 5509SOL    HW217427   1.138   6.424   1.018
 5510SOL     OW17428   5.217   6.245   0.711
 5510SOL    HW117429   5.145   6.266   0.776
 5510SOL    HW217430   5.246   6.150   0.723
 5511SOL     OW17431   2.784   0.307   4.095
 5511SOL    HW117432   2.874   0.347   4.114
 5511SOL    HW217433   2.746   0.348   4.013
 5512SOL     OW17434   5.686   2.270   1.570
 5512SOL    HW117435   5.663   2.364   1.594
 5512SOL    HW217436   5.783   2.265   1.547
 5513SOL     OW17437   3.963   4.169   6.125
 5513SOL    HW117438   4.026   4.132   6.193
 5513SOL    HW217439   3.956   4.269   6.137
 5514SOL     OW17440   5.017   5.972   2.082
 5514SOL    HW117441   4.992   5.903   2.014
 5514SOL    HW217442   4.946   6.042   2.087
 5515SOL     OW17443   0.071   4.787   1.532
 5515SOL    HW117444   0.101   4.787   1.436
 5515SOL    HW217445   7.005   4.841   1.540
 5516SOL     OW17446   0.797   3.734   6.465
 5516SOL    HW117447   0.724   3.749   6.532
 5516SOL    HW217448   0.846   3.820   6.450
 5517SOL     OW17449   2.193   2.920   2.056
 5517SOL    HW117450   2.113   2.917   2.116
 5517SOL    HW217451   2.179   2.857   1.979
 5518SOL     OW17452   6.179   6.651   6.268
 5518SOL    HW117453   6.254   6.692   6.320
 5518SOL    HW217454   6.164   6.702   6.184
 5519SOL     OW17455   5.301   3.355   2.872
 5519SOL    HW117456   5.309   3.325   2.967
 5519SOL    HW217457   5.232   3.427   2.866
 5520SOL     OW17458   0.029   5.521   2.535
 5520SOL    HW117459   0.093   5.590   2.570
 5520SOL    HW217460   0.078   5.435   2.522
 5521SOL     OW17461   4.345   6.774   2.038
 5521SOL    HW117462   4.278   6.753   1.967
 5521SOL    HW217463   4.319   6.858   2.085
 5522SOL     OW17464   0.222   5.312   0.897
 5522SOL    HW117465   0.214   5.262   0.810
 5522SOL    HW217466   0.311   5.292   0.938
 5523SOL     OW17467   3.401   0.015   2.081
 5523SOL    HW117468   3.445   6.981   2.154
 5523SOL    HW217469   3.413   0.113   2.098
 5524SOL     OW17470   5.131   5.441   4.805
 5524SOL    HW117471   5.180   5.526   4.784
 5524SOL    HW217472   5.196   5.367   4.820
 5525SOL     OW17473   6.586   3.044   6.794
 5525SOL    HW117474   6.517   3.084   6.854
 5525SOL    HW217475   6.674   3.042   6.843
 5526SOL     OW17476   5.413   4.794   4.778
 5526SOL    HW117477   5.365   4.799   4.690
 5526SOL    HW217478   5.508   4.821   4.765
 5527SOL     OW17479   6.855   3.806   4.248
 5527SOL    HW117480   6.792   3.782   4.175
 5527SOL    HW217481   6.934   3.745   4.245
 5528SOL     OW17482   1.395   1.790   6.851
 5528SOL    HW117483   1.329   1.729   6.895
 5528SOL    HW217484   1.486   1.776   6.889
 5529SOL     OW17485   1.952   0.475   4.275
 5529SOL    HW117486   1.979   0.394   4.326
 5529SOL    HW217487   1.928   0.450   4.182
 5530SOL     OW17488   0.249   2.249   2.152
 5530SOL    HW117489   0.317   2.306   2.198
 5530SOL    HW217490   0.290   2.163   2.124
 5531SOL     OW17491   4.075   3.269   2.359
 5531SOL    HW117492   4.127   3.355   2.361
 5531SOL    HW217493   4.048   3.249   2.265
 5532SOL     OW17494   1.267   1.967   0.195
 5532SOL    HW117495   1.223   2.017   0.121
 5532SOL    HW217496   1.292   2.030   0.268
 5533SOL     OW17497   3.258   0.789   3.356
 5533SOL    HW117498   3.228   0.790   3.451
 5533SOL    HW217499   3.220   0.868   3.308
 5534SOL     OW17500   0.813   1.620   5.454
 5534SOL    HW117501   0.830   1.646   5.549
 5534SOL    HW217502   0.736   1.673   5.417
 5535SOL     OW17503   0.567   3.683   4.534
 5535SOL    HW117504   0.571   3.684   4.633
 5535SOL    HW217505   0.564   3.588   4.502
 5536SOL     OW17506   2.796   0.698   4.469
 5536SOL    HW117507   2.855   0.751   4.408
 5536SOL    HW217508   2.706   0.742   4.475
 5537SOL     OW17509   2.990   0.470   4.147
 5537SOL    HW117510   2.960   0.531   4.221
 5537SOL    HW217511   3.039   0.523   4.078
 5538SOL     OW17512   3.312   0.045   4.934
 5538SOL    HW117513   3.410   0.026   4.931
 5538SOL    HW217514   3.283   0.088   4.849
 5539SOL     OW17515   1.653   2.593   0.175
 5539SOL    HW117516   1.559   2.561   0.161
 5539SOL    HW217517   1.683   2.566   0.267
 5540SOL     OW17518   6.274   3.667   3.110
 5540SOL    HW117519   6.338   3.672   3.033
 5540SOL    HW217520   6.280   3.577   3.153
 5541SOL     OW17521   5.690   0.935   6.597
 5541SOL    HW117522   5.677   0.843   6.561
 5541SOL    HW217523   5.603   0.985   6.594
 5542SOL     OW17524   6.337   5.935   6.402
 5542SOL    HW117525   6.428   5.922   6.361
 5542SOL    HW217526   6.298   6.021   6.368
 5543SOL     OW17527   3.110   5.324   5.775
 5543SOL    HW117528   3.090   5.421   5.757
 5543SOL    HW217529   3.030   5.269   5.753
 5544SOL     OW17530   5.379   6.529   6.036
 5544SOL    HW117531   5.427   6.509   5.950
 5544SOL    HW217532   5.313   6.603   6.021
 5545SOL     OW17533   4.473   1.781   3.260
 5545SOL    HW117534   4.537   1.781   3.183
 5545SOL    HW217535   4.488   1.701   3.317
 5546SOL     OW17536   1.124   6.430   4.621
 5546SOL    HW117537   1.024   6.429   4.613
 5546SOL    HW217538   1.152   6.364   4.691
 5547SOL     OW17539   3.699   0.958   4.180
 5547SOL    HW117540   3.755   0.947   4.262
 5547SOL    HW217541   3.604   0.978   4.207
 5548SOL     OW17542   5.694   3.645   5.089
 5548SOL    HW117543   5.689   3.607   4.997
 5548SOL    HW217544   5.771   3.708   5.095
 5549SOL     OW17545   4.642   4.211   0.358
 5549SOL    HW117546   4.583   4.290   0.377
 5549SOL    HW217547   4.708   4.200   0.433
 5550SOL     OW17548   2.492   4.597   2.491
 5550SOL    HW117549   2.553   4.676   2.485
 5550SOL    HW217550   2.481   4.570   2.587
 5551SOL     OW17551   1.935   5.771   3.414
 5551SOL    HW117552   2.009   5.714   3.449
 5551SOL    HW217553   1.847   5.726   3.431
 5552SOL     OW17554   6.626   0.311   6.563
 5552SOL    HW117555   6.628   0.399   6.611
 5552SOL    HW217556   6.663   0.323   6.471
 5553SOL     OW17557   4.959   6.565   0.602
 5553SOL    HW117558   4.944   6.511   0.684
 5553SOL    HW217559   4.883   6.551   0.539
 5554SOL     OW17560   4.446   1.815   5.969
 5554SOL    HW117561   4.544   1.835   5.975
 5554SOL    HW217562   4.432   1.716   5.971
 5555SOL     OW17563   1.258   4.178   3.548
 5555SOL    HW117564   1.335   4.241   3.538
 5555SOL    HW217565   1.202   4.205   3.626
 5556SOL     OW17566   6.656   1.507   3.148
 5556SOL    HW117567   6.737   1.551   3.186
 5556SOL    HW217568   6.607   1.572   3.090
 5557SOL     OW17569   3.368   6.700   2.765
 5557SOL    HW117570   3.272   6.718   2.744
 5557SOL    HW217571   3.380   6.604   2.787
 5558SOL     OW17572   4.092   3.616   5.620
 5558SOL    HW117573   4.191   3.613   5.609
 5558SOL    HW217574   4.053   3.526   5.602
 5559SOL     OW17575   1.569   0.527   1.677
 5559SOL    HW117576   1.507   0.528   1.756
 5559SOL    HW217577   1.659   0.561   1.706
 5560SOL     OW17578   0.842   6.169   2.380
 5560SOL    HW117579   0.919   6.217   2.423
 5560SOL    HW217580   0.769   6.234   2.360
 5561SOL     OW17581   0.930   1.896   4.120
 5561SOL    HW117582   0.902   1.876   4.026
 5561SOL    HW217583   0.958   1.811   4.165
 5562SOL     OW17584   4.236   2.143   6.348
 5562SOL    HW117585   4.155   2.092   6.378
 5562SOL    HW217586   4.303   2.079   6.311
 5563SOL     OW17587   3.926   5.442   1.994
 5563SOL    HW117588   3.879   5.372   2.047
 5563SOL    HW217589   3.957   5.404   1.907
 5564SOL     OW17590   4.651   0.703   1.321
 5564SOL    HW117591   4.702   0.641   1.263
 5564SOL    HW217592   4.704   0.723   1.404
 5565SOL     OW17593   4.723   1.546   5.997
 5565SOL    HW117594   4.767   1.457   6.007
 5565SOL    HW217595   4.662   1.545   5.918
 5566SOL     OW17596   1.311   4.879   6.587
 5566SOL    HW117597   1.363   4.798   6.616
 5566SOL    HW217598   1.296   4.875   6.489
 5567SOL     OW17599   0.065   2.754   1.219
 5567SOL    HW117600   0.081   2.790   1.311
 5567SOL    HW217601   6.987   2.767   1.194
 5568SOL     OW17602   4.458   2.140   3.944
 5568SOL    HW117603   4.419   2.232   3.933
 5568SOL    HW217604   4.419   2.096   4.024
 5569SOL     OW17605   1.289   1.705   3.019
 5569SOL    HW117606   1.358   1.731   2.951
 5569SOL    HW217607   1.334   1.668   3.100
 5570SOL     OW17608   6.455   4.368   4.877
 5570SOL    HW117609   6.486   4.281   4.916
 5570SOL    HW217610   6.431   4.354   4.781
 5571SOL     OW17611   0.099   5.947   0.408
 5571SOL    HW117612   0.067   5.871   0.466
 5571SOL    HW217613   0.021   5.988   0.362
 5572SOL     OW17614   0.946   1.949   5.576
 5572SOL    HW117615   0.978   1.898   5.496
 5572SOL    HW217616   1.010   2.023   5.596
 5573SOL     OW17617   2.165   4.116   5.335
 5573SOL    HW117618   2.222   4.161   5.266
 5573SOL    HW217619   2.184   4.018   5.336
 5574SOL     OW17620   6.830   1.935   2.789
 5574SOL    HW117621   6.897   1.880   2.838
 5574SOL    HW217622   6.746   1.940   2.842
 5575SOL     OW17623   6.866   1.323   0.770
 5575SOL    HW117624   6.919   1.377   0.705
 5575SOL    HW217625   6.889   1.351   0.863
 5576SOL     OW17626   1.384   5.386   1.940
 5576SOL    HW117627   1.333   5.416   1.859
 5576SOL    HW217628   1.361   5.445   2.017
 5577SOL     OW17629   2.885   3.295   4.965
 5577SOL    HW117630   2.797   3.271   4.925
 5577SOL    HW217631   2.957   3.286   4.895
 5578SOL     OW17632   3.323   4.033   0.558
 5578SOL    HW117633   3.306   3.994   0.468
 5578SOL    HW217634   3.312   4.132   0.554
 5579SOL     OW17635   1.007   3.547   5.985
 5579SOL    HW117636   1.015   3.559   6.084
 5579SOL    HW217637   1.097   3.525   5.947
 5580SOL     OW17638   5.152   2.836   5.794
 5580SOL    HW117639   5.175   2.872   5.884
 5580SOL    HW217640   5.202   2.886   5.724
 5581SOL     OW17641   1.751   0.014   1.658
 5581SOL    HW117642   1.677   7.002   1.719
 5581SOL    HW217643   1.836   6.987   1.684
 5582SOL     OW17644   3.211   3.656   4.659
 5582SOL    HW117645   3.191   3.559   4.644
 5582SOL    HW217646   3.205   3.676   4.757
 5583SOL     OW17647   4.433   0.536   2.397
 5583SOL    HW117648   4.430   0.570   2.303
 5583SOL    HW217649   4.368   0.587   2.453
 5584SOL     OW17650   5.693   4.564   3.875
 5584SOL    HW117651   5.654   4.539   3.965
 5584SOL    HW217652   5.791   4.548   3.876
 5585SOL     OW17653   5.032   6.194   3.854
 5585SOL    HW117654   5.055   6.210   3.950
 5585SOL    HW217655   4.965   6.261   3.824
 5586SOL     OW17656   6.938   2.543   6.905
 5586SOL    HW117657   0.008   2.591   6.899
 5586SOL    HW217658   6.865   2.609   6.922
 5587SOL     OW17659   4.053   5.888   2.423
 5587SOL    HW117660   4.144   5.887   2.382
 5587SOL    HW217661   4.002   5.807   2.393
 5588SOL     OW17662   2.136   6.127   2.828
 5588SOL    HW117663   2.226   6.167   2.813
 5588SOL    HW217664   2.068   6.176   2.773
 5589SOL     OW17665   5.939   3.891   5.627
 5589SOL    HW117666   5.891   3.871   5.542
 5589SOL    HW217667   6.034   3.916   5.607
 5590SOL     OW17668   6.000   5.819   4.175
 5590SOL    HW117669   5.957   5.818   4.084
 5590SOL    HW217670   6.004   5.725   4.210
 5591SOL     OW17671   5.447   1.788   0.734
 5591SOL    HW117672   5.426   1.868   0.678
 5591SOL    HW217673   5.363   1.740   0.758
 5592SOL     OW17674   7.009   4.973   2.995
 5592SOL    HW117675   6.936   4.981   3.064
 5592SOL    HW217676   7.000   4.886   2.947
 5593SOL     OW17677   0.107   3.056   6.927
 5593SOL    HW117678   0.201   3.028   6.950
 5593SOL    HW217679   0.110   3.135   6.866
 5594SOL     OW17680   3.339   1.205   6.618
 5594SOL    HW117681   3.305   1.248   6.535
 5594SOL    HW217682   3.422   1.154   6.598
 5595SOL     OW17683   6.255   0.380   4.929
 5595SOL    HW117684   6.289   0.454   4.870
 5595SOL    HW217685   6.256   0.411   5.024
 5596SOL     OW17686   4.839   0.767   3.473
 5596SOL    HW117687   4.910   0.791   3.406
 5596SOL    HW217688   4.759   0.824   3.458
 5597SOL     OW17689   5.965   2.578   5.176
 5597SOL    HW117690   6.011   2.574   5.265
 5597SOL    HW217691   5.978   2.669   5.136
 5598SOL     OW17692   6.116   3.379   3.705
 5598SOL    HW117693   6.159   3.441   3.770
 5598SOL    HW217694   6.133   3.284   3.733
 5599SOL     OW17695   0.990   2.905   1.775
 5599SOL    HW117696   0.945   2.994   1.782
 5599SOL    HW217697   0.958   2.846   1.849
 5600SOL     OW17698   1.976   0.325   2.571
 5600SOL    HW117699   1.958   0.352   2.665
 5600SOL    HW217700   1.987   0.407   2.514
 5601SOL     OW17701   2.455   1.127   5.969
 5601SOL    HW117702   2.361   1.122   6.001
 5601SOL    HW217703   2.464   1.073   5.885
 5602SOL     OW17704   0.263   0.749   1.679
 5602SOL    HW117705   0.224   0.837   1.653
 5602SOL    HW217706   0.210   0.676   1.636
 5603SOL     OW17707   5.328   2.305   0.311
 5603SOL    HW117708   5.375   2.273   0.393
 5603SOL    HW217709   5.393   2.309   0.235
 5604SOL     OW17710   6.486   2.336   4.812
 5604SOL    HW117711   6.498   2.313   4.908
 5604SOL    HW217712   6.460   2.432   4.803
 5605SOL     OW17713   0.627   0.756   4.773
 5605SOL    HW117714   0.635   0.796   4.681
 5605SOL    HW217715   0.628   0.829   4.841
 5606SOL     OW17716   5.138   6.924   0.966
 5606SOL    HW117717   5.217   6.864   0.956
 5606SOL    HW217718   5.154   6.988   1.041
 5607SOL     OW17719   5.899   1.381   3.743
 5607SOL    HW117720   5.912   1.353   3.648
 5607SOL    HW217721   5.987   1.385   3.789
 5608SOL     OW17722   6.806   0.825   3.370
 5608SOL    HW117723   6.779   0.762   3.297
 5608SOL    HW217724   6.736   0.895   3.381
 5609SOL     OW17725   4.284   5.613   1.828
 5609SOL    HW117726   4.247   5.592   1.918
 5609SOL    HW217727   4.264   5.709   1.805
 5610SOL     OW17728   4.551   5.004   1.744
 5610SOL    HW117729   4.548   4.947   1.662
 5610SOL    HW217730   4.646   5.024   1.768
 5611SOL     OW17731   0.844   5.078   3.269
 5611SOL    HW117732   0.903   5.026   3.206
 5611SOL    HW217733   0.748   5.055   3.251
 5612SOL     OW17734   4.551   2.855   6.547
 5612SOL    HW117735   4.575   2.783   6.612
 5612SOL    HW217736   4.454   2.848   6.523
 5613SOL     OW17737   5.562   5.698   5.225
 5613SOL    HW117738   5.616   5.656   5.297
 5613SOL    HW217739   5.586   5.656   5.137
 5614SOL     OW17740   5.074   2.470   4.567
 5614SOL    HW117741   4.976   2.490   4.577
 5614SOL    HW217742   5.127   2.548   4.601
 5615SOL     OW17743   6.331   1.856   3.805
 5615SOL    HW117744   6.234   1.830   3.816
 5615SOL    HW217745   6.342   1.907   3.720
 5616SOL     OW17746   2.154   2.509   5.513
 5616SOL    HW117747   2.126   2.527   5.607
 5616SOL    HW217748   2.107   2.572   5.451
 5617SOL     OW17749   2.317   5.946   5.584
 5617SOL    HW117750   2.324   5.861   5.636
 5617SOL    HW217751   2.230   5.948   5.535
 5618SOL     OW17752   6.716   4.853   4.216
 5618SOL    HW117753   6.629   4.854   4.266
 5618SOL    HW217754   6.714   4.780   4.148
 5619SOL     OW17755   4.047   3.892   4.673
 5619SOL    HW117756   4.088   3.820   4.729
 5619SOL    HW217757   4.053   3.867   4.577
 5620SOL     OW17758   3.765   3.644   0.202
 5620SOL    HW117759   3.824   3.703   0.148
 5620SOL    HW217760   3.815   3.561   0.227
 5621SOL     OW17761   2.081   2.689   0.080
 5621SOL    HW117762   2.012   2.617   0.078
 5621SOL    HW217763   2.171   2.650   0.058
 5622SOL     OW17764   3.903   0.140   6.052
 5622SOL    HW117765   3.841   0.159   6.128
 5622SOL    HW217766   3.899   0.215   5.986
 5623SOL     OW17767   4.750   6.388   5.220
 5623SOL    HW117768   4.659   6.428   5.223
 5623SOL    HW217769   4.763   6.326   5.298
 5624SOL     OW17770   0.584   4.164   3.871
 5624SOL    HW117771   0.537   4.237   3.821
 5624SOL    HW217772   0.528   4.080   3.868
 5625SOL     OW17773   6.802   6.763   5.367
 5625SOL    HW117774   6.816   6.752   5.269
 5625SOL    HW217775   6.865   6.833   5.402
 5626SOL     OW17776   2.658   6.461   4.124
 5626SOL    HW117777   2.697   6.372   4.146
 5626SOL    HW217778   2.565   6.468   4.161
 5627SOL     OW17779   0.833   5.347   6.768
 5627SOL    HW117780   0.738   5.338   6.796
 5627SOL    HW217781   0.837   5.390   6.678
 5628SOL     OW17782   2.405   2.652   1.884
 5628SOL    HW117783   2.310   2.679   1.872
 5628SOL    HW217784   2.464   2.731   1.869
 5629SOL     OW17785   4.319   3.067   1.709
 5629SOL    HW117786   4.396   3.040   1.768
 5629SOL    HW217787   4.354   3.119   1.631
 5630SOL     OW17788   1.930   3.651   6.459
 5630SOL    HW117789   1.906   3.585   6.387
 5630SOL    HW217790   1.846   3.684   6.503
 5631SOL     OW17791   4.742   1.495   1.894
 5631SOL    HW117792   4.810   1.445   1.840
 5631SOL    HW217793   4.775   1.502   1.989
 5632SOL     OW17794   3.038   2.636   5.484
 5632SOL    HW117795   3.078   2.691   5.410
 5632SOL    HW217796   2.996   2.554   5.445
 5633SOL     OW17797   5.872   5.231   4.345
 5633SOL    HW117798   5.972   5.221   4.353
 5633SOL    HW217799   5.845   5.217   4.250
 5634SOL     OW17800   1.849   4.723   3.984
 5634SOL    HW117801   1.860   4.818   3.955
 5634SOL    HW217802   1.816   4.720   4.078
 5635SOL     OW17803   2.112   5.646   0.089
 5635SOL    HW117804   2.105   5.607   0.180
 5635SOL    HW217805   2.063   5.589   0.024
 5636SOL     OW17806   5.068   6.882   4.938
 5636SOL    HW117807   4.981   6.880   4.890
 5636SOL    HW217808   5.124   6.804   4.910
 5637SOL     OW17809   4.573   6.852   3.312
 5637SOL    HW117810   4.477   6.834   3.334
 5637SOL    HW217811   4.611   6.773   3.264
 5638SOL     OW17812   0.041   3.487   0.870
 5638SOL    HW117813   0.024   3.453   0.778
 5638SOL    HW217814   0.139   3.506   0.881
 5639SOL     OW17815   2.066   0.241   2.284
 5639SOL    HW117816   2.045   0.247   2.382
 5639SOL    HW217817   2.165   0.242   2.272
 5640SOL     OW17818   3.129   0.678   2.914
 5640SOL    HW117819   3.128   0.778   2.906
 5640SOL    HW217820   3.198   0.640   2.852
 5641SOL     OW17821   0.625   4.709   5.412
 5641SOL    HW117822   0.649   4.733   5.317
 5641SOL    HW217823   0.538   4.753   5.436
 5642SOL     OW17824   0.723   5.731   5.216
 5642SOL    HW117825   0.719   5.784   5.131
 5642SOL    HW217826   0.630   5.710   5.246
 5643SOL     OW17827   3.965   1.090   3.556
 5643SOL    HW117828   4.021   1.079   3.638
 5643SOL    HW217829   3.974   1.010   3.497
 5644SOL     OW17830   3.365   6.752   5.434
 5644SOL    HW117831   3.266   6.736   5.424
 5644SOL    HW217832   3.387   6.844   5.402
 5645SOL     OW17833   5.785   4.757   2.675
 5645SOL    HW117834   5.802   4.664   2.642
 5645SOL    HW217835   5.840   4.775   2.756
 5646SOL     OW17836   0.628   6.056   4.029
 5646SOL    HW117837   0.634   5.984   4.097
 5646SOL    HW217838   0.689   6.035   3.952
 5647SOL     OW17839   4.556   6.647   0.672
 5647SOL    HW117840   4.568   6.595   0.756
 5647SOL    HW217841   4.472   6.701   0.677
 5648SOL     OW17842   1.444   0.230   3.595
 5648SOL    HW117843   1.437   0.205   3.691
 5648SOL    HW217844   1.404   0.158   3.538
 5649SOL     OW17845   0.247   0.911   4.668
 5649SOL    HW117846   0.293   0.823   4.663
 5649SOL    HW217847   0.290   0.976   4.605
 5650SOL     OW17848   0.685   5.329   0.645
 5650SOL    HW117849   0.755   5.311   0.714
 5650SOL    HW217850   0.596   5.297   0.679
 5651SOL     OW17851   1.501   1.519   1.630
 5651SOL    HW117852   1.582   1.571   1.601
 5651SOL    HW217853   1.529   1.447   1.694
 5652SOL     OW17854   6.299   6.965   2.407
 5652SOL    HW117855   6.340   0.007   2.338
 5652SOL    HW217856   6.248   6.892   2.362
 5653SOL     OW17857   6.638   6.428   6.686
 5653SOL    HW117858   6.607   6.332   6.689
 5653SOL    HW217859   6.613   6.473   6.771
 5654SOL     OW17860   6.322   6.948   5.411
 5654SOL    HW117861   6.235   6.929   5.457
 5654SOL    HW217862   6.386   6.874   5.430
 5655SOL     OW17863   1.476   3.874   4.877
 5655SOL    HW117864   1.489   3.865   4.778
 5655SOL    HW217865   1.387   3.916   4.896
 5656SOL     OW17866   0.069   3.742   6.690
 5656SOL    HW117867   0.121   3.825   6.673
 5656SOL    HW217868   0.085   3.676   6.617
 5657SOL     OW17869   5.671   1.646   0.610
 5657SOL    HW117870   5.726   1.571   0.647
 5657SOL    HW217871   5.599   1.670   0.676
 5658SOL     OW17872   3.724   3.737   6.563
 5658SOL    HW117873   3.737   3.655   6.508
 5658SOL    HW217874   3.810   3.788   6.568
 5659SOL     OW17875   3.871   3.051   4.998
 5659SOL    HW117876   3.929   3.086   4.925
 5659SOL    HW217877   3.815   3.125   5.035
 5660SOL     OW17878   4.949   7.002   0.772
 5660SOL    HW117879   5.034   6.969   0.814
 5660SOL    HW217880   4.908   6.929   0.718
 5661SOL     OW17881   1.578   5.821   5.145
 5661SOL    HW117882   1.676   5.804   5.157
 5661SOL    HW217883   1.527   5.782   5.222
 5662SOL     OW17884   2.660   6.040   3.482
 5662SOL    HW117885   2.749   6.083   3.473
 5662SOL    HW217886   2.670   5.941   3.481
 5663SOL     OW17887   1.677   3.227   6.882
 5663SOL    HW117888   1.648   3.316   6.915
 5663SOL    HW217889   1.752   3.238   6.816
 5664SOL     OW17890   6.669   4.065   4.035
 5664SOL    HW117891   6.760   4.054   3.997
 5664SOL    HW217892   6.615   3.982   4.019
 5665SOL     OW17893   2.061   0.728   0.015
 5665SOL    HW117894   2.082   0.639   0.055
 5665SOL    HW217895   1.962   0.739   0.009
 5666SOL     OW17896   6.126   6.624   2.937
 5666SOL    HW117897   6.057   6.554   2.924
 5666SOL    HW217898   6.203   6.587   2.990
 5667SOL     OW17899   1.451   5.323   4.628
 5667SOL    HW117900   1.504   5.272   4.560
 5667SOL    HW217901   1.364   5.276   4.645
 5668SOL     OW17902   5.194   2.406   3.757
 5668SOL    HW117903   5.109   2.457   3.743
 5668SOL    HW217904   5.173   2.311   3.780
 5669SOL     OW17905   6.858   3.677   6.858
 5669SOL    HW117906   6.949   3.702   6.825
 5669SOL    HW217907   6.796   3.755   6.846
 5670SOL     OW17908   6.852   3.001   4.251
 5670SOL    HW117909   6.894   3.081   4.295
 5670SOL    HW217910   6.836   2.930   4.319
 5671SOL     OW17911   6.348   6.238   6.329
 5671SOL    HW117912   6.387   6.200   6.245
 5671SOL    HW217913   6.420   6.251   6.397
 5672SOL     OW17914   4.270   4.018   6.665
 5672SOL    HW117915   4.185   3.994   6.712
 5672SOL    HW217916   4.251   4.089   6.596
 5673SOL     OW17917   1.006   0.711   2.123
 5673SOL    HW117918   1.030   0.806   2.101
 5673SOL    HW217919   0.918   0.708   2.169
 5674SOL     OW17920   0.474   5.019   5.040
 5674SOL    HW117921   0.479   5.112   5.003
 5674SOL    HW217922   0.381   4.999   5.069
 5675SOL     OW17923   4.193   2.720   6.980
 5675SOL    HW117924   4.166   2.680   6.893
 5675SOL    HW217925   4.123   2.785   7.011
 5676SOL     OW17926   2.419   2.469   2.073
 5676SOL    HW117927   2.507   2.421   2.069
 5676SOL    HW217928   2.418   2.543   2.006
 5677SOL     OW17929   0.979   1.619   0.298
 5677SOL    HW117930   0.934   1.529   0.290
 5677SOL    HW217931   1.056   1.612   0.361
 5678SOL     OW17932   4.167   6.563   2.604
 5678SOL    HW117933   4.138   6.658   2.616
 5678SOL    HW217934   4.262   6.561   2.574
 5679SOL     OW17935   0.332   1.232   3.876
 5679SOL    HW117936   0.339   1.324   3.913
 5679SOL    HW217937   0.236   1.202   3.880
 5680SOL     OW17938   1.989   5.171   6.042
 5680SOL    HW117939   1.933   5.089   6.036
 5680SOL    HW217940   2.086   5.146   6.038
 5681SOL     OW17941   0.168   4.192   0.909
 5681SOL    HW117942   0.256   4.241   0.903
 5681SOL    HW217943   0.176   4.103   0.864
 5682SOL     OW17944   2.512   4.515   5.093
 5682SOL    HW117945   2.604   4.535   5.060
 5682SOL    HW217946   2.502   4.548   5.187
 5683SOL     OW17947   4.480   1.039   6.411
 5683SOL    HW117948   4.435   1.128   6.422
 5683SOL    HW217949   4.425   0.981   6.353
 5684SOL     OW17950   2.727   3.673   5.401
 5684SOL    HW117951   2.811   3.724   5.380
 5684SOL    HW217952   2.648   3.728   5.376
 5685SOL     OW17953   2.003   2.486   2.292
 5685SOL    HW117954   2.024   2.580   2.317
 5685SOL    HW217955   2.088   2.434   2.283
 5686SOL     OW17956   2.770   1.207   6.489
 5686SOL    HW117957   2.847   1.270   6.503
 5686SOL    HW217958   2.806   1.116   6.470
 5687SOL     OW17959   0.790   5.247   0.177
 5687SOL    HW117960   0.825   5.340   0.184
 5687SOL    HW217961   0.786   5.220   0.081
 5688SOL     OW17962   0.227   2.521   1.548
 5688SOL    HW117963   0.156   2.487   1.610
 5688SOL    HW217964   0.258   2.447   1.488
 5689SOL     OW17965   3.776   1.166   0.541
 5689SOL    HW117966   3.697   1.106   0.528
 5689SOL    HW217967   3.860   1.112   0.536
 5690SOL     OW17968   2.527   5.657   0.341
 5690SOL    HW117969   2.573   5.569   0.349
 5690SOL    HW217970   2.552   5.701   0.254
 5691SOL     OW17971   3.469   0.681   1.991
 5691SOL    HW117972   3.444   0.736   1.911
 5691SOL    HW217973   3.488   0.587   1.962
 5692SOL     OW17974   5.429   3.371   0.934
 5692SOL    HW117975   5.341   3.351   0.890
 5692SOL    HW217976   5.503   3.334   0.877
 5693SOL     OW17977   5.295   2.446   2.615
 5693SOL    HW117978   5.200   2.473   2.632
 5693SOL    HW217979   5.342   2.431   2.702
 5694SOL     OW17980   0.836   1.715   3.534
 5694SOL    HW117981   0.824   1.787   3.466
 5694SOL    HW217982   0.855   1.628   3.488
 5695SOL     OW17983   1.592   2.440   3.041
 5695SOL    HW117984   1.516   2.388   3.000
 5695SOL    HW217985   1.666   2.377   3.064
 5696SOL     OW17986   1.105   1.009   3.214
 5696SOL    HW117987   1.047   1.013   3.133
 5696SOL    HW217988   1.047   0.999   3.295
 5697SOL     OW17989   5.473   2.015   0.986
 5697SOL    HW117990   5.557   2.017   1.040
 5697SOL    HW217991   5.459   2.104   0.943
 5698SOL     OW17992   1.082   4.255   3.768
 5698SOL    HW117993   1.154   4.300   3.821
 5698SOL    HW217994   1.005   4.232   3.828
 5699SOL     OW17995   0.502   2.926   3.091
 5699SOL    HW117996   0.434   2.854   3.100
 5699SOL    HW217997   0.499   2.963   2.998
 5700SOL     OW17998   6.898   6.970   3.063
 5700SOL    HW117999   6.836   6.902   3.104
 5700SOL    HW218000   6.939   0.007   3.136
 5701SOL     OW18001   1.501   0.805   1.945
 5701SOL    HW118002   1.498   0.852   2.033
 5701SOL    HW218003   1.457   0.716   1.953
 5702SOL     OW18004   2.753   5.895   4.708
 5702SOL    HW118005   2.683   5.844   4.658
 5702SOL    HW218006   2.727   5.992   4.711
 5703SOL     OW18007   6.354   4.465   1.930
 5703SOL    HW118008   6.345   4.431   2.023
 5703SOL    HW218009   6.433   4.526   1.925
 5704SOL     OW18010   4.822   4.663   3.054
 5704SOL    HW118011   4.876   4.637   2.974
 5704SOL    HW218012   4.879   4.660   3.136
 5705SOL     OW18013   4.860   0.106   0.083
 5705SOL    HW118014   4.783   0.078   0.140
 5705SOL    HW218015   4.915   0.026   0.060
 5706SOL     OW18016   7.015   3.757   1.287
 5706SOL    HW118017   6.995   3.736   1.191
 5706SOL    HW218018   6.958   3.834   1.316
 5707SOL     OW18019   0.170   6.530   0.325
 5707SOL    HW118020   0.182   6.604   0.259
 5707SOL    HW218021   0.258   6.506   0.365
 5708SOL     OW18022   5.053   5.573   2.151
 5708SOL    HW118023   5.021   5.657   2.194
 5708SOL    HW218024   5.153   5.570   2.153
 5709SOL     OW18025   1.010   0.831   2.511
 5709SOL    HW118026   0.922   0.805   2.471
 5709SOL    HW218027   1.000   0.844   2.609
 5710SOL     OW18028   2.420   2.659   0.613
 5710SOL    HW118029   2.336   2.625   0.658
 5710SOL    HW218030   2.397   2.738   0.557
 5711SOL     OW18031   5.550   0.766   2.667
 5711SOL    HW118032   5.500   0.847   2.638
 5711SOL    HW218033   5.638   0.763   2.619
 5712SOL     OW18034   6.432   0.547   6.343
 5712SOL    HW118035   6.499   0.481   6.310
 5712SOL    HW218036   6.367   0.501   6.404
 5713SOL     OW18037   3.448   3.110   1.878
 5713SOL    HW118038   3.409   3.023   1.907
 5713SOL    HW218039   3.521   3.094   1.811
 5714SOL     OW18040   0.520   5.715   0.211
 5714SOL    HW118041   0.531   5.783   0.284
 5714SOL    HW218042   0.422   5.694   0.201
 5715SOL     OW18043   0.821   0.582   2.781
 5715SOL    HW118044   0.837   0.510   2.849
 5715SOL    HW218045   0.794   0.540   2.694
 5716SOL     OW18046   1.732   4.090   6.394
 5716SOL    HW118047   1.676   4.018   6.353
 5716SOL    HW218048   1.673   4.154   6.443
 5717SOL     OW18049   1.604   4.994   1.486
 5717SOL    HW118050   1.608   5.032   1.393
 5717SOL    HW218051   1.608   4.895   1.482
 5718SOL     OW18052   6.944   3.098   5.119
 5718SOL    HW118053   6.948   3.148   5.205
 5718SOL    HW218054   6.885   3.018   5.129
 5719SOL     OW18055   2.562   2.083   6.482
 5719SOL    HW118056   2.658   2.107   6.468
 5719SOL    HW218057   2.505   2.136   6.419
 5720SOL     OW18058   1.643   5.842   4.864
 5720SOL    HW118059   1.624   5.753   4.824
 5720SOL    HW218060   1.642   5.834   4.964
 5721SOL     OW18061   6.828   3.426   1.193
 5721SOL    HW118062   6.892   3.438   1.269
 5721SOL    HW218063   6.768   3.506   1.186
 5722SOL     OW18064   6.754   1.392   4.740
 5722SOL    HW118065   6.720   1.484   4.718
 5722SOL    HW218066   6.801   1.354   4.660
 5723SOL     OW18067   4.580   2.842   0.762
 5723SOL    HW118068   4.529   2.925   0.786
 5723SOL    HW218069   4.597   2.787   0.844
 5724SOL     OW18070   5.686   2.665   4.828
 5724SOL    HW118071   5.720   2.571   4.835
 5724SOL    HW218072   5.707   2.702   4.738
 5725SOL     OW18073   5.152   5.860   4.493
 5725SOL    HW118074   5.250   5.879   4.479
 5725SOL    HW218075   5.140   5.816   4.582
 5726SOL     OW18076   0.060   5.092   4.629
 5726SOL    HW118077   0.035   5.071   4.724
 5726SOL    HW218078   0.116   5.017   4.592
 5727SOL     OW18079   6.978   1.563   3.964
 5727SOL    HW118080   0.036   1.620   3.995
 5727SOL    HW218081   6.893   1.600   4.000
 5728SOL     OW18082   3.662   0.127   6.230
 5728SOL    HW118083   3.667   0.088   6.321
 5728SOL    HW218084   3.602   0.071   6.172
 5729SOL     OW18085   1.353   1.088   0.596
 5729SOL    HW118086   1.386   1.084   0.690
 5729SOL    HW218087   1.363   1.182   0.562
 5730SOL     OW18088   5.282   4.679   6.530
 5730SOL    HW118089   5.247   4.757   6.478
 5730SOL    HW218090   5.221   4.601   6.518
 5731SOL     OW18091   0.276   6.678   3.917
 5731SOL    HW118092   0.285   6.748   3.988
 5731SOL    HW218093   0.227   6.716   3.839
 5732SOL     OW18094   6.788   5.643   4.728
 5732SOL    HW118095   6.836   5.683   4.806
 5732SOL    HW218096   6.853   5.624   4.655
 5733SOL     OW18097   4.302   6.680   5.276
 5733SOL    HW118098   4.288   6.582   5.264
 5733SOL    HW218099   4.318   6.700   5.372
 5734SOL     OW18100   1.154   6.668   5.767
 5734SOL    HW118101   1.089   6.710   5.704
 5734SOL    HW218102   1.131   6.571   5.780
 5735SOL     OW18103   4.448   2.218   2.002
 5735SOL    HW118104   4.387   2.283   1.956
 5735SOL    HW218105   4.402   2.130   2.010
 5736SOL     OW18106   6.160   4.243   0.047
 5736SOL    HW118107   6.174   4.158   0.098
 5736SOL    HW218108   6.063   4.262   0.039
 5737SOL     OW18109   5.760   6.665   1.270
 5737SOL    HW118110   5.842   6.620   1.234
 5737SOL    HW218111   5.783   6.717   1.352
 5738SOL     OW18112   2.318   3.165   6.140
 5738SOL    HW118113   2.318   3.097   6.067
 5738SOL    HW218114   2.363   3.248   6.108
 5739SOL     OW18115   1.637   0.627   6.070
 5739SOL    HW118116   1.673   0.693   6.136
 5739SOL    HW218117   1.589   0.554   6.118
 5740SOL     OW18118   4.311   3.826   1.466
 5740SOL    HW118119   4.328   3.742   1.518
 5740SOL    HW218120   4.221   3.821   1.423
 5741SOL     OW18121   0.596   4.371   4.270
 5741SOL    HW118122   0.670   4.434   4.248
 5741SOL    HW218123   0.544   4.405   4.348
 5742SOL     OW18124   5.423   6.995   2.028
 5742SOL    HW118125   5.326   6.995   2.007
 5742SOL    HW218126   5.467   6.917   1.983
 5743SOL     OW18127   2.290   5.044   5.143
 5743SOL    HW118128   2.362   5.106   5.172
 5743SOL    HW218129   2.302   5.020   5.047
 5744SOL     OW18130   4.782   0.686   2.049
 5744SOL    HW118131   4.754   0.775   2.084
 5744SOL    HW218132   4.876   0.692   2.014
 5745SOL     OW18133   2.033   1.091   3.750
 5745SOL    HW118134   1.963   1.029   3.716
 5745SOL    HW218135   2.121   1.044   3.755
 5746SOL     OW18136   6.196   6.800   1.557
 5746SOL    HW118137   6.142   6.880   1.532
 5746SOL    HW218138   6.159   6.759   1.641
 5747SOL     OW18139   0.007   4.395   2.840
 5747SOL    HW118140   0.003   4.476   2.899
 5747SOL    HW218141   6.995   4.315   2.892
 5748SOL     OW18142   1.529   5.843   1.132
 5748SOL    HW118143   1.487   5.875   1.046
 5748SOL    HW218144   1.581   5.760   1.114
 5749SOL     OW18145   1.723   0.238   4.601
 5749SOL    HW118146   1.689   0.254   4.693
 5749SOL    HW218147   1.789   0.162   4.601
 5750SOL     OW18148   5.126   6.596   4.594
 5750SOL    HW118149   5.086   6.685   4.572
 5750SOL    HW218150   5.072   6.523   4.551
 5751SOL     OW18151   2.596   2.496   4.602
 5751SOL    HW118152   2.570   2.537   4.514
 5751SOL    HW218153   2.515   2.461   4.648
 5752SOL     OW18154   6.165   0.624   6.989
 5752SOL    HW118155   6.068   0.620   7.014
 5752SOL    HW218156   6.174   0.613   6.890
 5753SOL     OW18157   3.788   3.905   5.659
 5753SOL    HW118158   3.854   3.861   5.598
 5753SOL    HW218159   3.821   3.898   5.754
 5754SOL     OW18160   6.541   4.315   1.217
 5754SOL    HW118161   6.496   4.378   1.154
 5754SOL    HW218162   6.507   4.331   1.310
 5755SOL     OW18163   2.165   3.262   6.352
 5755SOL    HW118164   2.143   3.359   6.342
 5755SOL    HW218165   2.248   3.241   6.300
 5756SOL     OW18166   6.067   6.296   3.679
 5756SOL    HW118167   6.166   6.299   3.668
 5756SOL    HW218168   6.029   6.387   3.665
 5757SOL     OW18169   6.566   6.548   2.608
 5757SOL    HW118170   6.512   6.508   2.682
 5757SOL    HW218171   6.556   6.492   2.526
 5758SOL     OW18172   2.386   0.713   4.657
 5758SOL    HW118173   2.380   0.616   4.680
 5758SOL    HW218174   2.301   0.742   4.612
 5759SOL     OW18175   5.150   1.169   6.589
 5759SOL    HW118176   5.114   1.121   6.509
 5759SOL    HW218177   5.221   1.232   6.560
 5760SOL     OW18178   0.557   4.852   0.929
 5760SOL    HW118179   0.631   4.907   0.967
 5760SOL    HW218180   0.560   4.856   0.829
 5761SOL     OW18181   5.803   0.096   6.403
 5761SOL    HW118182   5.751   0.012   6.419
 5761SOL    HW218183   5.840   0.095   6.310
 5762SOL     OW18184   4.574   5.957   0.287
 5762SOL    HW118185   4.618   5.922   0.370
 5762SOL    HW218186   4.543   5.881   0.231
 5763SOL     OW18187   6.797   0.987   6.624
 5763SOL    HW118188   6.830   1.079   6.607
 5763SOL    HW218189   6.741   0.986   6.707
 5764SOL     OW18190   4.493   4.551   6.001
 5764SOL    HW118191   4.568   4.562   6.066
 5764SOL    HW218192   4.513   4.603   5.918
 5765SOL     OW18193   6.613   3.862   6.868
 5765SOL    HW118194   6.545   3.835   6.936
 5765SOL    HW218195   6.589   3.951   6.831
 5766SOL     OW18196   2.453   2.461   0.452
 5766SOL    HW118197   2.380   2.395   0.469
 5766SOL    HW218198   2.448   2.535   0.519
 5767SOL     OW18199   2.318   6.871   0.575
 5767SOL    HW118200   2.256   6.900   0.502
 5767SOL    HW218201   2.318   6.771   0.581
 5768SOL     OW18202   0.383   6.899   2.770
 5768SOL    HW118203   0.351   6.981   2.724
 5768SOL    HW218204   0.333   6.819   2.735
 5769SOL     OW18205   2.168   6.487   4.239
 5769SOL    HW118206   2.104   6.419   4.277
 5769SOL    HW218207   2.125   6.577   4.241
 5770SOL     OW18208   6.080   0.358   6.786
 5770SOL    HW118209   6.097   0.457   6.783
 5770SOL    HW218210   6.011   0.339   6.857
 5771SOL     OW18211   1.381   6.298   3.021
 5771SOL    HW118212   1.333   6.384   3.002
 5771SOL    HW218213   1.453   6.285   2.954
 5772SOL     OW18214   6.278   2.539   0.437
 5772SOL    HW118215   6.346   2.476   0.475
 5772SOL    HW218216   6.252   2.606   0.507
 5773SOL     OW18217   4.927   1.239   4.162
 5773SOL    HW118218   4.974   1.189   4.235
 5773SOL    HW218219   4.968   1.216   4.074
 5774SOL     OW18220   2.766   5.371   3.675
 5774SOL    HW118221   2.734   5.354   3.767
 5774SOL    HW218222   2.789   5.468   3.665
 5775SOL     OW18223   1.449   0.549   2.002
 5775SOL    HW118224   1.390   0.557   2.082
 5775SOL    HW218225   1.444   0.456   1.965
 5776SOL     OW18226   6.689   1.417   6.141
 5776SOL    HW118227   6.766   1.371   6.185
 5776SOL    HW218228   6.632   1.460   6.210
 5777SOL     OW18229   6.594   0.443   4.649
 5777SOL    HW118230   6.517   0.411   4.705
 5777SOL    HW218231   6.562   0.463   4.557
 5778SOL     OW18232   1.873   0.295   1.627
 5778SOL    HW118233   1.881   0.356   1.548
 5778SOL    HW218234   1.816   0.217   1.602
 5779SOL     OW18235   4.040   1.185   0.627
 5779SOL    HW118236   4.046   1.234   0.714
 5779SOL    HW218237   3.993   1.098   0.641
 5780SOL     OW18238   5.840   5.613   3.005
 5780SOL    HW118239   5.877   5.532   2.960
 5780SOL    HW218240   5.880   5.695   2.965
 5781SOL     OW18241   1.114   3.884   4.623
 5781SOL    HW118242   1.095   3.787   4.607
 5781SOL    HW218243   1.162   3.894   4.710
 5782SOL     OW18244   1.605   1.047   1.070
 5782SOL    HW118245   1.651   1.067   1.157
 5782SOL    HW218246   1.511   1.016   1.088
 5783SOL     OW18247   2.013   1.256   1.063
 5783SOL    HW118248   1.937   1.235   1.000
 5783SOL    HW218249   2.097   1.214   1.030
 5784SOL     OW18250   0.201   6.899   6.993
 5784SOL    HW118251   0.143   6.855   6.923
 5784SOL    HW218252   0.242   6.981   6.955
 5785SOL     OW18253   1.870   1.639   1.933
 5785SOL    HW118254   1.963   1.607   1.946
 5785SOL    HW218255   1.854   1.658   1.836
 5786SOL     OW18256   0.752   4.177   0.601
 5786SOL    HW118257   0.829   4.218   0.554
 5786SOL    HW218258   0.775   4.084   0.628
 5787SOL     OW18259   4.509   2.389   4.657
 5787SOL    HW118260   4.563   2.404   4.740
 5787SOL    HW218261   4.520   2.295   4.627
 5788SOL     OW18262   3.352   0.778   1.451
 5788SOL    HW118263   3.278   0.844   1.437
 5788SOL    HW218264   3.362   0.721   1.369
 5789SOL     OW18265   3.317   3.222   6.018
 5789SOL    HW118266   3.268   3.196   5.935
 5789SOL    HW218267   3.397   3.162   6.030
 5790SOL     OW18268   0.545   4.909   4.759
 5790SOL    HW118269   0.497   4.826   4.730
 5790SOL    HW218270   0.541   4.916   4.859
 5791SOL     OW18271   2.782   2.258   2.325
 5791SOL    HW118272   2.834   2.301   2.251
 5791SOL    HW218273   2.694   2.227   2.291
 5792SOL     OW18274   5.674   3.750   2.311
 5792SOL    HW118275   5.600   3.699   2.356
 5792SOL    HW218276   5.657   3.755   2.213
 5793SOL     OW18277   5.800   0.585   4.669
 5793SOL    HW118278   5.723   0.558   4.728
 5793SOL    HW218279   5.823   0.509   4.609
 5794SOL     OW18280   3.032   6.957   6.850
 5794SOL    HW118281   3.126   6.945   6.820
 5794SOL    HW218282   3.015   0.036   6.869
 5795SOL     OW18283   6.857   0.024   1.141
 5795SOL    HW118284   6.920   6.964   1.140
 5795SOL    HW218285   6.834   0.050   1.048
 5796SOL     OW18286   3.984   0.745   6.468
 5796SOL    HW118287   4.013   0.666   6.414
 5796SOL    HW218288   4.064   0.797   6.497
 5797SOL     OW18289   5.186   1.245   0.411
 5797SOL    HW118290   5.182   1.230   0.312
 5797SOL    HW218291   5.094   1.264   0.446
 5798SOL     OW18292   6.898   4.371   4.758
 5798SOL    HW118293   6.997   4.354   4.757
 5798SOL    HW218294   6.881   4.468   4.739
 5799SOL     OW18295   0.134   0.519   4.058
 5799SOL    HW118296   0.169   0.518   3.964
 5799SOL    HW218297   0.072   0.596   4.070
 5800SOL     OW18298   0.914   6.779   1.796
 5800SOL    HW118299   0.941   6.689   1.829
 5800SOL    HW218300   0.926   6.847   1.869
 5801SOL     OW18301   2.155   2.377   3.449
 5801SOL    HW118302   2.243   2.411   3.483
 5801SOL    HW218303   2.112   2.447   3.392
 5802SOL     OW18304   6.276   3.141   2.421
 5802SOL    HW118305   6.333   3.220   2.442
 5802SOL    HW218306   6.223   3.116   2.503
 5803SOL     OW18307   1.350   4.943   3.623
 5803SOL    HW118308   1.396   5.003   3.558
 5803SOL    HW218309   1.408   4.929   3.703
 5804SOL     OW18310   6.969   5.948   3.058
 5804SOL    HW118311   6.920   5.902   2.983
 5804SOL    HW218312   0.037   5.985   3.023
 5805SOL     OW18313   1.628   2.476   0.439
 5805SOL    HW118314   1.602   2.492   0.535
 5805SOL    HW218315   1.648   2.379   0.426
 5806SOL     OW18316   0.239   4.985   5.150
 5806SOL    HW118317   0.155   4.932   5.163
 5806SOL    HW218318   0.216   5.081   5.138
 5807SOL     OW18319   1.124   5.626   1.180
 5807SOL    HW118320   1.061   5.580   1.118
 5807SOL    HW218321   1.077   5.704   1.223
 5808SOL     OW18322   6.727   6.637   4.612
 5808SOL    HW118323   6.826   6.643   4.612
 5808SOL    HW218324   6.688   6.725   4.640
 5809SOL     OW18325   6.404   2.048   5.431
 5809SOL    HW118326   6.336   1.975   5.432
 5809SOL    HW218327   6.469   2.033   5.505
 5810SOL     OW18328   4.675   1.263   5.775
 5810SOL    HW118329   4.625   1.236   5.857
 5810SOL    HW218330   4.626   1.229   5.694
 5811SOL     OW18331   3.334   1.567   5.163
 5811SOL    HW118332   3.249   1.609   5.133
 5811SOL    HW218333   3.378   1.522   5.085
 5812SOL     OW18334   4.928   3.211   6.060
 5812SOL    HW118335   5.012   3.216   6.006
 5812SOL    HW218336   4.849   3.202   5.999
 5813SOL     OW18337   2.718   0.458   0.743
 5813SOL    HW118338   2.708   0.553   0.714
 5813SOL    HW218339   2.648   0.402   0.699
 5814SOL     OW18340   0.123   3.067   2.149
 5814SOL    HW118341   0.177   3.124   2.211
 5814SOL    HW218342   0.027   3.069   2.176
 5815SOL     OW18343   4.664   1.724   4.323
 5815SOL    HW118344   4.659   1.824   4.317
 5815SOL    HW218345   4.760   1.696   4.324
 5816SOL     OW18346   6.158   4.784   0.706
 5816SOL    HW118347   6.064   4.813   0.728
 5816SOL    HW218348   6.222   4.830   0.768
 5817SOL     OW18349   6.133   5.131   5.696
 5817SOL    HW118350   6.069   5.110   5.770
 5817SOL    HW218351   6.218   5.080   5.710
 5818SOL     OW18352   0.015   5.564   5.110
 5818SOL    HW118353   0.070   5.517   5.179
 5818SOL    HW218354   7.001   5.497   5.042
 5819SOL     OW18355   3.482   5.609   6.887
 5819SOL    HW118356   3.542   5.532   6.866
 5819SOL    HW218357   3.435   5.640   6.804
 5820SOL     OW18358   4.405   4.605   2.551
 5820SOL    HW118359   4.354   4.602   2.465
 5820SOL    HW218360   4.479   4.537   2.548
 5821SOL     OW18361   6.647   0.389   1.052
 5821SOL    HW118362   6.680   0.346   0.969
 5821SOL    HW218363   6.724   0.427   1.104
 5822SOL     OW18364   1.962   2.417   1.551
 5822SOL    HW118365   1.875   2.373   1.575
 5822SOL    HW218366   2.002   2.370   1.472
 5823SOL     OW18367   2.652   6.654   4.697
 5823SOL    HW118368   2.604   6.698   4.773
 5823SOL    HW218369   2.609   6.566   4.677
 5824SOL     OW18370   0.174   5.983   3.837
 5824SOL    HW118371   0.135   5.992   3.745
 5824SOL    HW218372   0.244   5.912   3.837
 5825SOL     OW18373   0.161   5.841   5.108
 5825SOL    HW118374   0.183   5.827   5.204
 5825SOL    HW218375   0.068   5.809   5.090
 5826SOL     OW18376   0.687   6.139   6.132
 5826SOL    HW118377   0.718   6.225   6.093
 5826SOL    HW218378   0.727   6.062   6.082
 5827SOL     OW18379   1.236   3.210   4.734
 5827SOL    HW118380   1.256   3.213   4.635
 5827SOL    HW218381   1.307   3.158   4.780
 5828SOL     OW18382   4.975   0.996   3.231
 5828SOL    HW118383   4.992   1.019   3.136
 5828SOL    HW218384   4.890   1.039   3.261
 5829SOL     OW18385   1.325   0.691   5.000
 5829SOL    HW118386   1.283   0.666   5.088
 5829SOL    HW218387   1.269   0.761   4.956
 5830SOL     OW18388   4.506   0.267   5.382
 5830SOL    HW118389   4.604   0.271   5.404
 5830SOL    HW218390   4.484   0.177   5.345
 5831SOL     OW18391   1.587   1.442   5.972
 5831SOL    HW118392   1.522   1.386   6.023
 5831SOL    HW218393   1.574   1.428   5.874
 5832SOL     OW18394   3.693   4.448   0.097
 5832SOL    HW118395   3.762   4.517   0.074
 5832SOL    HW218396   3.606   4.492   0.117
 5833SOL     OW18397   4.177   3.564   5.279
 5833SOL    HW118398   4.262   3.608   5.307
 5833SOL    HW218399   4.172   3.473   5.319
 5834SOL     OW18400   6.441   4.109   6.443
 5834SOL    HW118401   6.485   4.048   6.377
 5834SOL    HW218402   6.440   4.202   6.406
 5835SOL     OW18403   5.822   1.916   2.860
 5835SOL    HW118404   5.920   1.918   2.839
 5835SOL    HW218405   5.782   1.830   2.829
 5836SOL     OW18406   2.860   0.110   2.175
 5836SOL    HW118407   2.882   0.097   2.079
 5836SOL    HW218408   2.804   0.191   2.187
 5837SOL     OW18409   3.517   3.360   6.834
 5837SOL    HW118410   3.481   3.450   6.808
 5837SOL    HW218411   3.586   3.372   6.905
 5838SOL     OW18412   3.063   1.958   1.653
 5838SOL    HW118413   3.104   1.950   1.562
 5838SOL    HW218414   3.103   2.036   1.701
 5839SOL     OW18415   0.723   2.009   0.578
 5839SOL    HW118416   0.726   1.956   0.662
 5839SOL    HW218417   0.680   2.098   0.596
 5840SOL     OW18418   0.818   3.921   0.634
 5840SOL    HW118419   0.879   3.845   0.611
 5840SOL    HW218420   0.726   3.886   0.652
 5841SOL     OW18421   5.455   0.733   1.813
 5841SOL    HW118422   5.505   0.646   1.814
 5841SOL    HW218423   5.465   0.777   1.724
 5842SOL     OW18424   4.972   2.554   1.851
 5842SOL    HW118425   5.051   2.545   1.791
 5842SOL    HW218426   4.999   2.601   1.935
 5843SOL     OW18427   1.114   4.432   1.577
 5843SOL    HW118428   1.017   4.437   1.600
 5843SOL    HW218429   1.133   4.343   1.535
 5844SOL     OW18430   1.379   5.956   5.554
 5844SOL    HW118431   1.460   5.932   5.608
 5844SOL    HW218432   1.399   6.037   5.498
 5845SOL     OW18433   0.895   0.450   1.851
 5845SOL    HW118434   0.861   0.421   1.940
 5845SOL    HW218435   0.865   0.385   1.781
 5846SOL     OW18436   5.484   3.307   5.300
 5846SOL    HW118437   5.484   3.278   5.204
 5846SOL    HW218438   5.497   3.227   5.358
 5847SOL     OW18439   2.994   2.520   1.700
 5847SOL    HW118440   2.994   2.453   1.626
 5847SOL    HW218441   2.995   2.473   1.788
 5848SOL     OW18442   1.678   5.703   3.462
 5848SOL    HW118443   1.598   5.644   3.452
 5848SOL    HW218444   1.673   5.751   3.549
 5849SOL     OW18445   1.741   6.975   4.856
 5849SOL    HW118446   1.651   6.942   4.884
 5849SOL    HW218447   1.781   6.911   4.791
 5850SOL     OW18448   0.171   3.386   2.115
 5850SOL    HW118449   0.139   3.479   2.099
 5850SOL    HW218450   0.101   3.321   2.088
 5851SOL     OW18451   5.345   4.060   4.037
 5851SOL    HW118452   5.344   4.113   3.951
 5851SOL    HW218453   5.377   3.967   4.018
 5852SOL     OW18454   4.869   6.080   2.770
 5852SOL    HW118455   4.908   6.134   2.696
 5852SOL    HW218456   4.901   6.116   2.858
 5853SOL     OW18457   4.108   5.124   5.873
 5853SOL    HW118458   4.194   5.126   5.925
 5853SOL    HW218459   4.105   5.042   5.817
 5854SOL     OW18460   4.299   4.255   5.562
 5854SOL    HW118461   4.293   4.201   5.478
 5854SOL    HW218462   4.342   4.200   5.634
 5855SOL     OW18463   1.123   1.280   4.740
 5855SOL    HW118464   1.123   1.350   4.811
 5855SOL    HW218465   1.217   1.249   4.723
 5856SOL     OW18466   1.077   5.973   3.525
 5856SOL    HW118467   1.176   5.968   3.510
 5856SOL    HW218468   1.041   6.057   3.483
 5857SOL     OW18469   6.303   3.240   5.095
 5857SOL    HW118470   6.395   3.277   5.102
 5857SOL    HW218471   6.302   3.147   5.134
 5858SOL     OW18472   2.262   2.477   3.045
 5858SOL    HW118473   2.333   2.499   2.978
 5858SOL    HW218474   2.248   2.378   3.046
 5859SOL     OW18475   6.464   6.000   1.321
 5859SOL    HW118476   6.533   6.030   1.387
 5859SOL    HW218477   6.478   5.904   1.299
 5860SOL     OW18478   6.851   5.371   2.981
 5860SOL    HW118479   6.858   5.416   3.070
 5860SOL    HW218480   6.809   5.433   2.915
 5861SOL     OW18481   5.341   1.150   4.129
 5861SOL    HW118482   5.249   1.158   4.091
 5861SOL    HW218483   5.405   1.202   4.072
 5862SOL     OW18484   5.939   5.068   1.241
 5862SOL    HW118485   5.865   5.001   1.232
 5862SOL    HW218486   6.024   5.020   1.265
 5863SOL     OW18487   2.994   1.962   4.717
 5863SOL    HW118488   3.036   2.007   4.639
 5863SOL    HW218489   2.966   2.031   4.784
 5864SOL     OW18490   3.218   3.534   2.624
 5864SOL    HW118491   3.245   3.523   2.528
 5864SOL    HW218492   3.123   3.504   2.635
 5865SOL     OW18493   5.483   0.363   5.200
 5865SOL    HW118494   5.553   0.307   5.245
 5865SOL    HW218495   5.445   0.313   5.123
 5866SOL     OW18496   3.464   3.286   1.518
 5866SOL    HW118497   3.520   3.346   1.461
 5866SOL    HW218498   3.507   3.196   1.523
 5867SOL     OW18499   2.286   3.125   1.533
 5867SOL    HW118500   2.365   3.129   1.595
 5867SOL    HW218501   2.259   3.030   1.520
 5868SOL     OW18502   1.818   1.597   5.973
 5868SOL    HW118503   1.799   1.662   6.046
 5868SOL    HW218504   1.737   1.541   5.955
 5869SOL     OW18505   1.860   5.030   3.085
 5869SOL    HW118506   1.779   5.008   3.031
 5869SOL    HW218507   1.937   5.048   3.024
 5870SOL     OW18508   5.001   6.195   5.093
 5870SOL    HW118509   5.100   6.184   5.092
 5870SOL    HW218510   4.978   6.290   5.072
 5871SOL     OW18511   3.857   3.236   1.892
 5871SOL    HW118512   3.901   3.182   1.964
 5871SOL    HW218513   3.759   3.222   1.896
 5872SOL     OW18514   4.129   6.636   1.275
 5872SOL    HW118515   4.108   6.717   1.330
 5872SOL    HW218516   4.087   6.556   1.317
 5873SOL     OW18517   3.265   6.285   2.179
 5873SOL    HW118518   3.217   6.276   2.091
 5873SOL    HW218519   3.362   6.302   2.163
 5874SOL     OW18520   2.214   4.143   4.733
 5874SOL    HW118521   2.247   4.097   4.815
 5874SOL    HW218522   2.290   4.190   4.689
 5875SOL     OW18523   4.008   1.352   0.352
 5875SOL    HW118524   4.080   1.416   0.379
 5875SOL    HW218525   4.004   1.276   0.416
 5876SOL     OW18526   3.912   3.494   1.727
 5876SOL    HW118527   3.859   3.576   1.707
 5876SOL    HW218528   3.955   3.503   1.817
 5877SOL     OW18529   6.407   6.484   0.967
 5877SOL    HW118530   6.470   6.559   0.988
 5877SOL    HW218531   6.436   6.441   0.881
 5878SOL     OW18532   0.311   5.447   3.997
 5878SOL    HW118533   0.250   5.378   3.958
 5878SOL    HW218534   0.258   5.523   4.033
 5879SOL     OW18535   1.248   4.080   0.143
 5879SOL    HW118536   1.296   4.167   0.139
 5879SOL    HW218537   1.163   4.091   0.195
 5880SOL     OW18538   4.353   3.837   0.120
 5880SOL    HW118539   4.340   3.913   0.184
 5880SOL    HW218540   4.388   3.873   0.033
 5881SOL     OW18541   0.284   5.909   2.718
 5881SOL    HW118542   0.226   5.940   2.792
 5881SOL    HW218543   0.228   5.864   2.648
 5882SOL     OW18544   0.132   6.401   0.851
 5882SOL    HW118545   0.114   6.491   0.811
 5882SOL    HW218546   0.097   6.330   0.790
 5883SOL     OW18547   1.111   1.018   6.352
 5883SOL    HW118548   1.059   0.978   6.276
 5883SOL    HW218549   1.206   1.034   6.323
 5884SOL     OW18550   2.956   1.442   4.399
 5884SOL    HW118551   2.983   1.512   4.333
 5884SOL    HW218552   2.871   1.470   4.444
 5885SOL     OW18553   0.596   0.412   3.045
 5885SOL    HW118554   0.547   0.489   3.004
 5885SOL    HW218555   0.692   0.436   3.056
 5886SOL     OW18556   0.092   2.125   4.823
 5886SOL    HW118557   0.008   2.168   4.856
 5886SOL    HW218558   0.068   2.043   4.770
 5887SOL     OW18559   2.744   1.411   3.362
 5887SOL    HW118560   2.694   1.399   3.448
 5887SOL    HW218561   2.829   1.460   3.379
 5888SOL     OW18562   3.128   0.977   1.890
 5888SOL    HW118563   3.142   0.938   1.982
 5888SOL    HW218564   3.036   0.954   1.858
 5889SOL     OW18565   1.338   6.743   1.269
 5889SOL    HW118566   1.381   6.832   1.281
 5889SOL    HW218567   1.383   6.677   1.329
 5890SOL     OW18568   2.085   0.711   4.189
 5890SOL    HW118569   2.032   0.631   4.217
 5890SOL    HW218570   2.053   0.743   4.100
 5891SOL     OW18571   3.163   3.157   5.797
 5891SOL    HW118572   3.196   3.146   5.703
 5891SOL    HW218573   3.076   3.108   5.808
 5892SOL     OW18574   0.374   5.233   1.626
 5892SOL    HW118575   0.443   5.304   1.638
 5892SOL    HW218576   0.412   5.157   1.573
 5893SOL     OW18577   1.819   4.264   4.740
 5893SOL    HW118578   1.758   4.325   4.791
 5893SOL    HW218579   1.816   4.288   4.643
 5894SOL     OW18580   6.415   5.158   4.254
 5894SOL    HW118581   6.495   5.216   4.271
 5894SOL    HW218582   6.443   5.063   4.248
 5895SOL     OW18583   5.140   3.362   4.089
 5895SOL    HW118584   5.153   3.284   4.150
 5895SOL    HW218585   5.047   3.397   4.100
 5896SOL     OW18586   4.469   0.751   6.892
 5896SOL    HW118587   4.550   0.724   6.944
 5896SOL    HW218588   4.492   0.830   6.835
 5897SOL     OW18589   4.076   0.628   1.446
 5897SOL    HW118590   4.072   0.538   1.489
 5897SOL    HW218591   4.122   0.692   1.507
 5898SOL     OW18592   2.288   6.387   3.270
 5898SOL    HW118593   2.201   6.377   3.221
 5898SOL    HW218594   2.336   6.299   3.271
 5899SOL     OW18595   5.206   6.581   5.763
 5899SOL    HW118596   5.209   6.653   5.833
 5899SOL    HW218597   5.215   6.492   5.806
 5900SOL     OW18598   5.008   4.902   3.318
 5900SOL    HW118599   4.930   4.954   3.355
 5900SOL    HW218600   5.030   4.936   3.226
 5901SOL     OW18601   2.675   0.338   0.372
 5901SOL    HW118602   2.696   0.417   0.314
 5901SOL    HW218603   2.760   0.292   0.398
 5902SOL     OW18604   6.661   2.586   6.009
 5902SOL    HW118605   6.745   2.628   6.044
 5902SOL    HW218606   6.667   2.579   5.909
 5903SOL     OW18607   3.888   3.813   0.026
 5903SOL    HW118608   3.823   3.770   6.981
 5903SOL    HW218609   3.897   3.910   0.004
 5904SOL     OW18610   1.032   3.786   1.747
 5904SOL    HW118611   0.957   3.728   1.716
 5904SOL    HW218612   1.047   3.772   1.845
 5905SOL     OW18613   6.415   5.999   2.787
 5905SOL    HW118614   6.470   5.943   2.849
 5905SOL    HW218615   6.469   6.078   2.757
 5906SOL     OW18616   4.282   2.347   3.554
 5906SOL    HW118617   4.307   2.250   3.553
 5906SOL    HW218618   4.317   2.392   3.471
 5907SOL     OW18619   0.782   4.970   1.000
 5907SOL    HW118620   0.843   4.943   0.926
 5907SOL    HW218621   0.829   4.962   1.087
 5908SOL     OW18622   0.167   2.674   6.911
 5908SOL    HW118623   0.181   2.740   6.985
 5908SOL    HW218624   0.256   2.651   6.871
 5909SOL     OW18625   6.711   5.628   0.883
 5909SOL    HW118626   6.684   5.569   0.959
 5909SOL    HW218627   6.685   5.585   0.796
 5910SOL     OW18628   0.367   3.422   4.024
 5910SOL    HW118629   0.340   3.405   4.119
 5910SOL    HW218630   0.295   3.473   3.977
 5911SOL     OW18631   6.499   6.641   6.438
 5911SOL    HW118632   6.552   6.624   6.355
 5911SOL    HW218633   6.459   6.733   6.434
 5912SOL     OW18634   6.850   0.980   5.910
 5912SOL    HW118635   6.768   0.962   5.963
 5912SOL    HW218636   6.825   1.006   5.817
 5913SOL     OW18637   4.814   2.940   6.495
 5913SOL    HW118638   4.717   2.922   6.505
 5913SOL    HW218639   4.831   3.038   6.492
 5914SOL     OW18640   1.648   4.865   6.959
 5914SOL    HW118641   1.732   4.898   6.916
 5914SOL    HW218642   1.581   4.939   6.965
 5915SOL     OW18643   4.899   5.997   1.051
 5915SOL    HW118644   4.829   5.969   0.985
 5915SOL    HW218645   4.988   5.960   1.023
 5916SOL     OW18646   5.933   6.332   3.329
 5916SOL    HW118647   5.878   6.359   3.407
 5916SOL    HW218648   5.999   6.404   3.307
 5917SOL     OW18649   3.303   4.049   4.154
 5917SOL    HW118650   3.284   4.022   4.249
 5917SOL    HW218651   3.267   3.980   4.092
 5918SOL     OW18652   2.501   4.187   5.310
 5918SOL    HW118653   2.468   4.176   5.403
 5918SOL    HW218654   2.462   4.116   5.252
 5919SOL     OW18655   3.987   3.079   3.252
 5919SOL    HW118656   3.994   2.998   3.195
 5919SOL    HW218657   3.891   3.094   3.278
 5920SOL     OW18658   4.838   0.971   6.571
 5920SOL    HW118659   4.783   0.989   6.489
 5920SOL    HW218660   4.849   0.872   6.583
 5921SOL     OW18661   3.877   5.029   6.567
 5921SOL    HW118662   3.976   5.040   6.572
 5921SOL    HW218663   3.833   5.092   6.630
 5922SOL     OW18664   5.944   3.729   3.474
 5922SOL    HW118665   5.877   3.692   3.409
 5922SOL    HW218666   5.994   3.653   3.516
 5923SOL     OW18667   0.215   1.638   1.899
 5923SOL    HW118668   0.135   1.674   1.851
 5923SOL    HW218669   0.285   1.613   1.833
 5924SOL     OW18670   6.657   6.888   2.484
 5924SOL    HW118671   6.573   6.880   2.537
 5924SOL    HW218672   6.710   6.803   2.493
 5925SOL     OW18673   3.832   6.620   1.854
 5925SOL    HW118674   3.829   6.709   1.900
 5925SOL    HW218675   3.831   6.634   1.755
 5926SOL     OW18676   3.744   5.408   2.343
 5926SOL    HW118677   3.722   5.359   2.427
 5926SOL    HW218678   3.755   5.343   2.268
 5927SOL     OW18679   1.173   4.845   2.452
 5927SOL    HW118680   1.214   4.922   2.502
 5927SOL    HW218681   1.189   4.858   2.354
 5928SOL     OW18682   3.437   6.690   1.074
 5928SOL    HW118683   3.371   6.621   1.045
 5928SOL    HW218684   3.449   6.757   1.001
 5929SOL     OW18685   6.474   0.551   5.963
 5929SOL    HW118686   6.551   0.553   6.027
 5929SOL    HW218687   6.430   0.641   5.961
 5930SOL     OW18688   6.709   4.207   2.991
 5930SOL    HW118689   6.696   4.137   2.920
 5930SOL    HW218690   6.738   4.293   2.948
 5931SOL     OW18691   5.994   6.261   2.393
 5931SOL    HW118692   5.930   6.186   2.377
 5931SOL    HW218693   5.944   6.338   2.435
 5932SOL     OW18694   3.063   6.938   1.313
 5932SOL    HW118695   3.038   6.922   1.217
 5932SOL    HW218696   3.122   0.000   1.319
 5933SOL     OW18697   6.471   4.698   3.796
 5933SOL    HW118698   6.561   4.656   3.778
 5933SOL    HW218699   6.471   4.736   3.888
 5934SOL     OW18700   3.193   2.971   4.919
 5934SOL    HW118701   3.258   2.964   4.995
 5934SOL    HW218702   3.110   3.018   4.949
 5935SOL     OW18703   6.681   5.359   6.372
 5935SOL    HW118704   6.730   5.280   6.409
 5935SOL    HW218705   6.611   5.389   6.437
 5936SOL     OW18706   3.270   2.943   1.411
 5936SOL    HW118707   3.282   2.947   1.510
 5936SOL    HW218708   3.333   2.876   1.373
 5937SOL     OW18709   6.191   3.325   1.986
 5937SOL    HW118710   6.105   3.363   1.952
 5937SOL    HW218711   6.176   3.231   2.017
 5938SOL     OW18712   6.507   5.845   3.417
 5938SOL    HW118713   6.475   5.892   3.499
 5938SOL    HW218714   6.452   5.874   3.338
 5939SOL     OW18715   2.312   6.003   3.031
 5939SOL    HW118716   2.263   6.013   3.118
 5939SOL    HW218717   2.283   6.075   2.968
 5940SOL     OW18718   4.681   5.319   2.686
 5940SOL    HW118719   4.636   5.401   2.651
 5940SOL    HW218720   4.620   5.241   2.675
 5941SOL     OW18721   6.252   3.988   2.381
 5941SOL    HW118722   6.181   3.921   2.360
 5941SOL    HW218723   6.211   4.078   2.393
 5942SOL     OW18724   5.165   3.906   6.866
 5942SOL    HW118725   5.175   3.877   6.961
 5942SOL    HW218726   5.088   3.857   6.824
 5943SOL     OW18727   3.301   4.298   6.150
 5943SOL    HW118728   3.307   4.199   6.154
 5943SOL    HW218729   3.258   4.326   6.064
 5944SOL     OW18730   6.839   2.221   0.310
 5944SOL    HW118731   6.837   2.288   0.385
 5944SOL    HW218732   6.928   2.176   0.308
 5945SOL     OW18733   6.353   4.624   4.879
 5945SOL    HW118734   6.390   4.531   4.870
 5945SOL    HW218735   6.297   4.629   4.962
 5946SOL     OW18736   3.201   3.657   6.045
 5946SOL    HW118737   3.179   3.721   6.119
 5946SOL    HW218738   3.218   3.709   5.961
 5947SOL     OW18739   3.814   3.324   2.468
 5947SOL    HW118740   3.908   3.324   2.434
 5947SOL    HW218741   3.814   3.332   2.568
 5948SOL     OW18742   4.387   4.905   2.511
 5948SOL    HW118743   4.432   4.986   2.546
 5948SOL    HW218744   4.390   4.832   2.580
 5949SOL     OW18745   5.183   4.013   1.795
 5949SOL    HW118746   5.281   4.016   1.814
 5949SOL    HW218747   5.137   3.960   1.866
 5950SOL     OW18748   5.119   1.716   5.101
 5950SOL    HW118749   5.046   1.769   5.058
 5950SOL    HW218750   5.107   1.619   5.079
 5951SOL     OW18751   1.603   4.905   3.934
 5951SOL    HW118752   1.642   4.861   3.853
 5951SOL    HW218753   1.538   4.842   3.977
 5952SOL     OW18754   5.196   5.287   3.066
 5952SOL    HW118755   5.155   5.196   3.055
 5952SOL    HW218756   5.287   5.278   3.106
 5953SOL     OW18757   6.882   3.856   5.682
 5953SOL    HW118758   6.977   3.860   5.652
 5953SOL    HW218759   6.858   3.942   5.728
 5954SOL     OW18760   6.381   5.846   5.876
 5954SOL    HW118761   6.358   5.753   5.846
 5954SOL    HW218762   6.397   5.904   5.796
 5955SOL     OW18763   4.837   5.329   1.939
 5955SOL    HW118764   4.880   5.412   1.905
 5955SOL    HW218765   4.742   5.325   1.908
 5956SOL     OW18766   4.581   1.991   4.295
 5956SOL    HW118767   4.488   2.008   4.264
 5956SOL    HW218768   4.620   2.076   4.330
 5957SOL     OW18769   2.778   1.171   4.450
 5957SOL    HW118770   2.854   1.226   4.415
 5957SOL    HW218771   2.814   1.103   4.515
 5958SOL     OW18772   4.486   6.653   2.783
 5958SOL    HW118773   4.461   6.582   2.717
 5958SOL    HW218774   4.584   6.670   2.777
 5959SOL     OW18775   4.295   3.001   5.381
 5959SOL    HW118776   4.205   3.006   5.337
 5959SOL    HW218777   4.311   3.086   5.432
 5960SOL     OW18778   3.871   5.133   5.026
 5960SOL    HW118779   3.807   5.167   5.096
 5960SOL    HW218780   3.841   5.163   4.936
 5961SOL     OW18781   4.357   2.315   2.776
 5961SOL    HW118782   4.275   2.295   2.721
 5961SOL    HW218783   4.437   2.272   2.734
 5962SOL     OW18784   6.161   6.758   6.785
 5962SOL    HW118785   6.200   6.682   6.733
 5962SOL    HW218786   6.062   6.743   6.797
 5963SOL     OW18787   3.231   3.805   6.332
 5963SOL    HW118788   3.144   3.769   6.365
 5963SOL    HW218789   3.306   3.759   6.378
 5964SOL     OW18790   1.193   6.474   4.902
 5964SOL    HW118791   1.236   6.555   4.940
 5964SOL    HW218792   1.254   6.432   4.834
 5965SOL     OW18793   1.848   1.758   0.387
 5965SOL    HW118794   1.777   1.689   0.399
 5965SOL    HW218795   1.919   1.722   0.326
 5966SOL     OW18796   2.564   6.039   6.034
 5966SOL    HW118797   2.625   5.965   6.060
 5966SOL    HW218798   2.510   6.066   6.114
 5967SOL     OW18799   2.745   0.305   6.033
 5967SOL    HW118800   2.664   0.245   6.033
 5967SOL    HW218801   2.797   0.289   5.949
 5968SOL     OW18802   5.481   1.928   0.285
 5968SOL    HW118803   5.547   2.001   0.263
 5968SOL    HW218804   5.405   1.931   0.220
 5969SOL     OW18805   6.252   0.622   6.726
 5969SOL    HW118806   6.272   0.558   6.651
 5969SOL    HW218807   6.159   0.657   6.715
 5970SOL     OW18808   0.154   4.173   2.513
 5970SOL    HW118809   0.232   4.231   2.539
 5970SOL    HW218810   0.094   4.222   2.451
 5971SOL     OW18811   0.255   1.480   2.154
 5971SOL    HW118812   0.347   1.442   2.148
 5971SOL    HW218813   0.233   1.526   2.068
 5972SOL     OW18814   5.116   5.799   6.203
 5972SOL    HW118815   5.166   5.843   6.129
 5972SOL    HW218816   5.058   5.868   6.248
 5973SOL     OW18817   1.665   2.952   1.776
 5973SOL    HW118818   1.651   3.037   1.726
 5973SOL    HW218819   1.580   2.899   1.777
 5974SOL     OW18820   5.692   5.980   6.759
 5974SOL    HW118821   5.721   6.049   6.693
 5974SOL    HW218822   5.609   5.935   6.726
 5975SOL     OW18823   4.220   0.100   1.341
 5975SOL    HW118824   4.247   0.027   1.278
 5975SOL    HW218825   4.127   0.130   1.319
 5976SOL     OW18826   4.105   2.623   6.155
 5976SOL    HW118827   4.117   2.524   6.145
 5976SOL    HW218828   4.008   2.644   6.165
 5977SOL     OW18829   1.048   6.121   0.754
 5977SOL    HW118830   1.134   6.138   0.706
 5977SOL    HW218831   1.066   6.067   0.837
 5978SOL     OW18832   4.085   5.475   1.438
 5978SOL    HW118833   4.122   5.479   1.345
 5978SOL    HW218834   4.160   5.462   1.503
 5979SOL     OW18835   6.202   0.577   2.987
 5979SOL    HW118836   6.252   0.562   2.902
 5979SOL    HW218837   6.125   0.514   2.993
 5980SOL     OW18838   3.621   4.068   1.986
 5980SOL    HW118839   3.522   4.077   1.992
 5980SOL    HW218840   3.651   3.988   2.037
 5981SOL     OW18841   5.932   1.970   1.080
 5981SOL    HW118842   5.934   1.871   1.061
 5981SOL    HW218843   5.838   1.998   1.098
 5982SOL     OW18844   6.147   2.214   2.086
 5982SOL    HW118845   6.115   2.266   2.006
 5982SOL    HW218846   6.199   2.134   2.055
 5983SOL     OW18847   0.993   1.169   4.175
 5983SOL    HW118848   0.910   1.114   4.182
 5983SOL    HW218849   1.013   1.187   4.078
 5984SOL     OW18850   5.705   6.016   3.082
 5984SOL    HW118851   5.629   5.959   3.049
 5984SOL    HW218852   5.698   6.027   3.181
 5985SOL     OW18853   6.998   3.366   4.129
 5985SOL    HW118854   0.047   3.397   4.061
 5985SOL    HW218855   6.980   3.439   4.194
 5986SOL     OW18856   3.185   4.003   4.512
 5986SOL    HW118857   3.221   3.927   4.457
 5986SOL    HW218858   3.254   4.030   4.579
 5987SOL     OW18859   5.817   0.182   3.990
 5987SOL    HW118860   5.910   0.194   4.025
 5987SOL    HW218861   5.772   0.108   4.038
 5988SOL     OW18862   4.259   0.739   5.341
 5988SOL    HW118863   4.242   0.710   5.435
 5988SOL    HW218864   4.301   0.664   5.290
 5989SOL     OW18865   2.017   5.747   6.680
 5989SOL    HW118866   2.044   5.736   6.584
 5989SOL    HW218867   1.953   5.822   6.689
 5990SOL     OW18868   3.319   3.389   1.035
 5990SOL    HW118869   3.232   3.417   0.994
 5990SOL    HW218870   3.321   3.289   1.044
 5991SOL     OW18871   3.899   5.589   6.799
 5991SOL    HW118872   3.863   5.496   6.792
 5991SOL    HW218873   3.909   5.614   6.896
 5992SOL     OW18874   3.605   0.286   2.066
 5992SOL    HW118875   3.568   0.298   2.158
 5992SOL    HW218876   3.532   0.298   1.999
 5993SOL     OW18877   3.661   4.335   6.215
 5993SOL    HW118878   3.737   4.384   6.171
 5993SOL    HW218879   3.596   4.401   6.254
 5994SOL     OW18880   6.748   2.350   0.549
 5994SOL    HW118881   6.800   2.296   0.614
 5994SOL    HW218882   6.780   2.445   0.551
 5995SOL     OW18883   5.047   3.511   2.178
 5995SOL    HW118884   4.975   3.566   2.136
 5995SOL    HW218885   5.029   3.414   2.161
 5996SOL     OW18886   0.403   6.627   0.952
 5996SOL    HW118887   0.349   6.555   0.908
 5996SOL    HW218888   0.478   6.654   0.891
 5997SOL     OW18889   0.331   4.892   2.417
 5997SOL    HW118890   0.304   4.795   2.417
 5997SOL    HW218891   0.286   4.939   2.342
 5998SOL     OW18892   6.299   1.660   3.201
 5998SOL    HW118893   6.276   1.574   3.155
 5998SOL    HW218894   6.251   1.736   3.156
 5999SOL     OW18895   2.959   3.031   1.581
 5999SOL    HW118896   2.996   2.939   1.593
 5999SOL    HW218897   3.034   3.095   1.559
 6000SOL     OW18898   2.675   6.525   0.041
 6000SOL    HW118899   2.668   6.446   0.101
 6000SOL    HW218900   2.745   6.587   0.075
 6001SOL     OW18901   0.097   4.958   6.616
 6001SOL    HW118902   0.067   4.992   6.705
 6001SOL    HW218903   0.186   4.998   6.594
 6002SOL     OW18904   6.175   0.736   0.404
 6002SOL    HW118905   6.087   0.717   0.361
 6002SOL    HW218906   6.161   0.798   0.482
 6003SOL     OW18907   5.390   2.102   4.669
 6003SOL    HW118908   5.308   2.046   4.663
 6003SOL    HW218909   5.376   2.187   4.618
 6004SOL     OW18910   6.945   3.786   2.744
 6004SOL    HW118911   6.920   3.790   2.841
 6004SOL    HW218912   6.978   3.876   2.714
 6005SOL     OW18913   5.084   5.736   4.727
 6005SOL    HW118914   5.119   5.807   4.788
 6005SOL    HW218915   4.988   5.719   4.749
 6006SOL     OW18916   2.571   0.592   5.655
 6006SOL    HW118917   2.652   0.535   5.645
 6006SOL    HW218918   2.588   0.682   5.616
 6007SOL     OW18919   5.461   3.732   5.718
 6007SOL    HW118920   5.466   3.671   5.640
 6007SOL    HW218921   5.500   3.688   5.799
 6008SOL     OW18922   2.785   4.814   5.223
 6008SOL    HW118923   2.696   4.819   5.179
 6008SOL    HW218924   2.844   4.752   5.171
 6009SOL     OW18925   2.180   0.708   3.281
 6009SOL    HW118926   2.267   0.660   3.294
 6009SOL    HW218927   2.182   0.756   3.193
 6010SOL     OW18928   1.328   5.195   4.108
 6010SOL    HW118929   1.368   5.104   4.104
 6010SOL    HW218930   1.231   5.190   4.085
 6011SOL     OW18931   5.605   3.169   3.279
 6011SOL    HW118932   5.626   3.073   3.260
 6011SOL    HW218933   5.613   3.186   3.378
 6012SOL     OW18934   5.725   0.818   0.928
 6012SOL    HW118935   5.709   0.889   0.997
 6012SOL    HW218936   5.641   0.766   0.914
 6013SOL     OW18937   5.380   1.174   2.819
 6013SOL    HW118938   5.394   1.267   2.852
 6013SOL    HW218939   5.353   1.177   2.722
 6014SOL     OW18940   3.934   3.924   3.159
 6014SOL    HW118941   3.867   3.978   3.209
 6014SOL    HW218942   3.942   3.958   3.066
 6015SOL     OW18943   5.817   3.905   4.300
 6015SOL    HW118944   5.741   3.939   4.246
 6015SOL    HW218945   5.894   3.969   4.295
 6016SOL     OW18946   6.135   2.278   5.617
 6016SOL    HW118947   6.205   2.267   5.686
 6016SOL    HW218948   6.050   2.233   5.647
 6017SOL     OW18949   6.151   5.006   3.557
 6017SOL    HW118950   6.128   5.090   3.507
 6017SOL    HW218951   6.249   4.988   3.548
 6018SOL     OW18952   3.863   0.459   6.198
 6018SOL    HW118953   3.791   0.516   6.238
 6018SOL    HW218954   3.845   0.447   6.100
 6019SOL     OW18955   0.794   2.879   4.429
 6019SOL    HW118956   0.854   2.800   4.422
 6019SOL    HW218957   0.808   2.925   4.516
 6020SOL     OW18958   0.819   5.044   0.691
 6020SOL    HW118959   0.895   5.007   0.744
 6020SOL    HW218960   0.853   5.108   0.622
 6021SOL     OW18961   4.465   0.630   2.827
 6021SOL    HW118962   4.431   0.724   2.834
 6021SOL    HW218963   4.448   0.582   2.913
 6022SOL     OW18964   5.908   2.068   3.416
 6022SOL    HW118965   5.808   2.080   3.420
 6022SOL    HW218966   5.943   2.114   3.335
 6023SOL     OW18967   5.824   0.947   1.496
 6023SOL    HW118968   5.747   1.010   1.493
 6023SOL    HW218969   5.886   0.965   1.419
 6024SOL     OW18970   1.576   4.783   2.101
 6024SOL    HW118971   1.595   4.880   2.087
 6024SOL    HW218972   1.512   4.772   2.178
 6025SOL     OW18973   3.550   1.798   3.258
 6025SOL    HW118974   3.567   1.790   3.356
 6025SOL    HW218975   3.499   1.882   3.240
 6026SOL     OW18976   0.127   4.491   5.737
 6026SOL    HW118977   0.157   4.521   5.646
 6026SOL    HW218978   0.042   4.439   5.729
 6027SOL     OW18979   0.599   3.180   4.972
 6027SOL    HW118980   0.508   3.139   4.978
 6027SOL    HW218981   0.665   3.120   5.017
 6028SOL     OW18982   6.170   4.946   0.305
 6028SOL    HW118983   6.212   5.034   0.329
 6028SOL    HW218984   6.219   4.872   0.350
 6029SOL     OW18985   2.218   6.975   4.586
 6029SOL    HW118986   2.202   6.878   4.604
 6029SOL    HW218987   2.304   7.004   4.628
 6030SOL     OW18988   3.966   5.062   2.641
 6030SOL    HW118989   3.873   5.060   2.605
 6030SOL    HW218990   3.991   4.972   2.676
 6031SOL     OW18991   3.517   5.500   4.513
 6031SOL    HW118992   3.468   5.413   4.526
 6031SOL    HW218993   3.473   5.552   4.439
 6032SOL     OW18994   2.217   4.567   2.699
 6032SOL    HW118995   2.142   4.633   2.706
 6032SOL    HW218996   2.209   4.517   2.613
 6033SOL     OW18997   2.481   2.551   2.907
 6033SOL    HW118998   2.548   2.536   2.980
 6033SOL    HW218999   2.521   2.523   2.819
 6034SOL     OW19000   1.458   0.060   5.204
 6034SOL    HW119001   1.384   7.011   5.196
 6034SOL    HW219002   1.469   0.087   5.300
 6035SOL     OW19003   0.884   1.583   2.136
 6035SOL    HW119004   0.884   1.534   2.049
 6035SOL    HW219005   0.791   1.610   2.160
 6036SOL     OW19006   5.327   4.851   2.879
 6036SOL    HW119007   5.235   4.831   2.845
 6036SOL    HW219008   5.393   4.795   2.828
 6037SOL     OW19009   3.983   6.767   0.161
 6037SOL    HW119010   3.948   6.685   0.116
 6037SOL    HW219011   3.918   6.796   0.232
 6038SOL     OW19012   1.505   2.740   5.740
 6038SOL    HW119013   1.425   2.735   5.801
 6038SOL    HW219014   1.531   2.648   5.711
 6039SOL     OW19015   3.541   2.914   2.623
 6039SOL    HW119016   3.466   2.893   2.561
 6039SOL    HW219017   3.545   2.845   2.695
 6040SOL     OW19018   1.393   1.561   0.805
 6040SOL    HW119019   1.406   1.530   0.899
 6040SOL    HW219020   1.440   1.648   0.792
 6041SOL     OW19021   3.024   0.901   5.313
 6041SOL    HW119022   2.978   0.935   5.231
 6041SOL    HW219023   3.022   0.801   5.313
 6042SOL     OW19024   3.888   6.758   2.395
 6042SOL    HW119025   3.846   6.668   2.389
 6042SOL    HW219026   3.988   6.747   2.397
 6043SOL     OW19027   1.059   5.872   5.861
 6043SOL    HW119028   1.144   5.838   5.901
 6043SOL    HW219029   1.070   5.884   5.763
 6044SOL     OW19030   1.677   2.723   1.430
 6044SOL    HW119031   1.754   2.753   1.373
 6044SOL    HW219032   1.595   2.774   1.403
 6045SOL     OW19033   6.515   4.068   2.288
 6045SOL    HW119034   6.483   4.124   2.212
 6045SOL    HW219035   6.439   4.016   2.326
 6046SOL     OW19036   3.344   2.541   1.035
 6046SOL    HW119037   3.336   2.448   1.071
 6046SOL    HW219038   3.354   2.538   0.935
 6047SOL     OW19039   5.606   1.574   2.232
 6047SOL    HW119040   5.523   1.531   2.197
 6047SOL    HW219041   5.686   1.522   2.203
 6048SOL     OW19042   4.648   5.216   5.101
 6048SOL    HW119043   4.642   5.130   5.151
 6048SOL    HW219044   4.577   5.279   5.134
 6049SOL     OW19045   4.755   3.071   0.121
 6049SOL    HW119046   4.695   3.147   0.145
 6049SOL    HW219047   4.708   3.010   0.057
 6050SOL     OW19048   3.261   5.008   5.983
 6050SOL    HW119049   3.182   5.067   6.002
 6050SOL    HW219050   3.232   4.913   5.983
 6051SOL     OW19051   1.511   0.142   3.847
 6051SOL    HW119052   1.492   0.140   3.946
 6051SOL    HW219053   1.609   0.128   3.832
 6052SOL     OW19054   5.497   1.364   0.759
 6052SOL    HW119055   5.481   1.378   0.661
 6052SOL    HW219056   5.486   1.267   0.781
 6053SOL     OW19057   4.393   1.412   6.129
 6053SOL    HW119058   4.396   1.457   6.040
 6053SOL    HW219059   4.433   1.321   6.122
 6054SOL     OW19060   2.789   3.023   0.198
 6054SOL    HW119061   2.863   3.089   0.208
 6054SOL    HW219062   2.735   3.046   0.117
 6055SOL     OW19063   5.343   6.999   5.739
 6055SOL    HW119064   5.249   7.005   5.706
 6055SOL    HW219065   5.347   0.013   5.834
 6056SOL     OW19066   4.935   3.492   4.727
 6056SOL    HW119067   5.033   3.496   4.745
 6056SOL    HW219068   4.889   3.562   4.782
 6057SOL     OW19069   0.040   1.604   2.912
 6057SOL    HW119070   7.010   1.683   2.949
 6057SOL    HW219071   0.138   1.623   2.911
 6058SOL     OW19072   4.692   3.950   1.552
 6058SOL    HW119073   4.706   3.853   1.533
 6058SOL    HW219074   4.603   3.978   1.515
 6059SOL     OW19075   5.233   5.481   6.064
 6059SOL    HW119076   5.248   5.521   6.154
 6059SOL    HW219077   5.244   5.381   6.070
 6060SOL     OW19078   2.877   3.278   6.164
 6060SOL    HW119079   2.962   3.331   6.172
 6060SOL    HW219080   2.803   3.339   6.133
 6061SOL     OW19081   4.545   3.076   1.160
 6061SOL    HW119082   4.485   3.117   1.229
 6061SOL    HW219083   4.499   2.999   1.117
 6062SOL     OW19084   2.743   1.561   5.457
 6062SOL    HW119085   2.754   1.492   5.386
 6062SOL    HW219086   2.646   1.581   5.470
 6063SOL     OW19087   4.553   2.469   6.172
 6063SOL    HW119088   4.567   2.556   6.217
 6063SOL    HW219089   4.594   2.396   6.226
 6064SOL     OW19090   0.983   6.680   1.434
 6064SOL    HW119091   0.937   6.760   1.473
 6064SOL    HW219092   1.042   6.708   1.359
 6065SOL     OW19093   0.757   6.408   3.111
 6065SOL    HW119094   0.704   6.443   3.033
 6065SOL    HW219095   0.790   6.316   3.091
 6066SOL     OW19096   4.408   1.769   5.507
 6066SOL    HW119097   4.470   1.840   5.541
 6066SOL    HW219098   4.447   1.679   5.526
 6067SOL     OW19099   5.918   0.959   5.693
 6067SOL    HW119100   5.916   1.053   5.660
 6067SOL    HW219101   6.011   0.933   5.718
 6068SOL     OW19102   4.682   2.724   4.843
 6068SOL    HW119103   4.762   2.761   4.796
 6068SOL    HW219104   4.655   2.787   4.916
 6069SOL     OW19105   6.027   2.813   5.066
 6069SOL    HW119106   6.083   2.763   5.000
 6069SOL    HW219107   6.086   2.869   5.125
 6070SOL     OW19108   2.667   2.208   1.152
 6070SOL    HW119109   2.602   2.195   1.227
 6070SOL    HW219110   2.694   2.304   1.149
 6071SOL     OW19111   5.664   5.714   4.732
 6071SOL    HW119112   5.680   5.752   4.641
 6071SOL    HW219113   5.752   5.704   4.780
 6072SOL     OW19114   6.568   6.915   1.185
 6072SOL    HW119115   6.485   6.879   1.228
 6072SOL    HW219116   6.610   6.983   1.245
 6073SOL     OW19117   5.761   2.950   0.809
 6073SOL    HW119118   5.666   2.920   0.805
 6073SOL    HW219119   5.773   3.015   0.884
 6074SOL     OW19120   1.051   6.310   2.479
 6074SOL    HW119121   1.104   6.336   2.399
 6074SOL    HW219122   1.099   6.238   2.529
 6075SOL     OW19123   4.846   0.370   5.733
 6075SOL    HW119124   4.867   0.283   5.687
 6075SOL    HW219125   4.887   0.445   5.681
 6076SOL     OW19126   3.524   5.540   4.066
 6076SOL    HW119127   3.602   5.572   4.012
 6076SOL    HW219128   3.535   5.443   4.085
 6077SOL     OW19129   6.677   5.374   0.618
 6077SOL    HW119130   6.708   5.311   0.546
 6077SOL    HW219131   6.577   5.374   0.621
 6078SOL     OW19132   4.776   5.590   0.542
 6078SOL    HW119133   4.857   5.632   0.581
 6078SOL    HW219134   4.791   5.493   0.528
 6079SOL     OW19135   4.607   3.777   6.105
 6079SOL    HW119136   4.633   3.689   6.145
 6079SOL    HW219137   4.520   3.807   6.146
 6080SOL     OW19138   6.965   6.263   0.662
 6080SOL    HW119139   7.003   6.279   0.570
 6080SOL    HW219140   6.868   6.284   0.662
 6081SOL     OW19141   6.770   2.475   5.264
 6081SOL    HW119142   6.747   2.442   5.356
 6081SOL    HW219143   6.828   2.408   5.219
 6082SOL     OW19144   1.905   1.541   3.505
 6082SOL    HW119145   1.904   1.474   3.430
 6082SOL    HW219146   1.964   1.507   3.579
 6083SOL     OW19147   5.974   6.321   0.276
 6083SOL    HW119148   6.034   6.393   0.242
 6083SOL    HW219149   5.964   6.330   0.375
 6084SOL     OW19150   0.903   6.680   3.222
 6084SOL    HW119151   0.829   6.629   3.265
 6084SOL    HW219152   0.974   6.699   3.289
 6085SOL     OW19153   0.098   6.791   0.194
 6085SOL    HW119154   0.009   6.759   0.160
 6085SOL    HW219155   0.153   6.825   0.118
 6086SOL     OW19156   3.032   1.068   5.529
 6086SOL    HW119157   2.954   1.055   5.589
 6086SOL    HW219158   3.028   1.003   5.453
 6087SOL     OW19159   3.879   5.982   1.345
 6087SOL    HW119160   3.890   5.905   1.409
 6087SOL    HW219161   3.800   6.036   1.372
 6088SOL     OW19162   5.411   6.671   4.446
 6088SOL    HW119163   5.316   6.649   4.464
 6088SOL    HW219164   5.434   6.647   4.351
 6089SOL     OW19165   5.312   2.910   2.350
 6089SOL    HW119166   5.220   2.891   2.383
 6089SOL    HW219167   5.370   2.830   2.364
 6090SOL     OW19168   2.434   6.047   4.833
 6090SOL    HW119169   2.513   6.057   4.773
 6090SOL    HW219170   2.430   6.124   4.896
 6091SOL     OW19171   1.908   1.233   0.352
 6091SOL    HW119172   1.993   1.266   0.393
 6091SOL    HW219173   1.914   1.134   0.338
 6092SOL     OW19174   4.413   0.141   2.365
 6092SOL    HW119175   4.464   0.196   2.431
 6092SOL    HW219176   4.318   0.172   2.362
 6093SOL     OW19177   2.326   2.991   1.817
 6093SOL    HW119178   2.298   3.013   1.911
 6093SOL    HW219179   2.382   3.066   1.781
 6094SOL     OW19180   2.014   6.340   2.218
 6094SOL    HW119181   2.046   6.403   2.289
 6094SOL    HW219182   2.092   6.305   2.167
 6095SOL     OW19183   5.409   4.414   0.539
 6095SOL    HW119184   5.505   4.390   0.531
 6095SOL    HW219185   5.356   4.333   0.562
 6096SOL     OW19186   5.834   7.006   3.726
 6096SOL    HW119187   5.784   0.040   3.657
 6096SOL    HW219188   5.887   0.050   3.783
 6097SOL     OW19189   1.762   5.824   2.132
 6097SOL    HW119190   1.813   5.744   2.099
 6097SOL    HW219191   1.737   5.810   2.228
 6098SOL     OW19192   0.607   1.516   5.131
 6098SOL    HW119193   0.586   1.487   5.224
 6098SOL    HW219194   0.521   1.529   5.081
 6099SOL     OW19195   5.309   6.348   6.846
 6099SOL    HW119196   5.322   6.251   6.822
 6099SOL    HW219197   5.248   6.390   6.780
 6100SOL     OW19198   5.669   6.123   0.951
 6100SOL    HW119199   5.742   6.068   0.911
 6100SOL    HW219200   5.710   6.193   1.010
 6101SOL     OW19201   6.656   3.684   3.643
 6101SOL    HW119202   6.719   3.702   3.567
 6101SOL    HW219203   6.603   3.602   3.623
 6102SOL     OW19204   3.436   6.057   2.970
 6102SOL    HW119205   3.441   5.986   3.040
 6102SOL    HW219206   3.489   6.137   2.999
 6103SOL     OW19207   6.006   1.788   1.568
 6103SOL    HW119208   5.982   1.829   1.657
 6103SOL    HW219209   5.928   1.795   1.507
 6104SOL     OW19210   5.701   0.783   6.129
 6104SOL    HW119211   5.664   0.858   6.184
 6104SOL    HW219212   5.745   0.820   6.047
 6105SOL     OW19213   3.211   5.863   6.898
 6105SOL    HW119214   3.148   5.924   6.946
 6105SOL    HW219215   3.262   5.915   6.830
 6106SOL     OW19216   0.854   4.164   6.664
 6106SOL    HW119217   0.864   4.120   6.753
 6106SOL    HW219218   0.772   4.221   6.664
 6107SOL     OW19219   4.067   5.492   4.635
 6107SOL    HW119220   4.151   5.495   4.688
 6107SOL    HW219221   4.087   5.463   4.541
 6108SOL     OW19222   2.561   2.852   1.747
 6108SOL    HW119223   2.614   2.857   1.662
 6108SOL    HW219224   2.495   2.927   1.748
 6109SOL     OW19225   5.642   1.790   4.863
 6109SOL    HW119226   5.593   1.849   4.927
 6109SOL    HW219227   5.625   1.820   4.769
 6110SOL     OW19228   3.747   3.831   0.715
 6110SOL    HW119229   3.792   3.785   0.791
 6110SOL    HW219230   3.710   3.763   0.652
 6111SOL     OW19231   1.269   4.022   2.565
 6111SOL    HW119232   1.324   4.057   2.489
 6111SOL    HW219233   1.329   3.981   2.633
 6112SOL     OW19234   3.317   0.537   2.769
 6112SOL    HW119235   3.394   0.501   2.822
 6112SOL    HW219236   3.259   0.461   2.740
 6113SOL     OW19237   2.790   2.051   6.144
 6113SOL    HW119238   2.717   2.063   6.076
 6113SOL    HW219239   2.878   2.048   6.098
 6114SOL     OW19240   4.934   4.964   2.065
 6114SOL    HW119241   4.843   5.002   2.083
 6114SOL    HW219242   4.998   5.037   2.044
 6115SOL     OW19243   5.759   0.353   3.793
 6115SOL    HW119244   5.746   0.272   3.851
 6115SOL    HW219245   5.834   0.408   3.829
 6116SOL     OW19246   4.187   1.505   5.937
 6116SOL    HW119247   4.127   1.524   6.015
 6116SOL    HW219248   4.153   1.425   5.888
 6117SOL     OW19249   1.232   1.259   3.259
 6117SOL    HW119250   1.322   1.233   3.293
 6117SOL    HW219251   1.183   1.178   3.226
 6118SOL     OW19252   0.374   1.065   1.754
 6118SOL    HW119253   0.364   1.161   1.779
 6118SOL    HW219254   0.381   1.057   1.654
 6119SOL     OW19255   0.677   3.804   6.836
 6119SOL    HW119256   0.624   3.727   6.800
 6119SOL    HW219257   0.741   3.771   6.905
 6120SOL     OW19258   3.736   6.329   5.332
 6120SOL    HW119259   3.816   6.280   5.297
 6120SOL    HW219260   3.657   6.269   5.330
 6121SOL     OW19261   0.879   3.227   5.270
 6121SOL    HW119262   0.907   3.252   5.363
 6121SOL    HW219263   0.934   3.279   5.204
 6122SOL     OW19264   4.429   5.407   0.771
 6122SOL    HW119265   4.392   5.356   0.694
 6122SOL    HW219266   4.438   5.504   0.747
 6123SOL     OW19267   5.371   0.065   6.380
 6123SOL    HW119268   5.354   0.089   6.284
 6123SOL    HW219269   5.431   7.003   6.384
 6124SOL     OW19270   1.605   6.937   5.887
 6124SOL    HW119271   1.694   6.897   5.865
 6124SOL    HW219272   1.591   0.002   5.833
 6125SOL     OW19273   2.241   4.399   0.557
 6125SOL    HW119274   2.322   4.388   0.614
 6125SOL    HW219275   2.159   4.405   0.615
 6126SOL     OW19276   0.898   6.804   4.486
 6126SOL    HW119277   0.903   6.883   4.546
 6126SOL    HW219278   0.971   6.809   4.418
 6127SOL     OW19279   3.071   0.526   1.344
 6127SOL    HW119280   3.033   0.550   1.255
 6127SOL    HW219281   3.171   0.535   1.342
 6128SOL     OW19282   6.082   3.932   0.663
 6128SOL    HW119283   6.156   3.961   0.603
 6128SOL    HW219284   6.082   3.832   0.669
 6129SOL     OW19285   6.960   3.377   2.417
 6129SOL    HW119286   6.944   3.456   2.358
 6129SOL    HW219287   6.947   3.403   2.513
 6130SOL     OW19288   5.688   2.856   2.710
 6130SOL    HW119289   5.611   2.799   2.740
 6130SOL    HW219290   5.770   2.832   2.762
 6131SOL     OW19291   0.601   1.846   4.527
 6131SOL    HW119292   0.652   1.900   4.595
 6131SOL    HW219293   0.504   1.845   4.552
 6132SOL     OW19294   4.786   1.770   0.128
 6132SOL    HW119295   4.856   1.698   0.125
 6132SOL    HW219296   4.725   1.754   0.205
 6133SOL     OW19297   1.755   3.059   2.352
 6133SOL    HW119298   1.723   3.040   2.259
 6133SOL    HW219299   1.739   3.155   2.373
 6134SOL     OW19300   4.409   4.524   6.959
 6134SOL    HW119301   4.390   4.470   0.023
 6134SOL    HW219302   4.326   4.532   6.903
 6135SOL     OW19303   0.321   0.859   0.826
 6135SOL    HW119304   0.394   0.916   0.787
 6135SOL    HW219305   0.249   0.919   0.861
 6136SOL     OW19306   1.364   2.992   2.022
 6136SOL    HW119307   1.359   2.894   2.043
 6136SOL    HW219308   1.290   3.040   2.068
 6137SOL     OW19309   6.916   4.002   2.437
 6137SOL    HW119310   6.928   4.019   2.535
 6137SOL    HW219311   7.000   3.961   2.400
 6138SOL     OW19312   3.739   6.602   2.796
 6138SOL    HW119313   3.718   6.512   2.757
 6138SOL    HW219314   3.720   6.601   2.894
 6139SOL     OW19315   1.836   6.198   6.180
 6139SOL    HW119316   1.821   6.269   6.249
 6139SOL    HW219317   1.932   6.169   6.183
 6140SOL     OW19318   0.875   6.433   1.768
 6140SOL    HW119319   0.879   6.460   1.864
 6140SOL    HW219320   0.781   6.406   1.745
 6141SOL     OW19321   0.400   6.707   6.143
 6141SOL    HW119322   0.480   6.734   6.196
 6141SOL    HW219323   0.428   6.649   6.067
 6142SOL     OW19324   1.037   6.771   0.241
 6142SOL    HW119325   1.098   6.695   0.218
 6142SOL    HW219326   1.006   6.815   0.157
 6143SOL     OW19327   6.683   3.052   1.232
 6143SOL    HW119328   6.621   3.099   1.296
 6143SOL    HW219329   6.732   2.980   1.280
 6144SOL     OW19330   5.210   4.447   3.894
 6144SOL    HW119331   5.286   4.498   3.855
 6144SOL    HW219332   5.167   4.501   3.966
 6145SOL     OW19333   4.900   5.251   3.665
 6145SOL    HW119334   4.935   5.168   3.709
 6145SOL    HW219335   4.963   5.278   3.592
 6146SOL     OW19336   3.115   5.528   3.868
 6146SOL    HW119337   3.138   5.431   3.855
 6146SOL    HW219338   3.109   5.573   3.779
 6147SOL     OW19339   2.029   1.706   4.234
 6147SOL    HW119340   1.931   1.694   4.216
 6147SOL    HW219341   2.073   1.617   4.241
 6148SOL     OW19342   5.122   0.030   5.324
 6148SOL    HW119343   5.206   7.003   5.354
 6148SOL    HW219344   5.055   6.980   5.296
 6149SOL     OW19345   2.523   6.396   1.376
 6149SOL    HW119346   2.545   6.379   1.472
 6149SOL    HW219347   2.510   6.309   1.328
 6150SOL     OW19348   4.851   5.383   0.232
 6150SOL    HW119349   4.859   5.421   0.140
 6150SOL    HW219350   4.758   5.349   0.246
 6151SOL     OW19351   6.024   5.021   6.465
 6151SOL    HW119352   5.991   5.104   6.509
 6151SOL    HW219353   5.956   4.989   6.399
 6152SOL     OW19354   6.317   5.489   4.658
 6152SOL    HW119355   6.232   5.474   4.709
 6152SOL    HW219356   6.297   5.492   4.560
 6153SOL     OW19357   5.140   4.657   1.178
 6153SOL    HW119358   5.070   4.587   1.173
 6153SOL    HW219359   5.136   4.714   1.096
 6154SOL     OW19360   5.828   2.553   2.758
 6154SOL    HW119361   5.737   2.556   2.799
 6154SOL    HW219362   5.823   2.518   2.665
 6155SOL     OW19363   1.334   1.678   3.482
 6155SOL    HW119364   1.420   1.674   3.532
 6155SOL    HW219365   1.284   1.761   3.508
 6156SOL     OW19366   4.399   4.586   1.609
 6156SOL    HW119367   4.479   4.590   1.669
 6156SOL    HW219368   4.336   4.516   1.643
 6157SOL     OW19369   6.986   1.616   4.619
 6157SOL    HW119370   0.017   1.531   4.597
 6157SOL    HW219371   6.897   1.616   4.573
 6158SOL     OW19372   3.487   2.304   5.996
 6158SOL    HW119373   3.482   2.394   5.952
 6158SOL    HW219374   3.580   2.288   6.028
 6159SOL     OW19375   4.985   1.868   2.464
 6159SOL    HW119376   5.080   1.872   2.495
 6159SOL    HW219377   4.975   1.921   2.379
 6160SOL     OW19378   5.457   1.218   6.346
 6160SOL    HW119379   5.399   1.274   6.286
 6160SOL    HW219380   5.415   1.212   6.437
 6161SOL     OW19381   4.540   1.603   5.144
 6161SOL    HW119382   4.448   1.610   5.106
 6161SOL    HW219383   4.540   1.537   5.220
 6162SOL     OW19384   0.122   6.037   3.590
 6162SOL    HW119385   0.203   6.003   3.541
 6162SOL    HW219386   0.040   5.997   3.549
 6163SOL     OW19387   6.199   6.959   1.122
 6163SOL    HW119388   6.208   6.959   1.023
 6163SOL    HW219389   6.252   6.883   1.161
 6164SOL     OW19390   3.418   4.010   3.321
 6164SOL    HW119391   3.434   4.042   3.414
 6164SOL    HW219392   3.487   4.048   3.259
 6165SOL     OW19393   5.000   1.899   6.917
 6165SOL    HW119394   4.982   1.841   6.997
 6165SOL    HW219395   4.920   1.901   6.858
 6166SOL     OW19396   5.371   1.552   6.756
 6166SOL    HW119397   5.315   1.632   6.736
 6166SOL    HW219398   5.446   1.578   6.817
 6167SOL     OW19399   1.294   5.007   2.631
 6167SOL    HW119400   1.290   5.049   2.722
 6167SOL    HW219401   1.315   5.077   2.563
 6168SOL     OW19402   1.854   3.525   1.985
 6168SOL    HW119403   1.844   3.429   2.011
 6168SOL    HW219404   1.825   3.537   1.890
 6169SOL     OW19405   1.699   2.200   0.004
 6169SOL    HW119406   1.610   2.242   0.019
 6169SOL    HW219407   1.687   2.106   6.990
 6170SOL     OW19408   1.922   4.238   5.428
 6170SOL    HW119409   1.999   4.209   5.371
 6170SOL    HW219410   1.880   4.157   5.471
 6171SOL     OW19411   1.413   3.111   0.987
 6171SOL    HW119412   1.317   3.139   0.992
 6171SOL    HW219413   1.433   3.076   0.895
 6172SOL     OW19414   1.457   2.917   2.854
 6172SOL    HW119415   1.465   2.819   2.835
 6172SOL    HW219416   1.377   2.953   2.807
 6173SOL     OW19417   6.705   5.449   1.926
 6173SOL    HW119418   6.611   5.477   1.907
 6173SOL    HW219419   6.723   5.457   2.024
 6174SOL     OW19420   5.406   4.634   3.837
 6174SOL    HW119421   5.505   4.624   3.847
 6174SOL    HW219422   5.372   4.697   3.907
 6175SOL     OW19423   4.788   0.477   3.480
 6175SOL    HW119424   4.755   0.449   3.570
 6175SOL    HW219425   4.785   0.577   3.473
 6176SOL     OW19426   4.866   3.804   6.770
 6176SOL    HW119427   4.904   3.732   6.711
 6176SOL    HW219428   4.820   3.872   6.714
 6177SOL     OW19429   5.695   0.963   1.176
 6177SOL    HW119430   5.706   0.868   1.205
 6177SOL    HW219431   5.778   1.014   1.196
 6178SOL     OW19432   5.033   4.816   2.786
 6178SOL    HW119433   4.936   4.837   2.788
 6178SOL    HW219434   5.062   4.800   2.691
 6179SOL     OW19435   0.230   4.772   3.819
 6179SOL    HW119436   0.211   4.843   3.752
 6179SOL    HW219437   0.329   4.765   3.833
 6180SOL     OW19438   3.732   4.177   0.024
 6180SOL    HW119439   3.744   4.274   0.045
 6180SOL    HW219440   3.660   4.140   0.083
 6181SOL     OW19441   3.916   6.870   0.841
 6181SOL    HW119442   3.860   6.821   0.774
 6181SOL    HW219443   3.931   6.964   0.809
 6182SOL     OW19444   5.401   2.717   4.874
 6182SOL    HW119445   5.393   2.817   4.878
 6182SOL    HW219446   5.497   2.692   4.861
 6183SOL     OW19447   1.902   2.046   3.440
 6183SOL    HW119448   1.835   1.977   3.466
 6183SOL    HW219449   1.897   2.061   3.341
 6184SOL     OW19450   1.969   6.450   6.274
 6184SOL    HW119451   2.059   6.485   6.298
 6184SOL    HW219452   1.899   6.510   6.314
 6185SOL     OW19453   0.411   3.957   6.269
 6185SOL    HW119454   0.450   3.988   6.356
 6185SOL    HW219455   0.483   3.956   6.199
 6186SOL     OW19456   0.391   7.010   6.289
 6186SOL    HW119457   0.307   6.974   6.330
 6186SOL    HW219458   0.381   0.090   6.275
 6187SOL     OW19459   4.611   5.006   3.036
 6187SOL    HW119460   4.582   4.936   3.101
 6187SOL    HW219461   4.541   5.076   3.029
 6188SOL     OW19462   2.200   0.378   0.926
 6188SOL    HW119463   2.233   0.433   0.849
 6188SOL    HW219464   2.127   0.427   0.973
 6189SOL     OW19465   4.859   4.331   3.320
 6189SOL    HW119466   4.871   4.237   3.288
 6189SOL    HW219467   4.947   4.365   3.356
 6190SOL     OW19468   0.632   3.939   5.581
 6190SOL    HW119469   0.590   3.949   5.491
 6190SOL    HW219470   0.669   3.847   5.591
 6191SOL     OW19471   3.223   2.167   0.054
 6191SOL    HW119472   3.133   2.189   0.091
 6191SOL    HW219473   3.212   2.119   6.985
 6192SOL     OW19474   3.456   2.541   6.221
 6192SOL    HW119475   3.373   2.486   6.231
 6192SOL    HW219476   3.530   2.499   6.274
 6193SOL     OW19477   5.240   1.005   2.265
 6193SOL    HW119478   5.194   1.075   2.320
 6193SOL    HW219479   5.206   1.009   2.171
 6194SOL     OW19480   1.550   0.243   1.652
 6194SOL    HW119481   1.570   0.339   1.632
 6194SOL    HW219482   1.627   0.186   1.622
 6195SOL     OW19483   4.179   6.215   6.253
 6195SOL    HW119484   4.235   6.133   6.244
 6195SOL    HW219485   4.098   6.195   6.307
 6196SOL     OW19486   5.633   2.529   1.653
 6196SOL    HW119487   5.690   2.602   1.615
 6196SOL    HW219488   5.538   2.543   1.626
 6197SOL     OW19489   4.183   4.365   0.399
 6197SOL    HW119490   4.121   4.376   0.477
 6197SOL    HW219491   4.186   4.268   0.374
 6198SOL     OW19492   3.697   6.480   2.346
 6198SOL    HW119493   3.776   6.451   2.401
 6198SOL    HW219494   3.626   6.516   2.406
 6199SOL     OW19495   1.370   1.083   0.187
 6199SOL    HW119496   1.371   1.166   0.131
 6199SOL    HW219497   1.460   1.041   0.186
 6200SOL     OW19498   1.257   1.101   5.725
 6200SOL    HW119499   1.347   1.062   5.706
 6200SOL    HW219500   1.256   1.197   5.698
 6201SOL     OW19501   1.284   3.503   5.037
 6201SOL    HW119502   1.297   3.581   5.098
 6201SOL    HW219503   1.352   3.506   4.963
 6202SOL     OW19504   4.203   1.536   2.592
 6202SOL    HW119505   4.216   1.566   2.687
 6202SOL    HW219506   4.150   1.451   2.591
 6203SOL     OW19507   6.823   6.613   2.676
 6203SOL    HW119508   6.729   6.589   2.652
 6203SOL    HW219509   6.824   6.696   2.731
 6204SOL     OW19510   0.374   5.009   4.480
 6204SOL    HW119511   0.358   5.039   4.574
 6204SOL    HW219512   0.313   4.933   4.458
 6205SOL     OW19513   6.453   6.339   0.740
 6205SOL    HW119514   6.450   6.247   0.703
 6205SOL    HW219515   6.523   6.393   0.692
 6206SOL     OW19516   6.486   1.617   3.722
 6206SOL    HW119517   6.471   1.689   3.790
 6206SOL    HW219518   6.431   1.636   3.641
 6207SOL     OW19519   1.190   5.166   5.337
 6207SOL    HW119520   1.090   5.160   5.334
 6207SOL    HW219521   1.228   5.131   5.252
 6208SOL     OW19522   5.534   2.164   5.589
 6208SOL    HW119523   5.621   2.212   5.581
 6208SOL    HW219524   5.469   2.200   5.522
 6209SOL     OW19525   4.311   5.448   6.831
 6209SOL    HW119526   4.396   5.467   6.881
 6209SOL    HW219527   4.305   5.350   6.813
 6210SOL     OW19528   5.149   3.070   3.359
 6210SOL    HW119529   5.240   3.037   3.385
 6210SOL    HW219530   5.158   3.159   3.314
 6211SOL     OW19531   3.111   6.705   5.374
 6211SOL    HW119532   3.049   6.644   5.423
 6211SOL    HW219533   3.060   6.756   5.305
 6212SOL     OW19534   1.874   5.858   4.046
 6212SOL    HW119535   1.893   5.848   4.143
 6212SOL    HW219536   1.806   5.931   4.033
 6213SOL     OW19537   6.273   0.067   0.327
 6213SOL    HW119538   6.244   0.102   0.237
 6213SOL    HW219539   6.320   6.998   0.315
 6214SOL     OW19540   5.235   4.951   4.323
 6214SOL    HW119541   5.324   4.938   4.280
 6214SOL    HW219542   5.187   5.026   4.279
 6215SOL     OW19543   4.328   1.237   0.572
 6215SOL    HW119544   4.336   1.332   0.604
 6215SOL    HW219545   4.240   1.200   0.602
 6216SOL     OW19546   6.319   1.462   2.147
 6216SOL    HW119547   6.415   1.441   2.166
 6216SOL    HW219548   6.262   1.389   2.185
 6217SOL     OW19549   0.495   4.008   2.911
 6217SOL    HW119550   0.467   3.914   2.891
 6217SOL    HW219551   0.595   4.013   2.917
 6218SOL     OW19552   3.837   6.085   7.002
 6218SOL    HW119553   3.860   6.009   0.045
 6218SOL    HW219554   3.819   6.050   6.910
 6219SOL     OW19555   1.633   2.328   4.775
 6219SOL    HW119556   1.556   2.326   4.711
 6219SOL    HW219557   1.600   2.308   4.867
 6220SOL     OW19558   2.013   1.447   5.003
 6220SOL    HW119559   2.100   1.493   4.982
 6220SOL    HW219560   1.945   1.516   5.029
 6221SOL     OW19561   5.796   6.128   6.502
 6221SOL    HW119562   5.832   6.166   6.416
 6221SOL    HW219563   5.696   6.135   6.502
 6222SOL     OW19564   1.080   6.505   1.614
 6222SOL    HW119565   1.049   6.588   1.568
 6222SOL    HW219566   1.008   6.472   1.675
 6223SOL     OW19567   1.084   5.114   4.108
 6223SOL    HW119568   1.039   5.056   4.040
 6223SOL    HW219569   1.108   5.060   4.189
 6224SOL     OW19570   2.875   1.635   6.146
 6224SOL    HW119571   2.786   1.678   6.158
 6224SOL    HW219572   2.930   1.647   6.229
 6225SOL     OW19573   4.147   3.646   0.055
 6225SOL    HW119574   4.058   3.690   0.047
 6225SOL    HW219575   4.216   3.713   0.083
 6226SOL     OW19576   6.997   1.753   5.241
 6226SOL    HW119577   0.001   1.836   5.191
 6226SOL    HW219578   0.011   1.761   5.336
 6227SOL     OW19579   3.350   6.030   4.946
 6227SOL    HW119580   3.301   6.115   4.925
 6227SOL    HW219581   3.285   5.955   4.954
 6228SOL     OW19582   1.227   2.996   2.715
 6228SOL    HW119583   1.282   3.005   2.632
 6228SOL    HW219584   1.141   2.951   2.693
 6229SOL     OW19585   0.700   2.260   3.297
 6229SOL    HW119586   0.747   2.298   3.377
 6229SOL    HW219587   0.712   2.320   3.219
 6230SOL     OW19588   0.599   1.697   3.656
 6230SOL    HW119589   0.533   1.629   3.624
 6230SOL    HW219590   0.681   1.693   3.598
 6231SOL     OW19591   6.296   6.113   1.106
 6231SOL    HW119592   6.259   6.044   1.044
 6231SOL    HW219593   6.365   6.070   1.165
 6232SOL     OW19594   0.097   0.714   0.783
 6232SOL    HW119595   0.078   0.699   0.880
 6232SOL    HW219596   0.187   0.756   0.772
 6233SOL     OW19597   0.030   1.585   1.200
 6233SOL    HW119598   6.987   1.622   1.129
 6233SOL    HW219599   6.994   1.537   1.269
 6234SOL     OW19600   6.589   1.648   5.423
 6234SOL    HW119601   6.652   1.629   5.498
 6234SOL    HW219602   6.496   1.655   5.458
 6235SOL     OW19603   0.984   6.872   1.157
 6235SOL    HW119604   1.014   6.906   1.246
 6235SOL    HW219605   1.051   6.806   1.122
 6236SOL     OW19606   0.858   3.558   1.100
 6236SOL    HW119607   0.773   3.576   1.149
 6236SOL    HW219608   0.930   3.619   1.134
 6237SOL     OW19609   3.354   0.572   6.351
 6237SOL    HW119610   3.297   0.650   6.376
 6237SOL    HW219611   3.352   0.559   6.252
 6238SOL     OW19612   4.053   4.795   2.501
 6238SOL    HW119613   4.052   4.772   2.598
 6238SOL    HW219614   4.139   4.764   2.460
 6239SOL     OW19615   3.070   0.600   1.775
 6239SOL    HW119616   3.150   0.653   1.747
 6239SOL    HW219617   3.046   0.624   1.869
 6240SOL     OW19618   2.051   3.042   5.353
 6240SOL    HW119619   1.961   3.029   5.395
 6240SOL    HW219620   2.121   3.005   5.414
 6241SOL     OW19621   3.386   0.004   1.436
 6241SOL    HW119622   3.437   0.001   1.522
 6241SOL    HW219623   3.306   0.063   1.447
 6242SOL     OW19624   4.407   0.421   4.135
 6242SOL    HW119625   4.326   0.473   4.107
 6242SOL    HW219626   4.445   0.373   4.055
 6243SOL     OW19627   5.811   6.424   4.312
 6243SOL    HW119628   5.836   6.450   4.405
 6243SOL    HW219629   5.882   6.454   4.248
 6244SOL     OW19630   6.793   2.502   1.868
 6244SOL    HW119631   6.771   2.562   1.945
 6244SOL    HW219632   6.887   2.520   1.838
 6245SOL     OW19633   1.778   4.145   0.632
 6245SOL    HW119634   1.783   4.083   0.554
 6245SOL    HW219635   1.825   4.103   0.711
 6246SOL     OW19636   1.966   1.848   5.508
 6246SOL    HW119637   1.891   1.858   5.574
 6246SOL    HW219638   1.947   1.905   5.428
 6247SOL     OW19639   6.948   5.375   4.355
 6247SOL    HW119640   6.960   5.364   4.256
 6247SOL    HW219641   0.019   5.385   4.399
 6248SOL     OW19642   3.513   3.471   0.639
 6248SOL    HW119643   3.510   3.379   0.600
 6248SOL    HW219644   3.501   3.539   0.567
 6249SOL     OW19645   0.445   3.678   0.442
 6249SOL    HW119646   0.394   3.593   0.454
 6249SOL    HW219647   0.491   3.702   0.527
 6250SOL     OW19648   6.732   0.553   6.675
 6250SOL    HW119649   6.731   0.575   6.772
 6250SOL    HW219650   6.693   0.630   6.623
 6251SOL     OW19651   4.117   5.999   6.501
 6251SOL    HW119652   4.198   6.055   6.522
 6251SOL    HW219653   4.107   5.928   6.570
 6252SOL     OW19654   2.101   6.006   5.454
 6252SOL    HW119655   2.023   5.967   5.503
 6252SOL    HW219656   2.116   6.100   5.485
 6253SOL     OW19657   2.347   4.391   3.738
 6253SOL    HW119658   2.350   4.401   3.838
 6253SOL    HW219659   2.374   4.477   3.695
 6254SOL     OW19660   5.502   1.150   1.220
 6254SOL    HW119661   5.558   1.071   1.194
 6254SOL    HW219662   5.517   1.224   1.155
 6255SOL     OW19663   3.164   0.713   0.862
 6255SOL    HW119664   3.106   0.701   0.781
 6255SOL    HW219665   3.221   0.794   0.850
 6256SOL     OW19666   3.551   5.585   1.690
 6256SOL    HW119667   3.644   5.567   1.721
 6256SOL    HW219668   3.494   5.608   1.770
 6257SOL     OW19669   5.052   1.927   0.905
 6257SOL    HW119670   4.982   1.982   0.950
 6257SOL    HW219671   5.089   1.977   0.826
 6258SOL     OW19672   3.543   0.742   3.587
 6258SOL    HW119673   3.521   0.718   3.492
 6258SOL    HW219674   3.518   0.837   3.603
 6259SOL     OW19675   2.047   2.341   6.855
 6259SOL    HW119676   2.135   2.309   6.892
 6259SOL    HW219677   2.063   2.387   6.768
 6260SOL     OW19678   3.583   5.582   0.269
 6260SOL    HW119679   3.492   5.573   0.309
 6260SOL    HW219680   3.608   5.679   0.263
 6261SOL     OW19681   3.899   1.387   6.863
 6261SOL    HW119682   3.976   1.450   6.865
 6261SOL    HW219683   3.815   1.437   6.847
 6262SOL     OW19684   2.560   6.365   1.650
 6262SOL    HW119685   2.531   6.278   1.691
 6262SOL    HW219686   2.561   6.436   1.719
 6263SOL     OW19687   6.747   1.158   5.039
 6263SOL    HW119688   6.818   1.174   5.108
 6263SOL    HW219689   6.786   1.107   4.962
 6264SOL     OW19690   1.427   0.312   1.887
 6264SOL    HW119691   1.360   0.243   1.915
 6264SOL    HW219692   1.488   0.273   1.817
 6265SOL     OW19693   4.073   3.262   0.048
 6265SOL    HW119694   4.082   3.243   6.969
 6265SOL    HW219695   4.163   3.278   0.088
 6266SOL     OW19696   4.045   0.781   4.019
 6266SOL    HW119697   4.125   0.725   3.996
 6266SOL    HW219698   4.065   0.834   4.101
 6267SOL     OW19699   2.393   6.777   6.316
 6267SOL    HW119700   2.300   6.782   6.281
 6267SOL    HW219701   2.391   6.778   6.416
 6268SOL     OW19702   2.398   0.203   3.011
 6268SOL    HW119703   2.379   0.106   3.027
 6268SOL    HW219704   2.424   0.216   2.915
 6269SOL     OW19705   0.116   6.609   1.650
 6269SOL    HW119706   0.062   6.683   1.610
 6269SOL    HW219707   0.211   6.638   1.658
 6270SOL     OW19708   1.468   6.961   6.112
 6270SOL    HW119709   1.524   6.929   6.035
 6270SOL    HW219710   1.379   6.916   6.109
 6271SOL     OW19711   6.345   2.412   6.554
 6271SOL    HW119712   6.378   2.471   6.480
 6271SOL    HW219713   6.253   2.440   6.580
 6272SOL     OW19714   0.203   2.813   0.143
 6272SOL    HW119715   0.243   2.767   0.222
 6272SOL    HW219716   0.110   2.841   0.165
 6273SOL     OW19717   0.686   6.096   2.641
 6273SOL    HW119718   0.680   6.195   2.647
 6273SOL    HW219719   0.684   6.068   2.544
 6274SOL     OW19720   3.416   5.897   5.702
 6274SOL    HW119721   3.504   5.926   5.740
 6274SOL    HW219722   3.342   5.921   5.765
 6275SOL     OW19723   2.604   6.457   6.418
 6275SOL    HW119724   2.537   6.463   6.344
 6275SOL    HW219725   2.582   6.524   6.489
 6276SOL     OW19726   1.668   3.940   3.788
 6276SOL    HW119727   1.629   3.971   3.701
 6276SOL    HW219728   1.603   3.957   3.862
 6277SOL     OW19729   5.350   3.344   1.755
 6277SOL    HW119730   5.343   3.444   1.764
 6277SOL    HW219731   5.352   3.303   1.847
 6278SOL     OW19732   4.921   6.464   5.034
 6278SOL    HW119733   4.849   6.432   5.096
 6278SOL    HW219734   4.892   6.449   4.940
 6279SOL     OW19735   3.661   6.639   6.817
 6279SOL    HW119736   3.604   6.670   6.741
 6279SOL    HW219737   3.611   6.571   6.871
 6280SOL     OW19738   0.987   2.330   4.823
 6280SOL    HW119739   0.935   2.247   4.800
 6280SOL    HW219740   0.975   2.398   4.750
 6281SOL     OW19741   0.730   4.902   4.139
 6281SOL    HW119742   0.827   4.908   4.163
 6281SOL    HW219743   0.675   4.946   4.210
 6282SOL     OW19744   0.816   5.692   5.731
 6282SOL    HW119745   0.757   5.772   5.717
 6282SOL    HW219746   0.900   5.720   5.776
 6283SOL     OW19747   6.636   3.253   5.071
 6283SOL    HW119748   6.704   3.322   5.095
 6283SOL    HW219749   6.655   3.169   5.122
 6284SOL     OW19750   0.952   5.429   4.830
 6284SOL    HW119751   0.989   5.378   4.908
 6284SOL    HW219752   1.021   5.493   4.797
 6285SOL     OW19753   0.248   4.075   5.239
 6285SOL    HW119754   0.307   4.009   5.286
 6285SOL    HW219755   0.300   4.159   5.222
 6286SOL     OW19756   5.864   1.693   4.117
 6286SOL    HW119757   5.875   1.784   4.076
 6286SOL    HW219758   5.819   1.702   4.206
 6287SOL     OW19759   3.519   4.996   4.823
 6287SOL    HW119760   3.519   5.083   4.871
 6287SOL    HW219761   3.477   4.926   4.881
 6288SOL     OW19762   4.955   4.402   2.587
 6288SOL    HW119763   4.900   4.319   2.577
 6288SOL    HW219764   4.962   4.449   2.499
 6289SOL     OW19765   1.595   5.025   1.206
 6289SOL    HW119766   1.590   5.087   1.128
 6289SOL    HW219767   1.594   4.930   1.173
 6290SOL     OW19768   6.560   5.441   5.684
 6290SOL    HW119769   6.495   5.384   5.633
 6290SOL    HW219770   6.645   5.451   5.631
 6291SOL     OW19771   4.112   3.323   4.500
 6291SOL    HW119772   4.156   3.372   4.576
 6291SOL    HW219773   4.129   3.225   4.510
 6292SOL     OW19774   1.301   2.076   4.847
 6292SOL    HW119775   1.282   2.174   4.845
 6292SOL    HW219776   1.240   2.029   4.783
 6293SOL     OW19777   3.363   0.906   0.673
 6293SOL    HW119778   3.312   0.883   0.590
 6293SOL    HW219779   3.323   0.987   0.715
 6294SOL     OW19780   3.561   6.861   4.109
 6294SOL    HW119781   3.503   6.826   4.035
 6294SOL    HW219782   3.503   6.901   4.180
 6295SOL     OW19783   5.588   4.449   5.851
 6295SOL    HW119784   5.519   4.440   5.779
 6295SOL    HW219785   5.549   4.423   5.939
 6296SOL     OW19786   0.864   6.376   5.985
 6296SOL    HW119787   0.812   6.461   5.974
 6296SOL    HW219788   0.836   6.311   5.915
 6297SOL     OW19789   5.500   1.267   3.932
 6297SOL    HW119790   5.484   1.257   3.834
 6297SOL    HW219791   5.586   1.315   3.948
 6298SOL     OW19792   1.911   2.491   0.072
 6298SOL    HW119793   1.914   2.432   7.010
 6298SOL    HW219794   1.816   2.505   0.099
 6299SOL     OW19795   5.820   1.901   0.629
 6299SOL    HW119796   5.764   1.984   0.632
 6299SOL    HW219797   5.760   1.822   0.613
 6300SOL     OW19798   6.705   0.561   0.340
 6300SOL    HW119799   6.608   0.575   0.362
 6300SOL    HW219800   6.711   0.510   0.254
 6301SOL     OW19801   3.882   6.545   0.044
 6301SOL    HW119802   3.804   6.487   0.065
 6301SOL    HW219803   3.955   6.490   0.004
 6302SOL     OW19804   1.590   0.284   3.206
 6302SOL    HW119805   1.534   0.213   3.162
 6302SOL    HW219806   1.532   0.342   3.263
 6303SOL     OW19807   2.014   1.368   3.718
 6303SOL    HW119808   2.024   1.269   3.727
 6303SOL    HW219809   1.931   1.397   3.765
 6304SOL     OW19810   2.402   0.764   1.294
 6304SOL    HW119811   2.335   0.690   1.294
 6304SOL    HW219812   2.433   0.781   1.388
 6305SOL     OW19813   6.195   6.949   0.841
 6305SOL    HW119814   6.193   7.005   0.759
 6305SOL    HW219815   6.106   6.953   0.887
 6306SOL     OW19816   0.436   3.941   3.837
 6306SOL    HW119817   0.479   3.854   3.859
 6306SOL    HW219818   0.425   3.948   3.737
 6307SOL     OW19819   3.334   4.022   5.322
 6307SOL    HW119820   3.279   3.996   5.401
 6307SOL    HW219821   3.277   4.023   5.240
 6308SOL     OW19822   2.273   1.984   4.528
 6308SOL    HW119823   2.367   1.977   4.496
 6308SOL    HW219824   2.249   2.081   4.538
 6309SOL     OW19825   5.992   4.395   4.932
 6309SOL    HW119826   6.045   4.471   4.969
 6309SOL    HW219827   6.008   4.313   4.987
 6310SOL     OW19828   2.139   5.974   2.521
 6310SOL    HW119829   2.108   5.924   2.602
 6310SOL    HW219830   2.222   6.026   2.543
 6311SOL     OW19831   5.244   1.163   6.012
 6311SOL    HW119832   5.248   1.226   6.089
 6311SOL    HW219833   5.292   1.204   5.934
 6312SOL     OW19834   6.440   5.817   5.193
 6312SOL    HW119835   6.526   5.829   5.142
 6312SOL    HW219836   6.451   5.742   5.258
 6313SOL     OW19837   6.864   5.988   4.973
 6313SOL    HW119838   6.926   6.067   4.973
 6313SOL    HW219839   6.914   5.906   4.948
 6314SOL     OW19840   3.572   6.746   1.512
 6314SOL    HW119841   3.496   6.765   1.575
 6314SOL    HW219842   3.588   6.827   1.455
 6315SOL     OW19843   2.022   2.676   5.346
 6315SOL    HW119844   2.101   2.703   5.292
 6315SOL    HW219845   1.939   2.709   5.302
 6316SOL     OW19846   5.225   1.950   0.190
 6316SOL    HW119847   5.135   1.965   0.231
 6316SOL    HW219848   5.222   1.974   0.093
 6317SOL     OW19849   4.543   5.272   1.675
 6317SOL    HW119850   4.550   5.175   1.696
 6317SOL    HW219851   4.567   5.326   1.757
 6318SOL     OW19852   3.487   1.088   5.825
 6318SOL    HW119853   3.403   1.044   5.791
 6318SOL    HW219854   3.463   1.153   5.897
 6319SOL     OW19855   6.259   1.686   4.613
 6319SOL    HW119856   6.242   1.756   4.543
 6319SOL    HW219857   6.183   1.620   4.613
 6320SOL     OW19858   6.095   6.353   5.503
 6320SOL    HW119859   6.004   6.390   5.522
 6320SOL    HW219860   6.098   6.314   5.411
 6321SOL     OW19861   4.212   3.627   0.831
 6321SOL    HW119862   4.185   3.716   0.867
 6321SOL    HW219863   4.234   3.636   0.734
 6322SOL     OW19864   2.164   2.077   1.018
 6322SOL    HW119865   2.074   2.041   0.994
 6322SOL    HW219866   2.233   2.036   0.960
 6323SOL     OW19867   3.071   2.788   1.723
 6323SOL    HW119868   2.996   2.765   1.785
 6323SOL    HW219869   3.083   2.715   1.655
 6324SOL     OW19870   5.523   0.296   0.267
 6324SOL    HW119871   5.509   0.394   0.281
 6324SOL    HW219872   5.465   0.245   0.331
 6325SOL     OW19873   1.719   2.673   2.565
 6325SOL    HW119874   1.657   2.688   2.642
 6325SOL    HW219875   1.687   2.595   2.511
 6326SOL     OW19876   4.762   5.091   1.515
 6326SOL    HW119877   4.681   5.033   1.501
 6326SOL    HW219878   4.800   5.075   1.605
 6327SOL     OW19879   0.019   0.771   5.041
 6327SOL    HW119880   0.015   0.853   5.097
 6327SOL    HW219881   6.955   0.766   4.984
 6328SOL     OW19882   3.165   3.405   0.300
 6328SOL    HW119883   3.118   3.456   0.371
 6328SOL    HW219884   3.231   3.342   0.341
 6329SOL     OW19885   2.405   2.196   3.060
 6329SOL    HW119886   2.479   2.211   2.994
 6329SOL    HW219887   2.408   2.102   3.093
 6330SOL     OW19888   5.049   0.430   1.298
 6330SOL    HW119889   5.067   0.337   1.332
 6330SOL    HW219890   5.113   0.494   1.342
 6331SOL     OW19891   6.407   2.595   5.523
 6331SOL    HW119892   6.464   2.514   5.537
 6331SOL    HW219893   6.345   2.606   5.600
 6332SOL     OW19894   0.528   3.415   0.650
 6332SOL    HW119895   0.441   3.368   0.640
 6332SOL    HW219896   0.514   3.513   0.642
 6333SOL     OW19897   4.167   5.309   4.895
 6333SOL    HW119898   4.242   5.371   4.870
 6333SOL    HW219899   4.186   5.218   4.857
 6334SOL     OW19900   2.724   0.746   2.393
 6334SOL    HW119901   2.794   0.777   2.456
 6334SOL    HW219902   2.738   0.787   2.303
 6335SOL     OW19903   3.372   0.505   0.358
 6335SOL    HW119904   3.348   0.594   0.320
 6335SOL    HW219905   3.325   0.491   0.445
 6336SOL     OW19906   0.994   2.333   6.045
 6336SOL    HW119907   1.073   2.278   6.073
 6336SOL    HW219908   1.018   2.430   6.049
 6337SOL     OW19909   4.846   4.794   5.713
 6337SOL    HW119910   4.944   4.774   5.712
 6337SOL    HW219911   4.828   4.869   5.777
 6338SOL     OW19912   3.312   1.718   4.168
 6338SOL    HW119913   3.322   1.706   4.069
 6338SOL    HW219914   3.398   1.693   4.212
 6339SOL     OW19915   0.975   3.731   3.644
 6339SOL    HW119916   1.045   3.801   3.658
 6339SOL    HW219917   0.996   3.681   3.559
 6340SOL     OW19918   2.221   5.025   2.402
 6340SOL    HW119919   2.144   5.051   2.344
 6340SOL    HW219920   2.303   5.074   2.372
 6341SOL     OW19921   0.163   4.350   4.729
 6341SOL    HW119922   0.240   4.333   4.791
 6341SOL    HW219923   0.193   4.408   4.653
 6342SOL     OW19924   1.819   1.071   2.108
 6342SOL    HW119925   1.820   1.063   2.208
 6342SOL    HW219926   1.909   1.047   2.072
 6343SOL     OW19927   4.731   2.102   6.840
 6343SOL    HW119928   4.770   2.193   6.859
 6343SOL    HW219929   4.775   2.064   6.759
 6344SOL     OW19930   5.011   2.560   4.202
 6344SOL    HW119931   4.964   2.586   4.118
 6344SOL    HW219932   5.086   2.624   4.220
 6345SOL     OW19933   6.017   2.785   2.422
 6345SOL    HW119934   6.073   2.804   2.342
 6345SOL    HW219935   6.025   2.861   2.487
 6346SOL     OW19936   6.696   5.281   3.914
 6346SOL    HW119937   6.659   5.332   3.836
 6346SOL    HW219938   6.665   5.186   3.910
 6347SOL     OW19939   2.056   0.528   0.551
 6347SOL    HW119940   2.141   0.499   0.595
 6347SOL    HW219941   1.983   0.531   0.619
 6348SOL     OW19942   1.333   3.318   5.536
 6348SOL    HW119943   1.276   3.278   5.608
 6348SOL    HW219944   1.414   3.360   5.578
 6349SOL     OW19945   2.185   0.582   1.288
 6349SOL    HW119946   2.154   0.612   1.198
 6349SOL    HW219947   2.243   0.501   1.278
 6350SOL     OW19948   0.590   5.055   4.318
 6350SOL    HW119949   0.514   5.032   4.378
 6350SOL    HW219950   0.558   5.119   4.248
 6351SOL     OW19951   6.520   3.865   3.949
 6351SOL    HW119952   6.421   3.853   3.950
 6351SOL    HW219953   6.562   3.797   4.009
 6352SOL     OW19954   3.841   5.931   4.992
 6352SOL    HW119955   3.743   5.950   4.988
 6352SOL    HW219956   3.872   5.895   4.904
 6353SOL     OW19957   0.906   6.676   6.311
 6353SOL    HW119958   0.904   6.681   6.211
 6353SOL    HW219959   0.889   6.767   6.349
 6354SOL     OW19960   2.399   5.749   2.590
 6354SOL    HW119961   2.421   5.718   2.682
 6354SOL    HW219962   2.352   5.676   2.541
 6355SOL     OW19963   0.933   5.504   0.269
 6355SOL    HW119964   0.968   5.578   0.327
 6355SOL    HW219965   0.880   5.543   0.194
 6356SOL     OW19966   5.129   6.147   1.786
 6356SOL    HW119967   5.148   6.117   1.880
 6356SOL    HW219968   5.185   6.227   1.765
 6357SOL     OW19969   6.201   3.464   2.381
 6357SOL    HW119970   6.280   3.432   2.435
 6357SOL    HW219971   6.118   3.458   2.437
 6358SOL     OW19972   0.586   2.327   6.410
 6358SOL    HW119973   0.576   2.346   6.313
 6358SOL    HW219974   0.677   2.289   6.428
 6359SOL     OW19975   6.196   0.170   6.639
 6359SOL    HW119976   6.181   0.235   6.714
 6359SOL    HW219977   6.108   0.143   6.600
 6360SOL     OW19978   1.488   4.578   4.220
 6360SOL    HW119979   1.530   4.493   4.188
 6360SOL    HW219980   1.463   4.569   4.316
 6361SOL     OW19981   1.198   6.739   1.907
 6361SOL    HW119982   1.230   6.646   1.889
 6361SOL    HW219983   1.276   6.800   1.918
 6362SOL     OW19984   6.768   6.307   6.981
 6362SOL    HW119985   6.705   6.384   6.968
 6362SOL    HW219986   6.858   6.342   7.009
 6363SOL     OW19987   1.647   5.165   3.794
 6363SOL    HW119988   1.654   5.240   3.860
 6363SOL    HW219989   1.621   5.081   3.841
 6364SOL     OW19990   2.878   1.382   6.027
 6364SOL    HW119991   2.787   1.351   5.998
 6364SOL    HW219992   2.872   1.477   6.058
 6365SOL     OW19993   5.698   0.140   3.558
 6365SOL    HW119994   5.742   0.229   3.566
 6365SOL    HW219995   5.688   0.115   3.462
 6366SOL     OW19996   1.175   5.989   6.210
 6366SOL    HW119997   1.180   6.024   6.116
 6366SOL    HW219998   1.218   5.900   6.216
 6367SOL     OW19999   3.817   1.375   4.864
 6367SOL    HW120000   3.881   1.303   4.891
 6367SOL    HW220001   3.733   1.368   4.919
 6368SOL     OW20002   3.903   4.927   3.648
 6368SOL    HW120003   3.954   4.860   3.594
 6368SOL    HW220004   3.898   4.897   3.743
 6369SOL     OW20005   2.141   5.833   3.968
 6369SOL    HW120006   2.051   5.864   3.998
 6369SOL    HW220007   2.207   5.845   4.042
 6370SOL     OW20008   0.123   3.419   3.873
 6370SOL    HW120009   0.088   3.343   3.818
 6370SOL    HW220010   0.121   3.503   3.819
 6371SOL     OW20011   4.959   4.634   3.292
 6371SOL    HW120012   4.954   4.733   3.302
 6371SOL    HW220013   5.045   4.601   3.331
 6372SOL     OW20014   2.007   0.647   2.183
 6372SOL    HW120015   2.005   0.566   2.125
 6372SOL    HW220016   2.102   0.674   2.199
 6373SOL     OW20017   4.832   3.919   2.282
 6373SOL    HW120018   4.857   4.012   2.255
 6373SOL    HW220019   4.797   3.869   2.202
 6374SOL     OW20020   3.597   4.014   3.102
 6374SOL    HW120021   3.631   4.077   3.032
 6374SOL    HW220022   3.640   3.924   3.089
 6375SOL     OW20023   6.829   1.816   3.672
 6375SOL    HW120024   6.771   1.818   3.753
 6375SOL    HW220025   6.891   1.737   3.677
 6376SOL     OW20026   5.772   2.153   5.060
 6376SOL    HW120027   5.732   2.130   4.971
 6376SOL    HW220028   5.851   2.212   5.046
 6377SOL     OW20029   6.954   1.962   5.694
 6377SOL    HW120030   6.986   1.950   5.600
 6377SOL    HW220031   6.959   1.875   5.742
 6378SOL     OW20032   4.444   4.836   4.082
 6378SOL    HW120033   4.529   4.824   4.134
 6378SOL    HW220034   4.418   4.932   4.082
 6379SOL     OW20035   1.516   3.881   4.542
 6379SOL    HW120036   1.603   3.914   4.504
 6379SOL    HW220037   1.446   3.951   4.530
 6380SOL     OW20038   0.156   1.619   5.603
 6380SOL    HW120039   0.174   1.703   5.552
 6380SOL    HW220040   0.085   1.567   5.556
 6381SOL     OW20041   4.051   3.047   1.694
 6381SOL    HW120042   4.021   2.953   1.678
 6381SOL    HW220043   4.149   3.053   1.681
 6382SOL     OW20044   2.518   2.086   0.775
 6382SOL    HW120045   2.568   2.067   0.859
 6382SOL    HW220046   2.581   2.080   0.697
 6383SOL     OW20047   1.499   2.680   2.768
 6383SOL    HW120048   1.566   2.667   2.840
 6383SOL    HW220049   1.446   2.596   2.756
 6384SOL     OW20050   6.736   4.202   2.449
 6384SOL    HW120051   6.822   4.154   2.430
 6384SOL    HW220052   6.666   4.172   2.384
 6385SOL     OW20053   0.232   4.298   3.878
 6385SOL    HW120054   0.145   4.339   3.853
 6385SOL    HW220055   0.216   4.210   3.922
 6386SOL     OW20056   2.570   5.059   5.742
 6386SOL    HW120057   2.516   5.139   5.714
 6386SOL    HW220058   2.509   4.991   5.783
 6387SOL     OW20059   0.131   1.491   6.435
 6387SOL    HW120060   0.200   1.564   6.442
 6387SOL    HW220061   0.167   1.407   6.474
 6388SOL     OW20062   3.772   6.068   2.029
 6388SOL    HW120063   3.770   6.158   1.985
 6388SOL    HW220064   3.756   6.078   2.127
 6389SOL     OW20065   0.191   5.565   2.246
 6389SOL    HW120066   0.145   5.653   2.255
 6389SOL    HW220067   0.290   5.578   2.252
 6390SOL     OW20068   0.746   0.814   6.030
 6390SOL    HW120069   0.701   0.732   5.994
 6390SOL    HW220070   0.836   0.790   6.065
 6391SOL     OW20071   2.891   6.879   5.843
 6391SOL    HW120072   2.909   6.851   5.938
 6391SOL    HW220073   2.821   6.950   5.842
 6392SOL     OW20074   2.830   5.710   2.677
 6392SOL    HW120075   2.807   5.620   2.714
 6392SOL    HW220076   2.890   5.758   2.741
 6393SOL     OW20077   0.014   6.956   2.319
 6393SOL    HW120078   0.113   6.960   2.329
 6393SOL    HW220079   7.003   0.002   2.248
 6394SOL     OW20080   1.711   5.096   0.732
 6394SOL    HW120081   1.722   5.003   0.698
 6394SOL    HW220082   1.732   5.161   0.659
 6395SOL     OW20083   0.674   2.490   1.040
 6395SOL    HW120084   0.648   2.576   1.083
 6395SOL    HW220085   0.682   2.419   1.110
 6396SOL     OW20086   4.827   3.388   6.776
 6396SOL    HW120087   4.853   3.415   6.868
 6396SOL    HW220088   4.732   3.415   6.758
 6397SOL     OW20089   5.442   1.742   1.012
 6397SOL    HW120090   5.426   1.693   0.927
 6397SOL    HW220091   5.460   1.839   0.993
 6398SOL     OW20092   2.503   6.900   1.960
 6398SOL    HW120093   2.422   6.889   1.903
 6398SOL    HW220094   2.580   6.931   1.903
 6399SOL     OW20095   1.805   6.282   6.524
 6399SOL    HW120096   1.713   6.290   6.485
 6399SOL    HW220097   1.848   6.372   6.525
 6400SOL     OW20098   2.716   6.073   2.168
 6400SOL    HW120099   2.810   6.106   2.158
 6400SOL    HW220100   2.661   6.143   2.214
 6401SOL     OW20101   5.476   5.263   3.163
 6401SOL    HW120102   5.554   5.233   3.109
 6401SOL    HW220103   5.500   5.348   3.212
 6402SOL     OW20104   3.448   2.026   3.145
 6402SOL    HW120105   3.358   2.068   3.134
 6402SOL    HW220106   3.508   2.057   3.070
 6403SOL     OW20107   0.123   6.284   6.925
 6403SOL    HW120108   0.205   6.311   6.875
 6403SOL    HW220109   0.062   6.233   6.864
 6404SOL     OW20110   4.532   0.835   2.492
 6404SOL    HW120111   4.523   0.914   2.433
 6404SOL    HW220112   4.443   0.790   2.502
 6405SOL     OW20113   3.137   0.397   3.873
 6405SOL    HW120114   3.177   0.385   3.782
 6405SOL    HW220115   3.141   0.494   3.899
 6406SOL     OW20116   0.847   2.966   2.883
 6406SOL    HW120117   0.816   2.959   2.978
 6406SOL    HW220118   0.903   2.886   2.860
 6407SOL     OW20119   2.640   6.137   4.130
 6407SOL    HW120120   2.697   6.147   4.048
 6407SOL    HW220121   2.699   6.115   4.208
 6408SOL     OW20122   5.624   1.596   6.855
 6408SOL    HW120123   5.593   1.680   6.899
 6408SOL    HW220124   5.700   1.556   6.906
 6409SOL     OW20125   6.955   4.256   3.537
 6409SOL    HW120126   6.904   4.261   3.623
 6409SOL    HW220127   6.947   4.164   3.499
 6410SOL     OW20128   1.775   1.375   6.803
 6410SOL    HW120129   1.768   1.279   6.775
 6410SOL    HW220130   1.684   1.417   6.800
 6411SOL     OW20131   0.903   3.338   3.154
 6411SOL    HW120132   0.942   3.254   3.194
 6411SOL    HW220133   0.883   3.322   3.057
 6412SOL     OW20134   0.844   2.118   4.746
 6412SOL    HW120135   0.776   2.174   4.698
 6412SOL    HW220136   0.797   2.042   4.791
 6413SOL     OW20137   3.921   4.851   3.915
 6413SOL    HW120138   3.999   4.792   3.934
 6413SOL    HW220139   3.856   4.847   3.992
 6414SOL     OW20140   5.389   0.854   0.530
 6414SOL    HW120141   5.375   0.763   0.569
 6414SOL    HW220142   5.484   0.882   0.542
 6415SOL     OW20143   1.840   3.598   2.901
 6415SOL    HW120144   1.866   3.591   2.997
 6415SOL    HW220145   1.798   3.512   2.872
 6416SOL     OW20146   0.763   1.400   7.013
 6416SOL    HW120147   0.802   1.308   7.007
 6416SOL    HW220148   0.831   1.462   0.034
 6417SOL     OW20149   6.357   5.005   0.915
 6417SOL    HW120150   6.265   5.036   0.940
 6417SOL    HW220151   6.408   5.080   0.874
 6418SOL     OW20152   4.909   3.656   1.992
 6418SOL    HW120153   4.852   3.738   1.993
 6418SOL    HW220154   4.866   3.586   1.936
 6419SOL     OW20155   2.236   4.579   3.380
 6419SOL    HW120156   2.161   4.550   3.321
 6419SOL    HW220157   2.308   4.620   3.324
 6420SOL     OW20158   3.183   5.606   4.732
 6420SOL    HW120159   3.232   5.538   4.786
 6420SOL    HW220160   3.247   5.675   4.698
 6421SOL     OW20161   5.146   0.428   2.644
 6421SOL    HW120162   5.120   0.442   2.739
 6421SOL    HW220163   5.065   0.403   2.591
 6422SOL     OW20164   0.036   1.043   4.218
 6422SOL    HW120165   0.109   0.986   4.255
 6422SOL    HW220166   6.966   1.014   4.256
 6423SOL     OW20167   4.864   5.406   2.871
 6423SOL    HW120168   4.956   5.440   2.851
 6423SOL    HW220169   4.818   5.380   2.785
 6424SOL     OW20170   6.871   5.686   6.347
 6424SOL    HW120171   6.775   5.696   6.371
 6424SOL    HW220172   6.882   5.608   6.285
 6425SOL     OW20173   6.433   6.466   2.815
 6425SOL    HW120174   6.445   6.432   2.908
 6425SOL    HW220175   6.339   6.448   2.784
 6426SOL     OW20176   1.612   5.090   2.677
 6426SOL    HW120177   1.568   5.177   2.657
 6426SOL    HW220178   1.604   5.029   2.598
 6427SOL     OW20179   3.767   3.648   4.735
 6427SOL    HW120180   3.696   3.716   4.753
 6427SOL    HW220181   3.727   3.556   4.741
 6428SOL     OW20182   5.631   3.334   6.097
 6428SOL    HW120183   5.700   3.394   6.137
 6428SOL    HW220184   5.676   3.257   6.052
 6429SOL     OW20185   1.568   1.744   5.843
 6429SOL    HW120186   1.582   1.726   5.941
 6429SOL    HW220187   1.590   1.661   5.791
 6430SOL     OW20188   6.454   1.042   2.634
 6430SOL    HW120189   6.489   1.042   2.728
 6430SOL    HW220190   6.518   0.993   2.575
 6431SOL     OW20191   5.335   6.435   3.960
 6431SOL    HW120192   5.298   6.515   3.915
 6431SOL    HW220193   5.397   6.463   4.033
 6432SOL     OW20194   4.308   4.620   6.184
 6432SOL    HW120195   4.349   4.583   6.101
 6432SOL    HW220196   4.361   4.699   6.215
 6433SOL     OW20197   2.136   5.112   6.596
 6433SOL    HW120198   2.135   5.034   6.659
 6433SOL    HW220199   2.046   5.157   6.598
 6434SOL     OW20200   2.224   4.319   6.842
 6434SOL    HW120201   2.236   4.369   6.927
 6434SOL    HW220202   2.305   4.263   6.824
 6435SOL     OW20203   4.568   7.007   0.510
 6435SOL    HW120204   4.643   6.962   0.559
 6435SOL    HW220205   4.520   0.049   0.573
 6436SOL     OW20206   1.834   2.921   2.986
 6436SOL    HW120207   1.809   3.000   2.931
 6436SOL    HW220208   1.761   2.853   2.981
 6437SOL     OW20209   2.092   1.394   0.473
 6437SOL    HW120210   2.004   1.371   0.513
 6437SOL    HW220211   2.134   1.469   0.524
 6438SOL     OW20212   6.219   4.596   5.932
 6438SOL    HW120213   6.245   4.686   5.967
 6438SOL    HW220214   6.214   4.532   6.008
 6439SOL     OW20215   5.668   1.012   1.845
 6439SOL    HW120216   5.609   0.936   1.871
 6439SOL    HW220217   5.658   1.087   1.911
 6440SOL     OW20218   2.114   1.284   5.620
 6440SOL    HW120219   2.037   1.234   5.581
 6440SOL    HW220220   2.089   1.380   5.633
 6441SOL     OW20221   0.045   6.724   2.191
 6441SOL    HW120222   0.056   6.743   2.094
 6441SOL    HW220223   0.036   6.810   2.241
 6442SOL     OW20224   2.285   0.920   4.159
 6442SOL    HW120225   2.203   0.976   4.158
 6442SOL    HW220226   2.263   0.829   4.192
 6443SOL     OW20227   4.114   2.216   5.763
 6443SOL    HW120228   4.032   2.158   5.766
 6443SOL    HW220229   4.190   2.169   5.808
 6444SOL     OW20230   5.805   2.672   4.130
 6444SOL    HW120231   5.842   2.761   4.104
 6444SOL    HW220232   5.753   2.681   4.215
 6445SOL     OW20233   4.026   3.490   5.037
 6445SOL    HW120234   4.016   3.571   4.980
 6445SOL    HW220235   4.095   3.506   5.108
 6446SOL     OW20236   1.537   1.456   6.406
 6446SOL    HW120237   1.577   1.530   6.460
 6446SOL    HW220238   1.598   1.433   6.330
 6447SOL     OW20239   5.497   5.047   2.823
 6447SOL    HW120240   5.556   5.103   2.882
 6447SOL    HW220241   5.440   4.987   2.880
 6448SOL     OW20242   3.976   5.820   1.935
 6448SOL    HW120243   4.025   5.822   1.848
 6448SOL    HW220244   3.883   5.855   1.922
 6449SOL     OW20245   3.515   5.497   0.755
 6449SOL    HW120246   3.507   5.566   0.683
 6449SOL    HW220247   3.447   5.426   0.740
 6450SOL     OW20248   0.437   3.945   0.813
 6450SOL    HW120249   0.432   4.008   0.736
 6450SOL    HW220250   0.477   3.992   0.892
 6451SOL     OW20251   2.169   0.757   4.496
 6451SOL    HW120252   2.216   0.707   4.423
 6451SOL    HW220253   2.090   0.704   4.527
 6452SOL     OW20254   4.169   5.864   4.058
 6452SOL    HW120255   4.221   5.945   4.033
 6452SOL    HW220256   4.100   5.846   3.988
 6453SOL     OW20257   2.228   6.414   1.284
 6453SOL    HW120258   2.278   6.476   1.225
 6453SOL    HW220259   2.132   6.411   1.256
 6454SOL     OW20260   1.895   2.068   3.142
 6454SOL    HW120261   1.899   2.166   3.162
 6454SOL    HW220262   1.860   2.054   3.050
 6455SOL     OW20263   0.080   3.145   3.800
 6455SOL    HW120264   7.003   3.117   3.792
 6455SOL    HW220265   0.113   3.126   3.892
 6456SOL     OW20266   0.864   0.983   3.867
 6456SOL    HW120267   0.880   0.903   3.925
 6456SOL    HW220268   0.857   0.954   3.772
 6457SOL     OW20269   4.746   1.727   0.758
 6457SOL    HW120270   4.702   1.816   0.767
 6457SOL    HW220271   4.676   1.656   0.750
 6458SOL     OW20272   0.985   6.592   4.000
 6458SOL    HW120273   0.997   6.560   4.094
 6458SOL    HW220274   0.899   6.556   3.963
 6459SOL     OW20275   6.325   3.194   1.139
 6459SOL    HW120276   6.243   3.154   1.099
 6459SOL    HW220277   6.405   3.138   1.113
 6460SOL     OW20278   5.882   6.108   5.486
 6460SOL    HW120279   5.820   6.125   5.409
 6460SOL    HW220280   5.893   6.192   5.539
 6461SOL     OW20281   2.451   4.719   5.647
 6461SOL    HW120282   2.533   4.709   5.591
 6461SOL    HW220283   2.464   4.792   5.714
 6462SOL     OW20284   2.471   2.638   4.402
 6462SOL    HW120285   2.406   2.648   4.327
 6462SOL    HW220286   2.437   2.686   4.483
 6463SOL     OW20287   6.091   3.404   6.506
 6463SOL    HW120288   6.017   3.437   6.448
 6463SOL    HW220289   6.054   3.368   6.591
 6464SOL     OW20290   0.812   5.643   4.703
 6464SOL    HW120291   0.735   5.704   4.725
 6464SOL    HW220292   0.824   5.577   4.777
 6465SOL     OW20293   0.079   3.123   2.675
 6465SOL    HW120294   0.082   3.098   2.771
 6465SOL    HW220295   0.172   3.127   2.638
 6466SOL     OW20296   1.450   1.272   6.149
 6466SOL    HW120297   1.380   1.343   6.153
 6466SOL    HW220298   1.444   1.214   6.231
 6467SOL     OW20299   3.374   1.451   0.207
 6467SOL    HW120300   3.291   1.485   0.253
 6467SOL    HW220301   3.439   1.526   0.197
 6468SOL     OW20302   3.373   6.255   0.179
 6468SOL    HW120303   3.399   6.237   0.274
 6468SOL    HW220304   3.432   6.326   0.141
 6469SOL     OW20305   5.092   0.910   4.552
 6469SOL    HW120306   5.016   0.929   4.614
 6469SOL    HW220307   5.174   0.888   4.606
 6470SOL     OW20308   6.366   3.450   0.477
 6470SOL    HW120309   6.395   3.540   0.509
 6470SOL    HW220310   6.399   3.436   0.383
 6471SOL     OW20311   6.717   6.500   5.805
 6471SOL    HW120312   6.803   6.509   5.754
 6471SOL    HW220313   6.695   6.587   5.849
 6472SOL     OW20314   0.420   5.822   1.423
 6472SOL    HW120315   0.461   5.910   1.445
 6472SOL    HW220316   0.363   5.792   1.499
 6473SOL     OW20317   3.230   1.024   4.686
 6473SOL    HW120318   3.325   0.993   4.692
 6473SOL    HW220319   3.225   1.102   4.623
 6474SOL     OW20320   2.498   4.418   6.100
 6474SOL    HW120321   2.441   4.406   6.018
 6474SOL    HW220322   2.441   4.451   6.175
 6475SOL     OW20323   5.841   5.187   3.693
 6475SOL    HW120324   5.865   5.266   3.750
 6475SOL    HW220325   5.869   5.103   3.741
 6476SOL     OW20326   4.116   3.065   1.309
 6476SOL    HW120327   4.088   3.124   1.233
 6476SOL    HW220328   4.185   3.000   1.278
 6477SOL     OW20329   6.264   4.656   1.236
 6477SOL    HW120330   6.209   4.573   1.232
 6477SOL    HW220331   6.308   4.672   1.148
 6478SOL     OW20332   3.748   0.604   1.759
 6478SOL    HW120333   3.676   0.657   1.713
 6478SOL    HW220334   3.798   0.550   1.691
 6479SOL     OW20335   4.344   5.195   3.615
 6479SOL    HW120336   4.428   5.226   3.570
 6479SOL    HW220337   4.332   5.097   3.599
 6480SOL     OW20338   3.145   1.694   6.425
 6480SOL    HW120339   3.174   1.711   6.331
 6480SOL    HW220340   3.057   1.739   6.442
 6481SOL     OW20341   3.563   1.911   2.063
 6481SOL    HW120342   3.640   1.849   2.047
 6481SOL    HW220343   3.587   2.003   2.033
 6482SOL     OW20344   6.839   1.081   6.185
 6482SOL    HW120345   6.925   1.056   6.141
 6482SOL    HW220346   6.771   1.010   6.168
 6483SOL     OW20347   1.296   6.241   2.019
 6483SOL    HW120348   1.292   6.249   2.118
 6483SOL    HW220349   1.363   6.171   1.994
 6484SOL     OW20350   3.386   6.953   1.174
 6484SOL    HW120351   3.422   6.860   1.160
 6484SOL    HW220352   3.383   6.973   1.272
 6485SOL     OW20353   1.589   4.767   3.695
 6485SOL    HW120354   1.566   4.669   3.691
 6485SOL    HW220355   1.594   4.803   3.602
 6486SOL     OW20356   2.306   4.300   3.479
 6486SOL    HW120357   2.313   4.360   3.400
 6486SOL    HW220358   2.336   4.349   3.561
 6487SOL     OW20359   0.312   6.093   4.924
 6487SOL    HW120360   0.284   6.050   5.010
 6487SOL    HW220361   0.389   6.154   4.943
 6488SOL     OW20362   3.785   5.805   4.634
 6488SOL    HW120363   3.785   5.848   4.544
 6488SOL    HW220364   3.692   5.779   4.660
 6489SOL     OW20365   3.299   2.444   6.485
 6489SOL    HW120366   3.256   2.445   6.395
 6489SOL    HW220367   3.304   2.537   6.521
 6490SOL     OW20368   3.837   0.664   6.707
 6490SOL    HW120369   3.891   0.706   6.634
 6490SOL    HW220370   3.759   0.723   6.728
 6491SOL     OW20371   3.904   0.737   0.632
 6491SOL    HW120372   3.822   0.682   0.653
 6491SOL    HW220373   3.918   0.805   0.704
 6492SOL     OW20374   4.173   5.148   0.118
 6492SOL    HW120375   4.085   5.121   0.079
 6492SOL    HW220376   4.158   5.193   0.206
 6493SOL     OW20377   1.255   4.934   5.183
 6493SOL    HW120378   1.295   4.925   5.274
 6493SOL    HW220379   1.163   4.894   5.184
 6494SOL     OW20380   0.140   0.692   3.630
 6494SOL    HW120381   0.085   0.635   3.569
 6494SOL    HW220382   0.081   0.757   3.678
 6495SOL     OW20383   5.326   0.215   4.183
 6495SOL    HW120384   5.380   0.299   4.182
 6495SOL    HW220385   5.355   0.157   4.260
 6496SOL     OW20386   6.966   0.517   3.153
 6496SOL    HW120387   6.970   0.417   3.162
 6496SOL    HW220388   0.040   0.554   3.153
 6497SOL     OW20389   1.528   2.224   1.143
 6497SOL    HW120390   1.498   2.318   1.159
 6497SOL    HW220391   1.569   2.217   1.052
 6498SOL     OW20392   2.164   3.645   3.726
 6498SOL    HW120393   2.159   3.743   3.745
 6498SOL    HW220394   2.175   3.631   3.627
 6499SOL     OW20395   5.082   3.030   4.784
 6499SOL    HW120396   5.157   2.985   4.832
 6499SOL    HW220397   5.070   3.122   4.820
 6500SOL     OW20398   6.751   4.238   3.728
 6500SOL    HW120399   6.755   4.242   3.828
 6500SOL    HW220400   6.683   4.170   3.700
 6501SOL     OW20401   6.483   2.084   6.891
 6501SOL    HW120402   6.552   2.016   6.915
 6501SOL    HW220403   6.523   2.175   6.893
 6502SOL     OW20404   6.559   2.219   1.350
 6502SOL    HW120405   6.537   2.170   1.266
 6502SOL    HW220406   6.480   2.220   1.411
 6503SOL     OW20407   4.973   1.221   3.422
 6503SOL    HW120408   4.983   1.164   3.504
 6503SOL    HW220409   5.043   1.195   3.355
 6504SOL     OW20410   4.553   5.720   5.973
 6504SOL    HW120411   4.488   5.669   6.031
 6504SOL    HW220412   4.526   5.710   5.877
 6505SOL     OW20413   5.566   6.020   0.600
 6505SOL    HW120414   5.659   6.003   0.632
 6505SOL    HW220415   5.569   6.060   0.508
 6506SOL     OW20416   6.766   2.494   2.590
 6506SOL    HW120417   6.777   2.411   2.644
 6506SOL    HW220418   6.671   2.524   2.593
 6507SOL     OW20419   2.182   5.375   5.740
 6507SOL    HW120420   2.265   5.409   5.695
 6507SOL    HW220421   2.102   5.415   5.697
 6508SOL     OW20422   1.319   0.702   2.783
 6508SOL    HW120423   1.371   0.684   2.866
 6508SOL    HW220424   1.368   0.768   2.727
 6509SOL     OW20425   3.650   1.881   4.435
 6509SOL    HW120426   3.586   1.925   4.498
 6509SOL    HW220427   3.717   1.827   4.487
 6510SOL     OW20428   6.506   5.563   0.013
 6510SOL    HW120429   6.581   5.516   6.984
 6510SOL    HW220430   6.543   5.637   0.068
 6511SOL     OW20431   4.488   1.287   4.349
 6511SOL    HW120432   4.580   1.325   4.345
 6511SOL    HW220433   4.459   1.279   4.444
 6512SOL     OW20434   4.884   6.431   2.069
 6512SOL    HW120435   4.926   6.358   2.123
 6512SOL    HW220436   4.881   6.404   1.973
 6513SOL     OW20437   2.846   5.213   2.915
 6513SOL    HW120438   2.908   5.181   2.843
 6513SOL    HW220439   2.772   5.148   2.927
 6514SOL     OW20440   6.050   1.201   4.284
 6514SOL    HW120441   6.037   1.168   4.377
 6514SOL    HW220442   5.964   1.191   4.233
 6515SOL     OW20443   0.245   4.561   4.485
 6515SOL    HW120444   0.156   4.516   4.472
 6515SOL    HW220445   0.278   4.596   4.398
 6516SOL     OW20446   0.266   3.542   0.996
 6516SOL    HW120447   0.357   3.505   0.978
 6516SOL    HW220448   0.217   3.480   1.058
 6517SOL     OW20449   6.474   0.519   0.846
 6517SOL    HW120450   6.399   0.478   0.795
 6517SOL    HW220451   6.552   0.456   0.846
 6518SOL     OW20452   6.932   0.313   6.729
 6518SOL    HW120453   6.847   0.363   6.711
 6518SOL    HW220454   6.993   0.370   6.784
 6519SOL     OW20455   1.255   1.921   3.249
 6519SOL    HW120456   1.265   1.868   3.165
 6519SOL    HW220457   1.159   1.944   3.263
 6520SOL     OW20458   5.574   5.426   2.228
 6520SOL    HW120459   5.642   5.417   2.156
 6520SOL    HW220460   5.604   5.493   2.296
 6521SOL     OW20461   2.198   2.402   4.210
 6521SOL    HW120462   2.177   2.496   4.235
 6521SOL    HW220463   2.293   2.381   4.233
 6522SOL     OW20464   3.734   4.787   6.706
 6522SOL    HW120465   3.689   4.865   6.663
 6522SOL    HW220466   3.824   4.773   6.665
 6523SOL     OW20467   4.262   1.486   6.361
 6523SOL    HW120468   4.335   1.470   6.294
 6523SOL    HW220469   4.196   1.550   6.322
 6524SOL     OW20470   2.924   3.917   1.745
 6524SOL    HW120471   2.852   3.857   1.779
 6524SOL    HW220472   2.970   3.873   1.667
 6525SOL     OW20473   2.041   4.799   2.830
 6525SOL    HW120474   2.030   4.898   2.839
 6525SOL    HW220475   1.955   4.753   2.852
 6526SOL     OW20476   2.303   6.794   6.869
 6526SOL    HW120477   2.327   6.879   6.915
 6526SOL    HW220478   2.357   6.719   6.906
 6527SOL     OW20479   0.719   2.775   4.751
 6527SOL    HW120480   0.720   2.873   4.729
 6527SOL    HW220481   0.784   2.758   4.825
 6528SOL     OW20482   0.020   0.915   5.284
 6528SOL    HW120483   0.020   0.842   5.353
 6528SOL    HW220484   6.954   0.911   5.231
 6529SOL     OW20485   1.388   1.289   2.683
 6529SOL    HW120486   1.347   1.319   2.598
 6529SOL    HW220487   1.370   1.356   2.755
 6530SOL     OW20488   6.463   3.771   0.075
 6530SOL    HW120489   6.518   3.703   0.123
 6530SOL    HW220490   6.366   3.751   0.089
 6531SOL     OW20491   5.476   2.937   5.220
 6531SOL    HW120492   5.507   2.842   5.224
 6531SOL    HW220493   5.552   2.996   5.194
 6532SOL     OW20494   6.668   1.234   0.502
 6532SOL    HW120495   6.653   1.256   0.598
 6532SOL    HW220496   6.748   1.283   0.468
 6533SOL     OW20497   4.641   6.991   1.611
 6533SOL    HW120498   4.631   6.912   1.671
 6533SOL    HW220499   4.560   0.030   1.617
 6534SOL     OW20500   3.685   4.648   1.349
 6534SOL    HW120501   3.615   4.711   1.384
 6534SOL    HW220502   3.755   4.635   1.418
 6535SOL     OW20503   5.991   3.958   4.071
 6535SOL    HW120504   5.903   3.991   4.038
 6535SOL    HW220505   6.021   4.013   4.149
 6536SOL     OW20506   0.971   1.297   5.750
 6536SOL    HW120507   0.905   1.302   5.675
 6536SOL    HW220508   1.063   1.282   5.714
 6537SOL     OW20509   6.713   5.389   0.255
 6537SOL    HW120510   6.746   5.408   0.163
 6537SOL    HW220511   6.616   5.414   0.261
 6538SOL     OW20512   2.463   3.688   6.851
 6538SOL    HW120513   2.558   3.715   6.867
 6538SOL    HW220514   2.403   3.766   6.869
 6539SOL     OW20515   3.882   0.383   5.931
 6539SOL    HW120516   3.978   0.409   5.942
 6539SOL    HW220517   3.843   0.430   5.853
 6540SOL     OW20518   4.627   1.956   5.567
 6540SOL    HW120519   4.604   1.999   5.655
 6540SOL    HW220520   4.703   2.005   5.524
 6541SOL     OW20521   4.807   2.053   5.185
 6541SOL    HW120522   4.826   1.973   5.127
 6541SOL    HW220523   4.821   2.137   5.132
 6542SOL     OW20524   5.911   4.243   3.868
 6542SOL    HW120525   5.902   4.330   3.916
 6542SOL    HW220526   5.910   4.259   3.770
 6543SOL     OW20527   5.906   3.226   5.927
 6543SOL    HW120528   5.893   3.127   5.933
 6543SOL    HW220529   6.004   3.246   5.923
 6544SOL     OW20530   0.296   6.473   2.785
 6544SOL    HW120531   0.292   6.440   2.691
 6544SOL    HW220532   0.228   6.545   2.798
 6545SOL     OW20533   4.365   2.057   0.710
 6545SOL    HW120534   4.312   1.978   0.681
 6545SOL    HW220535   4.308   2.139   0.705
 6546SOL     OW20536   3.225   4.529   0.018
 6546SOL    HW120537   3.159   4.490   0.082
 6546SOL    HW220538   3.178   4.588   6.971
 6547SOL     OW20539   4.923   1.235   5.718
 6547SOL    HW120540   4.827   1.257   5.736
 6547SOL    HW220541   4.973   1.319   5.697
 6548SOL     OW20542   1.443   3.634   0.207
 6548SOL    HW120543   1.385   3.626   0.126
 6548SOL    HW220544   1.392   3.605   0.288
 6549SOL     OW20545   4.724   1.033   1.448
 6549SOL    HW120546   4.744   0.939   1.476
 6549SOL    HW220547   4.737   1.095   1.525
 6550SOL     OW20548   0.141   6.771   4.372
 6550SOL    HW120549   0.202   6.721   4.434
 6550SOL    HW220550   0.112   6.856   4.416
 6551SOL     OW20551   1.894   5.223   2.774
 6551SOL    HW120552   1.801   5.185   2.768
 6551SOL    HW220553   1.901   5.301   2.712
 6552SOL     OW20554   1.914   6.467   5.967
 6552SOL    HW120555   1.896   6.500   6.059
 6552SOL    HW220556   1.931   6.368   5.969
 6553SOL     OW20557   0.598   2.504   3.556
 6553SOL    HW120558   0.604   2.501   3.655
 6553SOL    HW220559   0.568   2.415   3.521
 6554SOL     OW20560   0.190   1.150   5.073
 6554SOL    HW120561   0.182   1.135   4.975
 6554SOL    HW220562   0.258   1.223   5.090
 6555SOL     OW20563   0.020   2.130   2.881
 6555SOL    HW120564   6.965   2.062   2.873
 6555SOL    HW220565   6.998   2.218   2.910
 6556SOL     OW20566   5.548   4.531   4.670
 6556SOL    HW120567   5.508   4.610   4.716
 6556SOL    HW220568   5.600   4.476   4.735
 6557SOL     OW20569   2.940   6.670   1.884
 6557SOL    HW120570   2.859   6.697   1.937
 6557SOL    HW220571   2.931   6.574   1.857
 6558SOL     OW20572   6.452   4.809   7.001
 6558SOL    HW120573   6.537   4.780   0.026
 6558SOL    HW220574   6.466   4.822   6.903
 6559SOL     OW20575   0.976   4.062   5.981
 6559SOL    HW120576   1.004   3.968   5.960
 6559SOL    HW220577   0.889   4.081   5.936
 6560SOL     OW20578   4.403   5.224   1.424
 6560SOL    HW120579   4.454   5.215   1.339
 6560SOL    HW220580   4.463   5.263   1.494
 6561SOL     OW20581   3.872   4.012   1.414
 6561SOL    HW120582   3.873   4.061   1.501
 6561SOL    HW220583   3.779   4.010   1.378
 6562SOL     OW20584   6.039   3.776   0.997
 6562SOL    HW120585   6.046   3.677   1.003
 6562SOL    HW220586   6.130   3.817   1.001
 6563SOL     OW20587   5.801   6.718   0.578
 6563SOL    HW120588   5.892   6.713   0.537
 6563SOL    HW220589   5.739   6.656   0.530
 6564SOL     OW20590   7.000   4.582   3.038
 6564SOL    HW120591   0.050   4.524   3.083
 6564SOL    HW220592   6.952   4.636   3.108
 6565SOL     OW20593   6.797   2.768   3.776
 6565SOL    HW120594   6.792   2.784   3.875
 6565SOL    HW220595   6.884   2.725   3.753
 6566SOL     OW20596   3.434   6.005   2.418
 6566SOL    HW120597   3.479   5.985   2.505
 6566SOL    HW220598   3.427   6.104   2.406
 6567SOL     OW20599   4.350   1.183   2.078
 6567SOL    HW120600   4.293   1.200   1.997
 6567SOL    HW220601   4.446   1.192   2.054
 6568SOL     OW20602   3.779   1.328   3.718
 6568SOL    HW120603   3.754   1.289   3.807
 6568SOL    HW220604   3.877   1.351   3.718
 6569SOL     OW20605   2.684   3.652   6.437
 6569SOL    HW120606   2.692   3.563   6.481
 6569SOL    HW220607   2.596   3.693   6.461
 6570SOL     OW20608   3.502   0.307   2.318
 6570SOL    HW120609   3.544   0.349   2.398
 6570SOL    HW220610   3.454   0.224   2.346
 6571SOL     OW20611   2.410   5.808   1.926
 6571SOL    HW120612   2.476   5.839   1.858
 6571SOL    HW220613   2.454   5.807   2.016
 6572SOL     OW20614   6.474   4.998   6.228
 6572SOL    HW120615   6.401   4.952   6.177
 6572SOL    HW220616   6.525   4.930   6.281
 6573SOL     OW20617   2.363   1.595   2.278
 6573SOL    HW120618   2.385   1.666   2.212
 6573SOL    HW220619   2.428   1.520   2.269
 6574SOL     OW20620   3.189   5.407   2.958
 6574SOL    HW120621   3.258   5.337   2.979
 6574SOL    HW220622   3.156   5.393   2.864
 6575SOL     OW20623   1.062   0.261   2.330
 6575SOL    HW120624   1.045   0.289   2.424
 6575SOL    HW220625   1.160   0.268   2.311
 6576SOL     OW20626   2.930   5.598   6.344
 6576SOL    HW120627   2.991   5.676   6.353
 6576SOL    HW220628   2.847   5.614   6.396
 6577SOL     OW20629   0.463   0.873   4.361
 6577SOL    HW120630   0.470   0.816   4.279
 6577SOL    HW220631   0.434   0.965   4.335
 6578SOL     OW20632   1.397   4.857   3.019
 6578SOL    HW120633   1.338   4.777   3.011
 6578SOL    HW220634   1.342   4.940   3.017
 6579SOL     OW20635   6.606   3.594   5.239
 6579SOL    HW120636   6.570   3.547   5.320
 6579SOL    HW220637   6.684   3.543   5.203
 6580SOL     OW20638   0.067   2.083   0.374
 6580SOL    HW120639   0.118   2.083   0.459
 6580SOL    HW220640   0.126   2.113   0.299
 6581SOL     OW20641   2.652   1.053   0.117
 6581SOL    HW120642   2.564   1.096   0.133
 6581SOL    HW220643   2.687   1.080   0.027
 6582SOL     OW20644   1.294   1.297   1.969
 6582SOL    HW120645   1.347   1.214   1.953
 6582SOL    HW220646   1.300   1.357   1.890
 6583SOL     OW20647   3.488   0.803   4.888
 6583SOL    HW120648   3.508   0.708   4.865
 6583SOL    HW220649   3.480   0.812   4.987
 6584SOL     OW20650   4.635   1.750   0.366
 6584SOL    HW120651   4.633   1.673   0.431
 6584SOL    HW220652   4.546   1.794   0.364
 6585SOL     OW20653   6.387   6.845   0.242
 6585SOL    HW120654   6.476   6.888   0.223
 6585SOL    HW220655   6.344   6.818   0.156
 6586SOL     OW20656   0.169   1.816   5.992
 6586SOL    HW120657   0.138   1.722   5.997
 6586SOL    HW220658   0.104   1.875   6.040
 6587SOL     OW20659   2.289   6.296   4.596
 6587SOL    HW120660   2.245   6.282   4.507
 6587SOL    HW220661   2.256   6.227   4.660
 6588SOL     OW20662   0.657   3.794   1.580
 6588SOL    HW120663   0.623   3.888   1.583
 6588SOL    HW220664   0.631   3.746   1.664
 6589SOL     OW20665   5.033   0.564   0.374
 6589SOL    HW120666   4.991   0.652   0.396
 6589SOL    HW220667   4.985   0.491   0.422
 6590SOL     OW20668   0.940   0.860   5.061
 6590SOL    HW120669   0.888   0.775   5.068
 6590SOL    HW220670   0.884   0.936   5.094
 6591SOL     OW20671   5.737   5.547   2.029
 6591SOL    HW120672   5.699   5.622   1.975
 6591SOL    HW220673   5.802   5.582   2.095
 6592SOL     OW20674   6.448   0.113   4.065
 6592SOL    HW120675   6.411   0.031   4.109
 6592SOL    HW220676   6.509   0.086   3.990
 6593SOL     OW20677   2.790   1.959   2.412
 6593SOL    HW120678   2.779   2.052   2.445
 6593SOL    HW220679   2.702   1.912   2.413
 6594SOL     OW20680   3.547   2.418   7.000
 6594SOL    HW120681   3.627   2.359   7.010
 6594SOL    HW220682   3.526   2.430   6.903
 6595SOL     OW20683   0.609   3.692   0.205
 6595SOL    HW120684   0.583   3.688   0.302
 6595SOL    HW220685   0.655   3.778   0.186
 6596SOL     OW20686   2.934   6.126   4.541
 6596SOL    HW120687   2.882   6.195   4.592
 6596SOL    HW220688   2.997   6.079   4.603
 6597SOL     OW20689   2.368   5.396   2.006
 6597SOL    HW120690   2.292   5.371   1.946
 6597SOL    HW220691   2.345   5.374   2.101
 6598SOL     OW20692   1.309   6.265   4.048
 6598SOL    HW120693   1.266   6.185   4.090
 6598SOL    HW220694   1.408   6.260   4.061
 6599SOL     OW20695   4.739   6.755   5.861
 6599SOL    HW120696   4.701   6.827   5.919
 6599SOL    HW220697   4.754   6.672   5.915
 6600SOL     OW20698   5.079   5.085   5.702
 6600SOL    HW120699   5.059   5.025   5.780
 6600SOL    HW220700   4.998   5.093   5.644
 6601SOL     OW20701   0.896   1.651   4.889
 6601SOL    HW120702   0.880   1.728   4.950
 6601SOL    HW220703   0.814   1.634   4.834
 6602SOL     OW20704   0.498   1.380   2.089
 6602SOL    HW120705   0.558   1.300   2.094
 6602SOL    HW220706   0.549   1.458   2.053
 6603SOL     OW20707   0.191   2.846   4.087
 6603SOL    HW120708   0.155   2.758   4.117
 6603SOL    HW220709   0.126   2.918   4.112
 6604SOL     OW20710   2.280   6.900   1.768
 6604SOL    HW120711   2.294   6.845   1.686
 6604SOL    HW220712   2.200   6.865   1.818
 6605SOL     OW20713   5.935   3.505   1.616
 6605SOL    HW120714   5.887   3.419   1.627
 6605SOL    HW220715   5.886   3.564   1.552
 6606SOL     OW20716   6.813   6.050   1.856
 6606SOL    HW120717   6.782   6.101   1.937
 6606SOL    HW220718   6.733   6.019   1.805
 6607SOL     OW20719   1.566   3.312   2.180
 6607SOL    HW120720   1.596   3.229   2.133
 6607SOL    HW220721   1.553   3.293   2.277
 6608SOL     OW20722   6.425   6.545   1.288
 6608SOL    HW120723   6.336   6.528   1.246
 6608SOL    HW220724   6.497   6.538   1.219
 6609SOL     OW20725   4.448   0.851   5.845
 6609SOL    HW120726   4.480   0.921   5.781
 6609SOL    HW220727   4.361   0.814   5.813
 6610SOL     OW20728   2.903   0.493   6.821
 6610SOL    HW120729   2.878   0.413   6.767
 6610SOL    HW220730   2.823   0.552   6.832
 6611SOL     OW20731   6.156   3.088   3.723
 6611SOL    HW120732   6.106   3.013   3.766
 6611SOL    HW220733   6.253   3.063   3.716
 6612SOL     OW20734   6.355   2.139   6.312
 6612SOL    HW120735   6.353   2.146   6.412
 6612SOL    HW220736   6.408   2.215   6.274
 6613SOL     OW20737   6.613   6.255   5.108
 6613SOL    HW120738   6.663   6.342   5.107
 6613SOL    HW220739   6.605   6.223   5.203
 6614SOL     OW20740   5.411   6.379   0.848
 6614SOL    HW120741   5.342   6.357   0.780
 6614SOL    HW220742   5.418   6.303   0.914
 6615SOL     OW20743   1.622   5.035   2.404
 6615SOL    HW120744   1.674   4.952   2.387
 6615SOL    HW220745   1.553   5.047   2.333
 6616SOL     OW20746   4.029   1.268   5.855
 6616SOL    HW120747   3.931   1.267   5.832
 6616SOL    HW220748   4.040   1.272   5.954
 6617SOL     OW20749   3.610   5.061   2.999
 6617SOL    HW120750   3.518   5.099   2.996
 6617SOL    HW220751   3.672   5.127   3.043
 6618SOL     OW20752   1.135   3.093   2.424
 6618SOL    HW120753   1.142   3.084   2.325
 6618SOL    HW220754   1.098   3.009   2.463
 6619SOL     OW20755   6.151   7.003   4.054
 6619SOL    HW120756   6.133   0.070   4.103
 6619SOL    HW220757   6.108   6.927   4.103
 6620SOL     OW20758   1.343   2.816   5.375
 6620SOL    HW120759   1.415   2.746   5.376
 6620SOL    HW220760   1.254   2.772   5.386
 6621SOL     OW20761   2.381   2.918   6.266
 6621SOL    HW120762   2.370   2.824   6.232
 6621SOL    HW220763   2.344   2.982   6.199
 6622SOL     OW20764   6.033   7.017   1.489
 6622SOL    HW120765   5.967   0.071   1.511
 6622SOL    HW220766   6.108   0.038   1.435
 6623SOL     OW20767   2.635   2.568   6.275
 6623SOL    HW120768   2.720   2.593   6.228
 6623SOL    HW220769   2.557   2.594   6.219
 6624SOL     OW20770   1.171   5.574   5.491
 6624SOL    HW120771   1.219   5.499   5.445
 6624SOL    HW220772   1.073   5.553   5.497
 6625SOL     OW20773   5.113   2.423   5.620
 6625SOL    HW120774   5.134   2.513   5.584
 6625SOL    HW220775   5.191   2.388   5.672
 6626SOL     OW20776   4.953   5.699   5.474
 6626SOL    HW120777   4.929   5.634   5.402
 6626SOL    HW220778   5.013   5.654   5.540
 6627SOL     OW20779   2.420   6.817   4.710
 6627SOL    HW120780   2.406   6.718   4.700
 6627SOL    HW220781   2.518   6.837   4.715
 6628SOL     OW20782   4.589   4.593   4.751
 6628SOL    HW120783   4.571   4.578   4.654
 6628SOL    HW220784   4.511   4.561   4.804
 6629SOL     OW20785   4.440   6.200   0.246
 6629SOL    HW120786   4.496   6.125   0.280
 6629SOL    HW220787   4.354   6.163   0.209
 6630SOL     OW20788   4.213   0.861   1.944
 6630SOL    HW120789   4.212   0.763   1.922
 6630SOL    HW220790   4.277   0.878   2.019
 6631SOL     OW20791   2.632   5.598   3.321
 6631SOL    HW120792   2.658   5.625   3.229
 6631SOL    HW220793   2.656   5.502   3.336
 6632SOL     OW20794   0.428   6.534   1.206
 6632SOL    HW120795   0.433   6.557   1.108
 6632SOL    HW220796   0.352   6.583   1.248
 6633SOL     OW20797   0.635   4.381   6.651
 6633SOL    HW120798   0.551   4.411   6.607
 6633SOL    HW220799   0.710   4.442   6.627
 6634SOL     OW20800   5.972   2.296   3.866
 6634SOL    HW120801   6.021   2.233   3.926
 6634SOL    HW220802   5.905   2.348   3.918
 6635SOL     OW20803   4.456   4.456   3.040
 6635SOL    HW120804   4.421   4.521   2.972
 6635SOL    HW220805   4.522   4.395   2.996
 6636SOL     OW20806   4.438   2.856   5.570
 6636SOL    HW120807   4.401   2.911   5.495
 6636SOL    HW220808   4.451   2.762   5.540
 6637SOL     OW20809   1.705   6.932   6.354
 6637SOL    HW120810   1.647   6.852   6.339
 6637SOL    HW220811   1.714   6.948   6.452
 6638SOL     OW20812   3.202   3.661   4.098
 6638SOL    HW120813   3.260   3.605   4.158
 6638SOL    HW220814   3.106   3.648   4.122
 6639SOL     OW20815   5.841   4.578   6.588
 6639SOL    HW120816   5.815   4.652   6.526
 6639SOL    HW220817   5.760   4.525   6.612
 6640SOL     OW20818   1.133   1.736   5.056
 6640SOL    HW120819   1.196   1.809   5.082
 6640SOL    HW220820   1.070   1.769   4.985
 6641SOL     OW20821   2.030   1.678   6.865
 6641SOL    HW120822   1.986   1.633   6.787
 6641SOL    HW220823   1.960   1.708   6.929
 6642SOL     OW20824   3.011   5.214   6.566
 6642SOL    HW120825   2.961   5.161   6.498
 6642SOL    HW220826   3.045   5.299   6.525
 6643SOL     OW20827   6.254   5.633   0.287
 6643SOL    HW120828   6.239   5.572   0.209
 6643SOL    HW220829   6.249   5.728   0.256
 6644SOL     OW20830   2.336   5.012   2.075
 6644SOL    HW120831   2.292   5.068   2.005
 6644SOL    HW220832   2.313   4.916   2.059
 6645SOL     OW20833   6.644   5.658   0.387
 6645SOL    HW120834   6.629   5.678   0.484
 6645SOL    HW220835   6.673   5.563   0.376
 6646SOL     OW20836   3.812   0.211   5.001
 6646SOL    HW120837   3.732   0.255   4.960
 6646SOL    HW220838   3.893   0.267   4.984
 6647SOL     OW20839   4.516   0.868   2.067
 6647SOL    HW120840   4.581   0.901   2.134
 6647SOL    HW220841   4.531   0.915   1.980
 6648SOL     OW20842   4.257   6.845   2.762
 6648SOL    HW120843   4.176   6.803   2.803
 6648SOL    HW220844   4.327   6.775   2.747
 6649SOL     OW20845   5.233   0.631   6.847
 6649SOL    HW120846   5.270   0.679   6.768
 6649SOL    HW220847   5.304   0.574   6.888
 6650SOL     OW20848   3.042   1.603   5.172
 6650SOL    HW120849   3.019   1.672   5.241
 6650SOL    HW220850   3.040   1.512   5.214
 6651SOL     OW20851   2.495   1.583   5.554
 6651SOL    HW120852   2.414   1.641   5.546
 6651SOL    HW220853   2.467   1.491   5.583
 6652SOL     OW20854   0.072   4.794   0.812
 6652SOL    HW120855   0.077   4.702   0.851
 6652SOL    HW220856   0.138   4.853   0.858
 6653SOL     OW20857   3.224   3.045   3.060
 6653SOL    HW120858   3.155   3.095   3.007
 6653SOL    HW220859   3.191   3.032   3.153
 6654SOL     OW20860   1.691   3.685   1.461
 6654SOL    HW120861   1.645   3.654   1.543
 6654SOL    HW220862   1.671   3.782   1.446
 6655SOL     OW20863   1.304   6.816   3.126
 6655SOL    HW120864   1.319   6.726   3.084
 6655SOL    HW220865   1.230   6.863   3.077
 6656SOL     OW20866   6.207   1.903   3.122
 6656SOL    HW120867   6.234   1.950   3.039
 6656SOL    HW220868   6.109   1.916   3.138
 6657SOL     OW20869   6.057   6.070   6.153
 6657SOL    HW120870   6.092   6.148   6.100
 6657SOL    HW220871   6.062   6.093   6.251
 6658SOL     OW20872   6.779   0.870   5.199
 6658SOL    HW120873   6.698   0.870   5.141
 6658SOL    HW220874   6.755   0.832   5.289
 6659SOL     OW20875   2.236   2.271   0.414
 6659SOL    HW120876   2.146   2.277   0.458
 6659SOL    HW220877   2.257   2.176   0.393
 6660SOL     OW20878   0.834   5.274   0.920
 6660SOL    HW120879   0.764   5.311   0.981
 6660SOL    HW220880   0.818   5.177   0.906
 6661SOL     OW20881   0.810   6.712   5.256
 6661SOL    HW120882   0.860   6.675   5.177
 6661SOL    HW220883   0.785   6.807   5.237
 6662SOL     OW20884   1.188   1.343   0.046
 6662SOL    HW120885   1.221   1.285   6.990
 6662SOL    HW220886   1.147   1.285   0.117
 6663SOL     OW20887   0.169   5.135   4.199
 6663SOL    HW120888   0.233   5.124   4.123
 6663SOL    HW220889   0.119   5.221   4.188
 6664SOL     OW20890   2.645   6.172   6.984
 6664SOL    HW120891   2.643   6.228   0.049
 6664SOL    HW220892   2.551   6.151   6.956
 6665SOL     OW20893   1.613   6.275   3.991
 6665SOL    HW120894   1.674   6.314   3.923
 6665SOL    HW220895   1.639   6.179   4.007
 6666SOL     OW20896   6.020   6.658   5.600
 6666SOL    HW120897   6.036   6.586   5.532
 6666SOL    HW220898   6.043   6.624   5.691
 6667SOL     OW20899   6.565   6.197   6.736
 6667SOL    HW120900   6.484   6.157   6.692
 6667SOL    HW220901   6.587   6.144   6.818
 6668SOL     OW20902   6.974   5.602   1.596
 6668SOL    HW120903   0.010   5.551   1.529
 6668SOL    HW220904   6.953   5.693   1.559
 6669SOL     OW20905   1.591   2.931   3.557
 6669SOL    HW120906   1.599   3.030   3.574
 6669SOL    HW220907   1.552   2.888   3.639
 6670SOL     OW20908   3.815   2.178   5.350
 6670SOL    HW120909   3.715   2.182   5.361
 6670SOL    HW220910   3.852   2.270   5.342
 6671SOL     OW20911   6.192   5.618   0.704
 6671SOL    HW120912   6.142   5.643   0.621
 6671SOL    HW220913   6.283   5.586   0.680
 6672SOL     OW20914   6.395   1.880   6.316
 6672SOL    HW120915   6.394   1.978   6.297
 6672SOL    HW220916   6.367   1.830   6.234
 6673SOL     OW20917   5.594   5.841   3.974
 6673SOL    HW120918   5.585   5.807   3.881
 6673SOL    HW220919   5.659   5.917   3.975
 6674SOL     OW20920   0.794   5.111   6.078
 6674SOL    HW120921   0.802   5.182   6.008
 6674SOL    HW220922   0.750   5.031   6.038
 6675SOL     OW20923   4.608   3.639   1.571
 6675SOL    HW120924   4.517   3.611   1.603
 6675SOL    HW220925   4.616   3.623   1.473
 6676SOL     OW20926   0.121   3.807   5.812
 6676SOL    HW120927   0.176   3.887   5.836
 6676SOL    HW220928   0.024   3.828   5.829
 6677SOL     OW20929   1.446   1.810   6.591
 6677SOL    HW120930   1.406   1.812   6.682
 6677SOL    HW220931   1.496   1.724   6.578
 6678SOL     OW20932   3.146   3.280   6.584
 6678SOL    HW120933   3.218   3.260   6.650
 6678SOL    HW220934   3.170   3.362   6.532
 6679SOL     OW20935   2.130   1.473   4.129
 6679SOL    HW120936   2.098   1.393   4.077
 6679SOL    HW220937   2.230   1.471   4.134
 6680SOL     OW20938   4.448   6.931   6.801
 6680SOL    HW120939   4.415   0.007   6.809
 6680SOL    HW220940   4.512   6.911   6.875
 6681SOL     OW20941   4.141   5.849   1.283
 6681SOL    HW120942   4.067   5.891   1.230
 6681SOL    HW220943   4.223   5.845   1.226
 6682SOL     OW20944   0.985   4.204   3.091
 6682SOL    HW120945   1.031   4.118   3.114
 6682SOL    HW220946   1.030   4.279   3.138
 6683SOL     OW20947   5.775   2.959   5.580
 6683SOL    HW120948   5.869   2.936   5.554
 6683SOL    HW220949   5.775   3.002   5.670
 6684SOL     OW20950   2.685   6.978   1.780
 6684SOL    HW120951   2.649   6.908   1.719
 6684SOL    HW220952   2.784   6.987   1.768
 6685SOL     OW20953   6.268   3.531   5.794
 6685SOL    HW120954   6.226   3.582   5.719
 6685SOL    HW220955   6.366   3.518   5.774
 6686SOL     OW20956   5.141   6.082   4.097
 6686SOL    HW120957   5.200   6.133   4.159
 6686SOL    HW220958   5.194   6.047   4.020
 6687SOL     OW20959   0.926   3.258   6.838
 6687SOL    HW120960   0.963   3.197   6.768
 6687SOL    HW220961   0.999   3.289   6.899
 6688SOL     OW20962   0.188   4.381   1.868
 6688SOL    HW120963   0.091   4.393   1.887
 6688SOL    HW220964   0.230   4.327   1.941
 6689SOL     OW20965   4.675   2.634   0.141
 6689SOL    HW120966   4.765   2.608   0.178
 6689SOL    HW220967   4.629   2.552   0.106
 6690SOL     OW20968   2.264   0.792   0.903
 6690SOL    HW120969   2.348   0.762   0.948
 6690SOL    HW220970   2.278   0.794   0.804
 6691SOL     OW20971   2.715   6.170   1.372
 6691SOL    HW120972   2.622   6.165   1.335
 6691SOL    HW220973   2.734   6.088   1.425
 6692SOL     OW20974   3.788   4.208   5.276
 6692SOL    HW120975   3.855   4.183   5.206
 6692SOL    HW220976   3.710   4.145   5.273
 6693SOL     OW20977   4.206   3.943   5.644
 6693SOL    HW120978   4.258   4.015   5.690
 6693SOL    HW220979   4.117   3.933   5.688
 6694SOL     OW20980   4.555   5.654   0.727
 6694SOL    HW120981   4.611   5.680   0.806
 6694SOL    HW220982   4.613   5.617   0.655
 6695SOL     OW20983   3.326   1.774   6.887
 6695SOL    HW120984   3.281   1.756   6.975
 6695SOL    HW220985   3.263   1.753   6.813
 6696SOL     OW20986   1.499   2.993   5.661
 6696SOL    HW120987   1.480   2.898   5.684
 6696SOL    HW220988   1.413   3.041   5.643
 6697SOL     OW20989   4.515   2.024   2.261
 6697SOL    HW120990   4.507   2.003   2.164
 6697SOL    HW220991   4.423   2.036   2.300
 6698SOL     OW20992   3.165   2.687   1.414
 6698SOL    HW120993   3.165   2.787   1.410
 6698SOL    HW220994   3.153   2.650   1.322
 6699SOL     OW20995   2.863   5.152   6.333
 6699SOL    HW120996   2.954   5.120   6.305
 6699SOL    HW220997   2.803   5.074   6.345
 6700SOL     OW20998   0.041   6.912   0.704
 6700SOL    HW120999   0.137   6.935   0.689
 6700SOL    HW221000   7.016   6.892   0.616
 6701SOL     OW21001   5.794   2.619   1.373
 6701SOL    HW121002   5.762   2.677   1.298
 6701SOL    HW221003   5.848   2.543   1.335
 6702SOL     OW21004   2.771   1.834   1.454
 6702SOL    HW121005   2.789   1.816   1.357
 6702SOL    HW221006   2.723   1.921   1.463
 6703SOL     OW21007   6.430   2.145   6.581
 6703SOL    HW121008   6.393   2.238   6.583
 6703SOL    HW221009   6.455   2.117   6.673
 6704SOL     OW21010   3.823   2.185   3.156
 6704SOL    HW121011   3.850   2.129   3.235
 6704SOL    HW221012   3.736   2.229   3.176
 6705SOL     OW21013   6.307   2.403   1.100
 6705SOL    HW121014   6.337   2.307   1.098
 6705SOL    HW221015   6.354   2.454   1.028
 6706SOL     OW21016   0.875   4.020   1.705
 6706SOL    HW121017   0.927   4.104   1.724
 6706SOL    HW221018   0.936   3.941   1.712
 6707SOL     OW21019   6.638   6.293   3.515
 6707SOL    HW121020   6.722   6.344   3.492
 6707SOL    HW221021   6.650   6.247   3.603
 6708SOL     OW21022   6.977   4.988   1.876
 6708SOL    HW121023   6.922   4.986   1.960
 6708SOL    HW221024   6.921   5.022   1.800
 6709SOL     OW21025   2.878   6.998   2.648
 6709SOL    HW121026   2.956   7.000   2.585
 6709SOL    HW221027   2.795   0.006   2.599
 6710SOL     OW21028   3.414   1.275   6.003
 6710SOL    HW121029   3.445   1.258   6.096
 6710SOL    HW221030   3.322   1.313   6.004
 6711SOL     OW21031   5.142   5.437   6.495
 6711SOL    HW121032   5.155   5.338   6.494
 6711SOL    HW221033   5.049   5.459   6.466
 6712SOL     OW21034   5.027   4.616   0.095
 6712SOL    HW121035   5.007   4.580   0.004
 6712SOL    HW221036   5.014   4.715   0.095
 6713SOL     OW21037   2.027   0.780   2.643
 6713SOL    HW121038   2.127   0.775   2.641
 6713SOL    HW221039   1.998   0.875   2.650
 6714SOL     OW21040   6.196   0.921   6.393
 6714SOL    HW121041   6.127   0.961   6.453
 6714SOL    HW221042   6.251   0.994   6.353
 6715SOL     OW21043   6.816   6.914   6.089
 6715SOL    HW121044   6.779   6.944   6.176
 6715SOL    HW221045   6.791   6.980   6.017
 6716SOL     OW21046   0.355   5.899   1.816
 6716SOL    HW121047   0.411   5.980   1.799
 6716SOL    HW221048   0.262   5.927   1.841
 6717SOL     OW21049   4.307   2.624   6.546
 6717SOL    HW121050   4.319   2.566   6.466
 6717SOL    HW221051   4.271   2.713   6.519
 6718SOL     OW21052   5.191   0.257   6.573
 6718SOL    HW121053   5.209   0.200   6.493
 6718SOL    HW221054   5.167   0.199   6.651
 6719SOL     OW21055   1.785   0.204   6.723
 6719SOL    HW121056   1.749   0.195   6.631
 6719SOL    HW221057   1.730   0.151   6.787
 6720SOL     OW21058   0.798   6.483   3.848
 6720SOL    HW121059   0.727   6.554   3.844
 6720SOL    HW221060   0.810   6.443   3.757
 6721SOL     OW21061   6.897   0.197   6.287
 6721SOL    HW121062   6.949   0.119   6.252
 6721SOL    HW221063   6.926   0.216   6.380
 6722SOL     OW21064   6.974   3.150   1.244
 6722SOL    HW121065   6.885   3.161   1.200
 6722SOL    HW221066   6.962   3.144   1.343
 6723SOL     OW21067   2.306   6.677   3.312
 6723SOL    HW121068   2.317   6.581   3.288
 6723SOL    HW221069   2.391   6.726   3.292
 6724SOL     OW21070   1.526   3.463   5.686
 6724SOL    HW121071   1.621   3.441   5.661
 6724SOL    HW221072   1.498   3.403   5.761
 6725SOL     OW21073   1.000   3.767   1.320
 6725SOL    HW121074   0.937   3.833   1.361
 6725SOL    HW221075   1.041   3.710   1.391
 6726SOL     OW21076   0.775   1.745   5.174
 6726SOL    HW121077   0.708   1.815   5.198
 6726SOL    HW221078   0.728   1.662   5.146
 6727SOL     OW21079   6.201   3.901   5.562
 6727SOL    HW121080   6.287   3.928   5.606
 6727SOL    HW221081   6.205   3.803   5.540
 6728SOL     OW21082   4.563   1.504   3.310
 6728SOL    HW121083   4.510   1.434   3.262
 6728SOL    HW221084   4.659   1.476   3.315
 6729SOL     OW21085   0.577   1.445   2.343
 6729SOL    HW121086   0.535   1.436   2.253
 6729SOL    HW221087   0.507   1.470   2.410
 6730SOL     OW21088   2.898   6.122   6.689
 6730SOL    HW121089   2.895   6.022   6.696
 6730SOL    HW221090   2.928   6.161   6.776
 6731SOL     OW21091   0.912   6.128   1.180
 6731SOL    HW121092   0.818   6.156   1.161
 6731SOL    HW221093   0.911   6.053   1.246
 6732SOL     OW21094   5.287   4.814   6.003
 6732SOL    HW121095   5.337   4.832   5.918
 6732SOL    HW221096   5.352   4.791   6.075
 6733SOL     OW21097   4.111   4.461   0.014
 6733SOL    HW121098   4.109   4.502   0.105
 6733SOL    HW221099   4.109   4.361   0.022
 6734SOL     OW21100   6.342   2.127   5.015
 6734SOL    HW121101   6.263   2.069   4.994
 6734SOL    HW221102   6.310   2.212   5.056
 6735SOL     OW21103   6.877   4.575   4.207
 6735SOL    HW121104   6.861   4.637   4.284
 6735SOL    HW221105   6.839   4.615   4.123
 6736SOL     OW21106   3.354   3.612   6.784
 6736SOL    HW121107   3.263   3.574   6.802
 6736SOL    HW221108   3.345   3.708   6.757
 6737SOL     OW21109   2.171   2.539   0.691
 6737SOL    HW121110   2.181   2.445   0.723
 6737SOL    HW221111   2.074   2.558   0.673
 6738SOL     OW21112   1.773   4.804   2.493
 6738SOL    HW121113   1.857   4.843   2.529
 6738SOL    HW221114   1.740   4.732   2.554
 6739SOL     OW21115   3.950   5.197   5.618
 6739SOL    HW121116   4.013   5.175   5.693
 6739SOL    HW221117   3.961   5.130   5.545
 6740SOL     OW21118   1.737   1.213   3.997
 6740SOL    HW121119   1.649   1.202   4.043
 6740SOL    HW221120   1.741   1.305   3.957
 6741SOL     OW21121   4.435   1.059   5.635
 6741SOL    HW121122   4.412   0.994   5.562
 6741SOL    HW221123   4.358   1.120   5.651
 6742SOL     OW21124   6.618   5.982   2.987
 6742SOL    HW121125   6.686   6.047   3.022
 6742SOL    HW221126   6.636   5.891   3.025
 6743SOL     OW21127   4.438   4.481   0.395
 6743SOL    HW121128   4.439   4.577   0.421
 6743SOL    HW221129   4.354   4.438   0.429
 6744SOL     OW21130   4.888   5.588   6.037
 6744SOL    HW121131   4.889   5.550   5.945
 6744SOL    HW221132   4.982   5.591   6.073
 6745SOL     OW21133   0.325   0.347   2.545
 6745SOL    HW121134   0.340   0.272   2.609
 6745SOL    HW221135   0.256   0.320   2.478
 6746SOL     OW21136   1.307   1.352   2.970
 6746SOL    HW121137   1.215   1.345   2.931
 6746SOL    HW221138   1.300   1.378   3.067
 6747SOL     OW21139   5.355   0.597   5.325
 6747SOL    HW121140   5.362   0.677   5.265
 6747SOL    HW221141   5.410   0.523   5.287
 6748SOL     OW21142   1.311   0.659   3.543
 6748SOL    HW121143   1.260   0.703   3.617
 6748SOL    HW221144   1.246   0.626   3.474
 6749SOL     OW21145   2.892   5.687   0.273
 6749SOL    HW121146   2.829   5.632   0.329
 6749SOL    HW221147   2.892   5.651   0.179
 6750SOL     OW21148   4.249   1.817   5.263
 6750SOL    HW121149   4.173   1.880   5.278
 6750SOL    HW221150   4.296   1.799   5.350
 6751SOL     OW21151   4.127   0.783   3.676
 6751SOL    HW121152   4.054   0.772   3.607
 6751SOL    HW221153   4.143   0.880   3.691
 6752SOL     OW21154   0.474   2.821   2.756
 6752SOL    HW121155   0.493   2.912   2.792
 6752SOL    HW221156   0.377   2.813   2.734
 6753SOL     OW21157   4.219   0.840   6.321
 6753SOL    HW121158   4.158   0.917   6.301
 6753SOL    HW221159   4.166   0.755   6.319
 6754SOL     OW21160   6.721   1.558   0.256
 6754SOL    HW121161   6.765   1.479   0.298
 6754SOL    HW221162   6.783   1.636   0.257
 6755SOL     OW21163   4.623   0.920   3.440
 6755SOL    HW121164   4.548   0.861   3.472
 6755SOL    HW221165   4.605   1.014   3.467
 6756SOL     OW21166   4.011   4.837   4.892
 6756SOL    HW121167   3.946   4.762   4.888
 6756SOL    HW221168   4.020   4.868   4.987
 6757SOL     OW21169   4.442   0.343   1.260
 6757SOL    HW121170   4.372   0.278   1.288
 6757SOL    HW221171   4.530   0.319   1.302
 6758SOL     OW21172   0.114   2.987   0.695
 6758SOL    HW121173   0.113   2.997   0.794
 6758SOL    HW221174   0.186   2.922   0.668
 6759SOL     OW21175   0.985   4.296   4.485
 6759SOL    HW121176   0.931   4.213   4.469
 6759SOL    HW221177   0.925   4.369   4.517
 6760SOL     OW21178   6.737   4.851   3.624
 6760SOL    HW121179   6.686   4.937   3.614
 6760SOL    HW221180   6.695   4.781   3.567
 6761SOL     OW21181   5.793   2.126   6.267
 6761SOL    HW121182   5.752   2.217   6.266
 6761SOL    HW221183   5.882   2.129   6.221
 6762SOL     OW21184   0.003   5.772   3.280
 6762SOL    HW121185   0.012   5.677   3.253
 6762SOL    HW221186   6.985   5.826   3.204
 6763SOL     OW21187   6.956   5.093   3.784
 6763SOL    HW121188   6.900   5.125   3.708
 6763SOL    HW221189   6.902   5.031   3.842
 6764SOL     OW21190   2.473   4.777   6.783
 6764SOL    HW121191   2.518   4.688   6.785
 6764SOL    HW221192   2.522   4.840   6.843
 6765SOL     OW21193   4.974   4.918   4.271
 6765SOL    HW121194   5.046   4.860   4.310
 6765SOL    HW221195   4.993   5.014   4.292
 6766SOL     OW21196   4.659   6.279   6.452
 6766SOL    HW121197   4.588   6.326   6.399
 6766SOL    HW221198   4.749   6.305   6.417
 6767SOL     OW21199   0.668   2.503   0.570
 6767SOL    HW121200   0.695   2.412   0.538
 6767SOL    HW221201   0.699   2.571   0.504
 6768SOL     OW21202   7.005   6.580   3.343
 6768SOL    HW121203   6.966   6.658   3.392
 6768SOL    HW221204   6.970   6.495   3.382
 6769SOL     OW21205   2.735   0.389   5.549
 6769SOL    HW121206   2.703   0.294   5.558
 6769SOL    HW221207   2.835   0.390   5.552
 6770SOL     OW21208   6.386   2.225   3.332
 6770SOL    HW121209   6.287   2.240   3.332
 6770SOL    HW221210   6.428   2.283   3.402
 6771SOL     OW21211   3.350   0.948   2.685
 6771SOL    HW121212   3.416   0.887   2.642
 6771SOL    HW221213   3.395   1.033   2.713
 6772SOL     OW21214   4.934   2.588   2.335
 6772SOL    HW121215   4.842   2.623   2.317
 6772SOL    HW221216   4.946   2.572   2.433
 6773SOL     OW21217   6.977   6.395   1.580
 6773SOL    HW121218   0.014   6.473   1.610
 6773SOL    HW221219   6.887   6.398   1.623
 6774SOL     OW21220   2.200   2.529   4.485
 6774SOL    HW121221   2.230   2.588   4.410
 6774SOL    HW221222   2.224   2.572   4.572
 6775SOL     OW21223   0.743   2.094   3.621
 6775SOL    HW121224   0.800   2.054   3.549
 6775SOL    HW221225   0.797   2.157   3.676
 6776SOL     OW21226   3.908   3.650   1.222
 6776SOL    HW121227   3.848   3.676   1.146
 6776SOL    HW221228   3.853   3.630   1.303
 6777SOL     OW21229   4.453   5.985   0.621
 6777SOL    HW121230   4.384   5.979   0.549
 6777SOL    HW221231   4.526   5.920   0.603
 6778SOL     OW21232   6.476   3.620   2.428
 6778SOL    HW121233   6.399   3.650   2.484
 6778SOL    HW221234   6.554   3.679   2.444
 6779SOL     OW21235   5.553   4.670   6.628
 6779SOL    HW121236   5.462   4.669   6.585
 6779SOL    HW221237   5.617   4.720   6.569
 6780SOL     OW21238   1.148   3.796   2.465
 6780SOL    HW121239   1.150   3.885   2.510
 6780SOL    HW221240   1.239   3.774   2.430
 6781SOL     OW21241   6.655   1.855   3.877
 6781SOL    HW121242   6.593   1.846   3.955
 6781SOL    HW221243   6.623   1.929   3.818
 6782SOL     OW21244   0.712   1.240   2.959
 6782SOL    HW121245   0.644   1.215   2.890
 6782SOL    HW221246   0.732   1.338   2.953
 6783SOL     OW21247   0.677   3.661   5.666
 6783SOL    HW121248   0.680   3.685   5.763
 6783SOL    HW221249   0.582   3.652   5.637
 6784SOL     OW21250   2.117   4.372   1.378
 6784SOL    HW121251   2.132   4.274   1.391
 6784SOL    HW221252   2.043   4.402   1.438
 6785SOL     OW21253   5.797   5.193   5.707
 6785SOL    HW121254   5.712   5.181   5.757
 6785SOL    HW221255   5.812   5.114   5.647
 6786SOL     OW21256   0.216   3.340   6.502
 6786SOL    HW121257   0.153   3.309   6.430
 6786SOL    HW221258   0.170   3.335   6.590
 6787SOL     OW21259   3.436   1.769   1.360
 6787SOL    HW121260   3.393   1.849   1.401
 6787SOL    HW221261   3.481   1.714   1.430
 6788SOL     OW21262   0.514   3.865   2.242
 6788SOL    HW121263   0.494   3.892   2.148
 6788SOL    HW221264   0.518   3.946   2.300
 6789SOL     OW21265   0.014   4.662   3.967
 6789SOL    HW121266   0.039   4.653   4.063
 6789SOL    HW221267   0.095   4.684   3.913
 6790SOL     OW21268   0.072   4.273   6.699
 6790SOL    HW121269   0.007   4.296   6.771
 6790SOL    HW221270   0.074   4.173   6.686
 6791SOL     OW21271   4.439   1.944   2.733
 6791SOL    HW121272   4.368   1.931   2.665
 6791SOL    HW221273   4.400   1.932   2.825
 6792SOL     OW21274   4.567   0.073   4.906
 6792SOL    HW121275   4.531   0.148   4.961
 6792SOL    HW221276   4.624   0.014   4.963
 6793SOL     OW21277   2.960   1.274   6.813
 6793SOL    HW121278   2.902   1.276   6.895
 6793SOL    HW221279   3.033   1.342   6.822
 6794SOL     OW21280   4.803   1.029   5.346
 6794SOL    HW121281   4.855   1.109   5.313
 6794SOL    HW221282   4.810   1.025   5.445
 6795SOL     OW21283   1.007   0.104   0.410
 6795SOL    HW121284   0.992   0.162   0.330
 6795SOL    HW221285   1.094   0.056   0.402
 6796SOL     OW21286   5.935   0.363   2.751
 6796SOL    HW121287   5.899   0.324   2.836
 6796SOL    HW221288   5.917   0.462   2.750
 6797SOL     OW21289   6.233   1.302   0.606
 6797SOL    HW121290   6.312   1.363   0.607
 6797SOL    HW221291   6.157   1.348   0.559
 6798SOL     OW21292   6.249   0.489   1.083
 6798SOL    HW121293   6.290   0.437   1.159
 6798SOL    HW221294   6.311   0.562   1.056
 6799SOL     OW21295   5.595   0.223   2.375
 6799SOL    HW121296   5.515   0.215   2.433
 6799SOL    HW221297   5.678   0.220   2.432
 6800SOL     OW21298   2.316   2.376   1.778
 6800SOL    HW121299   2.228   2.378   1.826
 6800SOL    HW221300   2.372   2.453   1.808
 6801SOL     OW21301   0.578   6.226   3.716
 6801SOL    HW121302   0.613   6.142   3.756
 6801SOL    HW221303   0.485   6.243   3.750
 6802SOL     OW21304   3.390   5.796   1.031
 6802SOL    HW121305   3.369   5.815   1.126
 6802SOL    HW221306   3.449   5.868   0.994
 6803SOL     OW21307   4.460   3.929   6.920
 6803SOL    HW121308   4.402   3.978   6.855
 6803SOL    HW221309   4.516   3.862   6.871
 6804SOL     OW21310   3.303   4.974   2.777
 6804SOL    HW121311   3.312   5.072   2.790
 6804SOL    HW221312   3.388   4.936   2.741
 6805SOL     OW21313   0.506   5.195   6.898
 6805SOL    HW121314   0.588   5.138   6.906
 6805SOL    HW221315   0.510   5.248   6.813
 6806SOL     OW21316   6.916   0.672   4.026
 6806SOL    HW121317   6.873   0.757   4.055
 6806SOL    HW221318   6.870   0.595   4.069
 6807SOL     OW21319   3.805   4.041   3.370
 6807SOL    HW121320   3.889   4.001   3.407
 6807SOL    HW221321   3.728   4.013   3.427
 6808SOL     OW21322   5.642   1.065   5.108
 6808SOL    HW121323   5.732   1.071   5.064
 6808SOL    HW221324   5.570   1.069   5.039
 6809SOL     OW21325   6.054   3.644   0.617
 6809SOL    HW121326   6.097   3.596   0.540
 6809SOL    HW221327   6.088   3.606   0.703
 6810SOL     OW21328   3.126   0.941   2.869
 6810SOL    HW121329   3.173   0.952   2.781
 6810SOL    HW221330   3.091   1.030   2.899
 6811SOL     OW21331   6.630   2.967   2.143
 6811SOL    HW121332   6.557   2.963   2.211
 6811SOL    HW221333   6.680   2.880   2.142
 6812SOL     OW21334   3.367   3.822   4.988
 6812SOL    HW121335   3.349   3.905   5.041
 6812SOL    HW221336   3.463   3.795   5.000
 6813SOL     OW21337   5.634   3.272   2.275
 6813SOL    HW121338   5.600   3.329   2.349
 6813SOL    HW221339   5.733   3.259   2.285
 6814SOL     OW21340   4.826   1.690   6.629
 6814SOL    HW121341   4.912   1.652   6.663
 6814SOL    HW221342   4.773   1.618   6.584
 6815SOL     OW21343   2.212   5.913   6.893
 6815SOL    HW121344   2.275   5.940   6.967
 6815SOL    HW221345   2.230   5.818   6.867
 6816SOL     OW21346   0.004   1.659   4.893
 6816SOL    HW121347   7.011   1.675   4.795
 6816SOL    HW221348   6.960   1.587   4.922
 6817SOL     OW21349   2.369   2.719   4.013
 6817SOL    HW121350   2.337   2.811   3.993
 6817SOL    HW221351   2.315   2.652   3.962
 6818SOL     OW21352   2.066   6.535   0.220
 6818SOL    HW121353   2.153   6.529   0.269
 6818SOL    HW221354   2.083   6.541   0.122
 6819SOL     OW21355   4.512   1.046   2.693
 6819SOL    HW121356   4.538   1.016   2.785
 6819SOL    HW221357   4.533   0.973   2.627
 6820SOL     OW21358   1.198   5.647   1.484
 6820SOL    HW121359   1.212   5.745   1.472
 6820SOL    HW221360   1.247   5.597   1.413
 6821SOL     OW21361   4.611   3.052   5.681
 6821SOL    HW121362   4.635   2.995   5.759
 6821SOL    HW221363   4.534   3.011   5.631
 6822SOL     OW21364   6.504   2.782   6.472
 6822SOL    HW121365   6.462   2.708   6.421
 6822SOL    HW221366   6.604   2.773   6.469
 6823SOL     OW21367   5.550   4.330   6.942
 6823SOL    HW121368   5.459   4.298   6.967
 6823SOL    HW221369   5.573   4.411   6.996
 6824SOL     OW21370   1.693   1.537   0.509
 6824SOL    HW121371   1.707   1.443   0.477
 6824SOL    HW221372   1.732   1.547   0.600
 6825SOL     OW21373   6.515   0.252   0.224
 6825SOL    HW121374   6.421   0.261   0.189
 6825SOL    HW221375   6.526   0.310   0.305
 6826SOL     OW21376   1.274   3.963   3.915
 6826SOL    HW121377   1.318   3.889   3.966
 6826SOL    HW221378   1.232   3.925   3.832
 6827SOL     OW21379   5.171   5.577   5.788
 6827SOL    HW121380   5.167   5.499   5.851
 6827SOL    HW221381   5.265   5.590   5.757
 6828SOL     OW21382   4.009   1.344   2.601
 6828SOL    HW121383   3.953   1.344   2.684
 6828SOL    HW221384   3.953   1.312   2.524
 6829SOL     OW21385   5.368   6.594   5.542
 6829SOL    HW121386   5.310   6.587   5.623
 6829SOL    HW221387   5.409   6.685   5.539
 6830SOL     OW21388   5.698   0.909   3.501
 6830SOL    HW121389   5.719   0.934   3.596
 6830SOL    HW221390   5.617   0.850   3.499
 6831SOL     OW21391   1.527   0.718   5.665
 6831SOL    HW121392   1.523   0.772   5.749
 6831SOL    HW221393   1.457   0.750   5.601
 6832SOL     OW21394   2.287   3.821   0.567
 6832SOL    HW121395   2.221   3.796   0.496
 6832SOL    HW221396   2.368   3.763   0.559
 6833SOL     OW21397   2.642   4.955   6.250
 6833SOL    HW121398   2.641   4.905   6.163
 6833SOL    HW221399   2.643   4.890   6.326
 6834SOL     OW21400   5.590   0.431   1.055
 6834SOL    HW121401   5.582   0.369   1.132
 6834SOL    HW221402   5.508   0.489   1.049
 6835SOL     OW21403   3.723   1.359   4.597
 6835SOL    HW121404   3.772   1.422   4.536
 6835SOL    HW221405   3.772   1.352   4.684
 6836SOL     OW21406   2.006   4.124   6.378
 6836SOL    HW121407   1.918   4.083   6.400
 6836SOL    HW221408   2.002   4.223   6.394
 6837SOL     OW21409   0.831   1.499   2.926
 6837SOL    HW121410   0.827   1.484   2.827
 6837SOL    HW221411   0.915   1.548   2.948
 6838SOL     OW21412   2.417   4.256   5.824
 6838SOL    HW121413   2.517   4.265   5.817
 6838SOL    HW221414   2.377   4.259   5.732
 6839SOL     OW21415   5.504   1.603   4.154
 6839SOL    HW121416   5.582   1.658   4.124
 6839SOL    HW221417   5.509   1.587   4.252
 6840SOL     OW21418   3.024   6.430   5.410
 6840SOL    HW121419   3.034   6.359   5.480
 6840SOL    HW221420   2.927   6.442   5.389
 6841SOL     OW21421   4.049   5.033   1.006
 6841SOL    HW121422   4.027   5.129   1.027
 6841SOL    HW221423   4.000   4.973   1.070
 6842SOL     OW21424   2.084   2.764   6.791
 6842SOL    HW121425   1.997   2.714   6.785
 6842SOL    HW221426   2.131   2.740   6.875
 6843SOL     OW21427   4.979   0.761   2.304
 6843SOL    HW121428   5.057   0.769   2.367
 6843SOL    HW221429   4.910   0.702   2.344
 6844SOL     OW21430   5.710   6.089   3.972
 6844SOL    HW121431   5.625   6.130   3.940
 6844SOL    HW221432   5.730   6.120   4.065
 6845SOL     OW21433   4.944   4.568   2.372
 6845SOL    HW121434   4.991   4.639   2.425
 6845SOL    HW221435   5.009   4.525   2.308
 6846SOL     OW21436   4.153   3.309   1.515
 6846SOL    HW121437   4.171   3.387   1.455
 6846SOL    HW221438   4.138   3.227   1.460
 6847SOL     OW21439   6.798   3.680   1.707
 6847SOL    HW121440   6.779   3.733   1.625
 6847SOL    HW221441   6.739   3.713   1.782
 6848SOL     OW21442   2.684   6.298   3.152
 6848SOL    HW121443   2.625   6.284   3.072
 6848SOL    HW221444   2.702   6.211   3.197
 6849SOL     OW21445   2.556   5.653   4.694
 6849SOL    HW121446   2.591   5.606   4.613
 6849SOL    HW221447   2.615   5.631   4.773
 6850SOL     OW21448   5.300   3.216   2.492
 6850SOL    HW121449   5.373   3.284   2.492
 6850SOL    HW221450   5.331   3.133   2.447
 6851SOL     OW21451   1.356   2.622   4.429
 6851SOL    HW121452   1.447   2.657   4.404
 6851SOL    HW221453   1.288   2.664   4.369
 6852SOL     OW21454   1.411   4.463   1.172
 6852SOL    HW121455   1.394   4.394   1.103
 6852SOL    HW221456   1.379   4.552   1.139
 6853SOL     OW21457   6.493   3.526   6.467
 6853SOL    HW121458   6.499   3.612   6.517
 6853SOL    HW221459   6.486   3.450   6.531
 6854SOL     OW21460   5.759   1.532   5.764
 6854SOL    HW121461   5.794   1.621   5.734
 6854SOL    HW221462   5.697   1.545   5.841
 6855SOL     OW21463   3.522   5.768   2.747
 6855SOL    HW121464   3.545   5.857   2.708
 6855SOL    HW221465   3.428   5.745   2.724
 6856SOL     OW21466   4.919   4.326   5.501
 6856SOL    HW121467   4.923   4.343   5.600
 6856SOL    HW221468   4.946   4.232   5.482
 6857SOL     OW21469   3.781   1.649   0.042
 6857SOL    HW121470   3.866   1.598   0.052
 6857SOL    HW221471   3.762   1.662   6.963
 6858SOL     OW21472   4.136   3.658   4.835
 6858SOL    HW121473   4.118   3.578   4.778
 6858SOL    HW221474   4.234   3.661   4.859
 6859SOL     OW21475   1.582   6.629   1.355
 6859SOL    HW121476   1.662   6.583   1.395
 6859SOL    HW221477   1.612   6.705   1.297
 6860SOL     OW21478   5.440   5.423   1.766
 6860SOL    HW121479   5.412   5.501   1.823
 6860SOL    HW221480   5.415   5.441   1.671
 6861SOL     OW21481   5.896   4.511   1.058
 6861SOL    HW121482   5.835   4.434   1.075
 6861SOL    HW221483   5.990   4.485   1.077
 6862SOL     OW21484   2.148   4.558   4.356
 6862SOL    HW121485   2.185   4.466   4.347
 6862SOL    HW221486   2.223   4.625   4.347
 6863SOL     OW21487   5.517   1.513   4.395
 6863SOL    HW121488   5.585   1.529   4.467
 6863SOL    HW221489   5.513   1.415   4.374
 6864SOL     OW21490   3.465   6.400   3.881
 6864SOL    HW121491   3.548   6.352   3.854
 6864SOL    HW221492   3.400   6.334   3.920
 6865SOL     OW21493   6.422   5.532   2.572
 6865SOL    HW121494   6.343   5.500   2.625
 6865SOL    HW221495   6.464   5.453   2.526
 6866SOL     OW21496   6.325   4.321   2.174
 6866SOL    HW121497   6.363   4.356   2.260
 6866SOL    HW221498   6.235   4.362   2.159
 6867SOL     OW21499   1.353   4.503   1.445
 6867SOL    HW121500   1.256   4.504   1.468
 6867SOL    HW221501   1.366   4.457   1.357
 6868SOL     OW21502   1.827   5.320   5.438
 6868SOL    HW121503   1.757   5.285   5.377
 6868SOL    HW221504   1.799   5.410   5.473
 6869SOL     OW21505   5.741   2.403   5.263
 6869SOL    HW121506   5.814   2.471   5.252
 6869SOL    HW221507   5.754   2.330   5.197
 6870SOL     OW21508   0.182   4.664   2.392
 6870SOL    HW121509   0.238   4.600   2.340
 6870SOL    HW221510   0.085   4.643   2.378
 6871SOL     OW21511   5.976   5.283   2.031
 6871SOL    HW121512   6.001   5.186   2.042
 6871SOL    HW221513   5.879   5.291   2.011
 6872SOL     OW21514   1.317   3.366   0.419
 6872SOL    HW121515   1.242   3.406   0.367
 6872SOL    HW221516   1.358   3.436   0.477
 6873SOL     OW21517   5.924   3.774   5.054
 6873SOL    HW121518   5.994   3.811   5.114
 6873SOL    HW221519   5.965   3.711   4.988
 6874SOL     OW21520   1.007   4.989   3.067
 6874SOL    HW121521   1.103   5.000   3.040
 6874SOL    HW221522   0.948   5.034   3.000
 6875SOL     OW21523   1.119   2.830   3.761
 6875SOL    HW121524   1.142   2.837   3.664
 6875SOL    HW221525   1.051   2.899   3.784
 6876SOL     OW21526   4.042   5.618   5.359
 6876SOL    HW121527   3.992   5.664   5.285
 6876SOL    HW221528   3.993   5.535   5.386
 6877SOL     OW21529   2.700   4.289   6.240
 6877SOL    HW121530   2.615   4.320   6.197
 6877SOL    HW221531   2.689   4.194   6.270
 6878SOL     OW21532   2.587   2.583   5.236
 6878SOL    HW121533   2.571   2.506   5.297
 6878SOL    HW221534   2.521   2.581   5.161
 6879SOL     OW21535   0.816   2.099   0.247
 6879SOL    HW121536   0.884   2.027   0.262
 6879SOL    HW221537   0.733   2.059   0.207
 6880SOL     OW21538   2.121   3.363   4.984
 6880SOL    HW121539   2.138   3.288   5.048
 6880SOL    HW221540   2.194   3.431   4.992
 6881SOL     OW21541   0.239   3.746   2.033
 6881SOL    HW121542   0.279   3.664   2.073
 6881SOL    HW221543   0.303   3.787   1.968
 6882SOL     OW21544   3.010   0.427   5.537
 6882SOL    HW121545   3.102   0.431   5.575
 6882SOL    HW221546   3.015   0.407   5.440
 6883SOL     OW21547   3.754   1.292   0.784
 6883SOL    HW121548   3.838   1.290   0.839
 6883SOL    HW221549   3.767   1.236   0.702
 6884SOL     OW21550   1.535   3.418   4.651
 6884SOL    HW121551   1.466   3.357   4.612
 6884SOL    HW221552   1.538   3.503   4.599
 6885SOL     OW21553   4.034   5.453   5.069
 6885SOL    HW121554   4.112   5.515   5.080
 6885SOL    HW221555   4.058   5.380   5.005
 6886SOL     OW21556   6.988   0.919   3.595
 6886SOL    HW121557   6.942   0.878   3.673
 6886SOL    HW221558   6.945   0.888   3.510
 6887SOL     OW21559   5.084   0.041   5.633
 6887SOL    HW121560   5.013   6.997   5.668
 6887SOL    HW221561   5.050   0.086   5.550
 6888SOL     OW21562   5.480   6.840   6.625
 6888SOL    HW121563   5.487   6.754   6.675
 6888SOL    HW221564   5.385   6.868   6.619
 6889SOL     OW21565   1.744   2.323   5.550
 6889SOL    HW121566   1.804   2.245   5.566
 6889SOL    HW221567   1.707   2.317   5.457
 6890SOL     OW21568   3.436   6.513   1.550
 6890SOL    HW121569   3.525   6.554   1.567
 6890SOL    HW221570   3.448   6.418   1.521
 6891SOL     OW21571   2.220   4.113   4.336
 6891SOL    HW121572   2.256   4.021   4.352
 6891SOL    HW221573   2.144   4.130   4.400
 6892SOL     OW21574   3.141   0.989   3.230
 6892SOL    HW121575   3.206   0.972   3.156
 6892SOL    HW221576   3.072   1.054   3.199
 6893SOL     OW21577   5.391   5.464   0.361
 6893SOL    HW121578   5.382   5.506   0.451
 6893SOL    HW221579   5.380   5.534   0.291
 6894SOL     OW21580   6.130   5.608   6.771
 6894SOL    HW121581   6.080   5.616   6.684
 6894SOL    HW221582   6.152   5.512   6.788
 6895SOL     OW21583   3.112   5.467   6.487
 6895SOL    HW121584   3.032   5.513   6.451
 6895SOL    HW221585   3.188   5.476   6.423
 6896SOL     OW21586   1.727   6.990   4.127
 6896SOL    HW121587   1.794   7.013   4.056
 6896SOL    HW221588   1.662   6.923   4.092
 6897SOL     OW21589   2.270   3.450   6.902
 6897SOL    HW121590   2.289   3.432   6.998
 6897SOL    HW221591   2.339   3.513   6.866
 6898SOL     OW21592   4.327   1.462   2.370
 6898SOL    HW121593   4.296   1.516   2.448
 6898SOL    HW221594   4.300   1.367   2.383
 6899SOL     OW21595   4.935   6.740   0.887
 6899SOL    HW121596   5.003   6.813   0.884
 6899SOL    HW221597   4.859   6.763   0.826
 6900SOL     OW21598   6.186   0.971   5.768
 6900SOL    HW121599   6.174   1.061   5.809
 6900SOL    HW221600   6.216   0.906   5.838
 6901SOL     OW21601   0.779   6.847   5.893
 6901SOL    HW121602   0.747   6.871   5.801
 6901SOL    HW221603   0.792   6.930   5.946
 6902SOL     OW21604   6.796   6.571   0.699
 6902SOL    HW121605   6.701   6.600   0.687
 6902SOL    HW221606   6.834   6.543   0.611
 6903SOL     OW21607   4.504   5.057   4.901
 6903SOL    HW121608   4.575   5.111   4.946
 6903SOL    HW221609   4.442   5.117   4.851
 6904SOL     OW21610   5.905   1.936   4.006
 6904SOL    HW121611   5.864   2.009   4.060
 6904SOL    HW221612   5.906   1.963   3.909
 6905SOL     OW21613   5.831   6.924   0.227
 6905SOL    HW121614   5.741   6.967   0.241
 6905SOL    HW221615   5.899   6.969   0.284
 6906SOL     OW21616   4.193   0.583   3.875
 6906SOL    HW121617   4.175   0.491   3.840
 6906SOL    HW221618   4.143   0.650   3.820
 6907SOL     OW21619   4.775   1.396   1.363
 6907SOL    HW121620   4.742   1.367   1.453
 6907SOL    HW221621   4.857   1.343   1.340
 6908SOL     OW21622   1.037   6.830   5.583
 6908SOL    HW121623   1.019   6.740   5.543
 6908SOL    HW221624   1.089   6.885   5.517
 6909SOL     OW21625   5.372   4.349   1.434
 6909SOL    HW121626   5.447   4.283   1.443
 6909SOL    HW221627   5.302   4.331   1.503
 6910SOL     OW21628   6.671   2.587   3.367
 6910SOL    HW121629   6.715   2.613   3.281
 6910SOL    HW221630   6.718   2.509   3.407
 6911SOL     OW21631   3.800   6.748   3.423
 6911SOL    HW121632   3.758   6.814   3.361
 6911SOL    HW221633   3.892   6.780   3.448
 6912SOL     OW21634   4.439   4.916   0.390
 6912SOL    HW121635   4.372   4.967   0.444
 6912SOL    HW221636   4.472   4.838   0.443
 6913SOL     OW21637   5.525   4.681   6.045
 6913SOL    HW121638   5.581   4.756   6.009
 6913SOL    HW221639   5.495   4.622   5.971
 6914SOL     OW21640   6.236   5.489   0.038
 6914SOL    HW121641   6.330   5.517   0.021
 6914SOL    HW221642   6.204   5.429   6.983
 6915SOL     OW21643   6.205   4.586   1.740
 6915SOL    HW121644   6.264   4.632   1.674
 6915SOL    HW221645   6.256   4.514   1.786
 6916SOL     OW21646   6.040   3.753   0.302
 6916SOL    HW121647   6.094   3.677   0.339
 6916SOL    HW221648   6.021   3.736   0.205
 6917SOL     OW21649   3.314   5.862   0.597
 6917SOL    HW121650   3.311   5.909   0.509
 6917SOL    HW221651   3.395   5.804   0.600
 6918SOL     OW21652   1.168   2.973   4.371
 6918SOL    HW121653   1.236   2.998   4.302
 6918SOL    HW221654   1.134   2.881   4.353
 6919SOL     OW21655   0.689   6.165   3.352
 6919SOL    HW121656   0.648   6.174   3.262
 6919SOL    HW221657   0.678   6.251   3.402
 6920SOL     OW21658   4.356   5.654   6.172
 6920SOL    HW121659   4.331   5.590   6.244
 6920SOL    HW221660   4.273   5.682   6.122
 6921SOL     OW21661   4.976   5.686   3.040
 6921SOL    HW121662   4.887   5.643   3.049
 6921SOL    HW221663   5.040   5.623   2.996
 6922SOL     OW21664   2.282   5.315   6.778
 6922SOL    HW121665   2.273   5.414   6.767
 6922SOL    HW221666   2.251   5.269   6.695
 6923SOL     OW21667   5.059   5.658   3.909
 6923SOL    HW121668   5.087   5.704   3.825
 6923SOL    HW221669   5.098   5.706   3.988
 6924SOL     OW21670   1.019   4.428   0.153
 6924SOL    HW121671   1.114   4.435   0.184
 6924SOL    HW221672   0.999   4.333   0.129
 6925SOL     OW21673   3.974   5.731   4.799
 6925SOL    HW121674   4.010   5.640   4.776
 6925SOL    HW221675   3.899   5.754   4.737
 6926SOL     OW21676   3.194   3.018   2.641
 6926SOL    HW121677   3.211   2.938   2.584
 6926SOL    HW221678   3.154   3.091   2.585
 6927SOL     OW21679   4.905   3.538   5.780
 6927SOL    HW121680   4.930   3.570   5.872
 6927SOL    HW221681   4.941   3.445   5.766
 6928SOL     OW21682   6.695   6.586   1.086
 6928SOL    HW121683   6.685   6.641   1.003
 6928SOL    HW221684   6.748   6.504   1.065
 6929SOL     OW21685   4.888   5.363   1.064
 6929SOL    HW121686   4.840   5.410   1.138
 6929SOL    HW221687   4.847   5.387   0.976
 6930SOL     OW21688   0.113   0.065   1.735
 6930SOL    HW121689   0.135   0.132   1.806
 6930SOL    HW221690   0.192   0.054   1.675
 6931SOL     OW21691   1.553   0.919   2.276
 6931SOL    HW121692   1.620   0.984   2.311
 6931SOL    HW221693   1.561   0.832   2.326
 6932SOL     OW21694   4.163   0.309   1.139
 6932SOL    HW121695   4.128   0.255   1.062
 6932SOL    HW221696   4.238   0.368   1.107
 6933SOL     OW21697   3.089   5.872   5.230
 6933SOL    HW121698   3.127   5.845   5.141
 6933SOL    HW221699   3.105   5.799   5.297
 6934SOL     OW21700   5.090   4.256   6.317
 6934SOL    HW121701   5.006   4.202   6.308
 6934SOL    HW221702   5.125   4.280   6.227
 6935SOL     OW21703   4.416   5.936   3.611
 6935SOL    HW121704   4.347   5.867   3.593
 6935SOL    HW221705   4.474   5.907   3.687
 6936SOL     OW21706   6.721   2.967   2.756
 6936SOL    HW121707   6.772   3.003   2.678
 6936SOL    HW221708   6.772   2.892   2.797
 6937SOL     OW21709   6.382   6.160   0.031
 6937SOL    HW121710   6.463   6.109   0.001
 6937SOL    HW221711   6.376   6.246   6.999
 6938SOL     OW21712   4.726   3.787   5.310
 6938SOL    HW121713   4.686   3.729   5.239
 6938SOL    HW221714   4.773   3.730   5.378
 6939SOL     OW21715   0.142   4.489   0.871
 6939SOL    HW121716   0.120   4.397   0.902
 6939SOL    HW221717   0.170   4.486   0.775
 6940SOL     OW21718   5.173   1.064   0.144
 6940SOL    HW121719   5.084   1.033   0.179
 6940SOL    HW221720   5.214   0.991   0.090
 6941SOL     OW21721   3.549   3.062   3.274
 6941SOL    HW121722   3.525   3.011   3.357
 6941SOL    HW221723   3.552   2.999   3.196
 6942SOL     OW21724   6.339   2.915   0.589
 6942SOL    HW121725   6.289   2.832   0.616
 6942SOL    HW221726   6.377   2.958   0.671
 6943SOL     OW21727   5.357   6.268   0.092
 6943SOL    HW121728   5.403   6.284   0.005
 6943SOL    HW221729   5.323   6.355   0.129
 6944SOL     OW21730   1.508   4.267   6.106
 6944SOL    HW121731   1.607   4.258   6.093
 6944SOL    HW221732   1.476   4.351   6.062
 6945SOL     OW21733   5.628   3.011   6.265
 6945SOL    HW121734   5.656   3.066   6.344
 6945SOL    HW221735   5.528   3.011   6.257
 6946SOL     OW21736   6.377   6.343   1.765
 6946SOL    HW121737   6.400   6.432   1.724
 6946SOL    HW221738   6.383   6.351   1.864
 6947SOL     OW21739   3.162   6.988   5.686
 6947SOL    HW121740   3.147   6.971   5.783
 6947SOL    HW221741   3.149   6.903   5.635
 6948SOL     OW21742   5.979   0.688   6.693
 6948SOL    HW121743   5.987   0.713   6.597
 6948SOL    HW221744   5.908   0.618   6.704
 6949SOL     OW21745   5.478   6.907   4.198
 6949SOL    HW121746   5.396   6.907   4.140
 6949SOL    HW221747   5.452   6.885   4.292
 6950SOL     OW21748   1.853   0.422   4.019
 6950SOL    HW121749   1.923   0.350   4.016
 6950SOL    HW221750   1.821   0.442   3.926
 6951SOL     OW21751   6.470   6.006   6.094
 6951SOL    HW121752   6.389   5.947   6.090
 6951SOL    HW221753   6.494   6.035   6.001
 6952SOL     OW21754   6.927   5.922   4.213
 6952SOL    HW121755   6.971   6.001   4.169
 6952SOL    HW221756   6.832   5.944   4.233
 6953SOL     OW21757   4.394   0.168   6.840
 6953SOL    HW121758   4.372   0.217   6.924
 6953SOL    HW221759   4.371   0.225   6.761
 6954SOL     OW21760   0.408   4.045   4.216
 6954SOL    HW121761   0.508   4.058   4.212
 6954SOL    HW221762   0.367   4.124   4.262
 6955SOL     OW21763   6.904   0.960   2.608
 6955SOL    HW121764   6.848   0.890   2.653
 6955SOL    HW221765   6.846   1.020   2.554
 6956SOL     OW21766   4.360   6.155   2.912
 6956SOL    HW121767   4.428   6.083   2.897
 6956SOL    HW221768   4.306   6.167   2.829
 6957SOL     OW21769   5.471   4.859   1.286
 6957SOL    HW121770   5.533   4.832   1.360
 6957SOL    HW221771   5.438   4.777   1.239
 6958SOL     OW21772   2.918   3.868   5.142
 6958SOL    HW121773   2.931   3.889   5.045
 6958SOL    HW221774   2.829   3.901   5.172
 6959SOL     OW21775   2.573   1.237   4.640
 6959SOL    HW121776   2.495   1.294   4.666
 6959SOL    HW221777   2.541   1.161   4.584
 6960SOL     OW21778   1.318   5.402   1.078
 6960SOL    HW121779   1.254   5.442   1.144
 6960SOL    HW221780   1.410   5.404   1.117
 6961SOL     OW21781   6.550   2.937   4.482
 6961SOL    HW121782   6.630   2.878   4.495
 6961SOL    HW221783   6.480   2.888   4.431
 6962SOL     OW21784   5.074   6.052   2.362
 6962SOL    HW121785   5.164   6.039   2.405
 6962SOL    HW221786   5.073   6.010   2.272
 6963SOL     OW21787   6.682   5.391   1.042
 6963SOL    HW121788   6.779   5.415   1.042
 6963SOL    HW221789   6.673   5.291   1.047
 6964SOL     OW21790   3.798   5.225   4.745
 6964SOL    HW121791   3.810   5.322   4.725
 6964SOL    HW221792   3.726   5.188   4.687
 6965SOL     OW21793   0.819   3.451   6.456
 6965SOL    HW121794   0.805   3.543   6.418
 6965SOL    HW221795   0.834   3.459   6.555
 6966SOL     OW21796   6.811   2.385   3.488
 6966SOL    HW121797   6.908   2.405   3.477
 6966SOL    HW221798   6.797   2.332   3.572
 6967SOL     OW21799   1.592   0.509   5.370
 6967SOL    HW121800   1.610   0.534   5.465
 6967SOL    HW221801   1.530   0.430   5.367
 6968SOL     OW21802   3.973   6.736   2.789
 6968SOL    HW121803   3.899   6.671   2.769
 6968SOL    HW221804   3.933   6.825   2.811
 6969SOL     OW21805   3.216   2.034   1.106
 6969SOL    HW121806   3.129   2.034   1.155
 6969SOL    HW221807   3.266   1.949   1.123
 6970SOL     OW21808   4.359   3.701   6.630
 6970SOL    HW121809   4.451   3.701   6.669
 6970SOL    HW221810   4.324   3.795   6.629
 6971SOL     OW21811   6.725   4.536   1.421
 6971SOL    HW121812   6.743   4.584   1.507
 6971SOL    HW221813   6.673   4.596   1.359
 6972SOL     OW21814   5.283   4.801   4.030
 6972SOL    HW121815   5.360   4.832   4.085
 6972SOL    HW221816   5.232   4.731   4.080
 6973SOL     OW21817   1.135   3.530   5.715
 6973SOL    HW121818   1.129   3.432   5.700
 6973SOL    HW221819   1.046   3.572   5.698
 6974SOL     OW21820   3.884   2.986   2.979
 6974SOL    HW121821   3.840   3.074   2.996
 6974SOL    HW221822   3.854   2.950   2.891
 6975SOL     OW21823   2.409   6.147   5.833
 6975SOL    HW121824   2.461   6.097   5.902
 6975SOL    HW221825   2.362   6.082   5.773
 6976SOL     OW21826   4.319   5.106   5.143
 6976SOL    HW121827   4.316   5.205   5.132
 6976SOL    HW221828   4.381   5.067   5.074
 6977SOL     OW21829   4.348   2.561   1.694
 6977SOL    HW121830   4.295   2.632   1.646
 6977SOL    HW221831   4.445   2.574   1.676
 6978SOL     OW21832   5.230   1.759   1.986
 6978SOL    HW121833   5.160   1.816   2.029
 6978SOL    HW221834   5.206   1.743   1.890
 6979SOL     OW21835   1.119   4.639   0.913
 6979SOL    HW121836   1.193   4.630   0.979
 6979SOL    HW221837   1.118   4.560   0.852
 6980SOL     OW21838   1.313   1.438   3.783
 6980SOL    HW121839   1.277   1.364   3.839
 6980SOL    HW221840   1.287   1.423   3.687
 6981SOL     OW21841   2.956   3.005   6.208
 6981SOL    HW121842   3.020   3.059   6.262
 6981SOL    HW221843   2.905   3.065   6.146
 6982SOL     OW21844   1.610   0.984   4.333
 6982SOL    HW121845   1.704   0.954   4.346
 6982SOL    HW221846   1.609   1.080   4.304
 6983SOL     OW21847   5.317   2.080   3.855
 6983SOL    HW121848   5.227   2.075   3.897
 6983SOL    HW221849   5.310   2.063   3.757
 6984SOL     OW21850   2.439   2.040   4.133
 6984SOL    HW121851   2.399   1.991   4.211
 6984SOL    HW221852   2.463   2.133   4.161
 6985SOL     OW21853   4.197   5.486   1.174
 6985SOL    HW121854   4.269   5.554   1.187
 6985SOL    HW221855   4.193   5.459   1.078
 6986SOL     OW21856   2.202   6.077   6.672
 6986SOL    HW121857   2.105   6.060   6.657
 6986SOL    HW221858   2.232   6.026   6.753
 6987SOL     OW21859   0.373   1.849   6.341
 6987SOL    HW121860   0.311   1.851   6.419
 6987SOL    HW221861   0.352   1.769   6.284
 6988SOL     OW21862   6.572   1.129   5.537
 6988SOL    HW121863   6.580   1.200   5.468
 6988SOL    HW221864   6.520   1.052   5.501
 6989SOL     OW21865   0.628   3.754   4.195
 6989SOL    HW121866   0.709   3.787   4.147
 6989SOL    HW221867   0.644   3.757   4.293
 6990SOL     OW21868   5.067   2.098   1.629
 6990SOL    HW121869   5.111   2.183   1.659
 6990SOL    HW221870   5.118   2.059   1.552
 6991SOL     OW21871   3.165   4.985   3.751
 6991SOL    HW121872   3.232   4.959   3.682
 6991SOL    HW221873   3.200   5.063   3.804
 6992SOL     OW21874   5.326   6.916   5.447
 6992SOL    HW121875   5.409   6.966   5.470
 6992SOL    HW221876   5.259   6.928   5.521
 6993SOL     OW21877   0.150   1.238   3.343
 6993SOL    HW121878   0.217   1.166   3.355
 6993SOL    HW221879   0.104   1.226   3.255
 6994SOL     OW21880   0.685   3.372   4.782
 6994SOL    HW121881   0.670   3.288   4.834
 6994SOL    HW221882   0.668   3.354   4.685
 6995SOL     OW21883   6.340   4.697   6.239
 6995SOL    HW121884   6.298   4.737   6.321
 6995SOL    HW221885   6.324   4.757   6.161
 6996SOL     OW21886   2.767   0.276   6.705
 6996SOL    HW121887   2.719   0.311   6.626
 6996SOL    HW221888   2.701   0.252   6.776
 6997SOL     OW21889   5.829   6.477   5.452
 6997SOL    HW121890   5.825   6.452   5.548
 6997SOL    HW221891   5.801   6.573   5.441
 6998SOL     OW21892   1.926   2.390   0.965
 6998SOL    HW121893   2.012   2.438   0.946
 6998SOL    HW221894   1.912   2.318   0.897
 6999SOL     OW21895   2.529   2.561   5.822
 6999SOL    HW121896   2.620   2.590   5.853
 6999SOL    HW221897   2.535   2.471   5.780
 7000SOL     OW21898   6.537   6.177   1.593
 7000SOL    HW121899   6.537   6.221   1.503
 7000SOL    HW221900   6.483   6.232   1.657
 7001SOL     OW21901   2.399   3.089   5.446
 7001SOL    HW121902   2.426   3.069   5.352
 7001SOL    HW221903   2.316   3.145   5.445
 7002SOL     OW21904   2.006   5.423   2.582
 7002SOL    HW121905   2.097   5.395   2.611
 7002SOL    HW221906   1.998   5.523   2.590
 7003SOL     OW21907   4.411   5.820   6.973
 7003SOL    HW121908   4.503   5.856   6.989
 7003SOL    HW221909   4.389   5.829   6.875
 7004SOL     OW21910   2.062   4.702   1.989
 7004SOL    HW121911   2.047   4.614   2.034
 7004SOL    HW221912   1.995   4.768   2.022
 7005SOL     OW21913   1.650   6.340   0.152
 7005SOL    HW121914   1.567   6.392   0.133
 7005SOL    HW221915   1.682   6.295   0.069
 7006SOL     OW21916   5.216   4.810   4.579
 7006SOL    HW121917   5.250   4.874   4.511
 7006SOL    HW221918   5.125   4.838   4.610
 7007SOL     OW21919   4.447   6.343   3.974
 7007SOL    HW121920   4.460   6.336   3.875
 7007SOL    HW221921   4.475   6.433   4.006
 7008SOL     OW21922   1.538   4.549   5.306
 7008SOL    HW121923   1.633   4.524   5.288
 7008SOL    HW221924   1.480   4.514   5.232
 7009SOL     OW21925   6.531   5.641   2.327
 7009SOL    HW121926   6.486   5.730   2.312
 7009SOL    HW221927   6.510   5.608   2.419
 7010SOL     OW21928   4.883   4.365   5.780
 7010SOL    HW121929   4.898   4.335   5.874
 7010SOL    HW221930   4.790   4.344   5.752
 7011SOL     OW21931   3.206   6.957   6.025
 7011SOL    HW121932   3.123   6.902   6.037
 7011SOL    HW221933   3.203   0.018   6.086
 7012SOL     OW21934   1.623   1.132   2.652
 7012SOL    HW121935   1.543   1.192   2.659
 7012SOL    HW221936   1.677   1.139   2.736
 7013SOL     OW21937   0.618   0.676   0.675
 7013SOL    HW121938   0.532   0.629   0.693
 7013SOL    HW221939   0.688   0.609   0.649
 7014SOL     OW21940   4.420   3.189   1.398
 7014SOL    HW121941   4.339   3.248   1.396
 7014SOL    HW221942   4.466   3.199   1.486
 7015SOL     OW21943   5.863   4.536   2.517
 7015SOL    HW121944   5.936   4.533   2.449
 7015SOL    HW221945   5.877   4.464   2.585
 7016SOL     OW21946   3.609   4.835   1.668
 7016SOL    HW121947   3.537   4.824   1.600
 7016SOL    HW221948   3.587   4.782   1.750
 7017SOL     OW21949   2.527   6.808   2.798
 7017SOL    HW121950   2.595   6.776   2.864
 7017SOL    HW221951   2.445   6.752   2.805
 7018SOL     OW21952   6.086   4.340   4.346
 7018SOL    HW121953   6.060   4.306   4.436
 7018SOL    HW221954   6.009   4.328   4.283
 7019SOL     OW21955   2.298   3.838   6.257
 7019SOL    HW121956   2.366   3.910   6.244
 7019SOL    HW221957   2.302   3.805   6.352
 7020SOL     OW21958   6.386   6.952   6.631
 7020SOL    HW121959   6.368   6.896   6.711
 7020SOL    HW221960   6.325   0.013   6.631
 7021SOL     OW21961   1.643   1.512   5.698
 7021SOL    HW121962   1.742   1.498   5.695
 7021SOL    HW221963   1.604   1.490   5.609
 7022SOL     OW21964   4.703   5.869   0.524
 7022SOL    HW121965   4.741   5.778   0.510
 7022SOL    HW221966   4.777   5.936   0.525
 7023SOL     OW21967   0.508   1.943   3.708
 7023SOL    HW121968   0.590   2.001   3.710
 7023SOL    HW221969   0.532   1.853   3.670
 7024SOL     OW21970   1.456   4.055   5.777
 7024SOL    HW121971   1.526   4.124   5.762
 7024SOL    HW221972   1.365   4.095   5.760
 7025SOL     OW21973   2.459   1.208   6.960
 7025SOL    HW121974   2.514   1.173   6.885
 7025SOL    HW221975   2.388   1.141   6.983
 7026SOL     OW21976   3.212   1.761   2.279
 7026SOL    HW121977   3.156   1.751   2.196
 7026SOL    HW221978   3.153   1.784   2.356
 7027SOL     OW21979   2.707   4.934   3.843
 7027SOL    HW121980   2.779   4.880   3.802
 7027SOL    HW221981   2.622   4.921   3.792
 7028SOL     OW21982   4.684   0.031   4.444
 7028SOL    HW121983   4.735   0.033   4.529
 7028SOL    HW221984   4.744   0.057   4.368
 7029SOL     OW21985   4.808   5.658   5.735
 7029SOL    HW121986   4.800   5.755   5.760
 7029SOL    HW221987   4.728   5.631   5.681
 7030SOL     OW21988   0.403   1.984   4.999
 7030SOL    HW121989   0.423   2.080   4.983
 7030SOL    HW221990   0.419   1.932   4.915
 7031SOL     OW21991   1.722   6.395   4.936
 7031SOL    HW121992   1.735   6.478   4.882
 7031SOL    HW221993   1.667   6.416   5.017
 7032SOL     OW21994   3.764   0.240   3.601
 7032SOL    HW121995   3.731   0.146   3.603
 7032SOL    HW221996   3.699   0.297   3.551
 7033SOL     OW21997   1.377   2.261   3.523
 7033SOL    HW121998   1.335   2.351   3.508
 7033SOL    HW221999   1.466   2.272   3.566
 7034SOL     OW22000   6.375   0.081   3.471
 7034SOL    HW122001   6.415   7.016   3.511
 7034SOL    HW222002   6.402   0.088   3.375
 7035SOL     OW22003   1.544   6.362   1.696
 7035SOL    HW122004   1.577   6.332   1.606
 7035SOL    HW222005   1.447   6.338   1.706
 7036SOL     OW22006   0.208   0.885   3.079
 7036SOL    HW122007   0.265   0.889   2.997
 7036SOL    HW222008   0.126   0.941   3.065
 7037SOL     OW22009   1.674   0.231   6.455
 7037SOL    HW122010   1.737   0.230   6.378
 7037SOL    HW222011   1.612   0.309   6.446
 7038SOL     OW22012   1.511   2.988   4.386
 7038SOL    HW122013   1.564   2.904   4.387
 7038SOL    HW222014   1.508   3.024   4.293
 7039SOL     OW22015   2.776   5.005   1.560
 7039SOL    HW122016   2.773   4.907   1.542
 7039SOL    HW222017   2.683   5.042   1.556
 7040SOL     OW22018   5.968   1.753   4.784
 7040SOL    HW122019   5.898   1.764   4.854
 7040SOL    HW222020   5.996   1.657   4.781
 7041SOL     OW22021   0.946   2.422   1.675
 7041SOL    HW122022   1.015   2.493   1.663
 7041SOL    HW222023   0.981   2.350   1.735
 7042SOL     OW22024   5.528   5.887   6.040
 7042SOL    HW122025   5.433   5.875   6.011
 7042SOL    HW222026   5.556   5.808   6.094
 7043SOL     OW22027   2.104   3.225   2.377
 7043SOL    HW122028   2.110   3.159   2.452
 7043SOL    HW222029   2.197   3.254   2.351
 7044SOL     OW22030   4.736   5.545   3.083
 7044SOL    HW122031   4.769   5.510   2.995
 7044SOL    HW222032   4.657   5.491   3.113
 7045SOL     OW22033   5.049   5.868   2.792
 7045SOL    HW122034   5.042   5.859   2.891
 7045SOL    HW222035   5.003   5.951   2.761
 7046SOL     OW22036   3.558   1.594   2.828
 7046SOL    HW122037   3.562   1.498   2.853
 7046SOL    HW222038   3.623   1.646   2.883
 7047SOL     OW22039   0.967   2.652   1.889
 7047SOL    HW122040   0.881   2.633   1.843
 7047SOL    HW222041   0.953   2.650   1.988
 7048SOL     OW22042   6.636   6.077   2.560
 7048SOL    HW122043   6.709   6.122   2.611
 7048SOL    HW222044   6.619   6.127   2.474
 7049SOL     OW22045   3.398   1.972   0.752
 7049SOL    HW122046   3.451   1.896   0.790
 7049SOL    HW222047   3.415   1.978   0.654
 7050SOL     OW22048   4.011   3.946   2.314
 7050SOL    HW122049   3.986   3.872   2.378
 7050SOL    HW222050   3.978   4.033   2.350
 7051SOL     OW22051   0.504   0.218   1.033
 7051SOL    HW122052   0.512   0.275   0.951
 7051SOL    HW222053   0.574   0.245   1.099
 7052SOL     OW22054   5.785   2.890   3.571
 7052SOL    HW122055   5.700   2.844   3.547
 7052SOL    HW222056   5.863   2.837   3.536
 7053SOL     OW22057   0.934   4.067   5.363
 7053SOL    HW122058   0.984   4.059   5.277
 7053SOL    HW222059   0.970   4.000   5.429
 7054SOL     OW22060   0.670   6.580   0.519
 7054SOL    HW122061   0.682   6.602   0.616
 7054SOL    HW222062   0.723   6.644   0.464
 7055SOL     OW22063   3.393   5.957   5.443
 7055SOL    HW122064   3.465   5.915   5.388
 7055SOL    HW222065   3.402   5.927   5.538
 7056SOL     OW22066   5.921   5.425   2.404
 7056SOL    HW122067   5.895   5.330   2.421
 7056SOL    HW222068   5.990   5.454   2.471
 7057SOL     OW22069   0.854   5.857   3.486
 7057SOL    HW122070   0.947   5.895   3.489
 7057SOL    HW222071   0.857   5.760   3.511
 7058SOL     OW22072   6.859   5.953   6.244
 7058SOL    HW122073   6.891   5.873   6.295
 7058SOL    HW222074   6.821   5.924   6.156
 7059SOL     OW22075   6.490   0.775   4.087
 7059SOL    HW122076   6.478   0.723   4.002
 7059SOL    HW222077   6.551   0.725   4.148
 7060SOL     OW22078   4.094   6.978   1.682
 7060SOL    HW122079   4.037   0.018   1.624
 7060SOL    HW222080   4.076   6.882   1.661
 7061SOL     OW22081   0.559   3.302   3.860
 7061SOL    HW122082   0.489   3.334   3.924
 7061SOL    HW222083   0.569   3.368   3.786
 7062SOL     OW22084   5.199   1.045   5.451
 7062SOL    HW122085   5.120   1.000   5.493
 7062SOL    HW222086   5.187   1.144   5.455
 7063SOL     OW22087   0.912   0.514   1.472
 7063SOL    HW122088   0.876   0.425   1.443
 7063SOL    HW222089   0.989   0.500   1.534
 7064SOL     OW22090   4.248   1.989   2.319
 7064SOL    HW122091   4.230   2.072   2.266
 7064SOL    HW222092   4.247   1.910   2.258
 7065SOL     OW22093   4.300   3.593   6.295
 7065SOL    HW122094   4.315   3.691   6.283
 7065SOL    HW222095   4.203   3.572   6.281
 7066SOL     OW22096   4.283   6.748   0.632
 7066SOL    HW122097   4.276   6.847   0.642
 7066SOL    HW222098   4.290   6.724   0.535
 7067SOL     OW22099   1.902   2.033   5.293
 7067SOL    HW122100   1.910   2.132   5.304
 7067SOL    HW222101   1.961   2.002   5.219
 7068SOL     OW22102   0.283   4.263   4.323
 7068SOL    HW122103   0.247   4.342   4.274
 7068SOL    HW222104   0.239   4.255   4.412
 7069SOL     OW22105   5.737   1.394   3.973
 7069SOL    HW122106   5.764   1.486   4.001
 7069SOL    HW222107   5.775   1.374   3.882
 7070SOL     OW22108   6.041   6.227   4.724
 7070SOL    HW122109   6.132   6.195   4.752
 7070SOL    HW222110   6.020   6.313   4.771
 7071SOL     OW22111   1.941   6.037   6.573
 7071SOL    HW122112   1.881   5.958   6.561
 7071SOL    HW222113   1.890   6.120   6.549
 7072SOL     OW22114   1.128   6.603   6.978
 7072SOL    HW122115   1.197   6.624   0.029
 7072SOL    HW222116   1.051   6.555   0.002
 7073SOL     OW22117   5.133   0.032   4.417
 7073SOL    HW122118   5.140   0.099   4.343
 7073SOL    HW222119   5.152   0.078   4.505
 7074SOL     OW22120   4.781   2.067   2.046
 7074SOL    HW122121   4.702   2.052   1.987
 7074SOL    HW222122   4.786   2.163   2.071
 7075SOL     OW22123   1.700   5.023   4.864
 7075SOL    HW122124   1.770   5.030   4.935
 7075SOL    HW222125   1.615   4.989   4.904
 7076SOL     OW22126   5.789   2.189   6.682
 7076SOL    HW122127   5.864   2.156   6.624
 7076SOL    HW222128   5.742   2.264   6.637
 7077SOL     OW22129   2.365   4.505   3.996
 7077SOL    HW122130   2.312   4.589   3.999
 7077SOL    HW222131   2.462   4.526   3.984
 7078SOL     OW22132   0.239   0.060   1.349
 7078SOL    HW122133   0.180   0.036   1.272
 7078SOL    HW222134   0.247   7.000   1.411
 7079SOL     OW22135   6.517   6.166   4.873
 7079SOL    HW122136   6.580   6.109   4.819
 7079SOL    HW222137   6.560   6.190   4.959
 7080SOL     OW22138   2.659   2.447   3.902
 7080SOL    HW122139   2.706   2.365   3.936
 7080SOL    HW222140   2.701   2.529   3.942
 7081SOL     OW22141   2.767   1.089   6.827
 7081SOL    HW122142   2.828   1.148   6.774
 7081SOL    HW222143   2.820   1.012   6.864
 7082SOL     OW22144   6.341   4.581   0.041
 7082SOL    HW122145   6.377   4.667   0.004
 7082SOL    HW222146   6.246   4.594   0.069
 7083SOL     OW22147   2.505   0.671   0.423
 7083SOL    HW122148   2.438   0.720   0.479
 7083SOL    HW222149   2.463   0.588   0.387
 7084SOL     OW22150   0.243   6.797   5.585
 7084SOL    HW122151   0.315   6.795   5.516
 7084SOL    HW222152   0.280   6.832   5.671
 7085SOL     OW22153   1.156   2.232   1.910
 7085SOL    HW122154   1.236   2.289   1.927
 7085SOL    HW222155   1.098   2.230   1.991
 7086SOL     OW22156   5.273   1.025   5.146
 7086SOL    HW122157   5.295   1.114   5.107
 7086SOL    HW222158   5.249   1.036   5.243
 7087SOL     OW22159   6.493   3.547   3.903
 7087SOL    HW122160   6.418   3.546   3.837
 7087SOL    HW222161   6.577   3.577   3.858
 7088SOL     OW22162   5.421   2.806   3.228
 7088SOL    HW122163   5.397   2.879   3.293
 7088SOL    HW222164   5.339   2.777   3.180
 7089SOL     OW22165   3.268   2.116   4.805
 7089SOL    HW122166   3.251   2.181   4.879
 7089SOL    HW222167   3.197   2.126   4.735
 7090SOL     OW22168   2.577   0.743   6.583
 7090SOL    HW122169   2.478   0.741   6.592
 7090SOL    HW222170   2.601   0.744   6.486
 7091SOL     OW22171   0.155   1.497   6.840
 7091SOL    HW122172   0.253   1.513   6.833
 7091SOL    HW222173   0.113   1.569   6.895
 7092SOL     OW22174   4.604   2.712   6.305
 7092SOL    HW122175   4.625   2.738   6.400
 7092SOL    HW222176   4.519   2.756   6.277
 7093SOL     OW22177   3.041   3.952   3.638
 7093SOL    HW122178   3.019   3.919   3.729
 7093SOL    HW222179   3.098   4.034   3.645
 7094SOL     OW22180   0.802   5.817   6.304
 7094SOL    HW122181   0.783   5.841   6.209
 7094SOL    HW222182   0.873   5.877   6.340
 7095SOL     OW22183   2.838   3.701   6.127
 7095SOL    HW122184   2.776   3.778   6.144
 7095SOL    HW222185   2.874   3.708   6.034
 7096SOL     OW22186   6.083   0.915   3.628
 7096SOL    HW122187   6.075   0.958   3.717
 7096SOL    HW222188   6.160   0.953   3.578
 7097SOL     OW22189   5.935   1.124   1.178
 7097SOL    HW122190   5.910   1.221   1.177
 7097SOL    HW222191   5.966   1.097   1.087
 7098SOL     OW22192   1.213   0.303   4.784
 7098SOL    HW122193   1.178   0.246   4.710
 7098SOL    HW222194   1.263   0.380   4.746
 7099SOL     OW22195   2.471   0.737   5.098
 7099SOL    HW122196   2.445   0.664   5.036
 7099SOL    HW222197   2.556   0.713   5.146
 7100SOL     OW22198   5.451   2.435   1.279
 7100SOL    HW122199   5.389   2.388   1.341
 7100SOL    HW222200   5.415   2.527   1.260
 7101SOL     OW22201   2.354   1.334   5.034
 7101SOL    HW122202   2.439   1.385   5.026
 7101SOL    HW222203   2.311   1.325   4.943
 7102SOL     OW22204   4.358   0.337   0.840
 7102SOL    HW122205   4.368   0.409   0.909
 7102SOL    HW222206   4.273   0.288   0.855
 7103SOL     OW22207   4.678   5.022   2.177
 7103SOL    HW122208   4.614   4.972   2.236
 7103SOL    HW222209   4.675   5.119   2.199
 7104SOL     OW22210   0.526   2.943   4.492
 7104SOL    HW122211   0.449   2.902   4.443
 7104SOL    HW222212   0.612   2.903   4.460
 7105SOL     OW22213   2.785   2.749   5.346
 7105SOL    HW122214   2.763   2.720   5.439
 7105SOL    HW222215   2.751   2.681   5.281
 7106SOL     OW22216   2.952   3.670   3.034
 7106SOL    HW122217   2.906   3.632   3.114
 7106SOL    HW222218   3.045   3.698   3.059
 7107SOL     OW22219   3.187   1.737   0.102
 7107SOL    HW122220   3.108   1.798   0.106
 7107SOL    HW222221   3.200   1.693   0.191
 7108SOL     OW22222   4.095   6.137   2.743
 7108SOL    HW122223   4.096   6.230   2.780
 7108SOL    HW222224   4.004   6.098   2.754
 7109SOL     OW22225   2.660   0.771   5.875
 7109SOL    HW122226   2.565   0.766   5.844
 7109SOL    HW222227   2.693   0.865   5.866
 7110SOL     OW22228   3.766   5.567   4.406
 7110SOL    HW122229   3.675   5.536   4.434
 7110SOL    HW222230   3.764   5.666   4.391
 7111SOL     OW22231   1.399   2.000   4.272
 7111SOL    HW122232   1.418   1.976   4.177
 7111SOL    HW222233   1.374   1.918   4.323
 7112SOL     OW22234   1.125   5.421   4.452
 7112SOL    HW122235   1.111   5.353   4.524
 7112SOL    HW222236   1.049   5.486   4.452
 7113SOL     OW22237   3.609   4.007   5.248
 7113SOL    HW122238   3.627   3.998   5.150
 7113SOL    HW222239   3.512   4.027   5.262
 7114SOL     OW22240   3.798   0.009   1.603
 7114SOL    HW122241   3.763   7.014   1.510
 7114SOL    HW222242   3.724   0.039   1.662
 7115SOL     OW22243   5.653   3.162   1.815
 7115SOL    HW122244   5.618   3.239   1.868
 7115SOL    HW222245   5.676   3.087   1.876
 7116SOL     OW22246   6.408   4.367   3.142
 7116SOL    HW122247   6.471   4.426   3.092
 7116SOL    HW222248   6.357   4.311   3.077
 7117SOL     OW22249   6.703   5.918   5.169
 7117SOL    HW122250   6.760   5.958   5.097
 7117SOL    HW222251   6.686   5.985   5.240
 7118SOL     OW22252   2.579   3.751   0.933
 7118SOL    HW122253   2.523   3.833   0.946
 7118SOL    HW222254   2.587   3.702   1.020
 7119SOL     OW22255   5.388   2.158   2.928
 7119SOL    HW122256   5.456   2.224   2.896
 7119SOL    HW222257   5.335   2.198   3.002
 7120SOL     OW22258   3.851   2.002   2.961
 7120SOL    HW122259   3.780   1.932   2.966
 7120SOL    HW222260   3.841   2.065   3.038
 7121SOL     OW22261   2.134   6.784   3.122
 7121SOL    HW122262   2.126   6.702   3.065
 7121SOL    HW222263   2.208   6.771   3.189
 7122SOL     OW22264   1.196   6.885   6.114
 7122SOL    HW122265   1.159   6.802   6.072
 7122SOL    HW222266   1.124   6.954   6.120
 7123SOL     OW22267   1.968   4.396   3.214
 7123SOL    HW122268   1.912   4.319   3.243
 7123SOL    HW222269   1.912   4.479   3.210
 7124SOL     OW22270   6.879   2.194   0.736
 7124SOL    HW122271   6.952   2.258   0.761
 7124SOL    HW222272   6.819   2.180   0.815
 7125SOL     OW22273   6.643   6.952   0.578
 7125SOL    HW122274   6.550   6.923   0.598
 7125SOL    HW222275   6.643   0.031   0.554
 7126SOL     OW22276   3.214   5.160   0.080
 7126SOL    HW122277   3.204   5.205   7.009
 7126SOL    HW222278   3.270   5.216   0.140
 7127SOL     OW22279   1.568   5.346   5.253
 7127SOL    HW122280   1.582   5.248   5.267
 7127SOL    HW222281   1.638   5.381   5.191
 7128SOL     OW22282   2.985   4.851   0.540
 7128SOL    HW122283   2.896   4.805   0.538
 7128SOL    HW222284   2.977   4.937   0.591
 7129SOL     OW22285   2.127   1.163   0.004
 7129SOL    HW122286   2.092   1.245   0.049
 7129SOL    HW222287   2.155   1.186   6.929
 7130SOL     OW22288   4.191   5.620   5.594
 7130SOL    HW122289   4.146   5.600   5.506
 7130SOL    HW222290   4.261   5.690   5.580
 7131SOL     OW22291   2.531   0.711   0.999
 7131SOL    HW122292   2.584   0.792   0.972
 7131SOL    HW222293   2.559   0.682   1.091
 7132SOL     OW22294   3.693   3.836   6.809
 7132SOL    HW122295   3.691   3.797   6.717
 7132SOL    HW222296   3.726   3.930   6.804
 7133SOL     OW22297   5.353   5.390   5.562
 7133SOL    HW122298   5.444   5.349   5.557
 7133SOL    HW222299   5.360   5.488   5.543
 7134SOL     OW22300   6.014   6.835   1.934
 7134SOL    HW122301   5.918   6.851   1.960
 7134SOL    HW222302   6.017   6.772   1.856
 7135SOL     OW22303   1.078   3.609   3.412
 7135SOL    HW122304   1.028   3.647   3.334
 7135SOL    HW222305   1.109   3.516   3.390
 7136SOL     OW22306   2.210   2.783   0.868
 7136SOL    HW122307   2.205   2.713   0.797
 7136SOL    HW222308   2.295   2.771   0.920
 7137SOL     OW22309   3.671   0.068   6.953
 7137SOL    HW122310   3.608   0.145   6.950
 7137SOL    HW222311   3.765   0.102   6.943
 7138SOL     OW22312   1.421   2.288   0.048
 7138SOL    HW122313   1.424   2.361   0.116
 7138SOL    HW222314   1.327   2.254   0.040
 7139SOL     OW22315   5.635   3.478   1.768
 7139SOL    HW122316   5.627   3.399   1.707
 7139SOL    HW222317   5.600   3.453   1.858
 7140SOL     OW22318   5.651   4.515   4.129
 7140SOL    HW122319   5.605   4.503   4.217
 7140SOL    HW222320   5.705   4.599   4.130
 7141SOL     OW22321   3.644   6.238   1.707
 7141SOL    HW122322   3.712   6.282   1.766
 7141SOL    HW222323   3.580   6.185   1.764
 7142SOL     OW22324   4.372   0.566   3.359
 7142SOL    HW122325   4.367   0.488   3.422
 7142SOL    HW222326   4.403   0.647   3.408
 7143SOL     OW22327   1.221   2.160   6.312
 7143SOL    HW122328   1.121   2.164   6.312
 7143SOL    HW222329   1.253   2.135   6.404
 7144SOL     OW22330   1.674   2.211   2.295
 7144SOL    HW122331   1.584   2.179   2.266
 7144SOL    HW222332   1.745   2.164   2.243
 7145SOL     OW22333   4.160   6.896   6.985
 7145SOL    HW122334   4.252   6.926   7.011
 7145SOL    HW222335   4.104   6.887   0.049
 7146SOL     OW22336   1.953   0.451   1.353
 7146SOL    HW122337   2.024   0.516   1.380
 7146SOL    HW222338   1.975   0.413   1.263
 7147SOL     OW22339   0.420   6.852   3.446
 7147SOL    HW122340   0.372   6.827   3.362
 7147SOL    HW222341   0.481   6.928   3.428
 7148SOL     OW22342   0.758   6.337   0.465
 7148SOL    HW122343   0.733   6.433   0.473
 7148SOL    HW222344   0.736   6.289   0.550
 7149SOL     OW22345   6.024   6.904   2.998
 7149SOL    HW122346   6.068   6.961   3.069
 7149SOL    HW222347   6.072   6.817   2.992
 7150SOL     OW22348   3.416   2.068   2.238
 7150SOL    HW122349   3.430   2.155   2.190
 7150SOL    HW222350   3.438   1.992   2.177
 7151SOL     OW22351   1.873   6.276   0.950
 7151SOL    HW122352   1.800   6.255   1.016
 7151SOL    HW222353   1.961   6.272   0.996
 7152SOL     OW22354   1.272   0.915   4.844
 7152SOL    HW122355   1.203   0.974   4.801
 7152SOL    HW222356   1.350   0.970   4.872
 7153SOL     OW22357   3.349   5.071   2.058
 7153SOL    HW122358   3.295   5.068   2.142
 7153SOL    HW222359   3.396   5.159   2.052
 7154SOL     OW22360   3.704   0.483   3.810
 7154SOL    HW122361   3.605   0.479   3.821
 7154SOL    HW222362   3.729   0.455   3.718
 7155SOL     OW22363   1.960   3.126   1.732
 7155SOL    HW122364   2.023   3.055   1.702
 7155SOL    HW222365   1.999   3.175   1.811
 7156SOL     OW22366   0.075   4.087   4.575
 7156SOL    HW122367   0.093   4.153   4.648
 7156SOL    HW222368   0.162   4.061   4.532
 7157SOL     OW22369   5.889   3.927   1.978
 7157SOL    HW122370   5.882   4.024   2.002
 7157SOL    HW222371   5.825   3.874   2.033
 7158SOL     OW22372   1.111   6.884   2.968
 7158SOL    HW122373   1.056   6.805   2.941
 7158SOL    HW222374   1.115   6.950   2.892
 7159SOL     OW22375   0.489   4.680   2.291
 7159SOL    HW122376   0.481   4.756   2.226
 7159SOL    HW222377   0.446   4.598   2.253
 7160SOL     OW22378   5.126   0.028   2.949
 7160SOL    HW122379   5.075   0.055   3.031
 7160SOL    HW222380   5.085   6.962   2.911
 7161SOL     OW22381   2.891   3.477   4.504
 7161SOL    HW122382   2.875   3.574   4.519
 7161SOL    HW222383   2.845   3.424   4.575
 7162SOL     OW22384   1.531   5.394   6.426
 7162SOL    HW122385   1.483   5.332   6.488
 7162SOL    HW222386   1.469   5.468   6.399
 7163SOL     OW22387   2.454   6.474   3.045
 7163SOL    HW122388   2.392   6.451   3.120
 7163SOL    HW222389   2.478   6.392   2.994
 7164SOL     OW22390   1.925   0.872   3.606
 7164SOL    HW122391   1.843   0.840   3.559
 7164SOL    HW222392   1.978   0.793   3.636
 7165SOL     OW22393   6.923   1.236   2.106
 7165SOL    HW122394   6.979   1.183   2.042
 7165SOL    HW222395   6.872   1.173   2.165
 7166SOL     OW22396   6.158   2.721   0.619
 7166SOL    HW122397   6.108   2.635   0.629
 7166SOL    HW222398   6.092   2.796   0.608
 7167SOL     OW22399   5.300   3.460   3.901
 7167SOL    HW122400   5.244   3.414   3.969
 7167SOL    HW222401   5.397   3.443   3.920
 7168SOL     OW22402   1.842   2.475   3.448
 7168SOL    HW122403   1.902   2.554   3.442
 7168SOL    HW222404   1.885   2.405   3.506
 7169SOL     OW22405   6.624   2.399   5.055
 7169SOL    HW122406   6.689   2.431   4.985
 7169SOL    HW222407   6.644   2.444   5.142
 7170SOL     OW22408   5.134   6.058   3.620
 7170SOL    HW122409   5.104   6.122   3.691
 7170SOL    HW222410   5.056   6.007   3.586
 7171SOL     OW22411   5.141   3.490   0.156
 7171SOL    HW122412   5.215   3.527   0.212
 7171SOL    HW222413   5.146   3.527   0.064
 7172SOL     OW22414   1.611   0.247   4.848
 7172SOL    HW122415   1.625   0.150   4.833
 7172SOL    HW222416   1.579   0.262   4.942
 7173SOL     OW22417   6.868   4.521   6.002
 7173SOL    HW122418   6.849   4.468   6.085
 7173SOL    HW222419   6.963   4.552   6.004
 7174SOL     OW22420   0.379   4.671   0.263
 7174SOL    HW122421   0.392   4.720   0.177
 7174SOL    HW222422   0.379   4.736   0.339
 7175SOL     OW22423   5.297   2.441   6.645
 7175SOL    HW122424   5.239   2.489   6.579
 7175SOL    HW222425   5.306   2.496   6.728
 7176SOL     OW22426   0.535   6.912   3.042
 7176SOL    HW122427   0.478   6.850   3.096
 7176SOL    HW222428   0.489   6.933   2.956
 7177SOL     OW22429   1.682   5.665   4.568
 7177SOL    HW122430   1.769   5.714   4.571
 7177SOL    HW222431   1.691   5.585   4.509
 7178SOL     OW22432   2.287   2.233   5.886
 7178SOL    HW122433   2.365   2.204   5.830
 7178SOL    HW222434   2.230   2.154   5.907
 7179SOL     OW22435   2.137   3.833   4.290
 7179SOL    HW122436   2.132   3.752   4.349
 7179SOL    HW222437   2.102   3.811   4.199
 7180SOL     OW22438   2.567   5.182   0.438
 7180SOL    HW122439   2.493   5.141   0.492
 7180SOL    HW222440   2.637   5.113   0.420
 7181SOL     OW22441   2.234   6.189   0.479
 7181SOL    HW122442   2.151   6.233   0.512
 7181SOL    HW222443   2.212   6.098   0.442
 7182SOL     OW22444   1.370   2.461   5.048
 7182SOL    HW122445   1.414   2.549   5.030
 7182SOL    HW222446   1.326   2.429   4.964
 7183SOL     OW22447   2.487   6.037   0.473
 7183SOL    HW122448   2.543   6.052   0.392
 7183SOL    HW222449   2.422   6.112   0.483
 7184SOL     OW22450   6.628   1.317   3.353
 7184SOL    HW122451   6.662   1.377   3.426
 7184SOL    HW222452   6.631   1.366   3.266
 7185SOL     OW22453   5.000   0.536   5.200
 7185SOL    HW122454   4.999   0.630   5.233
 7185SOL    HW222455   5.045   0.478   5.268
 7186SOL     OW22456   6.676   1.018   6.859
 7186SOL    HW122457   6.580   0.996   6.877
 7186SOL    HW222458   6.729   1.010   6.943
 7187SOL     OW22459   3.535   4.416   6.533
 7187SOL    HW122460   3.634   4.431   6.540
 7187SOL    HW222461   3.501   4.459   6.449
 7188SOL     OW22462   0.025   0.436   0.467
 7188SOL    HW122463   0.012   0.460   0.371
 7188SOL    HW222464   6.974   0.482   0.523
 7189SOL     OW22465   0.554   1.016   5.874
 7189SOL    HW122466   0.491   0.941   5.854
 7189SOL    HW222467   0.643   0.978   5.900
 7190SOL     OW22468   0.236   3.927   2.467
 7190SOL    HW122469   0.220   4.025   2.480
 7190SOL    HW222470   0.181   3.894   2.389
 7191SOL     OW22471   0.576   4.130   2.643
 7191SOL    HW122472   0.532   4.069   2.709
 7191SOL    HW222473   0.665   4.158   2.679
 7192SOL     OW22474   3.366   4.516   5.678
 7192SOL    HW122475   3.326   4.608   5.677
 7192SOL    HW222476   3.355   4.473   5.589
 7193SOL     OW22477   1.791   2.448   2.116
 7193SOL    HW122478   1.726   2.401   2.176
 7193SOL    HW222479   1.862   2.490   2.172
 7194SOL     OW22480   2.720   2.048   0.590
 7194SOL    HW122481   2.714   1.989   0.510
 7194SOL    HW222482   2.804   2.103   0.586
 7195SOL     OW22483   6.937   4.512   0.200
 7195SOL    HW122484   6.956   4.459   0.117
 7195SOL    HW222485   6.840   4.505   0.222
 7196SOL     OW22486   3.623   4.241   1.343
 7196SOL    HW122487   3.718   4.270   1.361
 7196SOL    HW222488   3.565   4.266   1.420
 7197SOL     OW22489   0.336   2.447   5.648
 7197SOL    HW122490   0.326   2.452   5.549
 7197SOL    HW222491   0.271   2.509   5.692
 7198SOL     OW22492   0.332   0.778   6.671
 7198SOL    HW122493   0.406   0.811   6.611
 7198SOL    HW222494   0.352   0.804   6.765
 7199SOL     OW22495   1.994   1.022   2.944
 7199SOL    HW122496   2.035   1.040   2.855
 7199SOL    HW222497   1.896   1.003   2.932
 7200SOL     OW22498   2.671   1.889   0.260
 7200SOL    HW122499   2.608   1.908   0.185
 7200SOL    HW222500   2.743   1.828   0.228
 7201SOL     OW22501   0.759   5.865   4.199
 7201SOL    HW122502   0.798   5.778   4.169
 7201SOL    HW222503   0.832   5.925   4.231
 7202SOL     OW22504   4.279   0.401   6.153
 7202SOL    HW122505   4.269   0.340   6.231
 7202SOL    HW222506   4.301   0.348   6.071
 7203SOL     OW22507   0.126   1.987   0.906
 7203SOL    HW122508   0.098   1.902   0.861
 7203SOL    HW222509   0.117   2.063   0.842
 7204SOL     OW22510   0.349   6.877   5.823
 7204SOL    HW122511   0.258   6.896   5.859
 7204SOL    HW222512   0.417   6.893   5.894
 7205SOL     OW22513   0.871   5.601   3.577
 7205SOL    HW122514   0.879   5.502   3.587
 7205SOL    HW222515   0.845   5.641   3.665
 7206SOL     OW22516   1.728   0.614   1.296
 7206SOL    HW122517   1.660   0.560   1.246
 7206SOL    HW222518   1.813   0.561   1.304
 7207SOL     OW22519   3.560   0.452   2.905
 7207SOL    HW122520   3.559   0.488   2.998
 7207SOL    HW222521   3.651   0.466   2.865
 7208SOL     OW22522   3.612   6.609   3.581
 7208SOL    HW122523   3.680   6.654   3.523
 7208SOL    HW222524   3.659   6.554   3.650
 7209SOL     OW22525   2.919   3.404   2.413
 7209SOL    HW122526   2.854   3.480   2.420
 7209SOL    HW222527   2.923   3.372   2.318
 7210SOL     OW22528   4.486   0.322   3.901
 7210SOL    HW122529   4.516   0.407   3.858
 7210SOL    HW222530   4.462   0.255   3.830
 7211SOL     OW22531   2.485   5.939   3.986
 7211SOL    HW122532   2.426   6.004   3.937
 7211SOL    HW222533   2.542   5.989   4.052
 7212SOL     OW22534   0.310   6.084   5.258
 7212SOL    HW122535   0.408   6.078   5.276
 7212SOL    HW222536   0.267   5.995   5.272
 7213SOL     OW22537   5.228   0.087   0.238
 7213SOL    HW122538   5.280   0.087   0.324
 7213SOL    HW222539   5.130   0.078   0.259
 7214SOL     OW22540   6.960   5.006   5.745
 7214SOL    HW122541   6.863   5.024   5.732
 7214SOL    HW222542   7.013   5.065   5.685
 7215SOL     OW22543   0.207   3.598   5.411
 7215SOL    HW122544   0.225   3.696   5.405
 7215SOL    HW222545   0.160   3.579   5.497
 7216SOL     OW22546   3.471   6.443   6.563
 7216SOL    HW122547   3.406   6.426   6.490
 7216SOL    HW222548   3.538   6.368   6.566
 7217SOL     OW22549   2.487   4.595   2.770
 7217SOL    HW122550   2.391   4.617   2.751
 7217SOL    HW222551   2.498   4.577   2.867
 7218SOL     OW22552   4.864   2.535   5.277
 7218SOL    HW122553   4.765   2.522   5.283
 7218SOL    HW222554   4.886   2.629   5.303
 7219SOL     OW22555   4.446   6.678   4.818
 7219SOL    HW122556   4.390   6.760   4.807
 7219SOL    HW222557   4.533   6.690   4.770
 7220SOL     OW22558   0.933   5.387   5.110
 7220SOL    HW122559   0.980   5.466   5.148
 7220SOL    HW222560   0.878   5.415   5.031
 7221SOL     OW22561   4.041   5.703   4.432
 7221SOL    HW122562   3.969   5.635   4.447
 7221SOL    HW222563   4.111   5.694   4.503
 7222SOL     OW22564   6.166   0.275   2.642
 7222SOL    HW122565   6.193   0.185   2.676
 7222SOL    HW222566   6.089   0.309   2.695
 7223SOL     OW22567   3.142   2.174   1.436
 7223SOL    HW122568   3.052   2.178   1.392
 7223SOL    HW222569   3.134   2.209   1.529
 7224SOL     OW22570   5.776   2.125   3.681
 7224SOL    HW122571   5.863   2.076   3.680
 7224SOL    HW222572   5.788   2.215   3.723
 7225SOL     OW22573   1.141   5.969   0.410
 7225SOL    HW122574   1.184   5.892   0.457
 7225SOL    HW222575   1.052   5.988   0.451
 7226SOL     OW22576   6.865   1.127   1.111
 7226SOL    HW122577   6.932   1.085   1.050
 7226SOL    HW222578   6.853   1.223   1.087
 7227SOL     OW22579   1.380   2.449   1.171
 7227SOL    HW122580   1.426   2.537   1.156
 7227SOL    HW222581   1.296   2.464   1.222
 7228SOL     OW22582   0.916   1.647   2.476
 7228SOL    HW122583   0.951   1.647   2.382
 7228SOL    HW222584   0.838   1.709   2.483
 7229SOL     OW22585   1.637   6.401   5.446
 7229SOL    HW122586   1.669   6.368   5.534
 7229SOL    HW222587   1.572   6.475   5.460
 7230SOL     OW22588   4.597   5.067   4.478
 7230SOL    HW122589   4.518   5.013   4.507
 7230SOL    HW222590   4.635   5.030   4.394
 7231SOL     OW22591   4.978   0.106   0.347
 7231SOL    HW122592   4.961   0.178   0.413
 7231SOL    HW222593   4.930   0.128   0.261
 7232SOL     OW22594   5.523   5.410   2.605
 7232SOL    HW122595   5.517   5.452   2.695
 7232SOL    HW222596   5.575   5.470   2.544
 7233SOL     OW22597   0.406   2.571   4.452
 7233SOL    HW122598   0.415   2.481   4.495
 7233SOL    HW222599   0.457   2.572   4.366
 7234SOL     OW22600   5.485   3.410   3.492
 7234SOL    HW122601   5.435   3.357   3.423
 7234SOL    HW222602   5.566   3.358   3.521
 7235SOL     OW22603   6.759   4.009   1.701
 7235SOL    HW122604   6.761   3.975   1.608
 7235SOL    HW222605   6.763   3.933   1.765
 7236SOL     OW22606   2.164   1.979   2.364
 7236SOL    HW122607   2.135   2.064   2.321
 7236SOL    HW222608   2.087   1.917   2.372
 7237SOL     OW22609   5.040   0.400   4.889
 7237SOL    HW122610   5.059   0.371   4.983
 7237SOL    HW222611   5.088   0.486   4.869
 7238SOL     OW22612   2.928   2.059   1.229
 7238SOL    HW122613   2.850   2.100   1.277
 7238SOL    HW222614   2.910   1.962   1.213
 7239SOL     OW22615   1.791   2.379   2.475
 7239SOL    HW122616   1.886   2.402   2.455
 7239SOL    HW222617   1.755   2.321   2.403
 7240SOL     OW22618   2.738   4.743   6.030
 7240SOL    HW122619   2.739   4.662   5.971
 7240SOL    HW222620   2.775   4.720   6.120
 7241SOL     OW22621   2.348   0.778   0.627
 7241SOL    HW122622   2.255   0.808   0.605
 7241SOL    HW222623   2.402   0.857   0.655
 7242SOL     OW22624   6.157   6.100   0.419
 7242SOL    HW122625   6.090   6.162   0.462
 7242SOL    HW222626   6.140   6.097   0.320
 7243SOL     OW22627   6.706   4.758   5.949
 7243SOL    HW122628   6.714   4.803   6.038
 7243SOL    HW222629   6.722   4.660   5.960
 7244SOL     OW22630   6.051   0.539   0.833
 7244SOL    HW122631   6.100   0.543   0.920
 7244SOL    HW222632   6.082   0.614   0.774
 7245SOL     OW22633   0.603   1.935   5.219
 7245SOL    HW122634   0.536   1.933   5.144
 7245SOL    HW222635   0.668   2.009   5.203
 7246SOL     OW22636   6.314   0.386   4.096
 7246SOL    HW122637   6.272   0.407   4.185
 7246SOL    HW222638   6.354   0.294   4.099
 7247SOL     OW22639   3.164   0.045   4.122
 7247SOL    HW122640   3.125   0.021   4.033
 7247SOL    HW222641   3.217   0.129   4.112
 7248SOL     OW22642   3.500   1.031   3.624
 7248SOL    HW122643   3.580   1.086   3.602
 7248SOL    HW222644   3.431   1.039   3.552
 7249SOL     OW22645   5.571   4.494   2.058
 7249SOL    HW122646   5.485   4.446   2.076
 7249SOL    HW222647   5.609   4.530   2.143
 7250SOL     OW22648   4.058   6.425   6.561
 7250SOL    HW122649   3.974   6.394   6.608
 7250SOL    HW222650   4.131   6.359   6.577
 7251SOL     OW22651   0.411   0.035   5.241
 7251SOL    HW122652   0.414   6.977   5.306
 7251SOL    HW222653   0.317   0.048   5.209
 7252SOL     OW22654   3.297   3.227   3.333
 7252SOL    HW122655   3.215   3.184   3.295
 7252SOL    HW222656   3.371   3.159   3.338
 7253SOL     OW22657   2.624   6.047   6.557
 7253SOL    HW122658   2.673   5.962   6.575
 7253SOL    HW222659   2.625   6.105   6.639
 7254SOL     OW22660   4.492   5.536   4.548
 7254SOL    HW122661   4.582   5.546   4.591
 7254SOL    HW222662   4.501   5.487   4.462
 7255SOL     OW22663   4.030   3.821   0.949
 7255SOL    HW122664   4.020   3.916   0.922
 7255SOL    HW222665   3.944   3.772   0.933
 7256SOL     OW22666   4.427   4.607   4.496
 7256SOL    HW122667   4.345   4.662   4.479
 7256SOL    HW222668   4.488   4.613   4.418
 7257SOL     OW22669   4.960   3.125   3.919
 7257SOL    HW122670   4.908   3.172   3.847
 7257SOL    HW222671   5.024   3.189   3.961
 7258SOL     OW22672   4.147   0.838   2.705
 7258SOL    HW122673   4.136   0.795   2.795
 7258SOL    HW222674   4.166   0.935   2.717
 7259SOL     OW22675   3.260   3.507   1.298
 7259SOL    HW122676   3.270   3.473   1.204
 7259SOL    HW222677   3.334   3.571   1.318
 7260SOL     OW22678   2.783   2.294   2.607
 7260SOL    HW122679   2.781   2.326   2.512
 7260SOL    HW222680   2.876   2.265   2.630
 7261SOL     OW22681   2.223   2.866   1.367
 7261SOL    HW122682   2.182   2.821   1.288
 7261SOL    HW222683   2.218   2.806   1.446
 7262SOL     OW22684   5.431   1.637   4.718
 7262SOL    HW122685   5.510   1.588   4.680
 7262SOL    HW222686   5.462   1.703   4.786
 7263SOL     OW22687   0.376   6.445   1.904
 7263SOL    HW122688   0.279   6.445   1.928
 7263SOL    HW222689   0.417   6.532   1.930
 7264SOL     OW22690   5.833   1.269   6.756
 7264SOL    HW122691   5.889   1.317   6.688
 7264SOL    HW222692   5.776   1.201   6.711
 7265SOL     OW22693   5.253   5.896   6.000
 7265SOL    HW122694   5.263   5.878   5.902
 7265SOL    HW222695   5.194   5.975   6.014
 7266SOL     OW22696   4.671   0.240   1.432
 7266SOL    HW122697   4.731   0.164   1.406
 7266SOL    HW222698   4.700   0.277   1.520
 7267SOL     OW22699   6.703   5.580   5.475
 7267SOL    HW122700   6.745   5.632   5.400
 7267SOL    HW222701   6.652   5.642   5.535
 7268SOL     OW22702   4.403   4.627   2.854
 7268SOL    HW122703   4.308   4.660   2.847
 7268SOL    HW222704   4.447   4.635   2.765
 7269SOL     OW22705   0.074   6.208   1.241
 7269SOL    HW122706   0.139   6.145   1.283
 7269SOL    HW222707   0.123   6.269   1.178
 7270SOL     OW22708   0.771   2.972   5.067
 7270SOL    HW122709   0.807   2.997   5.157
 7270SOL    HW222710   0.832   2.905   5.024
 7271SOL     OW22711   0.657   5.030   3.915
 7271SOL    HW122712   0.671   5.129   3.926
 7271SOL    HW222713   0.691   4.982   3.996
 7272SOL     OW22714   5.519   4.641   1.807
 7272SOL    HW122715   5.420   4.642   1.824
 7272SOL    HW222716   5.565   4.593   1.881
 7273SOL     OW22717   4.999   5.013   2.373
 7273SOL    HW122718   4.949   5.009   2.286
 7273SOL    HW222719   5.063   5.089   2.371
 7274SOL     OW22720   1.109   6.252   6.793
 7274SOL    HW122721   1.010   6.255   6.784
 7274SOL    HW222722   1.133   6.211   6.881
 7275SOL     OW22723   0.086   1.031   2.776
 7275SOL    HW122724   0.018   1.026   2.703
 7275SOL    HW222725   0.039   1.030   2.865
 7276SOL     OW22726   3.793   1.215   3.055
 7276SOL    HW122727   3.786   1.116   3.043
 7276SOL    HW222728   3.853   1.234   3.133
 7277SOL     OW22729   5.073   1.112   4.363
 7277SOL    HW122730   5.089   1.038   4.429
 7277SOL    HW222731   5.146   1.180   4.372
 7278SOL     OW22732   3.341   1.912   1.932
 7278SOL    HW122733   3.273   1.984   1.949
 7278SOL    HW222734   3.424   1.932   1.983
 7279SOL     OW22735   3.926   2.697   6.447
 7279SOL    HW122736   3.831   2.710   6.473
 7279SOL    HW222737   3.960   2.780   6.404
 7280SOL     OW22738   6.887   2.104   4.032
 7280SOL    HW122739   6.979   2.094   3.994
 7280SOL    HW222740   6.848   2.192   4.003
 7281SOL     OW22741   1.965   0.677   0.344
 7281SOL    HW122742   1.881   0.629   0.316
 7281SOL    HW222743   2.014   0.621   0.410
 7282SOL     OW22744   6.618   6.598   0.353
 7282SOL    HW122745   6.694   6.662   0.365
 7282SOL    HW222746   6.536   6.648   0.327
 7283SOL     OW22747   3.019   0.041   1.904
 7283SOL    HW122748   3.051   0.033   1.809
 7283SOL    HW222749   3.039   0.132   1.938
 7284SOL     OW22750   6.988   3.201   4.853
 7284SOL    HW122751   6.955   3.150   4.932
 7284SOL    HW222752   6.956   3.296   4.858
 7285SOL     OW22753   5.644   3.714   2.030
 7285SOL    HW122754   5.686   3.627   2.004
 7285SOL    HW222755   5.626   3.768   1.947
 7286SOL     OW22756   1.131   0.425   1.244
 7286SOL    HW122757   1.107   0.393   1.152
 7286SOL    HW222758   1.101   0.520   1.256
 7287SOL     OW22759   6.718   3.585   4.628
 7287SOL    HW122760   6.664   3.644   4.568
 7287SOL    HW222761   6.788   3.538   4.574
 7288SOL     OW22762   1.123   2.192   1.632
 7288SOL    HW122763   1.148   2.206   1.728
 7288SOL    HW222764   1.204   2.207   1.574
 7289SOL     OW22765   6.622   1.978   2.970
 7289SOL    HW122766   6.598   2.057   3.027
 7289SOL    HW222767   6.565   1.900   2.997
 7290SOL     OW22768   3.301   0.975   5.657
 7290SOL    HW122769   3.310   0.876   5.644
 7290SOL    HW222770   3.235   1.011   5.591
 7291SOL     OW22771   2.681   6.807   1.163
 7291SOL    HW122772   2.637   6.733   1.212
 7291SOL    HW222773   2.663   6.894   1.209
 7292SOL     OW22774   2.879   0.223   3.038
 7292SOL    HW122775   2.788   0.202   3.073
 7292SOL    HW222776   2.944   0.228   3.114
 7293SOL     OW22777   1.774   0.859   6.205
 7293SOL    HW122778   1.808   0.871   6.111
 7293SOL    HW222779   1.723   0.941   6.232
 7294SOL     OW22780   2.969   4.067   0.627
 7294SOL    HW122781   2.900   4.042   0.559
 7294SOL    HW222782   3.016   3.984   0.659
 7295SOL     OW22783   6.698   4.428   1.786
 7295SOL    HW122784   6.760   4.355   1.814
 7295SOL    HW222785   6.617   4.427   1.844
 7296SOL     OW22786   4.536   5.082   2.683
 7296SOL    HW122787   4.480   5.061   2.763
 7296SOL    HW222788   4.627   5.042   2.693
 7297SOL     OW22789   2.689   0.006   2.387
 7297SOL    HW122790   2.706   0.095   2.428
 7297SOL    HW222791   2.716   0.007   2.291
 7298SOL     OW22792   5.048   5.586   7.012
 7298SOL    HW122793   5.119   5.519   6.990
 7298SOL    HW222794   5.073   5.675   6.974
 7299SOL     OW22795   0.329   1.860   0.538
 7299SOL    HW122796   0.412   1.881   0.486
 7299SOL    HW222797   0.261   1.819   0.477
 7300SOL     OW22798   0.449   5.979   2.140
 7300SOL    HW122799   0.414   5.891   2.109
 7300SOL    HW222800   0.535   5.964   2.189
 7301SOL     OW22801   6.234   1.997   5.891
 7301SOL    HW122802   6.298   2.072   5.876
 7301SOL    HW222803   6.198   1.966   5.803
 7302SOL     OW22804   0.307   1.889   5.705
 7302SOL    HW122805   0.320   1.849   5.795
 7302SOL    HW222806   0.390   1.875   5.650
 7303SOL     OW22807   3.608   0.817   6.761
 7303SOL    HW122808   3.563   0.732   6.788
 7303SOL    HW222809   3.539   0.889   6.750
 7304SOL     OW22810   1.908   5.605   2.016
 7304SOL    HW122811   1.934   5.533   2.080
 7304SOL    HW222812   1.977   5.613   1.944
 7305SOL     OW22813   5.534   2.062   1.396
 7305SOL    HW122814   5.464   2.133   1.386
 7305SOL    HW222815   5.602   2.092   1.463
 7306SOL     OW22816   3.846   1.550   1.819
 7306SOL    HW122817   3.801   1.638   1.826
 7306SOL    HW222818   3.882   1.538   1.726
 7307SOL     OW22819   4.239   6.985   2.159
 7307SOL    HW122820   4.236   0.032   2.083
 7307SOL    HW222821   4.294   0.004   2.233
 7308SOL     OW22822   6.280   1.225   3.614
 7308SOL    HW122823   6.347   1.274   3.670
 7308SOL    HW222824   6.207   1.190   3.673
 7309SOL     OW22825   2.806   0.205   1.528
 7309SOL    HW122826   2.749   0.181   1.606
 7309SOL    HW222827   2.820   0.304   1.527
 7310SOL     OW22828   1.706   3.260   6.431
 7310SOL    HW122829   1.704   3.160   6.434
 7310SOL    HW222830   1.739   3.296   6.518
 7311SOL     OW22831   1.027   0.186   0.695
 7311SOL    HW122832   0.938   0.172   0.739
 7311SOL    HW222833   1.028   0.138   0.607
 7312SOL     OW22834   0.726   1.922   4.875
 7312SOL    HW122835   0.660   1.853   4.906
 7312SOL    HW222836   0.796   1.935   4.945
 7313SOL     OW22837   2.212   1.607   0.630
 7313SOL    HW122838   2.169   1.694   0.605
 7313SOL    HW222839   2.167   1.570   0.712
 7314SOL     OW22840   6.995   4.102   5.785
 7314SOL    HW122841   6.975   4.086   5.881
 7314SOL    HW222842   0.075   4.113   5.772
 7315SOL     OW22843   5.326   5.480   2.127
 7315SOL    HW122844   5.328   5.493   2.028
 7315SOL    HW222845   5.414   5.446   2.159
 7316SOL     OW22846   3.686   2.408   6.436
 7316SOL    HW122847   3.664   2.330   6.495
 7316SOL    HW222848   3.761   2.383   6.375
 7317SOL     OW22849   3.515   1.403   2.121
 7317SOL    HW122850   3.601   1.449   2.143
 7317SOL    HW222851   3.445   1.430   2.187
 7318SOL     OW22852   3.423   6.469   3.188
 7318SOL    HW122853   3.440   6.398   3.257
 7318SOL    HW222854   3.380   6.427   3.108
 7319SOL     OW22855   6.153   3.628   6.344
 7319SOL    HW122856   6.167   3.605   6.248
 7319SOL    HW222857   6.160   3.544   6.399
 7320SOL     OW22858   0.495   3.582   6.729
 7320SOL    HW122859   0.418   3.576   6.792
 7320SOL    HW222860   0.495   3.503   6.668
 7321SOL     OW22861   2.117   6.776   6.269
 7321SOL    HW122862   2.069   6.779   6.181
 7321SOL    HW222863   2.054   6.748   6.341
 7322SOL     OW22864   0.309   3.120   2.539
 7322SOL    HW122865   0.372   3.075   2.475
 7322SOL    HW222866   0.271   3.202   2.496
 7323SOL     OW22867   2.861   2.995   1.325
 7323SOL    HW122868   2.804   3.073   1.298
 7323SOL    HW222869   2.920   3.023   1.401
 7324SOL     OW22870   6.158   4.927   2.617
 7324SOL    HW122871   6.212   5.008   2.593
 7324SOL    HW222872   6.198   4.883   2.697
 7325SOL     OW22873   2.557   6.817   4.965
 7325SOL    HW122874   2.569   6.822   5.064
 7325SOL    HW222875   2.476   6.871   4.938
 7326SOL     OW22876   3.362   0.216   6.312
 7326SOL    HW122877   3.329   0.245   6.402
 7326SOL    HW222878   3.461   0.233   6.307
 7327SOL     OW22879   5.855   3.275   3.731
 7327SOL    HW122880   5.792   3.339   3.774
 7327SOL    HW222881   5.940   3.322   3.706
 7328SOL     OW22882   4.492   6.375   5.530
 7328SOL    HW122883   4.545   6.292   5.516
 7328SOL    HW222884   4.550   6.455   5.516
 7329SOL     OW22885   1.330   2.813   0.198
 7329SOL    HW122886   1.335   2.813   0.298
 7329SOL    HW222887   1.422   2.815   0.159
 7330SOL     OW22888   2.214   3.064   0.832
 7330SOL    HW122889   2.164   3.123   0.768
 7330SOL    HW222890   2.191   2.969   0.814
 7331SOL     OW22891   5.250   6.272   2.258
 7331SOL    HW122892   5.301   6.242   2.338
 7331SOL    HW222893   5.205   6.359   2.278
 7332SOL     OW22894   3.750   4.112   6.786
 7332SOL    HW122895   3.748   4.160   6.874
 7332SOL    HW222896   3.664   4.128   6.738
 7333SOL     OW22897   5.944   3.437   2.567
 7333SOL    HW122898   5.920   3.529   2.597
 7333SOL    HW222899   5.955   3.378   2.647
 7334SOL     OW22900   2.817   5.713   5.587
 7334SOL    HW122901   2.806   5.671   5.497
 7334SOL    HW222902   2.763   5.797   5.592
 7335SOL     OW22903   0.054   2.393   3.443
 7335SOL    HW122904   0.086   2.360   3.354
 7335SOL    HW222905   0.132   2.423   3.498
 7336SOL     OW22906   2.254   6.461   1.545
 7336SOL    HW122907   2.328   6.416   1.596
 7336SOL    HW222908   2.253   6.425   1.451
 7337SOL     OW22909   2.100   3.072   1.083
 7337SOL    HW122910   2.149   3.098   1.000
 7337SOL    HW222911   2.109   3.144   1.151
 7338SOL     OW22912   5.764   1.639   1.774
 7338SOL    HW122913   5.788   1.573   1.702
 7338SOL    HW222914   5.700   1.707   1.738
 7339SOL     OW22915   6.977   0.491   5.319
 7339SOL    HW122916   0.006   0.509   5.405
 7339SOL    HW222917   7.009   0.556   5.250
 7340SOL     OW22918   3.762   2.074   6.804
 7340SOL    HW122919   3.845   2.019   6.809
 7340SOL    HW222920   3.683   2.013   6.791
 7341SOL     OW22921   1.601   5.084   5.314
 7341SOL    HW122922   1.651   5.013   5.263
 7341SOL    HW222923   1.520   5.043   5.356
 7342SOL     OW22924   5.802   6.882   6.957
 7342SOL    HW122925   5.814   6.914   0.033
 7342SOL    HW222926   5.880   6.825   6.931
 7343SOL     OW22927   5.873   3.304   2.012
 7343SOL    HW122928   5.789   3.321   1.960
 7343SOL    HW222929   5.879   3.207   2.035
 7344SOL     OW22930   2.061   0.136   6.436
 7344SOL    HW122931   2.159   0.152   6.428
 7344SOL    HW222932   2.035   0.140   6.533
 7345SOL     OW22933   5.200   5.820   5.321
 7345SOL    HW122934   5.116   5.822   5.376
 7345SOL    HW222935   5.249   5.906   5.333
 7346SOL     OW22936   3.729   4.230   1.042
 7346SOL    HW122937   3.638   4.225   0.999
 7346SOL    HW222938   3.719   4.223   1.141
 7347SOL     OW22939   6.465   2.623   1.470
 7347SOL    HW122940   6.400   2.586   1.403
 7347SOL    HW222941   6.557   2.617   1.434
 7348SOL     OW22942   1.547   3.503   3.668
 7348SOL    HW122943   1.512   3.420   3.710
 7348SOL    HW222944   1.472   3.551   3.623
 7349SOL     OW22945   3.974   1.599   1.255
 7349SOL    HW122946   4.002   1.516   1.207
 7349SOL    HW222947   3.874   1.601   1.263
 7350SOL     OW22948   1.387   3.771   4.071
 7350SOL    HW122949   1.475   3.734   4.040
 7350SOL    HW222950   1.393   3.791   4.169
 7351SOL     OW22951   3.873   4.894   6.315
 7351SOL    HW122952   3.877   4.924   6.410
 7351SOL    HW222953   3.881   4.972   6.254
 7352SOL     OW22954   1.821   3.277   3.104
 7352SOL    HW122955   1.873   3.278   3.019
 7352SOL    HW222956   1.884   3.277   3.182
 7353SOL     OW22957   0.606   0.563   5.733
 7353SOL    HW122958   0.684   0.561   5.670
 7353SOL    HW222959   0.522   0.548   5.681
 7354SOL     OW22960   0.674   1.413   6.149
 7354SOL    HW122961   0.750   1.360   6.187
 7354SOL    HW222962   0.706   1.504   6.122
 7355SOL     OW22963   1.513   6.988   0.186
 7355SOL    HW122964   1.530   0.005   0.278
 7355SOL    HW222965   1.418   7.003   0.161
 7356SOL     OW22966   5.098   2.650   6.579
 7356SOL    HW122967   5.112   2.661   6.480
 7356SOL    HW222968   5.014   2.697   6.605
 7357SOL     OW22969   4.465   1.109   1.423
 7357SOL    HW122970   4.563   1.091   1.425
 7357SOL    HW222971   4.432   1.121   1.517
 7358SOL     OW22972   1.869   2.105   2.133
 7358SOL    HW122973   1.968   2.107   2.116
 7358SOL    HW222974   1.820   2.108   2.046
 7359SOL     OW22975   2.922   3.014   0.476
 7359SOL    HW122976   2.951   2.942   0.412
 7359SOL    HW222977   2.833   2.990   0.515
 7360SOL     OW22978   3.232   2.628   5.711
 7360SOL    HW122979   3.154   2.641   5.650
 7360SOL    HW222980   3.262   2.532   5.707
 7361SOL     OW22981   4.208   0.101   1.918
 7361SOL    HW122982   4.194   0.039   1.841
 7361SOL    HW222983   4.143   0.176   1.912
 7362SOL     OW22984   0.375   6.675   4.793
 7362SOL    HW122985   0.366   6.575   4.794
 7362SOL    HW222986   0.364   6.710   4.886
 7363SOL     OW22987   3.726   1.955   1.206
 7363SOL    HW122988   3.762   1.923   1.118
 7363SOL    HW222989   3.712   1.877   1.267
 7364SOL     OW22990   4.355   7.012   1.587
 7364SOL    HW122991   4.313   0.032   1.504
 7364SOL    HW222992   4.284   6.994   1.655
 7365SOL     OW22993   1.419   6.028   2.256
 7365SOL    HW122994   1.514   6.061   2.254
 7365SOL    HW222995   1.398   5.981   2.171
 7366SOL     OW22996   1.613   5.546   0.541
 7366SOL    HW122997   1.574   5.591   0.460
 7366SOL    HW222998   1.565   5.578   0.623
 7367SOL     OW22999   4.863   4.069   1.179
 7367SOL    HW123000   4.898   4.138   1.116
 7367SOL    HW223001   4.877   4.099   1.273
 7368SOL     OW23002   3.685   2.904   4.262
 7368SOL    HW123003   3.595   2.890   4.304
 7368SOL    HW223004   3.755   2.857   4.316
 7369SOL     OW23005   4.733   3.332   0.778
 7369SOL    HW123006   4.777   3.268   0.842
 7369SOL    HW223007   4.740   3.296   0.685
 7370SOL     OW23008   2.160   0.240   5.312
 7370SOL    HW123009   2.188   0.226   5.407
 7370SOL    HW223010   2.224   0.302   5.267
 7371SOL     OW23011   1.917   6.092   3.884
 7371SOL    HW123012   2.000   6.084   3.939
 7371SOL    HW223013   1.913   6.017   3.818
 7372SOL     OW23014   2.799   1.009   5.656
 7372SOL    HW123015   2.766   1.028   5.749
 7372SOL    HW223016   2.823   0.913   5.649
 7373SOL     OW23017   5.593   1.696   3.887
 7373SOL    HW123018   5.533   1.634   3.836
 7373SOL    HW223019   5.686   1.688   3.852
 7374SOL     OW23020   2.904   2.222   5.126
 7374SOL    HW123021   3.001   2.245   5.120
 7374SOL    HW223022   2.850   2.300   5.094
 7375SOL     OW23023   1.641   2.806   3.328
 7375SOL    HW123024   1.735   2.835   3.307
 7375SOL    HW223025   1.609   2.853   3.411
 7376SOL     OW23026   4.220   1.618   0.360
 7376SOL    HW123027   4.271   1.595   0.444
 7376SOL    HW223028   4.172   1.704   0.373
 7377SOL     OW23029   5.581   5.813   1.763
 7377SOL    HW123030   5.538   5.853   1.844
 7377SOL    HW223031   5.513   5.758   1.714
 7378SOL     OW23032   0.125   1.880   5.039
 7378SOL    HW123033   0.219   1.906   5.019
 7378SOL    HW223034   0.094   1.813   4.972
 7379SOL     OW23035   4.092   2.271   3.051
 7379SOL    HW123036   4.102   2.218   2.966
 7379SOL    HW223037   3.995   2.279   3.073
 7380SOL     OW23038   6.638   2.950   5.189
 7380SOL    HW123039   6.703   2.883   5.154
 7380SOL    HW223040   6.559   2.955   5.128
 7381SOL     OW23041   5.150   4.138   2.115
 7381SOL    HW123042   5.138   4.041   2.092
 7381SOL    HW223043   5.062   4.175   2.146
 7382SOL     OW23044   0.084   5.724   6.148
 7382SOL    HW123045   0.014   5.774   6.200
 7382SOL    HW223046   0.168   5.720   6.203
 7383SOL     OW23047   0.525   6.617   1.536
 7383SOL    HW123048   0.585   6.567   1.599
 7383SOL    HW223049   0.521   6.568   1.448
 7384SOL     OW23050   5.725   0.657   2.309
 7384SOL    HW123051   5.730   0.754   2.285
 7384SOL    HW223052   5.646   0.616   2.265
 7385SOL     OW23053   4.314   6.241   1.963
 7385SOL    HW123054   4.284   6.307   2.031
 7385SOL    HW223055   4.284   6.149   1.991
 7386SOL     OW23056   6.843   2.103   5.894
 7386SOL    HW123057   6.887   2.048   5.823
 7386SOL    HW223058   6.784   2.172   5.851
 7387SOL     OW23059   4.282   6.226   4.770
 7387SOL    HW123060   4.289   6.319   4.733
 7387SOL    HW223061   4.321   6.162   4.704
 7388SOL     OW23062   0.470   5.294   3.653
 7388SOL    HW123063   0.544   5.228   3.643
 7388SOL    HW223064   0.507   5.387   3.650
 7389SOL     OW23065   1.064   4.600   6.984
 7389SOL    HW123066   1.044   4.530   0.034
 7389SOL    HW223067   0.983   4.616   6.928
 7390SOL     OW23068   1.794   1.109   6.769
 7390SOL    HW123069   1.885   1.080   6.797
 7390SOL    HW223070   1.733   1.029   6.768
 7391SOL     OW23071   5.350   4.097   4.505
 7391SOL    HW123072   5.279   4.085   4.574
 7391SOL    HW223073   5.431   4.046   4.530
 7392SOL     OW23074   2.753   5.928   6.932
 7392SOL    HW123075   2.733   6.023   6.910
 7392SOL    HW223076   2.839   5.923   6.984
 7393SOL     OW23077   5.330   5.161   1.513
 7393SOL    HW123078   5.234   5.155   1.542
 7393SOL    HW223079   5.388   5.123   1.585
 7394SOL     OW23080   3.231   2.381   6.234
 7394SOL    HW123081   3.256   2.284   6.234
 7394SOL    HW223082   3.204   2.408   6.142
 7395SOL     OW23083   2.320   1.593   0.059
 7395SOL    HW123084   2.321   1.685   0.096
 7395SOL    HW223085   2.388   1.537   0.108
 7396SOL     OW23086   1.339   6.749   0.527
 7396SOL    HW123087   1.274   6.674   0.516
 7396SOL    HW223088   1.418   6.734   0.466
 7397SOL     OW23089   5.506   5.549   5.004
 7397SOL    HW123090   5.497   5.591   4.913
 7397SOL    HW223091   5.522   5.451   4.994
 7398SOL     OW23092   3.177   5.185   4.167
 7398SOL    HW123093   3.087   5.148   4.188
 7398SOL    HW223094   3.190   5.271   4.217
 7399SOL     OW23095   0.895   3.300   5.546
 7399SOL    HW123096   0.899   3.400   5.543
 7399SOL    HW223097   0.896   3.269   5.641
 7400SOL     OW23098   2.640   3.305   6.313
 7400SOL    HW123099   2.738   3.288   6.305
 7400SOL    HW223100   2.614   3.380   6.252
 7401SOL     OW23101   0.789   0.976   4.217
 7401SOL    HW123102   0.749   0.935   4.136
 7401SOL    HW223103   0.826   0.905   4.276
 7402SOL     OW23104   2.514   5.211   5.169
 7402SOL    HW123105   2.604   5.170   5.185
 7402SOL    HW223106   2.523   5.311   5.166
 7403SOL     OW23107   1.369   3.914   3.474
 7403SOL    HW123108   1.464   3.934   3.449
 7403SOL    HW223109   1.323   3.999   3.500
 7404SOL     OW23110   2.723   5.680   1.529
 7404SOL    HW123111   2.759   5.757   1.476
 7404SOL    HW223112   2.782   5.664   1.608
 7405SOL     OW23113   2.649   4.986   4.362
 7405SOL    HW123114   2.675   4.898   4.400
 7405SOL    HW223115   2.562   5.016   4.403
 7406SOL     OW23116   1.168   3.361   3.385
 7406SOL    HW123117   1.192   3.338   3.479
 7406SOL    HW223118   1.240   3.329   3.324
 7407SOL     OW23119   6.976   5.754   4.916
 7407SOL    HW123120   6.988   5.668   4.965
 7407SOL    HW223121   0.035   5.769   4.854
 7408SOL     OW23122   1.213   3.327   6.043
 7408SOL    HW123123   1.298   3.331   6.096
 7408SOL    HW223124   1.152   3.258   6.082
 7409SOL     OW23125   0.782   1.060   5.130
 7409SOL    HW123126   0.836   1.134   5.170
 7409SOL    HW223127   0.692   1.058   5.173
 7410SOL     OW23128   0.324   5.051   1.216
 7410SOL    HW123129   0.231   5.046   1.253
 7410SOL    HW223130   0.387   5.082   1.288
 7411SOL     OW23131   3.095   6.522   4.280
 7411SOL    HW123132   3.108   6.438   4.332
 7411SOL    HW223133   3.118   6.505   4.184
 7412SOL     OW23134   4.185   0.315   2.659
 7412SOL    HW123135   4.183   0.308   2.759
 7412SOL    HW223136   4.101   0.360   2.628
 7413SOL     OW23137   5.261   5.199   4.915
 7413SOL    HW123138   5.297   5.110   4.943
 7413SOL    HW223139   5.261   5.261   4.994
 7414SOL     OW23140   6.904   6.801   4.170
 7414SOL    HW123141   6.931   6.823   4.077
 7414SOL    HW223142   6.982   6.760   4.218
 7415SOL     OW23143   1.325   3.914   3.004
 7415SOL    HW123144   1.317   3.824   3.048
 7415SOL    HW223145   1.288   3.909   2.912
 7416SOL     OW23146   3.096   0.900   3.577
 7416SOL    HW123147   3.032   0.831   3.544
 7416SOL    HW223148   3.093   0.902   3.677
 7417SOL     OW23149   2.078   0.072   5.609
 7417SOL    HW123150   2.044   0.025   5.528
 7417SOL    HW223151   2.133   0.009   5.663
 7418SOL     OW23152   3.683   5.268   0.267
 7418SOL    HW123153   3.695   5.347   0.206
 7418SOL    HW223154   3.595   5.276   0.315
 7419SOL     OW23155   5.996   2.148   4.738
 7419SOL    HW123156   5.962   2.111   4.652
 7419SOL    HW223157   6.088   2.186   4.724
 7420SOL     OW23158   6.770   6.532   1.887
 7420SOL    HW123159   6.719   6.492   1.810
 7420SOL    HW223160   6.861   6.560   1.855
 7421SOL     OW23161   3.518   3.712   1.394
 7421SOL    HW123162   3.493   3.750   1.305
 7421SOL    HW223163   3.444   3.727   1.459
 7422SOL     OW23164   0.211   3.322   2.400
 7422SOL    HW123165   0.111   3.315   2.412
 7422SOL    HW223166   0.231   3.360   2.310
 7423SOL     OW23167   6.728   4.338   5.867
 7423SOL    HW123168   6.781   4.390   5.934
 7423SOL    HW223169   6.633   4.369   5.869
 7424SOL     OW23170   6.869   0.417   4.692
 7424SOL    HW123171   6.775   0.448   4.711
 7424SOL    HW223172   6.898   0.452   4.603
 7425SOL     OW23173   4.996   6.030   6.333
 7425SOL    HW123174   4.948   5.996   6.415
 7425SOL    HW223175   4.991   6.130   6.331
 7426SOL     OW23176   1.298   1.786   6.363
 7426SOL    HW123177   1.345   1.780   6.450
 7426SOL    HW223178   1.350   1.844   6.300
 7427SOL     OW23179   3.297   6.174   3.960
 7427SOL    HW123180   3.213   6.225   3.980
 7427SOL    HW223181   3.292   6.084   4.005
 7428SOL     OW23182   3.971   1.729   5.669
 7428SOL    HW123183   3.979   1.654   5.604
 7428SOL    HW223184   4.052   1.787   5.663
 7429SOL     OW23185   5.363   0.037   3.267
 7429SOL    HW123186   5.342   0.103   3.195
 7429SOL    HW223187   5.439   6.997   3.239
 7430SOL     OW23188   0.164   4.070   6.308
 7430SOL    HW123189   0.242   4.027   6.263
 7430SOL    HW223190   0.126   4.141   6.248
 7431SOL     OW23191   0.470   3.094   2.819
 7431SOL    HW123192   0.448   3.112   2.723
 7431SOL    HW223193   0.448   3.174   2.874
 7432SOL     OW23194   0.329   0.303   3.630
 7432SOL    HW123195   0.261   0.287   3.558
 7432SOL    HW223196   0.419   0.316   3.588
 7433SOL     OW23197   6.038   5.151   0.630
 7433SOL    HW123198   6.041   5.232   0.689
 7433SOL    HW223199   5.943   5.122   0.617
 7434SOL     OW23200   4.481   0.708   6.234
 7434SOL    HW123201   4.528   0.708   6.146
 7434SOL    HW223202   4.389   0.746   6.223
 7435SOL     OW23203   4.032   5.672   0.336
 7435SOL    HW123204   3.963   5.656   0.406
 7435SOL    HW223205   3.995   5.648   0.246
 7436SOL     OW23206   5.691   3.262   6.500
 7436SOL    HW123207   5.751   3.327   6.454
 7436SOL    HW223208   5.610   3.310   6.535
 7437SOL     OW23209   0.310   6.129   0.353
 7437SOL    HW123210   0.354   6.155   0.438
 7437SOL    HW223211   0.235   6.065   0.372
 7438SOL     OW23212   0.691   5.651   1.024
 7438SOL    HW123213   0.620   5.702   0.976
 7438SOL    HW223214   0.661   5.632   1.117
 7439SOL     OW23215   1.392   6.183   4.933
 7439SOL    HW123216   1.302   6.173   4.890
 7439SOL    HW223217   1.464   6.168   4.865
 7440SOL     OW23218   0.924   3.376   4.347
 7440SOL    HW123219   0.916   3.277   4.345
 7440SOL    HW223220   0.897   3.411   4.436
 7441SOL     OW23221   4.345   5.749   4.902
 7441SOL    HW123222   4.290   5.799   4.835
 7441SOL    HW223223   4.431   5.798   4.916
 7442SOL     OW23224   0.836   0.928   6.438
 7442SOL    HW123225   0.784   1.012   6.451
 7442SOL    HW223226   0.880   0.929   6.348
 7443SOL     OW23227   0.509   0.853   1.564
 7443SOL    HW123228   0.569   0.777   1.538
 7443SOL    HW223229   0.434   0.818   1.620
 7444SOL     OW23230   6.845   3.444   4.830
 7444SOL    HW123231   6.779   3.461   4.757
 7444SOL    HW223232   6.798   3.448   4.919
 7445SOL     OW23233   3.404   1.248   1.313
 7445SOL    HW123234   3.493   1.279   1.348
 7445SOL    HW223235   3.333   1.271   1.380
 7446SOL     OW23236   5.616   3.971   1.273
 7446SOL    HW123237   5.684   3.948   1.204
 7446SOL    HW223238   5.525   3.973   1.231
 7447SOL     OW23239   1.064   3.344   5.109
 7447SOL    HW123240   1.154   3.383   5.088
 7447SOL    HW223241   1.072   3.244   5.115
 7448SOL     OW23242   5.971   6.486   5.170
 7448SOL    HW123243   5.915   6.492   5.253
 7448SOL    HW223244   5.912   6.483   5.090
 7449SOL     OW23245   6.533   2.378   1.893
 7449SOL    HW123246   6.561   2.294   1.939
 7449SOL    HW223247   6.612   2.438   1.880
 7450SOL     OW23248   5.073   2.285   4.181
 7450SOL    HW123249   5.023   2.228   4.246
 7450SOL    HW223250   5.058   2.381   4.202
 7451SOL     OW23251   1.311   6.661   2.683
 7451SOL    HW123252   1.398   6.707   2.704
 7451SOL    HW223253   1.239   6.730   2.672
 7452SOL     OW23254   0.565   6.473   5.103
 7452SOL    HW123255   0.561   6.434   5.195
 7452SOL    HW223256   0.658   6.467   5.069
 7453SOL     OW23257   4.763   6.046   5.755
 7453SOL    HW123258   4.776   5.986   5.834
 7453SOL    HW223259   4.688   6.110   5.773
 7454SOL     OW23260   1.182   2.564   1.335
 7454SOL    HW123261   1.172   2.663   1.324
 7454SOL    HW223262   1.091   2.523   1.342
 7455SOL     OW23263   0.255   2.387   1.915
 7455SOL    HW123264   0.353   2.370   1.903
 7455SOL    HW223265   0.222   2.336   1.994
 7456SOL     OW23266   0.710   2.290   4.567
 7456SOL    HW123267   0.701   2.388   4.586
 7456SOL    HW223268   0.799   2.274   4.525
 7457SOL     OW23269   3.693   0.996   4.939
 7457SOL    HW123270   3.609   0.949   4.913
 7457SOL    HW223271   3.671   1.084   4.980
 7458SOL     OW23272   2.526   0.066   6.492
 7458SOL    HW123273   2.556   7.003   6.442
 7458SOL    HW223274   2.487   0.038   6.580
 7459SOL     OW23275   4.562   0.897   0.646
 7459SOL    HW123276   4.553   0.938   0.555
 7459SOL    HW223277   4.659   0.895   0.672
 7460SOL     OW23278   1.735   4.609   1.082
 7460SOL    HW123279   1.738   4.578   1.177
 7460SOL    HW223280   1.826   4.600   1.041
 7461SOL     OW23281   5.875   1.608   6.186
 7461SOL    HW123282   5.777   1.591   6.178
 7461SOL    HW223283   5.898   1.693   6.139
 7462SOL     OW23284   1.653   3.513   2.557
 7462SOL    HW123285   1.683   3.454   2.632
 7462SOL    HW223286   1.553   3.516   2.556
 7463SOL     OW23287   3.110   4.802   1.195
 7463SOL    HW123288   3.054   4.882   1.216
 7463SOL    HW223289   3.054   4.734   1.148
 7464SOL     OW23290   3.666   0.346   6.504
 7464SOL    HW123291   3.679   0.247   6.507
 7464SOL    HW223292   3.737   0.391   6.558
 7465SOL     OW23293   1.667   6.876   6.808
 7465SOL    HW123294   1.763   6.849   6.819
 7465SOL    HW223295   1.608   6.798   6.825
 7466SOL     OW23296   0.280   6.702   6.461
 7466SOL    HW123297   0.353   6.639   6.433
 7466SOL    HW223298   0.205   6.696   6.396
 7467SOL     OW23299   6.877   1.404   0.469
 7467SOL    HW123300   6.970   1.434   0.449
 7467SOL    HW223301   6.824   1.481   0.506
 7468SOL     OW23302   6.440   2.933   2.354
 7468SOL    HW123303   6.477   2.933   2.447
 7468SOL    HW223304   6.367   3.001   2.347
 7469SOL     OW23305   0.003   0.252   0.013
 7469SOL    HW123306   7.003   0.156   0.035
 7469SOL    HW223307   6.935   0.303   0.010
 7470SOL     OW23308   0.230   3.151   4.488
 7470SOL    HW123309   0.223   3.179   4.584
 7470SOL    HW223310   0.265   3.058   4.482
 7471SOL     OW23311   6.194   6.104   5.580
 7471SOL    HW123312   6.164   6.058   5.497
 7471SOL    HW223313   6.146   6.192   5.589
 7472SOL     OW23314   5.966   6.779   4.162
 7472SOL    HW123315   5.874   6.817   4.149
 7472SOL    HW223316   5.996   6.795   4.256
 7473SOL     OW23317   6.982   4.747   2.833
 7473SOL    HW123318   6.982   4.672   2.899
 7473SOL    HW223319   6.922   4.723   2.757
 7474SOL     OW23320   2.568   1.373   5.349
 7474SOL    HW123321   2.523   1.297   5.301
 7474SOL    HW223322   2.530   1.381   5.441
 7475SOL     OW23323   3.622   1.185   2.496
 7475SOL    HW123324   3.583   1.122   2.429
 7475SOL    HW223325   3.664   1.262   2.449
 7476SOL     OW23326   4.102   5.170   4.154
 7476SOL    HW123327   4.029   5.237   4.168
 7476SOL    HW223328   4.088   5.123   4.067
 7477SOL     OW23329   6.635   1.129   4.418
 7477SOL    HW123330   6.578   1.211   4.416
 7477SOL    HW223331   6.608   1.072   4.495
 7478SOL     OW23332   4.556   4.764   6.978
 7478SOL    HW123333   4.633   4.718   0.005
 7478SOL    HW223334   4.481   4.699   6.966
 7479SOL     OW23335   4.017   2.245   1.681
 7479SOL    HW123336   3.951   2.320   1.680
 7479SOL    HW223337   4.101   2.273   1.634
 7480SOL     OW23338   6.759   3.799   1.479
 7480SOL    HW123339   6.814   3.850   1.413
 7480SOL    HW223340   6.676   3.764   1.434
 7481SOL     OW23341   6.217   5.742   2.018
 7481SOL    HW123342   6.188   5.661   1.967
 7481SOL    HW223343   6.242   5.715   2.111
 7482SOL     OW23344   5.028   2.078   2.969
 7482SOL    HW123345   4.933   2.090   2.941
 7482SOL    HW223346   5.032   2.013   3.045
 7483SOL     OW23347   4.446   2.411   5.237
 7483SOL    HW123348   4.512   2.344   5.271
 7483SOL    HW223349   4.491   2.471   5.170
 7484SOL     OW23350   0.275   1.006   3.560
 7484SOL    HW123351   0.177   1.003   3.581
 7484SOL    HW223352   0.327   0.990   3.643
 7485SOL     OW23353   3.366   0.254   4.447
 7485SOL    HW123354   3.283   0.294   4.409
 7485SOL    HW223355   3.445   0.288   4.396
 7486SOL     OW23356   2.855   0.739   5.684
 7486SOL    HW123357   2.946   0.705   5.657
 7486SOL    HW223358   2.827   0.695   5.769
 7487SOL     OW23359   2.740   6.416   2.635
 7487SOL    HW123360   2.801   6.494   2.644
 7487SOL    HW223361   2.794   6.333   2.619
 7488SOL     OW23362   1.854   6.969   4.356
 7488SOL    HW123363   1.951   6.973   4.330
 7488SOL    HW223364   1.797   6.982   4.274
 7489SOL     OW23365   4.964   2.251   4.447
 7489SOL    HW123366   4.923   2.199   4.523
 7489SOL    HW223367   5.029   2.318   4.484
 7490SOL     OW23368   0.811   1.438   1.104
 7490SOL    HW123369   0.752   1.359   1.122
 7490SOL    HW223370   0.904   1.418   1.134
 7491SOL     OW23371   6.110   3.336   6.164
 7491SOL    HW123372   6.192   3.361   6.216
 7491SOL    HW223373   6.127   3.346   6.067
 7492SOL     OW23374   2.663   0.669   4.061
 7492SOL    HW123375   2.656   0.675   4.160
 7492SOL    HW223376   2.588   0.719   4.019
 7493SOL     OW23377   6.849   4.128   6.283
 7493SOL    HW123378   6.836   4.061   6.210
 7493SOL    HW223379   6.914   4.092   6.350
 7494SOL     OW23380   5.579   0.469   3.004
 7494SOL    HW123381   5.567   0.531   3.081
 7494SOL    HW223382   5.677   0.456   2.986
 7495SOL     OW23383   2.168   0.526   0.117
 7495SOL    HW123384   2.248   0.577   0.149
 7495SOL    HW223385   2.162   0.439   0.166
 7496SOL     OW23386   0.081   3.250   6.280
 7496SOL    HW123387   0.175   3.257   6.248
 7496SOL    HW223388   0.064   3.158   6.315
 7497SOL     OW23389   2.540   4.486   0.469
 7497SOL    HW123390   2.575   4.406   0.517
 7497SOL    HW223391   2.574   4.486   0.375
 7498SOL     OW23392   2.346   1.093   5.480
 7498SOL    HW123393   2.261   1.046   5.458
 7498SOL    HW223394   2.385   1.132   5.397
 7499SOL     OW23395   4.401   1.629   3.551
 7499SOL    HW123396   4.337   1.681   3.495
 7499SOL    HW223397   4.431   1.547   3.502
 7500SOL     OW23398   3.991   5.642   4.087
 7500SOL    HW123399   3.997   5.695   4.171
 7500SOL    HW223400   4.081   5.607   4.062
 7501SOL     OW23401   6.215   4.602   3.855
 7501SOL    HW123402   6.285   4.663   3.818
 7501SOL    HW223403   6.259   4.527   3.905
 7502SOL     OW23404   1.526   0.152   4.156
 7502SOL    HW123405   1.543   0.247   4.183
 7502SOL    HW223406   1.612   0.102   4.155
 7503SOL     OW23407   2.950   1.922   0.834
 7503SOL    HW123408   2.996   1.876   0.910
 7503SOL    HW223409   2.878   1.982   0.870
 7504SOL     OW23410   1.946   0.016   3.203
 7504SOL    HW123411   1.969   6.945   3.164
 7504SOL    HW223412   2.025   0.077   3.197
 7505SOL     OW23413   2.389   1.838   5.711
 7505SOL    HW123414   2.438   1.758   5.745
 7505SOL    HW223415   2.351   1.818   5.621
 7506SOL     OW23416   5.020   6.760   2.621
 7506SOL    HW123417   5.012   6.784   2.525
 7506SOL    HW223418   4.997   6.663   2.633
 7507SOL     OW23419   0.843   0.373   2.098
 7507SOL    HW123420   0.786   0.441   2.144
 7507SOL    HW223421   0.928   0.361   2.148
 7508SOL     OW23422   0.013   6.748   1.911
 7508SOL    HW123423   0.097   6.800   1.925
 7508SOL    HW223424   6.977   6.791   1.838
 7509SOL     OW23425   5.448   4.629   0.711
 7509SOL    HW123426   5.430   4.558   0.643
 7509SOL    HW223427   5.499   4.590   0.787
 7510SOL     OW23428   3.076   4.258   5.580
 7510SOL    HW123429   3.142   4.243   5.654
 7510SOL    HW223430   3.111   4.216   5.496
 7511SOL     OW23431   1.843   6.736   3.470
 7511SOL    HW123432   1.939   6.758   3.452
 7511SOL    HW223433   1.820   6.764   3.563
 7512SOL     OW23434   2.895   5.008   6.822
 7512SOL    HW123435   2.880   5.083   6.756
 7512SOL    HW223436   2.815   5.001   6.882
 7513SOL     OW23437   2.315   1.235   1.746
 7513SOL    HW123438   2.406   1.271   1.726
 7513SOL    HW223439   2.249   1.309   1.746
 7514SOL     OW23440   2.181   5.643   1.839
 7514SOL    HW123441   2.204   5.570   1.775
 7514SOL    HW223442   2.264   5.691   1.867
 7515SOL     OW23443   0.142   5.282   2.463
 7515SOL    HW123444   0.129   5.293   2.365
 7515SOL    HW223445   0.094   5.200   2.494
 7516SOL     OW23446   6.297   5.753   4.483
 7516SOL    HW123447   6.395   5.732   4.481
 7516SOL    HW223448   6.246   5.679   4.440
 7517SOL     OW23449   0.138   3.169   0.491
 7517SOL    HW123450   0.176   3.080   0.516
 7517SOL    HW223451   0.123   3.173   0.392
 7518SOL     OW23452   4.420   5.183   3.108
 7518SOL    HW123453   4.336   5.161   3.059
 7518SOL    HW223454   4.432   5.283   3.109
 7519SOL     OW23455   6.510   6.881   4.539
 7519SOL    HW123456   6.468   6.939   4.609
 7519SOL    HW223457   6.555   6.938   4.471
 7520SOL     OW23458   3.218   6.871   1.947
 7520SOL    HW123459   3.287   6.928   1.992
 7520SOL    HW223460   3.131   6.920   1.943
 7521SOL     OW23461   4.692   4.559   6.165
 7521SOL    HW123462   4.766   4.588   6.105
 7521SOL    HW223463   4.725   4.487   6.226
 7522SOL     OW23464   2.814   0.002   6.276
 7522SOL    HW123465   2.852   6.973   6.357
 7522SOL    HW223466   2.858   0.091   6.266
 7523SOL     OW23467   5.584   0.578   5.998
 7523SOL    HW123468   5.503   0.529   6.030
 7523SOL    HW223469   5.611   0.646   6.066
 7524SOL     OW23470   1.623   2.433   6.096
 7524SOL    HW123471   1.644   2.530   6.113
 7524SOL    HW223472   1.665   2.405   6.010
 7525SOL     OW23473   3.050   0.496   6.434
 7525SOL    HW123474   3.124   0.431   6.422
 7525SOL    HW223475   3.036   0.549   6.350
 7526SOL     OW23476   3.290   3.752   1.569
 7526SOL    HW123477   3.192   3.764   1.550
 7526SOL    HW223478   3.309   3.656   1.588
 7527SOL     OW23479   4.211   5.934   3.335
 7527SOL    HW123480   4.149   5.984   3.396
 7527SOL    HW223481   4.159   5.871   3.278
 7528SOL     OW23482   5.140   1.790   6.415
 7528SOL    HW123483   5.240   1.788   6.409
 7528SOL    HW223484   5.102   1.812   6.325
 7529SOL     OW23485   6.077   0.269   4.100
 7529SOL    HW123486   6.059   0.317   4.186
 7529SOL    HW223487   6.162   0.303   4.059
 7530SOL     OW23488   0.120   3.764   1.656
 7530SOL    HW123489   0.054   3.690   1.643
 7530SOL    HW223490   0.212   3.726   1.662
 7531SOL     OW23491   4.375   2.464   3.803
 7531SOL    HW123492   4.350   2.496   3.711
 7531SOL    HW223493   4.322   2.382   3.826
 7532SOL     OW23494   5.379   4.601   1.326
 7532SOL    HW123495   5.372   4.506   1.357
 7532SOL    HW223496   5.295   4.627   1.279
 7533SOL     OW23497   2.624   1.641   2.579
 7533SOL    HW123498   2.554   1.649   2.649
 7533SOL    HW223499   2.626   1.547   2.545
 7534SOL     OW23500   4.374   5.988   5.857
 7534SOL    HW123501   4.341   6.082   5.858
 7534SOL    HW223502   4.396   5.959   5.950
 7535SOL     OW23503   2.632   0.170   5.676
 7535SOL    HW123504   2.578   0.234   5.731
 7535SOL    HW223505   2.571   0.100   5.637
 7536SOL     OW23506   4.877   5.027   4.852
 7536SOL    HW123507   4.902   5.110   4.901
 7536SOL    HW223508   4.847   4.957   4.917
 7537SOL     OW23509   2.724   5.320   3.375
 7537SOL    HW123510   2.730   5.225   3.342
 7537SOL    HW223511   2.764   5.326   3.466
 7538SOL     OW23512   3.290   3.278   2.007
 7538SOL    HW123513   3.364   3.232   1.959
 7538SOL    HW223514   3.328   3.345   2.072
 7539SOL     OW23515   0.932   3.117   4.368
 7539SOL    HW123516   1.023   3.075   4.365
 7539SOL    HW223517   0.862   3.046   4.368
 7540SOL     OW23518   3.728   6.469   5.586
 7540SOL    HW123519   3.654   6.403   5.570
 7540SOL    HW223520   3.788   6.434   5.659
 7541SOL     OW23521   0.031   4.402   4.409
 7541SOL    HW123522   0.000   4.414   4.314
 7541SOL    HW223523   6.974   4.365   4.464
 7542SOL     OW23524   0.983   5.841   0.136
 7542SOL    HW123525   0.914   5.770   0.152
 7542SOL    HW223526   1.039   5.852   0.218
 7543SOL     OW23527   3.518   2.188   0.979
 7543SOL    HW123528   3.497   2.172   1.076
 7543SOL    HW223529   3.495   2.106   0.927
 7544SOL     OW23530   0.336   2.678   3.125
 7544SOL    HW123531   0.409   2.612   3.146
 7544SOL    HW223532   0.256   2.657   3.182
 7545SOL     OW23533   5.911   6.184   1.907
 7545SOL    HW123534   5.877   6.091   1.897
 7545SOL    HW223535   5.980   6.187   1.980
 7546SOL     OW23536   3.166   1.232   2.250
 7546SOL    HW123537   3.235   1.190   2.191
 7546SOL    HW223538   3.184   1.329   2.259
 7547SOL     OW23539   4.409   0.603   0.374
 7547SOL    HW123540   4.497   0.646   0.353
 7547SOL    HW223541   4.395   0.603   0.473
 7548SOL     OW23542   3.856   2.397   0.356
 7548SOL    HW123543   3.773   2.365   0.403
 7548SOL    HW223544   3.887   2.482   0.398
 7549SOL     OW23545   5.893   2.103   0.804
 7549SOL    HW123546   5.885   2.107   0.903
 7549SOL    HW223547   5.908   2.008   0.776
 7550SOL     OW23548   2.433   4.398   2.295
 7550SOL    HW123549   2.435   4.450   2.209
 7550SOL    HW223550   2.482   4.450   2.365
 7551SOL     OW23551   5.120   3.630   6.920
 7551SOL    HW123552   5.203   3.687   6.923
 7551SOL    HW223553   5.133   3.557   6.853
 7552SOL     OW23554   1.198   5.606   3.430
 7552SOL    HW123555   1.184   5.562   3.518
 7552SOL    HW223556   1.124   5.670   3.412
 7553SOL     OW23557   4.713   5.257   5.453
 7553SOL    HW123558   4.760   5.171   5.472
 7553SOL    HW223559   4.616   5.240   5.439
 7554SOL     OW23560   4.363   1.597   1.422
 7554SOL    HW123561   4.398   1.629   1.510
 7554SOL    HW223562   4.327   1.504   1.432
 7555SOL     OW23563   1.796   4.643   5.600
 7555SOL    HW123564   1.848   4.727   5.615
 7555SOL    HW223565   1.853   4.576   5.552
 7556SOL     OW23566   0.764   3.038   5.518
 7556SOL    HW123567   0.694   3.027   5.589
 7556SOL    HW223568   0.767   3.133   5.487
 7557SOL     OW23569   4.961   2.500   6.235
 7557SOL    HW123570   5.027   2.439   6.279
 7557SOL    HW223571   4.874   2.495   6.284
 7558SOL     OW23572   1.753   2.472   4.207
 7558SOL    HW123573   1.838   2.490   4.158
 7558SOL    HW223574   1.728   2.376   4.197
 7559SOL     OW23575   6.261   5.031   6.989
 7559SOL    HW123576   6.211   5.094   0.031
 7559SOL    HW223577   6.284   4.948   0.022
 7560SOL     OW23578   4.828   6.432   0.813
 7560SOL    HW123579   4.760   6.475   0.872
 7560SOL    HW223580   4.889   6.375   0.869
 7561SOL     OW23581   1.100   3.143   6.631
 7561SOL    HW123582   1.199   3.133   6.616
 7561SOL    HW223583   1.052   3.069   6.585
 7562SOL     OW23584   5.914   5.695   4.862
 7562SOL    HW123585   5.873   5.616   4.907
 7562SOL    HW223586   5.953   5.756   4.931
 7563SOL     OW23587   2.497   6.275   0.711
 7563SOL    HW123588   2.441   6.274   0.627
 7563SOL    HW223589   2.437   6.280   0.791
 7564SOL     OW23590   4.723   1.718   3.093
 7564SOL    HW123591   4.711   1.623   3.067
 7564SOL    HW223592   4.720   1.776   3.011
 7565SOL     OW23593   5.740   3.229   0.794
 7565SOL    HW123594   5.731   3.326   0.773
 7565SOL    HW223595   5.834   3.210   0.824
 7566SOL     OW23596   0.151   4.705   3.251
 7566SOL    HW123597   0.093   4.772   3.297
 7566SOL    HW223598   0.135   4.615   3.291
 7567SOL     OW23599   1.542   1.674   5.031
 7567SOL    HW123600   1.584   1.584   5.030
 7567SOL    HW223601   1.555   1.717   5.121
 7568SOL     OW23602   5.097   6.896   3.336
 7568SOL    HW123603   5.031   6.969   3.324
 7568SOL    HW223604   5.190   6.931   3.324
 7569SOL     OW23605   3.771   5.458   6.407
 7569SOL    HW123606   3.735   5.507   6.486
 7569SOL    HW223607   3.860   5.419   6.430
 7570SOL     OW23608   5.717   4.411   4.863
 7570SOL    HW123609   5.735   4.320   4.902
 7570SOL    HW223610   5.786   4.475   4.896
 7571SOL     OW23611   5.188   5.708   3.221
 7571SOL    HW123612   5.116   5.708   3.152
 7571SOL    HW223613   5.153   5.747   3.306
 7572SOL     OW23614   4.120   0.814   2.296
 7572SOL    HW123615   4.063   0.895   2.295
 7572SOL    HW223616   4.093   0.753   2.221
 7573SOL     OW23617   0.007   6.206   4.884
 7573SOL    HW123618   0.097   6.175   4.912
 7573SOL    HW223619   0.016   6.268   4.806
 7574SOL     OW23620   6.253   0.838   4.647
 7574SOL    HW123621   6.156   0.813   4.641
 7574SOL    HW223622   6.303   0.792   4.574
 7575SOL     OW23623   3.707   0.476   5.763
 7575SOL    HW123624   3.640   0.551   5.767
 7575SOL    HW223625   3.698   0.429   5.675
 7576SOL     OW23626   5.645   5.037   6.807
 7576SOL    HW123627   5.562   5.068   6.854
 7576SOL    HW223628   5.724   5.048   6.868
 7577SOL     OW23629   6.876   6.570   5.536
 7577SOL    HW123630   6.866   6.660   5.495
 7577SOL    HW223631   6.967   6.534   5.515
 7578SOL     OW23632   2.419   5.757   2.305
 7578SOL    HW123633   2.323   5.784   2.292
 7578SOL    HW223634   2.442   5.760   2.402
 7579SOL     OW23635   6.194   1.859   1.816
 7579SOL    HW123636   6.192   1.769   1.861
 7579SOL    HW223637   6.101   1.894   1.807
 7580SOL     OW23638   1.375   4.095   4.257
 7580SOL    HW123639   1.331   4.083   4.346
 7580SOL    HW223640   1.305   4.115   4.188
 7581SOL     OW23641   6.873   0.500   1.153
 7581SOL    HW123642   6.956   0.480   1.100
 7581SOL    HW223643   6.876   0.594   1.185
 7582SOL     OW23644   2.440   1.176   0.301
 7582SOL    HW123645   2.392   1.107   0.246
 7582SOL    HW223646   2.473   1.133   0.386
 7583SOL     OW23647   6.231   3.270   0.653
 7583SOL    HW123648   6.280   3.325   0.585
 7583SOL    HW223649   6.297   3.214   0.703
 7584SOL     OW23650   2.613   6.809   1.589
 7584SOL    HW123651   2.673   6.828   1.511
 7584SOL    HW223652   2.518   6.802   1.556
 7585SOL     OW23653   1.851   2.362   5.952
 7585SOL    HW123654   1.851   2.381   6.051
 7585SOL    HW223655   1.922   2.416   5.908
 7586SOL     OW23656   3.688   1.176   3.489
 7586SOL    HW123657   3.644   1.260   3.458
 7586SOL    HW223658   3.778   1.198   3.528
 7587SOL     OW23659   2.636   1.792   6.784
 7587SOL    HW123660   2.695   1.859   6.739
 7587SOL    HW223661   2.540   1.816   6.769
 7588SOL     OW23662   1.260   3.312   2.524
 7588SOL    HW123663   1.229   3.390   2.470
 7588SOL    HW223664   1.228   3.227   2.482
 7589SOL     OW23665   0.216   6.914   1.999
 7589SOL    HW123666   0.303   6.962   1.993
 7589SOL    HW223667   0.144   6.978   2.026
 7590SOL     OW23668   4.440   1.884   6.375
 7590SOL    HW123669   4.490   1.803   6.405
 7590SOL    HW223670   4.473   1.912   6.285
 7591SOL     OW23671   0.105   4.533   0.376
 7591SOL    HW123672   0.036   4.507   0.309
 7591SOL    HW223673   0.196   4.510   0.342
 7592SOL     OW23674   6.696   4.085   5.993
 7592SOL    HW123675   6.680   4.177   5.956
 7592SOL    HW223676   6.609   4.044   6.020
 7593SOL     OW23677   5.906   2.347   1.109
 7593SOL    HW123678   5.972   2.363   1.183
 7593SOL    HW223679   5.815   2.333   1.147
 7594SOL     OW23680   0.937   5.454   1.928
 7594SOL    HW123681   0.846   5.484   1.899
 7594SOL    HW223682   0.957   5.364   1.889
 7595SOL     OW23683   0.053   2.619   5.856
 7595SOL    HW123684   0.055   2.709   5.900
 7595SOL    HW223685   0.058   2.547   5.926
 7596SOL     OW23686   4.793   5.703   3.962
 7596SOL    HW123687   4.884   5.662   3.949
 7596SOL    HW223688   4.799   5.778   4.027
 7597SOL     OW23689   3.594   6.250   3.049
 7597SOL    HW123690   3.598   6.249   3.149
 7597SOL    HW223691   3.682   6.283   3.014
 7598SOL     OW23692   6.686   2.055   3.565
 7598SOL    HW123693   6.730   1.966   3.575
 7598SOL    HW223694   6.696   2.088   3.471
 7599SOL     OW23695   6.204   1.838   2.101
 7599SOL    HW123696   6.244   1.912   2.047
 7599SOL    HW223697   6.189   1.759   2.042
 7600SOL     OW23698   1.925   1.301   2.553
 7600SOL    HW123699   1.858   1.373   2.533
 7600SOL    HW223700   1.972   1.322   2.638
 7601SOL     OW23701   2.185   5.342   3.370
 7601SOL    HW123702   2.274   5.383   3.391
 7601SOL    HW223703   2.197   5.245   3.350
 7602SOL     OW23704   0.392   4.487   6.818
 7602SOL    HW123705   0.484   4.521   6.832
 7602SOL    HW223706   0.334   4.514   6.895
 7603SOL     OW23707   2.225   4.830   6.055
 7603SOL    HW123708   2.169   4.791   6.127
 7603SOL    HW223709   2.191   4.800   5.966
 7604SOL     OW23710   1.357   4.777   4.093
 7604SOL    HW123711   1.281   4.786   4.158
 7604SOL    HW223712   1.410   4.695   4.115
 7605SOL     OW23713   0.173   0.049   1.031
 7605SOL    HW123714   0.133   0.046   0.940
 7605SOL    HW223715   0.169   0.143   1.066
 7606SOL     OW23716   6.331   3.657   4.124
 7606SOL    HW123717   6.285   3.679   4.038
 7606SOL    HW223718   6.423   3.622   4.105
 7607SOL     OW23719   4.240   4.822   0.208
 7607SOL    HW123720   4.208   4.735   0.244
 7607SOL    HW223721   4.313   4.858   0.266
 7608SOL     OW23722   3.686   4.137   2.876
 7608SOL    HW123723   3.617   4.119   2.806
 7608SOL    HW223724   3.761   4.071   2.866
 7609SOL     OW23725   0.915   3.585   4.136
 7609SOL    HW123726   0.828   3.536   4.123
 7609SOL    HW223727   0.974   3.532   4.197
 7610SOL     OW23728   5.710   6.286   0.639
 7610SOL    HW123729   5.634   6.225   0.658
 7610SOL    HW223730   5.713   6.359   0.707
 7611SOL     OW23731   0.162   2.067   0.620
 7611SOL    HW123732   0.242   2.012   0.594
 7611SOL    HW223733   0.192   2.160   0.641
 7612SOL     OW23734   5.068   3.278   4.953
 7612SOL    HW123735   5.158   3.303   4.991
 7612SOL    HW223736   4.997   3.333   4.997
 7613SOL     OW23737   6.516   3.739   1.351
 7613SOL    HW123738   6.484   3.668   1.414
 7613SOL    HW223739   6.478   3.828   1.377
 7614SOL     OW23740   4.878   3.938   0.900
 7614SOL    HW123741   4.904   3.842   0.907
 7614SOL    HW223742   4.787   3.950   0.941
 7615SOL     OW23743   3.739   4.168   6.444
 7615SOL    HW123744   3.668   4.139   6.508
 7615SOL    HW223745   3.698   4.224   6.372
 7616SOL     OW23746   6.194   5.405   5.717
 7616SOL    HW123747   6.177   5.307   5.728
 7616SOL    HW223748   6.170   5.433   5.624
 7617SOL     OW23749   3.998   5.612   2.927
 7617SOL    HW123750   3.916   5.654   2.967
 7617SOL    HW223751   3.987   5.607   2.827
 7618SOL     OW23752   0.324   1.543   5.811
 7618SOL    HW123753   0.304   1.454   5.853
 7618SOL    HW223754   0.252   1.565   5.744
 7619SOL     OW23755   5.558   3.073   5.452
 7619SOL    HW123756   5.531   3.026   5.368
 7619SOL    HW223757   5.641   3.032   5.489
 7620SOL     OW23758   4.192   5.783   0.590
 7620SOL    HW123759   4.247   5.763   0.671
 7620SOL    HW223760   4.217   5.720   0.516
 7621SOL     OW23761   0.099   1.707   0.799
 7621SOL    HW123762   0.168   1.635   0.811
 7621SOL    HW223763   0.063   1.703   0.706
 7622SOL     OW23764   5.104   5.438   1.374
 7622SOL    HW123765   5.147   5.392   1.297
 7622SOL    HW223766   5.013   5.469   1.347
 7623SOL     OW23767   4.764   4.044   6.682
 7623SOL    HW123768   4.710   4.126   6.665
 7623SOL    HW223769   4.803   4.048   6.774
 7624SOL     OW23770   0.243   3.164   4.787
 7624SOL    HW123771   0.290   3.075   4.788
 7624SOL    HW223772   0.158   3.157   4.839
 7625SOL     OW23773   4.835   1.024   1.184
 7625SOL    HW123774   4.794   1.031   1.275
 7625SOL    HW223775   4.904   0.951   1.185
 7626SOL     OW23776   6.240   6.709   4.184
 7626SOL    HW123777   6.158   6.715   4.126
 7626SOL    HW223778   6.219   6.654   4.265
 7627SOL     OW23779   5.064   2.310   0.183
 7627SOL    HW123780   5.046   2.212   0.183
 7627SOL    HW223781   5.141   2.331   0.243
 7628SOL     OW23782   3.562   0.979   2.972
 7628SOL    HW123783   3.559   1.049   3.042
 7628SOL    HW223784   3.655   0.945   2.962
 7629SOL     OW23785   6.461   6.705   3.130
 7629SOL    HW123786   6.536   6.658   3.178
 7629SOL    HW223787   6.493   6.795   3.101
 7630SOL     OW23788   6.501   6.840   1.676
 7630SOL    HW123789   6.540   6.867   1.588
 7630SOL    HW223790   6.409   6.877   1.685
 7631SOL     OW23791   1.001   0.864   6.136
 7631SOL    HW123792   1.044   0.779   6.107
 7631SOL    HW223793   1.037   0.940   6.080
 7632SOL     OW23794   3.443   3.042   2.218
 7632SOL    HW123795   3.538   3.012   2.209
 7632SOL    HW223796   3.383   2.972   2.181
 7633SOL     OW23797   5.182   1.275   1.589
 7633SOL    HW123798   5.228   1.229   1.664
 7633SOL    HW223799   5.218   1.242   1.502
 7634SOL     OW23800   1.065   1.942   2.628
 7634SOL    HW123801   0.992   1.940   2.696
 7634SOL    HW223802   1.026   1.966   2.538
 7635SOL     OW23803   3.794   5.407   5.184
 7635SOL    HW123804   3.886   5.425   5.148
 7635SOL    HW223805   3.798   5.329   5.247
 7636SOL     OW23806   1.335   2.150   4.502
 7636SOL    HW123807   1.340   2.140   4.403
 7636SOL    HW223808   1.362   2.064   4.546
 7637SOL     OW23809   2.479   5.114   2.289
 7637SOL    HW123810   2.536   5.049   2.339
 7637SOL    HW223811   2.455   5.076   2.200
 7638SOL     OW23812   3.277   6.292   0.695
 7638SOL    HW123813   3.244   6.202   0.723
 7638SOL    HW223814   3.364   6.312   0.740
 7639SOL     OW23815   1.101   1.927   0.557
 7639SOL    HW123816   1.053   1.917   0.470
 7639SOL    HW223817   1.096   2.021   0.588
 7640SOL     OW23818   3.433   2.009   6.526
 7640SOL    HW123819   3.453   1.922   6.479
 7640SOL    HW223820   3.342   2.041   6.499
 7641SOL     OW23821   1.453   4.379   1.752
 7641SOL    HW123822   1.532   4.436   1.775
 7641SOL    HW223823   1.377   4.438   1.724
 7642SOL     OW23824   3.826   0.914   2.997
 7642SOL    HW123825   3.832   0.860   2.913
 7642SOL    HW223826   3.914   0.912   3.044
 7643SOL     OW23827   4.911   3.483   4.180
 7643SOL    HW123828   4.861   3.566   4.157
 7643SOL    HW223829   4.883   3.451   4.271
 7644SOL     OW23830   5.895   2.419   2.286
 7644SOL    HW123831   5.839   2.459   2.358
 7644SOL    HW223832   5.842   2.416   2.201
 7645SOL     OW23833   4.078   4.357   5.693
 7645SOL    HW123834   4.165   4.344   5.645
 7645SOL    HW223835   4.008   4.297   5.653
 7646SOL     OW23836   1.299   3.640   2.706
 7646SOL    HW123837   1.225   3.650   2.639
 7646SOL    HW223838   1.356   3.722   2.706
 7647SOL     OW23839   6.702   4.020   2.799
 7647SOL    HW123840   6.801   4.033   2.805
 7647SOL    HW223841   6.679   3.981   2.710
 7648SOL     OW23842   2.341   1.428   3.230
 7648SOL    HW123843   2.390   1.512   3.255
 7648SOL    HW223844   2.406   1.359   3.199
 7649SOL     OW23845   0.860   0.763   3.034
 7649SOL    HW123846   0.886   0.725   2.946
 7649SOL    HW223847   0.862   0.863   3.029
 7650SOL     OW23848   4.738   2.249   1.326
 7650SOL    HW123849   4.798   2.294   1.260
 7650SOL    HW223850   4.710   2.315   1.396
 7651SOL     OW23851   2.549   0.968   4.256
 7651SOL    HW123852   2.452   0.961   4.234
 7651SOL    HW223853   2.592   1.035   4.196
 7652SOL     OW23854   6.362   3.763   4.579
 7652SOL    HW123855   6.403   3.826   4.645
 7652SOL    HW223856   6.361   3.806   4.488
 7653SOL     OW23857   2.278   2.201   6.974
 7653SOL    HW123858   2.334   2.191   6.892
 7653SOL    HW223859   2.238   2.112   6.998
 7654SOL     OW23860   4.884   3.175   3.291
 7654SOL    HW123861   4.873   3.252   3.355
 7654SOL    HW223862   4.948   3.109   3.330
 7655SOL     OW23863   4.711   0.271   3.279
 7655SOL    HW123864   4.701   0.325   3.363
 7655SOL    HW223865   4.632   0.211   3.268
 7656SOL     OW23866   2.234   5.116   5.779
 7656SOL    HW123867   2.218   5.213   5.760
 7656SOL    HW223868   2.257   5.104   5.876
 7657SOL     OW23869   1.936   3.100   4.242
 7657SOL    HW123870   1.916   3.148   4.327
 7657SOL    HW223871   1.880   3.017   4.237
 7658SOL     OW23872   3.449   0.032   5.696
 7658SOL    HW123873   3.434   6.953   5.713
 7658SOL    HW223874   3.384   0.064   5.627
 7659SOL     OW23875   5.989   5.274   0.217
 7659SOL    HW123876   5.972   5.319   0.305
 7659SOL    HW223877   5.940   5.186   0.215
 7660SOL     OW23878   0.353   5.677   3.771
 7660SOL    HW123879   0.404   5.642   3.693
 7660SOL    HW223880   0.416   5.695   3.847
 7661SOL     OW23881   6.186   2.946   4.763
 7661SOL    HW123882   6.278   2.981   4.746
 7661SOL    HW223883   6.138   3.006   4.827
 7662SOL     OW23884   0.987   2.885   2.577
 7662SOL    HW123885   0.980   2.848   2.670
 7662SOL    HW223886   0.913   2.950   2.562
 7663SOL     OW23887   1.434   5.772   6.354
 7663SOL    HW123888   1.487   5.843   6.307
 7663SOL    HW223889   1.415   5.697   6.291
 7664SOL     OW23890   3.536   0.326   1.279
 7664SOL    HW123891   3.597   0.326   1.199
 7664SOL    HW223892   3.468   0.254   1.269
 7665SOL     OW23893   4.693   0.220   4.706
 7665SOL    HW123894   4.673   0.150   4.774
 7665SOL    HW223895   4.608   0.252   4.664
 7666SOL     OW23896   0.482   6.108   1.534
 7666SOL    HW123897   0.396   6.118   1.583
 7666SOL    HW223898   0.489   6.179   1.464
 7667SOL     OW23899   4.621   5.623   2.168
 7667SOL    HW123900   4.641   5.695   2.234
 7667SOL    HW223901   4.696   5.557   2.167
 7668SOL     OW23902   2.950   4.568   0.653
 7668SOL    HW123903   2.996   4.613   0.729
 7668SOL    HW223904   2.974   4.471   0.652
 7669SOL     OW23905   5.210   2.097   5.486
 7669SOL    HW123906   5.196   2.105   5.584
 7669SOL    HW223907   5.126   2.124   5.438
 7670SOL     OW23908   0.787   5.144   6.930
 7670SOL    HW123909   0.833   5.216   6.878
 7670SOL    HW223910   0.823   5.055   6.901
 7671SOL     OW23911   4.408   1.029   2.977
 7671SOL    HW123912   4.326   1.051   2.923
 7671SOL    HW223913   4.481   1.092   2.954
 7672SOL     OW23914   0.557   6.555   3.272
 7672SOL    HW123915   0.625   6.499   3.226
 7672SOL    HW223916   0.467   6.539   3.232
 7673SOL     OW23917   1.760   5.721   0.250
 7673SOL    HW123918   1.742   5.795   0.185
 7673SOL    HW223919   1.678   5.705   0.305
 7674SOL     OW23920   6.024   1.282   3.284
 7674SOL    HW123921   6.005   1.338   3.204
 7674SOL    HW223922   6.096   1.216   3.264
 7675SOL     OW23923   6.175   6.737   2.304
 7675SOL    HW123924   6.127   6.674   2.242
 7675SOL    HW223925   6.199   6.688   2.388
 7676SOL     OW23926   2.137   1.998   1.302
 7676SOL    HW123927   2.182   2.070   1.354
 7676SOL    HW223928   2.140   2.020   1.204
 7677SOL     OW23929   0.692   5.230   2.145
 7677SOL    HW123930   0.601   5.246   2.106
 7677SOL    HW223931   0.734   5.152   2.099
 7678SOL     OW23932   1.863   1.680   5.001
 7678SOL    HW123933   1.939   1.745   4.995
 7678SOL    HW223934   1.790   1.710   4.940
 7679SOL     OW23935   2.674   5.348   6.602
 7679SOL    HW123936   2.707   5.437   6.570
 7679SOL    HW223937   2.610   5.310   6.535
 7680SOL     OW23938   1.901   1.818   1.092
 7680SOL    HW123939   1.806   1.788   1.097
 7680SOL    HW223940   1.939   1.825   1.185
 7681SOL     OW23941   2.359   0.161   0.981
 7681SOL    HW123942   2.305   0.242   0.960
 7681SOL    HW223943   2.300   0.080   0.981
 7682SOL     OW23944   3.341   0.059   2.403
 7682SOL    HW123945   3.400   7.007   2.363
 7682SOL    HW223946   3.291   0.020   2.480
 7683SOL     OW23947   5.905   1.448   3.476
 7683SOL    HW123948   5.960   1.402   3.406
 7683SOL    HW223949   5.839   1.509   3.432
 7684SOL     OW23950   3.796   2.057   2.214
 7684SOL    HW123951   3.703   2.092   2.224
 7684SOL    HW223952   3.804   2.008   2.127
 7685SOL     OW23953   3.380   2.585   0.160
 7685SOL    HW123954   3.451   2.541   0.105
 7685SOL    HW223955   3.338   2.658   0.106
 7686SOL     OW23956   6.535   6.747   2.844
 7686SOL    HW123957   6.531   6.648   2.848
 7686SOL    HW223958   6.531   6.777   2.748
 7687SOL     OW23959   5.732   5.034   4.068
 7687SOL    HW123960   5.777   5.124   4.060
 7687SOL    HW223961   5.697   5.007   3.979
 7688SOL     OW23962   1.451   6.071   5.932
 7688SOL    HW123963   1.550   6.084   5.927
 7688SOL    HW223964   1.413   6.135   5.998
 7689SOL     OW23965   5.454   6.679   3.089
 7689SOL    HW123966   5.382   6.749   3.098
 7689SOL    HW223967   5.540   6.723   3.063
 7690SOL     OW23968   5.540   4.959   0.685
 7690SOL    HW123969   5.500   4.891   0.747
 7690SOL    HW223970   5.475   4.981   0.613
 7691SOL     OW23971   5.562   2.658   5.157
 7691SOL    HW123972   5.503   2.577   5.160
 7691SOL    HW223973   5.607   2.663   5.068
 7692SOL     OW23974   0.473   6.712   1.975
 7692SOL    HW123975   0.449   6.808   1.960
 7692SOL    HW223976   0.538   6.705   2.051
 7693SOL     OW23977   3.966   0.208   1.295
 7693SOL    HW123978   4.037   0.243   1.234
 7693SOL    HW223979   3.908   0.144   1.245
 7694SOL     OW23980   0.301   4.661   5.527
 7694SOL    HW123981   0.233   4.734   5.518
 7694SOL    HW223982   0.316   4.619   5.438
 7695SOL     OW23983   4.239   6.768   0.913
 7695SOL    HW123984   4.255   6.740   0.818
 7695SOL    HW223985   4.157   6.723   0.947
 7696SOL     OW23986   6.580   0.904   5.014
 7696SOL    HW123987   6.628   0.991   5.002
 7696SOL    HW223988   6.484   0.915   4.989
 7697SOL     OW23989   3.081   6.397   2.343
 7697SOL    HW123990   2.993   6.350   2.350
 7697SOL    HW223991   3.137   6.353   2.273
 7698SOL     OW23992   6.826   2.250   3.702
 7698SOL    HW123993   6.779   2.180   3.648
 7698SOL    HW223994   6.925   2.244   3.686
 7699SOL     OW23995   3.556   5.905   6.918
 7699SOL    HW123996   3.642   5.918   6.867
 7699SOL    HW223997   3.527   5.810   6.910
 7700SOL     OW23998   4.965   6.448   4.438
 7700SOL    HW123999   5.029   6.455   4.361
 7700SOL    HW224000   4.871   6.445   4.403
 7701SOL     OW24001   6.362   1.588   6.869
 7701SOL    HW124002   6.317   1.501   6.849
 7701SOL    HW224003   6.323   1.659   6.810
 7702SOL     OW24004   3.646   6.065   5.829
 7702SOL    HW124005   3.688   6.127   5.763
 7702SOL    HW224006   3.644   6.108   5.919
 7703SOL     OW24007   6.248   0.531   5.782
 7703SOL    HW124008   6.308   0.542   5.861
 7703SOL    HW224009   6.154   0.515   5.814
 7704SOL     OW24010   5.529   5.265   5.118
 7704SOL    HW124011   5.588   5.186   5.099
 7704SOL    HW224012   5.489   5.255   5.209
 7705SOL     OW24013   4.017   5.344   6.541
 7705SOL    HW124014   3.947   5.322   6.610
 7705SOL    HW224015   4.082   5.268   6.534
 7706SOL     OW24016   4.377   3.221   5.536
 7706SOL    HW124017   4.471   3.254   5.547
 7706SOL    HW224018   4.329   3.278   5.469
 7707SOL     OW24019   0.513   5.601   6.176
 7707SOL    HW124020   0.574   5.637   6.106
 7707SOL    HW224021   0.547   5.512   6.206
 7708SOL     OW24022   6.786   0.322   5.745
 7708SOL    HW124023   6.852   0.397   5.749
 7708SOL    HW224024   6.693   0.360   5.741
 7709SOL     OW24025   5.823   4.238   1.688
 7709SOL    HW124026   5.838   4.328   1.646
 7709SOL    HW224027   5.767   4.249   1.770
 7710SOL     OW24028   2.932   0.504   0.427
 7710SOL    HW124029   2.994   0.530   0.501
 7710SOL    HW224030   2.953   0.558   0.345
 7711SOL     OW24031   6.546   6.287   5.713
 7711SOL    HW124032   6.453   6.323   5.703
 7711SOL    HW224033   6.606   6.359   5.748
 7712SOL     OW24034   5.373   6.029   2.495
 7712SOL    HW124035   5.437   6.105   2.489
 7712SOL    HW224036   5.422   5.943   2.480
 7713SOL     OW24037   1.219   4.648   0.596
 7713SOL    HW124038   1.165   4.607   0.669
 7713SOL    HW224039   1.308   4.676   0.633
 7714SOL     OW24040   6.190   4.302   5.620
 7714SOL    HW124041   6.189   4.229   5.551
 7714SOL    HW224042   6.207   4.263   5.710
 7715SOL     OW24043   4.092   2.032   7.011
 7715SOL    HW124044   4.106   2.066   0.086
 7715SOL    HW224045   4.007   1.980   7.006
 7716SOL     OW24046   5.998   4.679   3.432
 7716SOL    HW124047   6.002   4.773   3.397
 7716SOL    HW224048   5.905   4.644   3.421
 7717SOL     OW24049   1.852   0.931   4.908
 7717SOL    HW124050   1.762   0.888   4.898
 7717SOL    HW224051   1.917   0.863   4.944
 7718SOL     OW24052   1.640   2.708   3.012
 7718SOL    HW124053   1.657   2.756   3.097
 7718SOL    HW224054   1.623   2.611   3.031
 7719SOL     OW24055   6.718   4.484   4.949
 7719SOL    HW124056   6.625   4.449   4.937
 7719SOL    HW224057   6.783   4.424   4.902
 7720SOL     OW24058   0.292   1.380   0.025
 7720SOL    HW124059   0.369   1.445   0.023
 7720SOL    HW224060   0.213   1.422   6.998
 7721SOL     OW24061   0.536   5.099   2.413
 7721SOL    HW124062   0.606   5.091   2.342
 7721SOL    HW224063   0.488   5.011   2.423
 7722SOL     OW24064   1.089   5.503   3.195
 7722SOL    HW124065   1.150   5.497   3.274
 7722SOL    HW224066   1.047   5.594   3.192
 7723SOL     OW24067   5.070   2.993   0.141
 7723SOL    HW124068   5.122   2.925   0.192
 7723SOL    HW224069   4.994   3.026   0.197
 7724SOL     OW24070   3.217   4.398   0.909
 7724SOL    HW124071   3.200   4.488   0.869
 7724SOL    HW224072   3.210   4.404   1.009
 7725SOL     OW24073   6.247   2.460   3.608
 7725SOL    HW124074   6.229   2.364   3.588
 7725SOL    HW224075   6.162   2.512   3.601
 7726SOL     OW24076   2.115   6.020   5.189
 7726SOL    HW124077   2.123   6.005   5.288
 7726SOL    HW224078   2.021   6.045   5.166
 7727SOL     OW24079   6.975   1.032   3.031
 7727SOL    HW124080   6.969   1.130   3.050
 7727SOL    HW224081   6.883   0.993   3.028
 7728SOL     OW24082   1.279   4.651   3.295
 7728SOL    HW124083   1.205   4.584   3.299
 7728SOL    HW224084   1.316   4.666   3.387
 7729SOL     OW24085   5.671   2.289   1.274
 7729SOL    HW124086   5.595   2.343   1.238
 7729SOL    HW224087   5.653   2.266   1.370
 7730SOL     OW24088   6.122   5.917   1.028
 7730SOL    HW124089   6.059   5.869   1.090
 7730SOL    HW224090   6.078   6.001   0.995
 7731SOL     OW24091   6.539   0.877   6.553
 7731SOL    HW124092   6.604   0.948   6.580
 7731SOL    HW224093   6.446   0.906   6.578
 7732SOL     OW24094   4.296   6.254   0.549
 7732SOL    HW124095   4.317   6.291   0.639
 7732SOL    HW224096   4.230   6.313   0.503
 7733SOL     OW24097   4.620   6.557   2.377
 7733SOL    HW124098   4.585   6.647   2.403
 7733SOL    HW224099   4.570   6.486   2.428
 7734SOL     OW24100   2.436   5.299   3.163
 7734SOL    HW124101   2.505   5.371   3.155
 7734SOL    HW224102   2.349   5.333   3.127
 7735SOL     OW24103   5.098   6.396   6.691
 7735SOL    HW124104   5.000   6.382   6.706
 7735SOL    HW224105   5.115   6.491   6.665
 7736SOL     OW24106   3.221   3.544   0.072
 7736SOL    HW124107   3.185   3.487   0.146
 7736SOL    HW224108   3.184   3.510   7.003
 7737SOL     OW24109   3.062   0.487   2.486
 7737SOL    HW124110   3.144   0.526   2.445
 7737SOL    HW224111   3.086   0.407   2.540
 7738SOL     OW24112   3.116   6.290   0.235
 7738SOL    HW124113   3.216   6.282   0.228
 7738SOL    HW224114   3.092   6.380   0.270
 7739SOL     OW24115   0.637   2.367   0.796
 7739SOL    HW124116   0.628   2.424   0.878
 7739SOL    HW224117   0.671   2.422   0.720
 7740SOL     OW24118   2.199   0.878   3.067
 7740SOL    HW124119   2.245   0.851   2.982
 7740SOL    HW224120   2.130   0.947   3.047
 7741SOL     OW24121   1.049   4.978   6.143
 7741SOL    HW124122   0.966   5.033   6.154
 7741SOL    HW224123   1.101   5.012   6.064
 7742SOL     OW24124   4.970   1.877   3.664
 7742SOL    HW124125   4.947   1.839   3.754
 7742SOL    HW224126   4.906   1.840   3.596
 7743SOL     OW24127   6.149   1.129   0.312
 7743SOL    HW124128   6.165   1.042   0.359
 7743SOL    HW224129   6.092   1.188   0.369
 7744SOL     OW24130   0.891   6.313   3.624
 7744SOL    HW124131   0.812   6.351   3.575
 7744SOL    HW224132   0.970   6.311   3.563
 7745SOL     OW24133   3.568   1.070   6.574
 7745SOL    HW124134   3.609   0.978   6.579
 7745SOL    HW224135   3.638   1.138   6.594
 7746SOL     OW24136   2.597   6.314   0.186
 7746SOL    HW124137   2.507   6.299   0.146
 7746SOL    HW224138   2.631   6.229   0.227
 7747SOL     OW24139   5.470   5.913   1.358
 7747SOL    HW124140   5.387   5.857   1.347
 7747SOL    HW224141   5.486   5.929   1.456
 7748SOL     OW24142   2.937   3.569   4.796
 7748SOL    HW124143   3.034   3.550   4.807
 7748SOL    HW224144   2.890   3.556   4.884
 7749SOL     OW24145   2.186   2.703   5.877
 7749SOL    HW124146   2.150   2.611   5.887
 7749SOL    HW224147   2.255   2.704   5.806
 7750SOL     OW24148   0.230   6.089   1.622
 7750SOL    HW124149   0.190   6.169   1.577
 7750SOL    HW224150   0.177   6.067   1.704
 7751SOL     OW24151   1.234   2.615   1.912
 7751SOL    HW124152   1.280   2.634   1.825
 7751SOL    HW224153   1.137   2.638   1.903
 7752SOL     OW24154   5.655   0.173   6.060
 7752SOL    HW124155   5.572   0.161   6.004
 7752SOL    HW224156   5.659   0.267   6.093
 7753SOL     OW24157   2.492   1.723   4.043
 7753SOL    HW124158   2.527   1.634   4.016
 7753SOL    HW224159   2.520   1.792   3.977
 7754SOL     OW24160   3.345   6.205   1.125
 7754SOL    HW124161   3.293   6.257   1.192
 7754SOL    HW224162   3.443   6.216   1.143
 7755SOL     OW24163   2.499   2.117   5.710
 7755SOL    HW124164   2.434   2.149   5.641
 7755SOL    HW224165   2.503   2.017   5.709
 7756SOL     OW24166   2.846   6.669   2.708
 7756SOL    HW124167   2.789   6.710   2.637
 7756SOL    HW224168   2.794   6.665   2.793
 7757SOL     OW24169   5.887   4.831   0.726
 7757SOL    HW124170   5.852   4.739   0.706
 7757SOL    HW224171   5.851   4.896   0.659
 7758SOL     OW24172   2.263   0.100   5.995
 7758SOL    HW124173   2.238   0.019   5.941
 7758SOL    HW224174   2.194   0.171   5.983
 7759SOL     OW24175   2.040   2.208   5.670
 7759SOL    HW124176   1.986   2.162   5.740
 7759SOL    HW224177   2.125   2.156   5.655
 7760SOL     OW24178   6.124   3.738   2.308
 7760SOL    HW124179   6.113   3.727   2.210
 7760SOL    HW224180   6.151   3.651   2.349
 7761SOL     OW24181   6.548   6.439   4.828
 7761SOL    HW124182   6.539   6.478   4.737
 7761SOL    HW224183   6.554   6.339   4.821
 7762SOL     OW24184   2.470   0.385   4.235
 7762SOL    HW124185   2.472   0.344   4.143
 7762SOL    HW224186   2.563   0.408   4.263
 7763SOL     OW24187   2.320   0.038   6.670
 7763SOL    HW124188   2.334   0.043   6.769
 7763SOL    HW224189   2.281   0.124   6.637
 7764SOL     OW24190   3.622   3.727   5.036
 7764SOL    HW124191   3.623   3.689   5.129
 7764SOL    HW224192   3.714   3.759   5.012
 7765SOL     OW24193   6.077   3.120   4.957
 7765SOL    HW124194   6.155   3.166   5.001
 7765SOL    HW224195   6.048   3.173   4.877
 7766SOL     OW24196   6.668   3.932   0.222
 7766SOL    HW124197   6.619   3.850   0.194
 7766SOL    HW224198   6.671   3.997   0.147
 7767SOL     OW24199   4.393   5.768   2.060
 7767SOL    HW124200   4.481   5.735   2.094
 7767SOL    HW224201   4.321   5.702   2.081
 7768SOL     OW24202   4.620   4.244   2.908
 7768SOL    HW124203   4.607   4.159   2.960
 7768SOL    HW224204   4.669   4.310   2.965
 7769SOL     OW24205   4.452   1.653   4.122
 7769SOL    HW124206   4.364   1.635   4.165
 7769SOL    HW224207   4.515   1.694   4.189
 7770SOL     OW24208   1.530   3.567   4.878
 7770SOL    HW124209   1.491   3.654   4.848
 7770SOL    HW224210   1.535   3.504   4.801
 7771SOL     OW24211   3.510   2.003   5.312
 7771SOL    HW124212   3.475   2.096   5.324
 7771SOL    HW224213   3.590   2.005   5.251
 7772SOL     OW24214   4.785   6.751   1.853
 7772SOL    HW124215   4.759   6.714   1.942
 7772SOL    HW224216   4.839   6.683   1.803
 7773SOL     OW24217   1.683   4.847   5.247
 7773SOL    HW124218   1.662   4.758   5.286
 7773SOL    HW224219   1.782   4.857   5.237
 7774SOL     OW24220   4.663   2.234   4.387
 7774SOL    HW124221   4.633   2.214   4.480
 7774SOL    HW224222   4.677   2.332   4.376
 7775SOL     OW24223   4.378   0.006   0.108
 7775SOL    HW124224   4.393   0.105   0.108
 7775SOL    HW224225   4.377   6.991   0.202
 7776SOL     OW24226   0.843   5.963   6.952
 7776SOL    HW124227   0.799   6.035   7.005
 7776SOL    HW224228   0.896   5.904   7.013
 7777SOL     OW24229   6.031   5.337   3.843
 7777SOL    HW124230   6.101   5.316   3.912
 7777SOL    HW224231   6.066   5.407   3.781
 7778SOL     OW24232   5.513   3.640   1.593
 7778SOL    HW124233   5.569   3.627   1.674
 7778SOL    HW224234   5.538   3.571   1.524
 7779SOL     OW24235   2.565   1.375   1.693
 7779SOL    HW124236   2.535   1.470   1.691
 7779SOL    HW224237   2.628   1.359   1.617
 7780SOL     OW24238   0.453   5.110   5.882
 7780SOL    HW124239   0.472   5.208   5.890
 7780SOL    HW224240   0.539   5.060   5.878
 7781SOL     OW24241   1.983   4.396   1.813
 7781SOL    HW124242   2.070   4.416   1.768
 7781SOL    HW224243   1.999   4.385   1.912
 7782SOL     OW24244   5.127   5.215   4.333
 7782SOL    HW124245   5.214   5.243   4.292
 7782SOL    HW224246   5.055   5.223   4.265
 7783SOL     OW24247   0.710   6.934   5.496
 7783SOL    HW124248   0.800   6.901   5.466
 7783SOL    HW224249   0.721   6.999   5.570
 7784SOL     OW24250   3.653   2.897   2.085
 7784SOL    HW124251   3.619   2.803   2.082
 7784SOL    HW224252   3.716   2.912   2.009
 7785SOL     OW24253   1.831   6.080   4.601
 7785SOL    HW124254   1.793   6.092   4.509
 7785SOL    HW224255   1.896   6.153   4.620
 7786SOL     OW24256   3.583   0.084   0.688
 7786SOL    HW124257   3.595   0.176   0.725
 7786SOL    HW224258   3.486   0.067   0.670
 7787SOL     OW24259   2.131   3.035   6.870
 7787SOL    HW124260   2.113   2.954   6.815
 7787SOL    HW224261   2.045   3.076   6.898
 7788SOL     OW24262   1.936   5.026   1.505
 7788SOL    HW124263   2.026   5.057   1.536
 7788SOL    HW224264   1.933   5.028   1.405
 7789SOL     OW24265   2.945   0.197   6.500
 7789SOL    HW124266   2.913   0.246   6.418
 7789SOL    HW224267   2.904   0.238   6.581
 7790SOL     OW24268   4.946   5.484   2.523
 7790SOL    HW124269   4.976   5.448   2.435
 7790SOL    HW224270   4.976   5.423   2.596
 7791SOL     OW24271   2.079   5.063   2.918
 7791SOL    HW124272   2.179   5.070   2.919
 7791SOL    HW224273   2.041   5.127   2.851
 7792SOL     OW24274   1.636   6.013   4.074
 7792SOL    HW124275   1.582   6.013   4.158
 7792SOL    HW224276   1.583   5.972   4.000
 7793SOL     OW24277   3.753   0.817   0.165
 7793SOL    HW124278   3.750   0.721   0.195
 7793SOL    HW224279   3.679   0.867   0.208
 7794SOL     OW24280   6.894   4.196   1.834
 7794SOL    HW124281   6.849   4.119   1.789
 7794SOL    HW224282   6.917   4.171   1.928
 7795SOL     OW24283   2.452   4.713   5.278
 7795SOL    HW124284   2.484   4.667   5.360
 7795SOL    HW224285   2.352   4.721   5.281
 7796SOL     OW24286   3.414   3.178   5.161
 7796SOL    HW124287   3.420   3.079   5.146
 7796SOL    HW224288   3.500   3.220   5.135
 7797SOL     OW24289   0.935   6.015   1.627
 7797SOL    HW124290   0.916   5.921   1.656
 7797SOL    HW224291   1.024   6.018   1.580
 7798SOL     OW24292   0.515   2.907   3.376
 7798SOL    HW124293   0.499   2.918   3.278
 7798SOL    HW224294   0.523   2.997   3.419
 7799SOL     OW24295   1.866   5.494   2.355
 7799SOL    HW124296   1.772   5.462   2.348
 7799SOL    HW224297   1.912   5.448   2.431
 7800SOL     OW24298   0.988   5.229   2.786
 7800SOL    HW124299   0.969   5.304   2.851
 7800SOL    HW224300   0.917   5.160   2.793
 7801SOL     OW24301   1.723   1.513   2.554
 7801SOL    HW124302   1.783   1.590   2.575
 7801SOL    HW224303   1.639   1.520   2.608
 7802SOL     OW24304   6.540   3.177   0.374
 7802SOL    HW124305   6.577   3.203   0.463
 7802SOL    HW224306   6.514   3.080   0.375
 7803SOL     OW24307   4.390   2.152   7.000
 7803SOL    HW124308   4.456   2.194   0.044
 7803SOL    HW224309   4.387   2.054   7.015
 7804SOL     OW24310   4.378   2.112   5.181
 7804SOL    HW124311   4.442   2.036   5.179
 7804SOL    HW224312   4.383   2.161   5.094
 7805SOL     OW24313   5.321   3.280   2.016
 7805SOL    HW124314   5.356   3.221   2.089
 7805SOL    HW224315   5.222   3.285   2.022
 7806SOL     OW24316   5.523   1.533   5.979
 7806SOL    HW124317   5.499   1.619   6.024
 7806SOL    HW224318   5.546   1.465   6.048
 7807SOL     OW24319   0.624   4.897   6.005
 7807SOL    HW124320   0.660   4.887   6.098
 7807SOL    HW224321   0.665   4.827   5.946
 7808SOL     OW24322   6.105   3.501   3.468
 7808SOL    HW124323   6.103   3.446   3.552
 7808SOL    HW224324   6.096   3.441   3.389
 7809SOL     OW24325   5.246   4.902   5.265
 7809SOL    HW124326   5.271   4.900   5.168
 7809SOL    HW224327   5.146   4.898   5.274
 7810SOL     OW24328   3.434   6.399   5.102
 7810SOL    HW124329   3.468   6.337   5.173
 7810SOL    HW224330   3.487   6.385   5.018
 7811SOL     OW24331   1.643   4.767   1.733
 7811SOL    HW124332   1.652   4.845   1.795
 7811SOL    HW224333   1.729   4.751   1.685
 7812SOL     OW24334   1.404   2.405   4.601
 7812SOL    HW124335   1.385   2.319   4.553
 7812SOL    HW224336   1.402   2.481   4.536
 7813SOL     OW24337   4.143   2.031   1.342
 7813SOL    HW124338   4.055   2.072   1.367
 7813SOL    HW224339   4.139   1.932   1.358
 7814SOL     OW24340   6.811   3.021   3.377
 7814SOL    HW124341   6.783   3.117   3.378
 7814SOL    HW224342   6.876   3.006   3.302
 7815SOL     OW24343   5.990   2.513   3.696
 7815SOL    HW124344   5.893   2.538   3.690
 7815SOL    HW224345   6.000   2.433   3.755
 7816SOL     OW24346   0.978   2.241   6.709
 7816SOL    HW124347   1.012   2.150   6.735
 7816SOL    HW224348   0.907   2.232   6.639
 7817SOL     OW24349   4.886   4.549   4.750
 7817SOL    HW124350   4.793   4.585   4.757
 7817SOL    HW224351   4.936   4.568   4.834
 7818SOL     OW24352   4.756   0.766   2.856
 7818SOL    HW124353   4.710   0.759   2.944
 7818SOL    HW224354   4.740   0.683   2.803
 7819SOL     OW24355   0.142   3.816   3.594
 7819SOL    HW124356   0.233   3.858   3.587
 7819SOL    HW224357   0.073   3.882   3.565
 7820SOL     OW24358   1.555   1.349   5.478
 7820SOL    HW124359   1.508   1.264   5.501
 7820SOL    HW224360   1.651   1.330   5.457
 7821SOL     OW24361   5.816   5.517   0.450
 7821SOL    HW124362   5.736   5.555   0.497
 7821SOL    HW224363   5.791   5.487   0.358
 7822SOL     OW24364   1.007   1.233   6.481
 7822SOL    HW124365   1.015   1.208   6.577
 7822SOL    HW224366   1.060   1.170   6.425
 7823SOL     OW24367   2.395   3.670   6.046
 7823SOL    HW124368   2.369   3.576   6.067
 7823SOL    HW224369   2.347   3.733   6.107
 7824SOL     OW24370   6.135   0.835   4.265
 7824SOL    HW124371   6.054   0.882   4.299
 7824SOL    HW224372   6.109   0.750   4.220
 7825SOL     OW24373   1.106   3.280   0.649
 7825SOL    HW124374   1.197   3.299   0.614
 7825SOL    HW224375   1.109   3.268   0.748
 7826SOL     OW24376   5.637   1.749   6.321
 7826SOL    HW124377   5.663   1.839   6.358
 7826SOL    HW224378   5.660   1.679   6.388
 7827SOL     OW24379   2.489   4.532   0.772
 7827SOL    HW124380   2.513   4.469   0.699
 7827SOL    HW224381   2.552   4.520   0.848
 7828SOL     OW24382   0.634   5.316   1.417
 7828SOL    HW124383   0.729   5.348   1.406
 7828SOL    HW224384   0.577   5.393   1.444
 7829SOL     OW24385   2.433   2.844   0.172
 7829SOL    HW124386   2.364   2.914   0.192
 7829SOL    HW224387   2.488   2.872   0.094
 7830SOL     OW24388   4.170   3.850   6.043
 7830SOL    HW124389   4.203   3.918   6.109
 7830SOL    HW224390   4.239   3.779   6.031
 7831SOL     OW24391   1.367   5.213   0.901
 7831SOL    HW124392   1.465   5.205   0.914
 7831SOL    HW224393   1.331   5.286   0.960
 7832SOL     OW24394   3.406   1.346   4.244
 7832SOL    HW124395   3.429   1.324   4.149
 7832SOL    HW224396   3.308   1.337   4.258
 7833SOL     OW24397   0.964   0.744   0.014
 7833SOL    HW124398   0.937   0.690   6.952
 7833SOL    HW224399   0.952   0.689   0.097
 7834SOL     OW24400   6.956   1.569   3.705
 7834SOL    HW124401   0.019   1.566   3.646
 7834SOL    HW224402   6.982   1.547   3.799
 7835SOL     OW24403   2.807   2.324   4.552
 7835SOL    HW124404   2.858   2.305   4.636
 7835SOL    HW224405   2.768   2.416   4.556
 7836SOL     OW24406   3.237   2.781   5.298
 7836SOL    HW124407   3.297   2.795   5.377
 7836SOL    HW224408   3.164   2.848   5.299
 7837SOL     OW24409   6.858   5.850   1.573
 7837SOL    HW124410   6.915   5.932   1.582
 7837SOL    HW224411   6.781   5.856   1.637
 7838SOL     OW24412   4.146   6.448   0.404
 7838SOL    HW124413   4.191   6.537   0.396
 7838SOL    HW224414   4.137   6.406   0.314
 7839SOL     OW24415   6.055   4.899   5.169
 7839SOL    HW124416   6.127   4.834   5.146
 7839SOL    HW224417   6.058   4.919   5.267
 7840SOL     OW24418   4.899   3.144   4.419
 7840SOL    HW124419   4.878   3.142   4.516
 7840SOL    HW224420   4.853   3.068   4.373
 7841SOL     OW24421   5.059   1.522   6.433
 7841SOL    HW124422   5.046   1.509   6.532
 7841SOL    HW224423   5.074   1.619   6.414
 7842SOL     OW24424   1.937   1.728   2.888
 7842SOL    HW124425   1.966   1.742   2.793
 7842SOL    HW224426   1.845   1.765   2.899
 7843SOL     OW24427   4.839   4.175   2.216
 7843SOL    HW124428   4.829   4.217   2.126
 7843SOL    HW224429   4.766   4.207   2.277
 7844SOL     OW24430   4.463   0.604   3.821
 7844SOL    HW124431   4.367   0.594   3.847
 7844SOL    HW224432   4.473   0.683   3.760
 7845SOL     OW24433   6.227   1.652   4.203
 7845SOL    HW124434   6.250   1.563   4.243
 7845SOL    HW224435   6.196   1.639   4.109
 7846SOL     OW24436   1.743   0.881   1.905
 7846SOL    HW124437   1.651   0.843   1.917
 7846SOL    HW224438   1.770   0.929   1.989
 7847SOL     OW24439   6.576   1.443   2.224
 7847SOL    HW124440   6.661   1.483   2.191
 7847SOL    HW224441   6.570   1.455   2.323
 7848SOL     OW24442   3.057   3.419   0.939
 7848SOL    HW124443   2.964   3.408   0.904
 7848SOL    HW224444   3.120   3.434   0.863
 7849SOL     OW24445   5.368   3.909   3.369
 7849SOL    HW124446   5.394   3.828   3.316
 7849SOL    HW224447   5.437   3.981   3.356
 7850SOL     OW24448   0.347   2.026   3.945
 7850SOL    HW124449   0.264   1.992   3.900
 7850SOL    HW224450   0.424   2.020   3.881
 7851SOL     OW24451   6.913   6.732   0.885
 7851SOL    HW124452   6.857   6.672   0.828
 7851SOL    HW224453   6.977   6.783   0.828
 7852SOL     OW24454   2.705   6.959   5.242
 7852SOL    HW124455   2.624   6.899   5.240
 7852SOL    HW224456   2.747   6.955   5.333
 7853SOL     OW24457   3.943   1.270   2.161
 7853SOL    HW124458   3.893   1.287   2.076
 7853SOL    HW224459   3.901   1.193   2.209
 7854SOL     OW24460   3.000   3.585   0.446
 7854SOL    HW124461   2.941   3.515   0.487
 7854SOL    HW224462   2.945   3.650   0.395
 7855SOL     OW24463   3.049   6.028   5.858
 7855SOL    HW124464   2.995   5.976   5.925
 7855SOL    HW224465   3.052   5.978   5.772
 7856SOL     OW24466   5.631   5.086   4.426
 7856SOL    HW124467   5.699   5.151   4.394
 7856SOL    HW224468   5.546   5.098   4.373
 7857SOL     OW24469   6.078   2.520   5.433
 7857SOL    HW124470   6.099   2.422   5.445
 7857SOL    HW224471   6.162   2.573   5.441
 7858SOL     OW24472   4.779   5.535   3.583
 7858SOL    HW124473   4.826   5.614   3.621
 7858SOL    HW224474   4.834   5.453   3.595
 7859SOL     OW24475   6.193   4.138   5.419
 7859SOL    HW124476   6.204   4.044   5.452
 7859SOL    HW224477   6.249   4.151   5.337
 7860SOL     OW24478   4.467   0.314   2.561
 7860SOL    HW124479   4.478   0.401   2.514
 7860SOL    HW224480   4.380   0.312   2.609
 7861SOL     OW24481   3.874   5.340   1.595
 7861SOL    HW124482   3.793   5.291   1.565
 7861SOL    HW224483   3.900   5.407   1.526
 7862SOL     OW24484   2.954   4.700   1.675
 7862SOL    HW124485   2.914   4.620   1.721
 7862SOL    HW224486   2.971   4.678   1.579
 7863SOL     OW24487   6.919   6.570   3.845
 7863SOL    HW124488   6.847   6.571   3.915
 7863SOL    HW224489   6.907   6.648   3.784
 7864SOL     OW24490   0.059   6.505   5.319
 7864SOL    HW124491   0.087   6.512   5.223
 7864SOL    HW224492   0.112   6.432   5.364
 7865SOL     OW24493   4.814   6.861   4.797
 7865SOL    HW124494   4.773   6.876   4.887
 7865SOL    HW224495   4.769   6.784   4.752
 7866SOL     OW24496   2.615   2.248   6.815
 7866SOL    HW124497   2.539   2.184   6.807
 7866SOL    HW224498   2.676   2.219   6.889
 7867SOL     OW24499   5.414   6.896   2.290
 7867SOL    HW124500   5.345   6.952   2.336
 7867SOL    HW224501   5.403   6.904   2.191
 7868SOL     OW24502   5.749   6.524   2.093
 7868SOL    HW124503   5.689   6.447   2.119
 7868SOL    HW224504   5.718   6.607   2.138
 7869SOL     OW24505   5.294   3.460   0.565
 7869SOL    HW124506   5.366   3.404   0.523
 7869SOL    HW224507   5.205   3.419   0.548
 7870SOL     OW24508   4.684   5.199   4.747
 7870SOL    HW124509   4.641   5.140   4.679
 7870SOL    HW224510   4.763   5.152   4.787
 7871SOL     OW24511   5.358   3.881   2.585
 7871SOL    HW124512   5.445   3.930   2.592
 7871SOL    HW224513   5.316   3.873   2.675
 7872SOL     OW24514   2.228   4.151   2.492
 7872SOL    HW124515   2.199   4.245   2.513
 7872SOL    HW224516   2.310   4.153   2.435
 7873SOL     OW24517   5.110   0.614   5.451
 7873SOL    HW124518   5.160   0.616   5.537
 7873SOL    HW224519   5.172   0.634   5.375
 7874SOL     OW24520   4.952   1.622   0.452
 7874SOL    HW124521   4.963   1.613   0.353
 7874SOL    HW224522   4.898   1.704   0.472
 7875SOL     OW24523   4.478   2.206   6.738
 7875SOL    HW124524   4.499   2.178   6.831
 7875SOL    HW224525   4.481   2.305   6.731
 7876SOL     OW24526   6.620   6.942   5.120
 7876SOL    HW124527   6.523   6.926   5.139
 7876SOL    HW224528   6.673   6.864   5.154
 7877SOL     OW24529   6.866   3.066   2.536
 7877SOL    HW124530   6.954   3.095   2.573
 7877SOL    HW224531   6.879   2.984   2.480
 7878SOL     OW24532   4.680   4.973   4.249
 7878SOL    HW124533   4.769   4.948   4.286
 7878SOL    HW224534   4.690   5.000   4.153
 7879SOL     OW24535   5.053   5.831   3.424
 7879SOL    HW124536   4.955   5.839   3.403
 7879SOL    HW224537   5.065   5.761   3.495
 7880SOL     OW24538   1.284   5.231   0.640
 7880SOL    HW124539   1.300   5.246   0.738
 7880SOL    HW224540   1.314   5.139   0.615
 7881SOL     OW24541   5.508   3.421   4.807
 7881SOL    HW124542   5.427   3.442   4.862
 7881SOL    HW224543   5.484   3.352   4.739
 7882SOL     OW24544   1.746   3.352   2.774
 7882SOL    HW124545   1.842   3.342   2.748
 7882SOL    HW224546   1.705   3.262   2.790
 7883SOL     OW24547   1.855   0.076   1.275
 7883SOL    HW124548   1.768   0.079   1.324
 7883SOL    HW224549   1.922   0.026   1.329
 7884SOL     OW24550   2.067   3.536   3.967
 7884SOL    HW124551   2.040   3.606   4.033
 7884SOL    HW224552   2.110   3.579   3.888
 7885SOL     OW24553   6.105   6.391   1.703
 7885SOL    HW124554   6.178   6.349   1.757
 7885SOL    HW224555   6.035   6.427   1.765
 7886SOL     OW24556   3.840   5.035   0.785
 7886SOL    HW124557   3.757   5.074   0.825
 7886SOL    HW224558   3.915   5.042   0.850
 7887SOL     OW24559   3.302   2.500   5.339
 7887SOL    HW124560   3.288   2.599   5.339
 7887SOL    HW224561   3.230   2.456   5.285
 7888SOL     OW24562   0.290   0.359   5.000
 7888SOL    HW124563   0.256   0.283   5.055
 7888SOL    HW224564   0.387   0.374   5.021
 7889SOL     OW24565   0.815   4.649   6.828
 7889SOL    HW124566   0.725   4.641   6.872
 7889SOL    HW224567   0.808   4.614   6.734
 7890SOL     OW24568   0.666   3.459   4.115
 7890SOL    HW124569   0.601   3.522   4.073
 7890SOL    HW224570   0.666   3.373   4.065
 7891SOL     OW24571   1.870   4.242   5.085
 7891SOL    HW124572   1.886   4.277   5.177
 7891SOL    HW224573   1.930   4.164   5.068
 7892SOL     OW24574   1.829   2.149   3.974
 7892SOL    HW124575   1.922   2.175   3.946
 7892SOL    HW224576   1.831   2.058   4.014
 7893SOL     OW24577   6.495   0.282   2.009
 7893SOL    HW124578   6.533   0.374   2.002
 7893SOL    HW224579   6.547   0.219   1.951
 7894SOL     OW24580   3.120   0.947   1.405
 7894SOL    HW124581   3.139   1.040   1.436
 7894SOL    HW224582   3.091   0.949   1.310
 7895SOL     OW24583   4.924   0.237   4.556
 7895SOL    HW124584   4.831   0.217   4.588
 7895SOL    HW224585   4.990   0.187   4.613
 7896SOL     OW24586   4.839   2.898   1.549
 7896SOL    HW124587   4.789   2.893   1.463
 7896SOL    HW224588   4.783   2.858   1.622
 7897SOL     OW24589   3.562   2.495   1.252
 7897SOL    HW124590   3.536   2.541   1.167
 7897SOL    HW224591   3.481   2.451   1.292
 7898SOL     OW24592   4.015   0.155   3.661
 7898SOL    HW124593   3.921   0.171   3.632
 7898SOL    HW224594   4.022   0.171   3.760
 7899SOL     OW24595   5.691   6.592   1.730
 7899SOL    HW124596   5.734   6.533   1.799
 7899SOL    HW224597   5.686   6.542   1.643
 7900SOL     OW24598   1.007   5.370   1.615
 7900SOL    HW124599   1.088   5.428   1.622
 7900SOL    HW224600   0.985   5.333   1.705
 7901SOL     OW24601   4.760   1.082   6.831
 7901SOL    HW124602   4.776   1.066   6.734
 7901SOL    HW224603   4.845   1.114   6.874
 7902SOL     OW24604   5.935   5.618   2.208
 7902SOL    HW124605   6.028   5.621   2.172
 7902SOL    HW224606   5.926   5.544   2.275
 7903SOL     OW24607   4.922   1.449   3.011
 7903SOL    HW124608   4.931   1.477   2.915
 7903SOL    HW224609   4.980   1.369   3.029
 7904SOL     OW24610   5.582   6.949   2.527
 7904SOL    HW124611   5.517   6.963   2.601
 7904SOL    HW224612   5.533   6.916   2.446
 7905SOL     OW24613   5.681   2.305   0.470
 7905SOL    HW124614   5.752   2.236   0.483
 7905SOL    HW224615   5.691   2.377   0.538
 7906SOL     OW24616   0.481   5.203   0.745
 7906SOL    HW124617   0.475   5.185   0.843
 7906SOL    HW224618   0.390   5.193   0.704
 7907SOL     OW24619   6.180   2.182   3.642
 7907SOL    HW124620   6.107   2.142   3.698
 7907SOL    HW224621   6.258   2.121   3.640
 7908SOL     OW24622   1.373   1.065   6.356
 7908SOL    HW124623   1.427   1.118   6.421
 7908SOL    HW224624   1.377   0.968   6.380
 7909SOL     OW24625   4.770   4.086   3.937
 7909SOL    HW124626   4.686   4.139   3.926
 7909SOL    HW224627   4.775   4.051   4.031
 7910SOL     OW24628   2.259   3.149   0.371
 7910SOL    HW124629   2.328   3.209   0.409
 7910SOL    HW224630   2.284   3.123   0.278
 7911SOL     OW24631   1.005   4.724   0.444
 7911SOL    HW124632   1.093   4.749   0.484
 7911SOL    HW224633   0.977   4.795   0.379
 7912SOL     OW24634   5.804   4.764   1.187
 7912SOL    HW124635   5.804   4.675   1.140
 7912SOL    HW224636   5.747   4.758   1.269
 7913SOL     OW24637   1.451   3.904   1.964
 7913SOL    HW124638   1.385   3.929   1.893
 7913SOL    HW224639   1.485   3.811   1.947
 7914SOL     OW24640   6.705   4.530   0.702
 7914SOL    HW124641   6.685   4.454   0.764
 7914SOL    HW224642   6.755   4.601   0.752
 7915SOL     OW24643   5.146   2.175   2.413
 7915SOL    HW124644   5.063   2.231   2.406
 7915SOL    HW224645   5.160   2.148   2.509
 7916SOL     OW24646   6.789   5.934   5.721
 7916SOL    HW124647   6.700   5.916   5.678
 7916SOL    HW224648   6.847   5.984   5.656
 7917SOL     OW24649   4.065   3.294   5.621
 7917SOL    HW124650   3.965   3.289   5.623
 7917SOL    HW224651   4.102   3.243   5.699
 7918SOL     OW24652   6.251   1.201   4.101
 7918SOL    HW124653   6.181   1.217   4.170
 7918SOL    HW224654   6.257   1.103   4.081
 7919SOL     OW24655   1.538   4.597   3.162
 7919SOL    HW124656   1.576   4.606   3.253
 7919SOL    HW224657   1.487   4.680   3.138
 7920SOL     OW24658   6.424   6.810   0.734
 7920SOL    HW124659   6.345   6.855   0.775
 7920SOL    HW224660   6.499   6.810   0.801
 7921SOL     OW24661   5.863   6.016   2.398
 7921SOL    HW124662   5.810   6.013   2.313
 7921SOL    HW224663   5.845   5.932   2.451
 7922SOL     OW24664   0.328   5.969   0.125
 7922SOL    HW124665   0.412   5.918   0.142
 7922SOL    HW224666   0.315   6.038   0.196
 7923SOL     OW24667   3.731   0.856   6.456
 7923SOL    HW124668   3.714   0.758   6.465
 7923SOL    HW224669   3.826   0.872   6.429
 7924SOL     OW24670   5.074   0.383   1.904
 7924SOL    HW124671   5.091   0.470   1.952
 7924SOL    HW224672   5.045   0.314   1.971
 7925SOL     OW24673   0.675   0.285   0.073
 7925SOL    HW124674   0.598   0.341   0.042
 7925SOL    HW224675   0.644   0.224   0.146
 7926SOL     OW24676   4.840   2.110   6.104
 7926SOL    HW124677   4.834   2.173   6.027
 7926SOL    HW224678   4.924   2.128   6.155
 7927SOL     OW24679   4.654   6.190   2.540
 7927SOL    HW124680   4.673   6.092   2.541
 7927SOL    HW224681   4.650   6.224   2.634
 7928SOL     OW24682   1.145   2.087   4.117
 7928SOL    HW124683   1.232   2.051   4.082
 7928SOL    HW224684   1.081   2.012   4.131
 7929SOL     OW24685   4.403   3.709   5.910
 7929SOL    HW124686   4.463   3.788   5.896
 7929SOL    HW224687   4.329   3.712   5.842
 7930SOL     OW24688   4.689   5.384   5.701
 7930SOL    HW124689   4.592   5.397   5.683
 7930SOL    HW224690   4.737   5.371   5.614
 7931SOL     OW24691   3.019   3.203   6.894
 7931SOL    HW124692   3.033   3.133   6.825
 7931SOL    HW224693   2.933   3.250   6.876
 7932SOL     OW24694   1.422   6.085   6.778
 7932SOL    HW124695   1.507   6.058   6.732
 7932SOL    HW224696   1.359   6.124   6.711
 7933SOL     OW24697   6.511   0.264   6.042
 7933SOL    HW124698   6.457   0.349   6.042
 7933SOL    HW224699   6.505   0.222   5.952
 7934SOL     OW24700   1.448   5.061   6.960
 7934SOL    HW124701   1.434   5.157   6.984
 7934SOL    HW224702   1.402   5.041   6.874
 7935SOL     OW24703   6.214   6.383   1.114
 7935SOL    HW124704   6.231   6.285   1.120
 7935SOL    HW224705   6.277   6.424   1.048
 7936SOL     OW24706   2.953   5.875   2.134
 7936SOL    HW124707   2.948   5.929   2.050
 7936SOL    HW224708   2.868   5.824   2.146
 7937SOL     OW24709   6.599   6.027   3.884
 7937SOL    HW124710   6.549   6.008   3.799
 7937SOL    HW224711   6.561   5.972   3.958
 7938SOL     OW24712   6.379   6.121   4.443
 7938SOL    HW124713   6.469   6.110   4.485
 7938SOL    HW224714   6.373   6.066   4.360
 7939SOL     OW24715   1.946   2.347   5.314
 7939SOL    HW124716   1.990   2.402   5.385
 7939SOL    HW224717   1.981   2.374   5.224
 7940SOL     OW24718   2.128   2.913   1.624
 7940SOL    HW124719   2.130   2.815   1.601
 7940SOL    HW224720   2.185   2.929   1.705
 7941SOL     OW24721   6.164   5.940   1.711
 7941SOL    HW124722   6.117   6.009   1.657
 7941SOL    HW224723   6.186   5.977   1.801
 7942SOL     OW24724   0.288   4.408   2.804
 7942SOL    HW124725   0.335   4.481   2.853
 7942SOL    HW224726   0.190   4.427   2.800
 7943SOL     OW24727   0.452   4.314   6.344
 7943SOL    HW124728   0.387   4.301   6.420
 7943SOL    HW224729   0.526   4.247   6.352
 7944SOL     OW24730   0.797   2.686   0.392
 7944SOL    HW124731   0.873   2.701   0.328
 7944SOL    HW224732   0.820   2.728   0.480
 7945SOL     OW24733   6.533   5.415   1.433
 7945SOL    HW124734   6.500   5.411   1.339
 7945SOL    HW224735   6.623   5.459   1.435
 7946SOL     OW24736   3.659   0.227   5.231
 7946SOL    HW124737   3.724   0.210   5.157
 7946SOL    HW224738   3.596   0.150   5.239
 7947SOL     OW24739   3.249   1.495   5.561
 7947SOL    HW124740   3.290   1.557   5.494
 7947SOL    HW224741   3.223   1.546   5.643
 7948SOL     OW24742   0.829   5.909   1.018
 7948SOL    HW124743   0.794   5.820   0.988
 7948SOL    HW224744   0.860   5.902   1.112
 7949SOL     OW24745   5.098   4.151   5.702
 7949SOL    HW124746   5.003   4.135   5.728
 7949SOL    HW224747   5.151   4.068   5.717
 7950SOL     OW24748   4.721   5.341   4.075
 7950SOL    HW124749   4.651   5.285   4.030
 7950SOL    HW224750   4.717   5.434   4.037
 7951SOL     OW24751   2.114   4.783   2.493
 7951SOL    HW124752   2.185   4.853   2.482
 7951SOL    HW224753   2.064   4.799   2.579
 7952SOL     OW24754   6.678   3.428   6.298
 7952SOL    HW124755   6.591   3.470   6.323
 7952SOL    HW224756   6.728   3.488   6.236
 7953SOL     OW24757   3.904   2.121   2.477
 7953SOL    HW124758   3.908   2.131   2.377
 7953SOL    HW224759   3.808   2.119   2.506
 7954SOL     OW24760   2.929   4.412   6.135
 7954SOL    HW124761   2.848   4.362   6.164
 7954SOL    HW224762   2.967   4.370   6.053
 7955SOL     OW24763   2.474   1.099   6.456
 7955SOL    HW124764   2.558   1.128   6.409
 7955SOL    HW224765   2.399   1.095   6.390
 7956SOL     OW24766   5.143   6.970   1.999
 7956SOL    HW124767   5.160   7.000   2.093
 7956SOL    HW224768   5.045   6.956   1.986
 7957SOL     OW24769   1.565   0.582   0.458
 7957SOL    HW124770   1.490   0.600   0.395
 7957SOL    HW224771   1.547   0.626   0.546
 7958SOL     OW24772   4.601   5.013   6.117
 7958SOL    HW124773   4.514   5.053   6.086
 7958SOL    HW224774   4.583   4.932   6.173
 7959SOL     OW24775   5.367   6.149   1.018
 7959SOL    HW124776   5.323   6.132   1.107
 7959SOL    HW224777   5.425   6.072   0.994
 7960SOL     OW24778   1.630   0.503   5.800
 7960SOL    HW124779   1.602   0.573   5.735
 7960SOL    HW224780   1.646   0.545   5.890
 7961SOL     OW24781   6.943   0.724   0.140
 7961SOL    HW124782   6.990   0.653   0.088
 7961SOL    HW224783   6.915   0.687   0.229
 7962SOL     OW24784   1.117   1.070   6.011
 7962SOL    HW124785   1.067   1.156   6.005
 7962SOL    HW224786   1.157   1.047   5.922
 7963SOL     OW24787   5.766   6.161   4.240
 7963SOL    HW124788   5.771   6.254   4.277
 7963SOL    HW224789   5.843   6.107   4.274
 7964SOL     OW24790   6.991   4.070   2.704
 7964SOL    HW124791   0.004   4.092   2.797
 7964SOL    HW224792   0.029   4.119   2.638
 7965SOL     OW24793   4.403   2.316   5.993
 7965SOL    HW124794   4.395   2.226   6.036
 7965SOL    HW224795   4.456   2.377   6.053
 7966SOL     OW24796   2.781   2.683   5.600
 7966SOL    HW124797   2.874   2.703   5.569
 7966SOL    HW224798   2.776   2.587   5.629
 7967SOL     OW24799   3.704   6.127   2.276
 7967SOL    HW124800   3.668   6.130   2.369
 7967SOL    HW224801   3.666   6.203   2.223
 7968SOL     OW24802   0.641   2.212   3.903
 7968SOL    HW124803   0.701   2.224   3.981
 7968SOL    HW224804   0.629   2.299   3.856
 7969SOL     OW24805   5.209   5.920   0.368
 7969SOL    HW124806   5.286   5.872   0.327
 7969SOL    HW224807   5.210   6.016   0.338
 7970SOL     OW24808   6.769   2.698   2.053
 7970SOL    HW124809   6.717   2.695   2.138
 7970SOL    HW224810   6.850   2.756   2.065
 7971SOL     OW24811   3.334   1.789   1.102
 7971SOL    HW124812   3.376   1.785   1.193
 7971SOL    HW224813   3.392   1.741   1.037
 7972SOL     OW24814   2.541   3.337   0.316
 7972SOL    HW124815   2.494   3.362   0.401
 7972SOL    HW224816   2.636   3.316   0.335
 7973SOL     OW24817   4.172   4.774   4.452
 7973SOL    HW124818   4.125   4.748   4.537
 7973SOL    HW224819   4.108   4.821   4.392
 7974SOL     OW24820   5.915   0.635   5.395
 7974SOL    HW124821   5.895   0.538   5.402
 7974SOL    HW224822   5.857   0.686   5.458
 7975SOL     OW24823   6.604   0.903   1.727
 7975SOL    HW124824   6.513   0.925   1.692
 7975SOL    HW224825   6.669   0.972   1.695
 7976SOL     OW24826   1.272   0.306   5.986
 7976SOL    HW124827   1.235   0.317   5.894
 7976SOL    HW224828   1.197   0.295   6.052
 7977SOL     OW24829   4.141   5.728   3.144
 7977SOL    HW124830   4.127   5.704   3.048
 7977SOL    HW224831   4.189   5.654   3.191
 7978SOL     OW24832   5.880   2.422   6.410
 7978SOL    HW124833   5.889   2.498   6.474
 7978SOL    HW224834   5.941   2.348   6.437
 7979SOL     OW24835   3.505   5.046   5.827
 7979SOL    HW124836   3.430   5.025   5.890
 7979SOL    HW224837   3.547   5.133   5.853
 7980SOL     OW24838   3.084   5.461   6.775
 7980SOL    HW124839   3.109   5.468   6.678
 7980SOL    HW224840   3.156   5.411   6.824
 7981SOL     OW24841   0.908   5.194   1.841
 7981SOL    HW124842   0.914   5.144   1.928
 7981SOL    HW224843   0.866   5.135   1.772
 7982SOL     OW24844   1.612   1.235   0.349
 7982SOL    HW124845   1.712   1.246   0.352
 7982SOL    HW224846   1.588   1.163   0.285
 7983SOL     OW24847   6.079   2.365   0.880
 7983SOL    HW124848   6.038   2.298   0.943
 7983SOL    HW224849   6.158   2.323   0.834
 7984SOL     OW24850   1.427   1.008   0.848
 7984SOL    HW124851   1.362   0.971   0.914
 7984SOL    HW224852   1.509   1.039   0.896
 7985SOL     OW24853   2.576   1.080   3.879
 7985SOL    HW124854   2.567   1.146   3.804
 7985SOL    HW224855   2.617   1.125   3.958
 7986SOL     OW24856   2.805   0.830   6.196
 7986SOL    HW124857   2.783   0.923   6.169
 7986SOL    HW224858   2.722   0.781   6.220
 7987SOL     OW24859   1.690   2.447   6.532
 7987SOL    HW124860   1.748   2.415   6.457
 7987SOL    HW224861   1.707   2.393   6.614
 7988SOL     OW24862   0.811   2.010   2.783
 7988SOL    HW124863   0.802   1.955   2.866
 7988SOL    HW224864   0.859   2.095   2.805
 7989SOL     OW24865   2.557   3.452   6.749
 7989SOL    HW124866   2.517   3.533   6.793
 7989SOL    HW224867   2.515   3.439   6.660
 7990SOL     OW24868   1.237   4.733   4.659
 7990SOL    HW124869   1.144   4.749   4.624
 7990SOL    HW224870   1.255   4.796   4.735
 7991SOL     OW24871   6.070   0.323   3.269
 7991SOL    HW124872   6.005   0.399   3.271
 7991SOL    HW224873   6.075   0.280   3.359
 7992SOL     OW24874   1.098   0.396   0.502
 7992SOL    HW124875   1.073   0.333   0.575
 7992SOL    HW224876   1.047   0.375   0.419
 7993SOL     OW24877   0.553   6.850   0.635
 7993SOL    HW124878   0.644   6.873   0.669
 7993SOL    HW224879   0.559   6.815   0.542
 7994SOL     OW24880   4.004   6.849   3.628
 7994SOL    HW124881   4.071   6.920   3.649
 7994SOL    HW224882   3.949   6.828   3.709
 7995SOL     OW24883   6.262   5.666   3.485
 7995SOL    HW124884   6.350   5.707   3.464
 7995SOL    HW224885   6.198   5.684   3.410
 7996SOL     OW24886   2.361   6.556   4.716
 7996SOL    HW124887   2.335   6.476   4.661
 7996SOL    HW224888   2.350   6.535   4.813
 7997SOL     OW24889   0.303   1.115   1.110
 7997SOL    HW124890   0.254   1.198   1.136
 7997SOL    HW224891   0.325   1.062   1.192
 7998SOL     OW24892   2.415   0.152   0.329
 7998SOL    HW124893   2.370   0.067   0.300
 7998SOL    HW224894   2.502   0.162   0.282
 7999SOL     OW24895   1.232   0.677   5.808
 7999SOL    HW124896   1.309   0.726   5.850
 7999SOL    HW224897   1.178   0.741   5.753
 8000SOL     OW24898   4.901   0.041   6.630
 8000SOL    HW124899   4.879   0.116   6.693
 8000SOL    HW224900   4.845   0.048   6.548
 8001SOL     OW24901   4.135   6.527   1.632
 8001SOL    HW124902   4.046   6.490   1.604
 8001SOL    HW224903   4.198   6.452   1.650
 8002SOL     OW24904   2.370   0.525   6.385
 8002SOL    HW124905   2.446   0.479   6.430
 8002SOL    HW224906   2.341   0.472   6.305
 8003SOL     OW24907   2.633   5.554   2.012
 8003SOL    HW124908   2.634   5.642   2.059
 8003SOL    HW224909   2.541   5.515   2.015
 8004SOL     OW24910   2.296   2.843   2.600
 8004SOL    HW124911   2.296   2.822   2.698
 8004SOL    HW224912   2.354   2.777   2.552
 8005SOL     OW24913   3.065   1.239   3.338
 8005SOL    HW124914   3.157   1.248   3.374
 8005SOL    HW224915   3.002   1.214   3.412
 8006SOL     OW24916   2.302   6.642   5.804
 8006SOL    HW124917   2.227   6.626   5.868
 8006SOL    HW224918   2.315   6.560   5.748
 8007SOL     OW24919   6.008   1.435   5.691
 8007SOL    HW124920   6.039   1.461   5.600
 8007SOL    HW224921   5.929   1.489   5.717
 8008SOL     OW24922   4.607   5.817   6.643
 8008SOL    HW124923   4.656   5.898   6.613
 8008SOL    HW224924   4.668   5.760   6.698
 8009SOL     OW24925   5.657   0.449   1.567
 8009SOL    HW124926   5.680   0.511   1.642
 8009SOL    HW224927   5.739   0.432   1.512
 8010SOL     OW24928   1.898   1.166   5.546
 8010SOL    HW124929   1.826   1.118   5.495
 8010SOL    HW224930   1.863   1.190   5.637
 8011SOL     OW24931   3.277   2.295   1.164
 8011SOL    HW124932   3.231   2.212   1.132
 8011SOL    HW224933   3.326   2.275   1.248
 8012SOL     OW24934   2.080   3.738   0.392
 8012SOL    HW124935   2.082   3.675   0.313
 8012SOL    HW224936   1.998   3.721   0.445
 8013SOL     OW24937   1.687   5.230   3.346
 8013SOL    HW124938   1.741   5.260   3.425
 8013SOL    HW224939   1.749   5.201   3.273
 8014SOL     OW24940   0.795   6.436   4.952
 8014SOL    HW124941   0.850   6.353   4.962
 8014SOL    HW224942   0.829   6.489   4.874
 8015SOL     OW24943   2.575   0.521   5.961
 8015SOL    HW124944   2.645   0.452   5.976
 8015SOL    HW224945   2.618   0.606   5.928
 8016SOL     OW24946   4.151   0.160   5.563
 8016SOL    HW124947   4.119   0.071   5.595
 8016SOL    HW224948   4.244   0.177   5.597
 8017SOL     OW24949   5.647   0.007   0.509
 8017SOL    HW124950   5.679   6.950   0.568
 8017SOL    HW224951   5.723   0.071   0.493
 8018SOL     OW24952   3.071   2.111   6.782
 8018SOL    HW124953   3.133   2.158   6.720
 8018SOL    HW224954   3.084   2.012   6.774
 8019SOL     OW24955   2.886   4.661   1.142
 8019SOL    HW124956   2.845   4.606   1.069
 8019SOL    HW224957   2.814   4.711   1.191
 8020SOL     OW24958   6.484   0.034   6.925
 8020SOL    HW124959   6.429   0.113   6.952
 8020SOL    HW224960   6.575   0.065   6.899
 8021SOL     OW24961   1.521   2.452   0.696
 8021SOL    HW124962   1.454   2.502   0.750
 8021SOL    HW224963   1.601   2.431   0.752
 8022SOL     OW24964   5.963   0.288   2.293
 8022SOL    HW124965   5.924   0.212   2.347
 8022SOL    HW224966   5.958   0.265   2.196
 8023SOL     OW24967   6.097   5.242   3.025
 8023SOL    HW124968   6.105   5.156   3.076
 8023SOL    HW224969   6.107   5.319   3.088
 8024SOL     OW24970   1.392   4.831   6.022
 8024SOL    HW124971   1.399   4.916   6.075
 8024SOL    HW224972   1.413   4.850   5.926
 8025SOL     OW24973   1.996   5.733   0.382
 8025SOL    HW124974   1.916   5.734   0.323
 8025SOL    HW224975   1.970   5.705   0.475
 8026SOL     OW24976   6.856   4.332   6.990
 8026SOL    HW124977   6.819   4.241   7.007
 8026SOL    HW224978   6.788   4.388   6.943
 8027SOL     OW24979   4.433   0.329   5.089
 8027SOL    HW124980   4.347   0.282   5.069
 8027SOL    HW224981   4.469   0.296   5.177
 8028SOL     OW24982   4.057   5.842   5.737
 8028SOL    HW124983   4.113   5.761   5.721
 8028SOL    HW224984   3.967   5.814   5.771
 8029SOL     OW24985   5.416   3.225   1.174
 8029SOL    HW124986   5.481   3.294   1.142
 8029SOL    HW224987   5.324   3.249   1.141
 8030SOL     OW24988   4.898   4.940   0.379
 8030SOL    HW124989   4.837   4.864   0.358
 8030SOL    HW224990   4.979   4.934   0.320
 8031SOL     OW24991   6.300   6.531   2.444
 8031SOL    HW124992   6.261   6.522   2.536
 8031SOL    HW224993   6.306   6.441   2.401
 8032SOL     OW24994   6.649   4.288   1.508
 8032SOL    HW124995   6.732   4.242   1.540
 8032SOL    HW224996   6.669   4.383   1.486
 8033SOL     OW24997   4.649   2.159   6.534
 8033SOL    HW124998   4.593   2.177   6.614
 8033SOL    HW224999   4.730   2.106   6.560
 8034SOL     OW25000   4.749   0.828   4.999
 8034SOL    HW125001   4.689   0.762   4.954
 8034SOL    HW225002   4.817   0.861   4.934
 8035SOL     OW25003   5.794   1.781   3.144
 8035SOL    HW125004   5.749   1.694   3.127
 8035SOL    HW225005   5.837   1.813   3.059
 8036SOL     OW25006   6.552   4.019   3.658
 8036SOL    HW125007   6.553   3.955   3.735
 8036SOL    HW225008   6.458   4.029   3.624
 8037SOL     OW25009   1.918   3.183   6.975
 8037SOL    HW125010   1.820   3.165   6.965
 8037SOL    HW225011   1.933   3.251   0.029
 8038SOL     OW25012   4.695   0.490   2.746
 8038SOL    HW125013   4.663   0.441   2.827
 8038SOL    HW225014   4.621   0.550   2.713
 8039SOL     OW25015   0.315   1.552   5.300
 8039SOL    HW125016   0.318   1.456   5.329
 8039SOL    HW225017   0.243   1.564   5.232
 8040SOL     OW25018   1.496   5.418   0.285
 8040SOL    HW125019   1.562   5.379   0.349
 8040SOL    HW225020   1.420   5.354   0.272
 8041SOL     OW25021   3.011   1.128   3.036
 8041SOL    HW125022   2.917   1.111   3.065
 8041SOL    HW225023   3.024   1.227   3.023
 8042SOL     OW25024   3.593   2.969   4.852
 8042SOL    HW125025   3.569   2.966   4.949
 8042SOL    HW225026   3.673   3.029   4.839
 8043SOL     OW25027   3.285   6.468   0.999
 8043SOL    HW125028   3.185   6.474   0.997
 8043SOL    HW225029   3.314   6.418   1.081
 8044SOL     OW25030   4.626   2.732   1.013
 8044SOL    HW125031   4.528   2.747   1.029
 8044SOL    HW225032   4.667   2.690   1.094
 8045SOL     OW25033   6.111   2.500   2.784
 8045SOL    HW125034   6.144   2.470   2.873
 8045SOL    HW225035   6.016   2.531   2.793
 8046SOL     OW25036   0.839   4.377   1.564
 8046SOL    HW125037   0.848   4.331   1.475
 8046SOL    HW225038   0.802   4.468   1.551
 8047SOL     OW25039   4.515   5.526   6.429
 8047SOL    HW125040   4.557   5.521   6.519
 8047SOL    HW225041   4.582   5.558   6.362
 8048SOL     OW25042   4.598   1.689   6.941
 8048SOL    HW125043   4.653   1.739   7.008
 8048SOL    HW225044   4.529   1.749   6.902
 8049SOL     OW25045   0.982   0.483   6.834
 8049SOL    HW125046   1.078   0.489   6.809
 8049SOL    HW225047   0.929   0.449   6.757
 8050SOL     OW25048   2.170   3.647   3.436
 8050SOL    HW125049   2.211   3.688   3.354
 8050SOL    HW225050   2.084   3.693   3.457
 8051SOL     OW25051   4.794   5.880   4.263
 8051SOL    HW125052   4.858   5.937   4.314
 8051SOL    HW225053   4.729   5.938   4.214
 8052SOL     OW25054   3.064   1.757   1.028
 8052SOL    HW125055   3.066   1.662   0.996
 8052SOL    HW225056   3.157   1.787   1.050
 8053SOL     OW25057   3.425   2.879   4.452
 8053SOL    HW125058   3.375   2.869   4.538
 8053SOL    HW225059   3.369   2.932   4.387
 8054SOL     OW25060   6.502   4.854   5.222
 8054SOL    HW125061   6.557   4.932   5.253
 8054SOL    HW225062   6.486   4.861   5.124
 8055SOL     OW25063   0.026   0.223   5.320
 8055SOL    HW125064   0.006   0.320   5.301
 8055SOL    HW225065   6.989   0.193   5.398
 8056SOL     OW25066   2.443   0.798   3.973
 8056SOL    HW125067   2.382   0.828   4.047
 8056SOL    HW225068   2.489   0.878   3.934
 8057SOL     OW25069   2.973   2.252   3.061
 8057SOL    HW125070   2.921   2.337   3.053
 8057SOL    HW225071   2.927   2.180   3.010
 8058SOL     OW25072   3.750   6.984   3.609
 8058SOL    HW125073   3.690   6.930   3.668
 8058SOL    HW225074   3.842   6.943   3.609
 8059SOL     OW25075   2.560   1.907   4.431
 8059SOL    HW125076   2.518   1.835   4.376
 8059SOL    HW225077   2.660   1.899   4.427
 8060SOL     OW25078   5.982   2.572   6.214
 8060SOL    HW125079   5.969   2.499   6.147
 8060SOL    HW225080   5.946   2.543   6.303
 8061SOL     OW25081   0.001   0.034   2.602
 8061SOL    HW125082   6.972   0.121   2.615
 8061SOL    HW225083   7.011   0.005   2.506
 8062SOL     OW25084   3.217   4.988   4.572
 8062SOL    HW125085   3.132   4.945   4.541
 8062SOL    HW225086   3.227   4.976   4.670
 8063SOL     OW25087   2.199   2.215   2.657
 8063SOL    HW125088   2.179   2.141   2.721
 8063SOL    HW225089   2.290   2.200   2.617
 8064SOL     OW25090   6.441   2.552   0.929
 8064SOL    HW125091   6.522   2.555   0.870
 8064SOL    HW225092   6.426   2.642   0.970
 8065SOL     OW25093   2.689   5.542   3.985
 8065SOL    HW125094   2.654   5.626   3.943
 8065SOL    HW225095   2.619   5.503   4.045
 8066SOL     OW25096   0.427   1.312   5.366
 8066SOL    HW125097   0.372   1.233   5.393
 8066SOL    HW225098   0.468   1.353   5.447
 8067SOL     OW25099   4.943   2.787   2.938
 8067SOL    HW125100   4.872   2.738   2.887
 8067SOL    HW225101   4.901   2.862   2.989
 8068SOL     OW25102   6.921   4.574   1.592
 8068SOL    HW125103   6.911   4.498   1.528
 8068SOL    HW225104   6.971   4.648   1.548
 8069SOL     OW25105   2.264   5.490   0.947
 8069SOL    HW125106   2.172   5.455   0.965
 8069SOL    HW225107   2.264   5.540   0.860
 8070SOL     OW25108   3.988   3.355   0.767
 8070SOL    HW125109   4.087   3.359   0.775
 8070SOL    HW225110   3.950   3.302   0.843
 8071SOL     OW25111   3.514   6.524   4.678
 8071SOL    HW125112   3.459   6.471   4.614
 8071SOL    HW225113   3.472   6.614   4.692
 8072SOL     OW25114   4.042   1.286   0.858
 8072SOL    HW125115   4.078   1.210   0.911
 8072SOL    HW225116   4.080   1.372   0.893
 8073SOL     OW25117   3.136   5.099   5.063
 8073SOL    HW125118   3.090   5.020   5.021
 8073SOL    HW225119   3.219   5.068   5.110
 8074SOL     OW25120   2.918   3.122   0.808
 8074SOL    HW125121   2.844   3.056   0.805
 8074SOL    HW225122   2.941   3.152   0.715
 8075SOL     OW25123   6.642   0.014   0.206
 8075SOL    HW125124   6.733   0.029   0.244
 8075SOL    HW225125   6.586   0.096   0.221
 8076SOL     OW25126   6.176   0.626   5.382
 8076SOL    HW125127   6.221   0.652   5.468
 8076SOL    HW225128   6.077   0.636   5.392
 8077SOL     OW25129   3.214   6.311   2.729
 8077SOL    HW125130   3.208   6.372   2.650
 8077SOL    HW225131   3.178   6.221   2.704
 8078SOL     OW25132   6.929   1.762   0.599
 8078SOL    HW125133   7.015   1.742   0.552
 8078SOL    HW225134   6.898   1.854   0.574
 8079SOL     OW25135   6.124   1.618   3.974
 8079SOL    HW125136   6.135   1.525   3.939
 8079SOL    HW225137   6.028   1.636   3.995
 8080SOL     OW25138   0.908   2.914   2.119
 8080SOL    HW125139   0.844   2.973   2.167
 8080SOL    HW225140   0.932   2.836   2.177
 8081SOL     OW25141   6.314   5.425   6.243
 8081SOL    HW125142   6.305   5.415   6.144
 8081SOL    HW225143   6.379   5.499   6.263
 8082SOL     OW25144   4.244   0.417   2.224
 8082SOL    HW125145   4.309   0.403   2.299
 8082SOL    HW225146   4.278   0.490   2.164
 8083SOL     OW25147   4.910   3.276   3.050
 8083SOL    HW125148   4.980   3.337   3.085
 8083SOL    HW225149   4.875   3.219   3.124
 8084SOL     OW25150   3.697   6.339   0.111
 8084SOL    HW125151   3.661   6.352   0.019
 8084SOL    HW225152   3.756   6.258   0.113
 8085SOL     OW25153   6.344   6.386   2.037
 8085SOL    HW125154   6.250   6.372   2.068
 8085SOL    HW225155   6.394   6.438   2.105
 8086SOL     OW25156   6.580   0.860   2.403
 8086SOL    HW125157   6.499   0.854   2.344
 8086SOL    HW225158   6.612   0.768   2.425
 8087SOL     OW25159   2.437   0.367   0.059
 8087SOL    HW125160   2.380   0.285   0.065
 8087SOL    HW225161   2.427   0.421   0.142
 8088SOL     OW25162   6.093   1.198   1.378
 8088SOL    HW125163   6.033   1.168   1.304
 8088SOL    HW225164   6.051   1.276   1.425
 8089SOL     OW25165   5.766   2.694   1.104
 8089SOL    HW125166   5.681   2.643   1.093
 8089SOL    HW225167   5.842   2.639   1.068
 8090SOL     OW25168   4.306   1.574   6.599
 8090SOL    HW125169   4.357   1.558   6.515
 8090SOL    HW225170   4.340   1.657   6.643
 8091SOL     OW25171   2.042   4.040   5.029
 8091SOL    HW125172   2.029   3.941   5.024
 8091SOL    HW225173   2.138   4.061   5.007
 8092SOL     OW25174   5.664   2.020   5.259
 8092SOL    HW125175   5.702   2.076   5.185
 8092SOL    HW225176   5.564   2.024   5.256
 8093SOL     OW25177   3.628   4.897   3.239
 8093SOL    HW125178   3.589   4.927   3.153
 8093SOL    HW225179   3.726   4.878   3.227
 8094SOL     OW25180   0.803   3.035   4.672
 8094SOL    HW125181   0.869   3.083   4.730
 8094SOL    HW225182   0.733   3.100   4.641
 8095SOL     OW25183   0.127   4.823   4.495
 8095SOL    HW125184   0.030   4.807   4.481
 8095SOL    HW225185   0.173   4.735   4.507
 8096SOL     OW25186   1.837   6.707   3.172
 8096SOL    HW125187   1.802   6.725   3.264
 8096SOL    HW225188   1.933   6.733   3.167
 8097SOL     OW25189   4.051   6.722   4.565
 8097SOL    HW125190   3.968   6.776   4.555
 8097SOL    HW225191   4.062   6.696   4.662
 8098SOL     OW25192   1.873   6.443   3.038
 8098SOL    HW125193   1.877   6.357   3.088
 8098SOL    HW225194   1.865   6.519   3.103
 8099SOL     OW25195   3.876   5.695   5.139
 8099SOL    HW125196   3.907   5.633   5.066
 8099SOL    HW225197   3.866   5.787   5.102
 8100SOL     OW25198   0.230   0.531   6.869
 8100SOL    HW125199   0.238   0.486   6.958
 8100SOL    HW225200   0.133   0.551   6.850
 8101SOL     OW25201   2.188   5.915   2.260
 8101SOL    HW125202   2.153   5.831   2.218
 8101SOL    HW225203   2.150   5.925   2.352
 8102SOL     OW25204   0.806   4.004   3.596
 8102SOL    HW125205   0.716   4.048   3.592
 8102SOL    HW225206   0.844   3.996   3.504
 8103SOL     OW25207   2.775   6.948   1.415
 8103SOL    HW125208   2.868   6.926   1.385
 8103SOL    HW225209   2.770   0.028   1.436
 8104SOL     OW25210   1.996   0.315   5.588
 8104SOL    HW125211   2.045   0.370   5.656
 8104SOL    HW225212   2.031   0.221   5.590
 8105SOL     OW25213   0.633   3.269   3.396
 8105SOL    HW125214   0.641   3.361   3.358
 8105SOL    HW225215   0.672   3.268   3.488
 8106SOL     OW25216   3.067   6.455   2.897
 8106SOL    HW125217   3.120   6.406   2.828
 8106SOL    HW225218   3.125   6.525   2.939
 8107SOL     OW25219   1.168   4.869   4.328
 8107SOL    HW125220   1.119   4.858   4.415
 8107SOL    HW225221   1.259   4.907   4.346
 8108SOL     OW25222   6.109   2.928   5.679
 8108SOL    HW125223   6.144   2.972   5.596
 8108SOL    HW225224   6.121   2.990   5.757
 8109SOL     OW25225   0.358   4.311   5.243
 8109SOL    HW125226   0.432   4.278   5.302
 8109SOL    HW225227   0.355   4.411   5.245
 8110SOL     OW25228   4.038   6.185   1.771
 8110SOL    HW125229   3.989   6.220   1.851
 8110SOL    HW225230   4.123   6.235   1.760
 8111SOL     OW25231   5.216   1.348   4.365
 8111SOL    HW125232   5.174   1.417   4.424
 8111SOL    HW225233   5.229   1.387   4.273
 8112SOL     OW25234   2.690   2.035   4.005
 8112SOL    HW125235   2.594   2.029   4.033
 8112SOL    HW225236   2.696   2.046   3.906
 8113SOL     OW25237   1.745   3.651   0.171
 8113SOL    HW125238   1.662   3.595   0.165
 8113SOL    HW225239   1.748   3.714   0.094
 8114SOL     OW25240   1.558   4.000   3.093
 8114SOL    HW125241   1.462   3.976   3.079
 8114SOL    HW225242   1.614   3.918   3.091
 8115SOL     OW25243   3.474   0.309   6.950
 8115SOL    HW125244   3.494   0.396   6.903
 8115SOL    HW225245   3.487   0.321   0.030
 8116SOL     OW25246   4.330   4.561   6.457
 8116SOL    HW125247   4.347   4.462   6.455
 8116SOL    HW225248   4.322   4.595   6.363
 8117SOL     OW25249   1.949   0.012   3.543
 8117SOL    HW125250   1.905   6.980   3.469
 8117SOL    HW225251   1.942   6.976   3.627
 8118SOL     OW25252   5.227   4.451   6.876
 8118SOL    HW125253   5.282   4.533   6.860
 8118SOL    HW225254   5.218   4.399   6.791
 8119SOL     OW25255   5.282   5.585   6.326
 8119SOL    HW125256   5.238   5.534   6.400
 8119SOL    HW225257   5.232   5.671   6.311
 8120SOL     OW25258   3.307   4.872   0.849
 8120SOL    HW125259   3.355   4.860   0.762
 8120SOL    HW225260   3.226   4.929   0.835
 8121SOL     OW25261   6.831   5.042   2.371
 8121SOL    HW125262   6.920   5.011   2.335
 8121SOL    HW225263   6.832   5.037   2.471
 8122SOL     OW25264   0.391   5.379   3.116
 8122SOL    HW125265   0.460   5.440   3.156
 8122SOL    HW225266   0.317   5.433   3.078
 8123SOL     OW25267   6.891   2.052   6.755
 8123SOL    HW125268   6.859   1.985   6.688
 8123SOL    HW225269   6.940   2.004   6.828
 8124SOL     OW25270   5.822   6.275   1.384
 8124SOL    HW125271   5.801   6.194   1.329
 8124SOL    HW225272   5.889   6.331   1.336
 8125SOL     OW25273   1.021   1.718   3.126
 8125SOL    HW125274   1.056   1.674   3.210
 8125SOL    HW225275   1.084   1.699   3.050
 8126SOL     OW25276   4.641   4.461   2.507
 8126SOL    HW125277   4.694   4.396   2.561
 8126SOL    HW225278   4.676   4.464   2.414
 8127SOL     OW25279   2.212   4.493   6.614
 8127SOL    HW125280   2.308   4.476   6.594
 8127SOL    HW225281   2.181   4.433   6.687
 8128SOL     OW25282   2.424   1.727   1.958
 8128SOL    HW125283   2.501   1.770   2.004
 8128SOL    HW225284   2.340   1.776   1.982
 8129SOL     OW25285   3.925   0.243   6.362
 8129SOL    HW125286   3.875   0.275   6.442
 8129SOL    HW225287   3.904   0.302   6.284
 8130SOL     OW25288   0.492   3.370   6.540
 8130SOL    HW125289   0.541   3.295   6.496
 8130SOL    HW225290   0.395   3.364   6.517
 8131SOL     OW25291   2.500   2.192   1.346
 8131SOL    HW125292   2.546   2.169   1.432
 8131SOL    HW225293   2.436   2.268   1.362
 8132SOL     OW25294   5.889   6.829   6.019
 8132SOL    HW125295   5.876   6.797   6.113
 8132SOL    HW225296   5.986   6.841   6.001
 8133SOL     OW25297   3.300   5.707   1.325
 8133SOL    HW125298   3.232   5.634   1.331
 8133SOL    HW225299   3.257   5.795   1.346
 8134SOL     OW25300   6.520   2.842   5.978
 8134SOL    HW125301   6.475   2.758   6.009
 8134SOL    HW225302   6.535   2.838   5.879
 8135SOL     OW25303   2.885   6.647   1.471
 8135SOL    HW125304   2.853   6.589   1.397
 8135SOL    HW225305   2.807   6.688   1.518
 8136SOL     OW25306   4.463   5.452   3.096
 8136SOL    HW125307   4.391   5.478   3.160
 8136SOL    HW225308   4.436   5.478   3.003
 8137SOL     OW25309   3.406   1.915   4.904
 8137SOL    HW125310   3.359   1.826   4.909
 8137SOL    HW225311   3.370   1.967   4.826
 8138SOL     OW25312   5.175   1.016   0.602
 8138SOL    HW125313   5.248   0.960   0.564
 8138SOL    HW225314   5.152   1.090   0.539
 8139SOL     OW25315   0.076   1.351   2.305
 8139SOL    HW125316   0.142   1.400   2.248
 8139SOL    HW225317   0.013   1.300   2.246
 8140SOL     OW25318   5.254   0.123   0.703
 8140SOL    HW125319   5.300   0.092   0.786
 8140SOL    HW225320   5.156   0.130   0.720
 8141SOL     OW25321   4.444   6.008   4.923
 8141SOL    HW125322   4.543   5.990   4.922
 8141SOL    HW225323   4.418   6.053   4.838
 8142SOL     OW25324   1.091   5.301   0.303
 8142SOL    HW125325   1.044   5.387   0.284
 8142SOL    HW225326   1.031   5.225   0.280
 8143SOL     OW25327   5.669   4.414   1.295
 8143SOL    HW125328   5.732   4.336   1.300
 8143SOL    HW225329   5.576   4.383   1.316
 8144SOL     OW25330   6.095   6.129   6.443
 8144SOL    HW125331   6.044   6.125   6.529
 8144SOL    HW225332   6.162   6.204   6.446
 8145SOL     OW25333   5.773   5.747   1.573
 8145SOL    HW125334   5.730   5.713   1.490
 8145SOL    HW225335   5.703   5.766   1.642
 8146SOL     OW25336   4.436   0.760   4.482
 8146SOL    HW125337   4.529   0.798   4.488
 8146SOL    HW225338   4.416   0.709   4.566
 8147SOL     OW25339   5.753   1.663   1.436
 8147SOL    HW125340   5.768   1.565   1.422
 8147SOL    HW225341   5.706   1.700   1.356
 8148SOL     OW25342   5.018   4.271   1.057
 8148SOL    HW125343   5.116   4.291   1.058
 8148SOL    HW225344   4.968   4.349   1.096
 8149SOL     OW25345   2.981   6.166   2.181
 8149SOL    HW125346   3.022   6.207   2.099
 8149SOL    HW225347   3.052   6.116   2.232
 8150SOL     OW25348   1.484   3.869   0.561
 8150SOL    HW125349   1.532   3.933   0.502
 8150SOL    HW225350   1.503   3.891   0.657
 8151SOL     OW25351   5.961   2.254   1.532
 8151SOL    HW125352   6.019   2.202   1.470
 8151SOL    HW225353   6.014   2.327   1.574
 8152SOL     OW25354   0.110   1.833   2.760
 8152SOL    HW125355   0.184   1.785   2.808
 8152SOL    HW225356   0.091   1.919   2.806
 8153SOL     OW25357   2.055   0.267   3.632
 8153SOL    HW125358   1.976   0.322   3.607
 8153SOL    HW225359   2.029   0.171   3.637
 8154SOL     OW25360   3.214   5.015   2.296
 8154SOL    HW125361   3.142   5.083   2.279
 8154SOL    HW225362   3.184   4.951   2.366
 8155SOL     OW25363   1.717   3.583   1.735
 8155SOL    HW125364   1.717   3.498   1.682
 8155SOL    HW225365   1.793   3.641   1.704
 8156SOL     OW25366   4.992   0.212   0.928
 8156SOL    HW125367   4.946   0.291   0.889
 8156SOL    HW225368   4.968   0.130   0.876
 8157SOL     OW25369   0.039   5.478   6.814
 8157SOL    HW125370   0.015   5.552   6.751
 8157SOL    HW225371   0.092   5.409   6.764
 8158SOL     OW25372   4.831   5.275   0.607
 8158SOL    HW125373   4.895   5.258   0.531
 8158SOL    HW225374   4.849   5.209   0.680
 8159SOL     OW25375   3.210   5.809   2.051
 8159SOL    HW125376   3.181   5.726   2.004
 8159SOL    HW225377   3.134   5.844   2.105
 8160SOL     OW25378   5.249   0.816   3.636
 8160SOL    HW125379   5.190   0.740   3.666
 8160SOL    HW225380   5.227   0.839   3.542
 8161SOL     OW25381   5.412   1.823   6.479
 8161SOL    HW125382   5.473   1.757   6.436
 8161SOL    HW225383   5.461   1.908   6.496
 8162SOL     OW25384   5.913   6.022   5.928
 8162SOL    HW125385   5.837   6.081   5.897
 8162SOL    HW225386   5.947   6.056   6.015
 8163SOL     OW25387   2.582   3.907   5.355
 8163SOL    HW125388   2.522   3.916   5.435
 8163SOL    HW225389   2.532   3.931   5.273
 8164SOL     OW25390   5.528   3.084   0.650
 8164SOL    HW125391   5.441   3.111   0.691
 8164SOL    HW225392   5.603   3.114   0.708
 8165SOL     OW25393   1.078   4.488   6.379
 8165SOL    HW125394   1.063   4.397   6.340
 8165SOL    HW225395   1.172   4.517   6.361
 8166SOL     OW25396   1.540   0.195   2.126
 8166SOL    HW125397   1.636   0.200   2.152
 8166SOL    HW225398   1.517   0.271   2.065
 8167SOL     OW25399   6.282   6.706   4.730
 8167SOL    HW125400   6.360   6.732   4.787
 8167SOL    HW225401   6.207   6.770   4.744
 8168SOL     OW25402   2.458   1.620   3.586
 8168SOL    HW125403   2.506   1.571   3.514
 8168SOL    HW225404   2.383   1.564   3.621
 8169SOL     OW25405   4.823   2.217   1.610
 8169SOL    HW125406   4.800   2.188   1.517
 8169SOL    HW225407   4.913   2.183   1.634
 8170SOL     OW25408   1.519   5.638   2.860
 8170SOL    HW125409   1.512   5.639   2.960
 8170SOL    HW225410   1.431   5.665   2.820
 8171SOL     OW25411   1.530   1.308   0.054
 8171SOL    HW125412   1.523   1.389   7.014
 8171SOL    HW225413   1.596   1.324   0.127
 8172SOL     OW25414   0.559   1.801   1.785
 8172SOL    HW125415   0.479   1.862   1.784
 8172SOL    HW225416   0.577   1.769   1.692
 8173SOL     OW25417   4.614   0.971   1.827
 8173SOL    HW125418   4.561   1.055   1.816
 8173SOL    HW225419   4.706   0.985   1.791
 8174SOL     OW25420   6.048   2.873   0.902
 8174SOL    HW125421   6.012   2.877   0.809
 8174SOL    HW225422   6.048   2.778   0.934
 8175SOL     OW25423   6.765   3.240   6.063
 8175SOL    HW125424   6.711   3.261   6.145
 8175SOL    HW225425   6.846   3.300   6.060
 8176SOL     OW25426   2.959   5.557   2.218
 8176SOL    HW125427   2.898   5.485   2.187
 8176SOL    HW225428   3.054   5.525   2.214
 8177SOL     OW25429   2.521   6.188   3.670
 8177SOL    HW125430   2.479   6.272   3.634
 8177SOL    HW225431   2.594   6.158   3.609
 8178SOL     OW25432   3.019   5.738   6.762
 8178SOL    HW125433   3.035   5.641   6.743
 8178SOL    HW225434   3.099   5.776   6.809
 8179SOL     OW25435   4.448   2.744   5.820
 8179SOL    HW125436   4.533   2.774   5.862
 8179SOL    HW225437   4.443   2.780   5.726
 8180SOL     OW25438   6.446   0.104   4.673
 8180SOL    HW125439   6.423   0.095   4.770
 8180SOL    HW225440   6.539   0.140   4.664
 8181SOL     OW25441   2.080   1.389   1.763
 8181SOL    HW125442   2.088   1.470   1.821
 8181SOL    HW225443   2.048   1.312   1.818
 8182SOL     OW25444   3.575   2.818   6.320
 8182SOL    HW125445   3.506   2.748   6.303
 8182SOL    HW225446   3.600   2.861   6.233
 8183SOL     OW25447   0.289   2.890   4.365
 8183SOL    HW125448   0.270   2.879   4.268
 8183SOL    HW225449   0.235   2.825   4.417
 8184SOL     OW25450   5.208   2.240   6.002
 8184SOL    HW125451   5.137   2.300   5.963
 8184SOL    HW225452   5.236   2.173   5.933
 8185SOL     OW25453   2.650   6.050   0.261
 8185SOL    HW125454   2.742   6.088   0.267
 8185SOL    HW225455   2.651   5.969   0.202
 8186SOL     OW25456   3.573   5.354   6.601
 8186SOL    HW125457   3.594   5.279   6.539
 8186SOL    HW225458   3.500   5.327   6.664
 8187SOL     OW25459   1.729   1.925   5.691
 8187SOL    HW125460   1.785   1.992   5.740
 8187SOL    HW225461   1.677   1.871   5.756
 8188SOL     OW25462   5.584   2.470   1.922
 8188SOL    HW125463   5.619   2.543   1.981
 8188SOL    HW225464   5.610   2.487   1.827
 8189SOL     OW25465   4.760   4.903   2.796
 8189SOL    HW125466   4.750   4.813   2.755
 8189SOL    HW225467   4.730   4.900   2.891
 8190SOL     OW25468   4.391   5.411   4.086
 8190SOL    HW125469   4.444   5.342   4.036
 8190SOL    HW225470   4.400   5.395   4.185
 8191SOL     OW25471   3.154   6.043   2.890
 8191SOL    HW125472   3.139   6.055   2.792
 8191SOL    HW225473   3.252   6.035   2.908
 8192SOL     OW25474   3.568   5.721   0.585
 8192SOL    HW125475   3.613   5.710   0.496
 8192SOL    HW225476   3.636   5.749   0.653
 8193SOL     OW25477   6.687   6.598   4.114
 8193SOL    HW125478   6.732   6.546   4.187
 8193SOL    HW225479   6.710   6.695   4.124
 8194SOL     OW25480   6.029   2.490   0.630
 8194SOL    HW125481   6.016   2.415   0.566
 8194SOL    HW225482   6.056   2.453   0.719
 8195SOL     OW25483   0.810   0.116   0.856
 8195SOL    HW125484   0.710   0.114   0.853
 8195SOL    HW225485   0.840   0.143   0.948
 8196SOL     OW25486   3.477   0.329   5.392
 8196SOL    HW125487   3.540   0.315   5.316
 8196SOL    HW225488   3.422   0.246   5.405
 8197SOL     OW25489   4.216   1.228   5.669
 8197SOL    HW125490   4.247   1.322   5.660
 8197SOL    HW225491   4.146   1.223   5.741
 8198SOL     OW25492   3.137   5.962   3.349
 8198SOL    HW125493   3.204   5.914   3.407
 8198SOL    HW225494   3.058   5.989   3.404
 8199SOL     OW25495   6.478   3.067   6.351
 8199SOL    HW125496   6.552   3.002   6.332
 8199SOL    HW225497   6.393   3.017   6.366
 8200SOL     OW25498   4.325   3.590   1.634
 8200SOL    HW125499   4.253   3.539   1.586
 8200SOL    HW225500   4.286   3.638   1.712
 8201SOL     OW25501   5.868   0.858   4.380
 8201SOL    HW125502   5.877   0.833   4.477
 8201SOL    HW225503   5.772   0.879   4.361
 8202SOL     OW25504   0.661   5.430   4.291
 8202SOL    HW125505   0.615   5.359   4.238
 8202SOL    HW225506   0.607   5.514   4.288
 8203SOL     OW25507   4.920   2.363   0.674
 8203SOL    HW125508   4.904   2.381   0.577
 8203SOL    HW225509   4.864   2.424   0.729
 8204SOL     OW25510   2.977   5.481   0.902
 8204SOL    HW125511   2.938   5.529   0.823
 8204SOL    HW225512   3.062   5.525   0.929
 8205SOL     OW25513   0.120   4.792   1.255
 8205SOL    HW125514   0.118   4.708   1.200
 8205SOL    HW225515   0.089   4.869   1.200
 8206SOL     OW25516   3.898   2.714   5.956
 8206SOL    HW125517   3.844   2.782   5.907
 8206SOL    HW225518   3.961   2.668   5.892
 8207SOL     OW25519   3.901   4.443   5.378
 8207SOL    HW125520   3.954   4.413   5.456
 8207SOL    HW225521   3.844   4.367   5.345
 8208SOL     OW25522   2.166   6.525   1.790
 8208SOL    HW125523   2.075   6.560   1.815
 8208SOL    HW225524   2.164   6.492   1.695
 8209SOL     OW25525   0.537   1.472   5.629
 8209SOL    HW125526   0.502   1.547   5.573
 8209SOL    HW225527   0.496   1.477   5.721
 8210SOL     OW25528   2.897   0.866   1.757
 8210SOL    HW125529   2.886   0.817   1.844
 8210SOL    HW225530   2.927   0.801   1.687
 8211SOL     OW25531   3.466   3.744   3.400
 8211SOL    HW125532   3.445   3.833   3.361
 8211SOL    HW225533   3.557   3.747   3.442
 8212SOL     OW25534   3.709   1.646   1.258
 8212SOL    HW125535   3.714   1.608   1.166
 8212SOL    HW225536   3.618   1.629   1.297
 8213SOL     OW25537   5.088   4.764   2.487
 8213SOL    HW125538   5.077   4.862   2.468
 8213SOL    HW225539   5.185   4.740   2.478
 8214SOL     OW25540   1.621   5.674   4.081
 8214SOL    HW125541   1.643   5.712   3.991
 8214SOL    HW225542   1.697   5.691   4.144
 8215SOL     OW25543   3.826   5.043   6.861
 8215SOL    HW125544   3.870   5.079   6.943
 8215SOL    HW225545   3.835   4.943   6.859
 8216SOL     OW25546   4.757   6.690   2.773
 8216SOL    HW125547   4.813   6.660   2.850
 8216SOL    HW225548   4.779   6.785   2.751
 8217SOL     OW25549   2.161   3.853   2.060
 8217SOL    HW125550   2.201   3.879   1.973
 8217SOL    HW225551   2.134   3.757   2.058
 8218SOL     OW25552   1.304   6.999   3.887
 8218SOL    HW125553   1.244   6.952   3.823
 8218SOL    HW225554   1.349   0.058   3.841
 8219SOL     OW25555   3.759   3.709   1.707
 8219SOL    HW125556   3.682   3.690   1.767
 8219SOL    HW225557   3.783   3.806   1.713
 8220SOL     OW25558   3.402   4.001   5.691
 8220SOL    HW125559   3.478   4.026   5.631
 8220SOL    HW225560   3.356   3.919   5.654
 8221SOL     OW25561   6.426   5.092   3.213
 8221SOL    HW125562   6.510   5.111   3.163
 8221SOL    HW225563   6.394   5.176   3.257
 8222SOL     OW25564   4.872   2.005   1.305
 8222SOL    HW125565   4.826   1.935   1.359
 8222SOL    HW225566   4.832   2.095   1.326
 8223SOL     OW25567   0.382   4.904   6.281
 8223SOL    HW125568   0.367   4.858   6.194
 8223SOL    HW225569   0.472   4.947   6.280
 8224SOL     OW25570   5.174   1.716   1.742
 8224SOL    HW125571   5.201   1.667   1.659
 8224SOL    HW225572   5.082   1.752   1.731
 8225SOL     OW25573   3.664   1.337   1.429
 8225SOL    HW125574   3.727   1.265   1.457
 8225SOL    HW225575   3.659   1.406   1.501
 8226SOL     OW25576   3.192   0.476   0.590
 8226SOL    HW125577   3.131   0.423   0.649
 8226SOL    HW225578   3.180   0.573   0.609
 8227SOL     OW25579   0.025   1.636   2.261
 8227SOL    HW125580   0.098   1.602   2.203
 8227SOL    HW225581   0.064   1.677   2.344
 8228SOL     OW25582   0.810   1.694   6.141
 8228SOL    HW125583   0.869   1.731   6.213
 8228SOL    HW225584   0.866   1.644   6.075
 8229SOL     OW25585   3.873   4.341   1.293
 8229SOL    HW125586   3.924   4.425   1.315
 8229SOL    HW225587   3.937   4.270   1.263
 8230SOL     OW25588   3.840   6.802   5.358
 8230SOL    HW125589   3.844   6.857   5.274
 8230SOL    HW225590   3.897   6.844   5.428
 8231SOL     OW25591   3.453   2.095   1.749
 8231SOL    HW125592   3.524   2.144   1.799
 8231SOL    HW225593   3.450   2.000   1.780
 8232SOL     OW25594   5.729   2.149   2.482
 8232SOL    HW125595   5.753   2.136   2.386
 8232SOL    HW225596   5.812   2.146   2.538
 8233SOL     OW25597   1.591   6.389   6.408
 8233SOL    HW125598   1.607   6.416   6.313
 8233SOL    HW225599   1.557   6.467   6.460
 8234SOL     OW25600   2.813   3.667   0.107
 8234SOL    HW125601   2.795   3.568   0.113
 8234SOL    HW225602   2.784   3.700   0.017
 8235SOL     OW25603   0.247   3.540   6.844
 8235SOL    HW125604   0.306   3.560   6.923
 8235SOL    HW225605   0.167   3.599   6.846
 8236SOL     OW25606   0.596   5.328   6.357
 8236SOL    HW125607   0.532   5.374   6.418
 8236SOL    HW225608   0.547   5.296   6.276
 8237SOL     OW25609   4.527   6.586   6.232
 8237SOL    HW125610   4.482   6.530   6.302
 8237SOL    HW225611   4.472   6.583   6.148
 8238SOL     OW25612   0.461   6.225   6.929
 8238SOL    HW125613   0.413   6.232   7.017
 8238SOL    HW225614   0.442   6.306   6.875
 8239SOL     OW25615   0.596   0.989   4.926
 8239SOL    HW125616   0.678   1.024   4.970
 8239SOL    HW225617   0.571   1.048   4.849
 8240SOL     OW25618   3.017   3.805   3.390
 8240SOL    HW125619   3.040   3.871   3.318
 8240SOL    HW225620   2.998   3.853   3.475
 8241SOL     OW25621   2.463   4.852   5.907
 8241SOL    HW125622   2.520   4.773   5.930
 8241SOL    HW225623   2.397   4.868   5.980
 8242SOL     OW25624   0.577   4.175   4.624
 8242SOL    HW125625   0.666   4.173   4.671
 8242SOL    HW225626   0.521   4.098   4.655
 8243SOL     OW25627   0.241   4.528   0.634
 8243SOL    HW125628   0.214   4.550   0.540
 8243SOL    HW225629   0.323   4.581   0.658
 8244SOL     OW25630   0.290   0.073   4.230
 8244SOL    HW125631   0.302   0.111   4.322
 8244SOL    HW225632   0.344   0.127   4.165
 8245SOL     OW25633   3.838   1.343   2.822
 8245SOL    HW125634   3.908   1.406   2.857
 8245SOL    HW225635   3.786   1.306   2.899
 8246SOL     OW25636   0.097   4.715   6.793
 8246SOL    HW125637   0.126   4.791   6.735
 8246SOL    HW225638   0.161   4.639   6.783
 8247SOL     OW25639   2.520   6.873   3.731
 8247SOL    HW125640   2.587   6.896   3.802
 8247SOL    HW225641   2.482   6.957   3.692
 8248SOL     OW25642   0.761   5.008   5.134
 8248SOL    HW125643   0.814   4.978   5.055
 8248SOL    HW225644   0.665   5.016   5.109
 8249SOL     OW25645   1.979   0.921   5.742
 8249SOL    HW125646   1.961   0.946   5.647
 8249SOL    HW225647   1.943   0.829   5.759
 8250SOL     OW25648   3.364   2.017   1.461
 8250SOL    HW125649   3.282   2.074   1.453
 8250SOL    HW225650   3.397   2.020   1.555
 8251SOL     OW25651   5.810   1.068   4.029
 8251SOL    HW125652   5.789   1.152   4.080
 8251SOL    HW225653   5.763   0.991   4.073
 8252SOL     OW25654   3.801   1.871   0.200
 8252SOL    HW125655   3.743   1.937   0.152
 8252SOL    HW225656   3.798   1.783   0.153
 8253SOL     OW25657   3.921   5.680   0.058
 8253SOL    HW125658   3.892   5.766   0.099
 8253SOL    HW225659   4.014   5.689   0.023
 8254SOL     OW25660   5.143   4.252   6.011
 8254SOL    HW125661   5.220   4.198   5.975
 8254SOL    HW225662   5.063   4.193   6.019
 8255SOL     OW25663   1.150   0.138   6.334
 8255SOL    HW125664   1.131   0.100   6.424
 8255SOL    HW225665   1.249   0.146   6.321
 8256SOL     OW25666   6.583   6.944   3.017
 8256SOL    HW125667   6.635   7.013   2.968
 8256SOL    HW225668   6.558   6.870   2.954
 8257SOL     OW25669   5.768   4.713   3.664
 8257SOL    HW125670   5.763   4.662   3.578
 8257SOL    HW225671   5.708   4.670   3.731
 8258SOL     OW25672   4.988   3.123   1.494
 8258SOL    HW125673   5.079   3.121   1.535
 8258SOL    HW225674   4.935   3.046   1.528
 8259SOL     OW25675   3.871   2.074   5.684
 8259SOL    HW125676   3.855   2.070   5.783
 8259SOL    HW225677   3.794   2.120   5.640
 8260SOL     OW25678   2.105   6.098   1.553
 8260SOL    HW125679   2.149   6.011   1.532
 8260SOL    HW225680   2.079   6.099   1.650
 8261SOL     OW25681   5.002   6.441   3.162
 8261SOL    HW125682   4.952   6.356   3.144
 8261SOL    HW225683   5.007   6.457   3.261
 8262SOL     OW25684   0.660   4.607   0.758
 8262SOL    HW125685   0.617   4.550   0.689
 8262SOL    HW225686   0.697   4.689   0.715
 8263SOL     OW25687   6.862   2.978   6.907
 8263SOL    HW125688   6.956   3.003   6.932
 8263SOL    HW225689   6.823   2.922   6.980
 8264SOL     OW25690   1.112   6.976   1.703
 8264SOL    HW125691   1.107   6.878   1.722
 8264SOL    HW225692   1.042   0.005   1.757
 8265SOL     OW25693   5.242   0.835   1.979
 8265SOL    HW125694   5.302   0.784   1.918
 8265SOL    HW225695   5.238   0.931   1.951
 8266SOL     OW25696   2.671   0.140   4.859
 8266SOL    HW125697   2.656   0.041   4.861
 8266SOL    HW225698   2.603   0.186   4.917
 8267SOL     OW25699   1.726   4.532   1.339
 8267SOL    HW125700   1.649   4.595   1.337
 8267SOL    HW225701   1.696   4.443   1.373
 8268SOL     OW25702   3.155   4.644   6.123
 8268SOL    HW125703   3.162   4.692   6.211
 8268SOL    HW225704   3.061   4.649   6.090
 8269SOL     OW25705   4.629   2.115   2.678
 8269SOL    HW125706   4.685   2.101   2.760
 8269SOL    HW225707   4.563   2.040   2.670
 8270SOL     OW25708   3.422   5.660   5.840
 8270SOL    HW125709   3.404   5.690   5.746
 8270SOL    HW225710   3.372   5.575   5.858
 8271SOL     OW25711   6.308   6.548   3.861
 8271SOL    HW125712   6.302   6.646   3.876
 8271SOL    HW225713   6.223   6.504   3.891
 8272SOL     OW25714   0.143   1.395   2.570
 8272SOL    HW125715   0.147   1.384   2.471
 8272SOL    HW225716   0.057   1.439   2.596
 8273SOL     OW25717   2.838   1.338   0.034
 8273SOL    HW125718   2.780   1.407   7.008
 8273SOL    HW225719   2.830   1.348   0.133
 8274SOL     OW25720   4.062   4.889   5.771
 8274SOL    HW125721   3.995   4.869   5.842
 8274SOL    HW225722   4.089   4.805   5.725
 8275SOL     OW25723   5.823   0.397   4.452
 8275SOL    HW125724   5.894   0.327   4.453
 8275SOL    HW225725   5.777   0.397   4.363
 8276SOL     OW25726   6.370   2.234   5.805
 8276SOL    HW125727   6.457   2.235   5.855
 8276SOL    HW225728   6.388   2.248   5.707
 8277SOL     OW25729   2.582   6.096   5.291
 8277SOL    HW125730   2.497   6.145   5.271
 8277SOL    HW225731   2.614   6.050   5.208
 8278SOL     OW25732   3.210   1.401   6.786
 8278SOL    HW125733   3.249   1.310   6.775
 8278SOL    HW225734   3.272   1.470   6.749
 8279SOL     OW25735   5.981   5.623   6.081
 8279SOL    HW125736   5.954   5.656   5.990
 8279SOL    HW225737   6.063   5.672   6.111
 8280SOL     OW25738   4.152   2.454   0.836
 8280SOL    HW125739   4.140   2.401   0.752
 8280SOL    HW225740   4.159   2.551   0.814
 8281SOL     OW25741   2.015   4.392   2.110
 8281SOL    HW125742   1.944   4.322   2.110
 8281SOL    HW225743   2.000   4.454   2.188
 8282SOL     OW25744   2.358   3.431   0.153
 8282SOL    HW125745   2.296   3.467   0.223
 8282SOL    HW225746   2.444   3.403   0.196
 8283SOL     OW25747   0.952   4.769   4.214
 8283SOL    HW125748   0.923   4.749   4.121
 8283SOL    HW225749   1.044   4.808   4.213
 8284SOL     OW25750   1.530   4.022   2.218
 8284SOL    HW125751   1.531   3.950   2.148
 8284SOL    HW225752   1.555   4.109   2.175
 8285SOL     OW25753   3.755   3.665   5.287
 8285SOL    HW125754   3.830   3.708   5.337
 8285SOL    HW225755   3.673   3.663   5.344
 8286SOL     OW25756   5.383   1.907   4.962
 8286SOL    HW125757   5.318   1.840   4.997
 8286SOL    HW225758   5.347   1.999   4.975
 8287SOL     OW25759   1.294   5.782   3.889
 8287SOL    HW125760   1.311   5.748   3.982
 8287SOL    HW225761   1.196   5.795   3.876
 8288SOL     OW25762   0.811   2.432   2.506
 8288SOL    HW125763   0.819   2.529   2.480
 8288SOL    HW225764   0.725   2.418   2.555
 8289SOL     OW25765   6.081   0.462   6.228
 8289SOL    HW125766   5.993   0.508   6.239
 8289SOL    HW225767   6.154   0.520   6.264
 8290SOL     OW25768   4.659   1.832   1.751
 8290SOL    HW125769   4.640   1.929   1.769
 8290SOL    HW225770   4.753   1.812   1.779
 8291SOL     OW25771   5.657   5.665   6.568
 8291SOL    HW125772   5.699   5.612   6.642
 8291SOL    HW225773   5.725   5.682   6.497
 8292SOL     OW25774   2.444   6.088   6.316
 8292SOL    HW125775   2.362   6.124   6.359
 8292SOL    HW225776   2.522   6.098   6.378
 8293SOL     OW25777   1.444   3.841   1.633
 8293SOL    HW125778   1.393   3.927   1.623
 8293SOL    HW225779   1.540   3.861   1.648
 8294SOL     OW25780   6.336   3.257   4.753
 8294SOL    HW125781   6.340   3.342   4.807
 8294SOL    HW225782   6.278   3.271   4.673
 8295SOL     OW25783   5.137   3.546   2.863
 8295SOL    HW125784   5.160   3.601   2.782
 8295SOL    HW225785   5.040   3.524   2.861
 8296SOL     OW25786   3.596   4.980   0.344
 8296SOL    HW125787   3.647   5.065   0.329
 8296SOL    HW225788   3.537   4.990   0.425
 8297SOL     OW25789   6.634   3.275   2.262
 8297SOL    HW125790   6.552   3.287   2.318
 8297SOL    HW225791   6.669   3.365   2.234
 8298SOL     OW25792   0.232   0.615   0.146
 8298SOL    HW125793   0.255   0.652   0.235
 8298SOL    HW225794   0.229   0.688   0.078
 8299SOL     OW25795   0.855   2.803   0.664
 8299SOL    HW125796   0.868   2.902   0.653
 8299SOL    HW225797   0.903   2.773   0.746
 8300SOL     OW25798   6.432   6.581   5.096
 8300SOL    HW125799   6.354   6.639   5.073
 8300SOL    HW225800   6.478   6.553   5.012
 8301SOL     OW25801   4.615   0.407   6.605
 8301SOL    HW125802   4.554   0.405   6.684
 8301SOL    HW225803   4.622   0.501   6.570
 8302SOL     OW25804   4.302   6.972   5.247
 8302SOL    HW125805   4.255   6.895   5.290
 8302SOL    HW225806   4.236   0.028   5.231
 8303SOL     OW25807   0.016   0.527   3.457
 8303SOL    HW125808   6.935   0.514   3.453
 8303SOL    HW225809   0.050   0.555   3.368
 8304SOL     OW25810   5.467   4.965   1.697
 8304SOL    HW125811   5.437   4.974   1.792
 8304SOL    HW225812   5.418   4.889   1.654
 8305SOL     OW25813   4.360   5.096   4.163
 8305SOL    HW125814   4.424   5.126   4.234
 8305SOL    HW225815   4.273   5.144   4.174
 8306SOL     OW25816   6.594   1.423   2.705
 8306SOL    HW125817   6.568   1.363   2.780
 8306SOL    HW225818   6.536   1.505   2.706
 8307SOL     OW25819   3.443   5.190   1.542
 8307SOL    HW125820   3.388   5.239   1.609
 8307SOL    HW225821   3.383   5.144   1.476
 8308SOL     OW25822   2.063   3.965   0.256
 8308SOL    HW125823   2.091   3.873   0.285
 8308SOL    HW225824   2.110   4.033   0.313
 8309SOL     OW25825   6.055   5.001   3.143
 8309SOL    HW125826   5.971   5.005   3.198
 8309SOL    HW225827   6.111   4.925   3.173
 8310SOL     OW25828   0.898   5.549   0.690
 8310SOL    HW125829   0.987   5.557   0.735
 8310SOL    HW225830   0.825   5.560   0.758
 8311SOL     OW25831   5.604   0.689   4.513
 8311SOL    HW125832   5.555   0.630   4.448
 8311SOL    HW225833   5.673   0.636   4.561
 8312SOL     OW25834   5.432   1.132   0.411
 8312SOL    HW125835   5.348   1.184   0.418
 8312SOL    HW225836   5.416   1.037   0.440
 8313SOL     OW25837   4.409   0.223   5.662
 8313SOL    HW125838   4.486   0.159   5.660
 8313SOL    HW225839   4.411   0.279   5.579
 8314SOL     OW25840   5.954   0.061   6.654
 8314SOL    HW125841   5.903   0.037   6.571
 8314SOL    HW225842   5.896   0.117   6.713
 8315SOL     OW25843   3.972   3.648   2.803
 8315SOL    HW125844   4.027   3.575   2.762
 8315SOL    HW225845   3.886   3.658   2.753
 8316SOL     OW25846   1.826   3.385   0.377
 8316SOL    HW125847   1.822   3.465   0.437
 8316SOL    HW225848   1.736   3.369   0.336
 8317SOL     OW25849   2.669   2.146   3.504
 8317SOL    HW125850   2.578   2.174   3.473
 8317SOL    HW225851   2.660   2.098   3.591
 8318SOL     OW25852   4.410   0.937   5.387
 8318SOL    HW125853   4.469   0.977   5.317
 8318SOL    HW225854   4.329   0.897   5.344
 8319SOL     OW25855   1.893   7.000   0.126
 8319SOL    HW125856   1.940   0.060   0.084
 8319SOL    HW225857   1.851   0.010   0.212
 8320SOL     OW25858   3.731   3.783   3.507
 8320SOL    HW125859   3.707   3.817   3.598
 8320SOL    HW225860   3.829   3.764   3.502
 8321SOL     OW25861   0.135   6.726   6.221
 8321SOL    HW125862   0.229   6.706   6.192
 8321SOL    HW225863   0.073   6.659   6.181
 8322SOL     OW25864   0.283   1.176   0.240
 8322SOL    HW125865   0.370   1.130   0.224
 8322SOL    HW225866   0.278   1.260   0.185
 8323SOL     OW25867   3.412   4.808   1.478
 8323SOL    HW125868   3.400   4.900   1.442
 8323SOL    HW225869   3.322   4.764   1.488
 8324SOL     OW25870   5.416   0.336   0.666
 8324SOL    HW125871   5.497   0.311   0.720
 8324SOL    HW225872   5.338   0.280   0.696
 8325SOL     OW25873   0.895   4.366   5.299
 8325SOL    HW125874   0.969   4.433   5.296
 8325SOL    HW225875   0.933   4.274   5.304
 8326SOL     OW25876   4.288   3.533   6.845
 8326SOL    HW125877   4.202   3.568   6.881
 8326SOL    HW225878   4.310   3.579   6.760
 8327SOL     OW25879   0.781   0.242   5.491
 8327SOL    HW125880   0.689   0.255   5.454
 8327SOL    HW225881   0.839   0.199   5.422
 8328SOL     OW25882   2.248   6.516   6.405
 8328SOL    HW125883   2.284   6.446   6.344
 8328SOL    HW225884   2.291   6.604   6.384
 8329SOL     OW25885   0.252   2.294   5.225
 8329SOL    HW125886   0.157   2.309   5.198
 8329SOL    HW225887   0.311   2.294   5.144
 8330SOL     OW25888   3.560   1.434   6.449
 8330SOL    HW125889   3.633   1.418   6.383
 8330SOL    HW225890   3.472   1.413   6.407
 8331SOL     OW25891   2.649   0.940   0.945
 8331SOL    HW125892   2.744   0.973   0.949
 8331SOL    HW225893   2.599   0.975   1.025
 8332SOL     OW25894   5.401   4.959   2.004
 8332SOL    HW125895   5.418   5.029   2.073
 8332SOL    HW225896   5.396   4.869   2.049
 8333SOL     OW25897   2.031   4.727   6.887
 8333SOL    HW125898   1.980   4.656   6.838
 8333SOL    HW225899   2.071   4.688   6.970
 8334SOL     OW25900   2.740   2.385   6.430
 8334SOL    HW125901   2.699   2.461   6.380
 8334SOL    HW225902   2.768   2.416   6.521
 8335SOL     OW25903   3.904   2.670   0.358
 8335SOL    HW125904   3.877   2.659   0.262
 8335SOL    HW225905   3.988   2.725   0.363
 8336SOL     OW25906   1.167   4.052   3.263
 8336SOL    HW125907   1.249   4.108   3.249
 8336SOL    HW225908   1.190   3.956   3.250
 8337SOL     OW25909   0.251   6.842   4.141
 8337SOL    HW125910   0.276   6.935   4.169
 8337SOL    HW225911   0.221   6.790   4.220
 8338SOL     OW25912   3.605   5.554   2.068
 8338SOL    HW125913   3.705   5.555   2.061
 8338SOL    HW225914   3.568   5.629   2.013
 8339SOL     OW25915   0.132   1.274   1.517
 8339SOL    HW125916   0.106   1.299   1.424
 8339SOL    HW225917   0.087   1.188   1.542
 8340SOL     OW25918   5.158   4.028   0.405
 8340SOL    HW125919   5.123   3.939   0.436
 8340SOL    HW225920   5.140   4.038   0.307
 8341SOL     OW25921   3.752   0.534   0.231
 8341SOL    HW125922   3.671   0.509   0.178
 8341SOL    HW225923   3.828   0.473   0.207
 8342SOL     OW25924   3.949   0.018   0.152
 8342SOL    HW125925   3.952   0.039   0.054
 8342SOL    HW225926   3.973   6.940   0.166
 8343SOL     OW25927   6.389   5.574   3.816
 8343SOL    HW125928   6.330   5.507   3.772
 8343SOL    HW225929   6.341   5.661   3.825
 8344SOL     OW25930   6.627   4.532   4.517
 8344SOL    HW125931   6.621   4.591   4.597
 8344SOL    HW225932   6.620   4.436   4.545
 8345SOL     OW25933   4.669   2.200   3.688
 8345SOL    HW125934   4.633   2.174   3.778
 8345SOL    HW225935   4.768   2.190   3.688
 8346SOL     OW25936   3.765   3.631   6.027
 8346SOL    HW125937   3.819   3.706   6.065
 8346SOL    HW225938   3.709   3.590   6.099
 8347SOL     OW25939   3.284   6.928   6.479
 8347SOL    HW125940   3.293   6.888   6.570
 8347SOL    HW225941   3.320   0.004   6.480
 8348SOL     OW25942   2.332   0.421   1.567
 8348SOL    HW125943   2.269   0.488   1.608
 8348SOL    HW225944   2.317   0.331   1.608
 8349SOL     OW25945   1.326   6.495   1.867
 8349SOL    HW125946   1.285   6.484   1.776
 8349SOL    HW225947   1.319   6.409   1.918
 8350SOL     OW25948   2.794   6.670   6.175
 8350SOL    HW125949   2.773   6.713   6.263
 8350SOL    HW225950   2.813   6.573   6.189
 8351SOL     OW25951   5.649   5.450   4.027
 8351SOL    HW125952   5.640   5.530   4.086
 8351SOL    HW225953   5.559   5.420   3.996
 8352SOL     OW25954   1.416   6.975   2.879
 8352SOL    HW125955   1.349   0.017   2.834
 8352SOL    HW225956   1.394   6.967   2.976
 8353SOL     OW25957   0.902   3.992   0.961
 8353SOL    HW125958   0.818   4.028   0.919
 8353SOL    HW225959   0.963   3.959   0.888
 8354SOL     OW25960   3.434   0.043   3.896
 8354SOL    HW125961   3.347   0.093   3.895
 8354SOL    HW225962   3.502   0.095   3.947
 8355SOL     OW25963   1.663   0.994   5.432
 8355SOL    HW125964   1.584   0.966   5.377
 8355SOL    HW225965   1.739   0.931   5.414
 8356SOL     OW25966   0.880   5.437   1.336
 8356SOL    HW125967   0.904   5.413   1.242
 8356SOL    HW225968   0.948   5.398   1.399
 8357SOL     OW25969   3.753   6.083   5.540
 8357SOL    HW125970   3.662   6.114   5.565
 8357SOL    HW225971   3.756   6.062   5.442
 8358SOL     OW25972   0.931   2.765   4.963
 8358SOL    HW125973   0.987   2.781   4.882
 8358SOL    HW225974   0.989   2.770   5.045
 8359SOL     OW25975   2.047   1.819   4.506
 8359SOL    HW125976   2.127   1.879   4.511
 8359SOL    HW225977   2.044   1.775   4.417
 8360SOL     OW25978   4.845   0.031   1.328
 8360SOL    HW125979   4.805   6.990   1.399
 8360SOL    HW225980   4.835   7.004   1.239
 8361SOL     OW25981   3.373   0.742   0.240
 8361SOL    HW125982   3.329   0.758   0.152
 8361SOL    HW225983   3.449   0.806   0.251
 8362SOL     OW25984   5.682   2.017   1.147
 8362SOL    HW125985   5.658   2.096   1.204
 8362SOL    HW225986   5.671   1.933   1.201
 8363SOL     OW25987   5.174   1.688   0.584
 8363SOL    HW125988   5.203   1.634   0.663
 8363SOL    HW225989   5.092   1.648   0.544
 8364SOL     OW25990   0.581   3.443   4.370
 8364SOL    HW125991   0.490   3.403   4.354
 8364SOL    HW225992   0.621   3.470   4.283
 8365SOL     OW25993   1.113   2.459   2.893
 8365SOL    HW125994   1.167   2.531   2.937
 8365SOL    HW225995   1.107   2.477   2.795
 8366SOL     OW25996   3.704   5.353   0.637
 8366SOL    HW125997   3.655   5.417   0.697
 8366SOL    HW225998   3.701   5.262   0.677
 8367SOL     OW25999   3.476   5.454   5.449
 8367SOL    HW126000   3.481   5.388   5.374
 8367SOL    HW226001   3.474   5.405   5.536
 8368SOL     OW26002   0.891   6.009   0.563
 8368SOL    HW126003   0.812   5.987   0.621
 8368SOL    HW226004   0.960   6.057   0.617
 8369SOL     OW26005   0.556   1.073   6.687
 8369SOL    HW126006   0.613   0.991   6.693
 8369SOL    HW226007   0.612   1.150   6.658
 8370SOL     OW26008   2.224   0.870   5.997
 8370SOL    HW126009   2.284   0.831   5.928
 8370SOL    HW226010   2.205   0.966   5.974
 8371SOL     OW26011   1.859   3.279   6.685
 8371SOL    HW126012   1.893   3.369   6.712
 8371SOL    HW226013   1.935   3.222   6.654
 8372SOL     OW26014   1.643   6.162   1.512
 8372SOL    HW126015   1.671   6.098   1.584
 8372SOL    HW226016   1.618   6.110   1.430
 8373SOL     OW26017   1.723   0.521   4.582
 8373SOL    HW126018   1.727   0.422   4.590
 8373SOL    HW226019   1.775   0.551   4.502
 8374SOL     OW26020   6.862   0.041   4.960
 8374SOL    HW126021   6.841   6.975   5.010
 8374SOL    HW226022   6.819   0.119   5.005
 8375SOL     OW26023   3.609   6.710   6.224
 8375SOL    HW126024   3.694   6.750   6.189
 8375SOL    HW226025   3.541   6.782   6.235
 8376SOL     OW26026   1.578   1.545   3.742
 8376SOL    HW126027   1.567   1.637   3.704
 8376SOL    HW226028   1.488   1.504   3.757
 8377SOL     OW26029   5.640   6.529   0.441
 8377SOL    HW126030   5.635   6.440   0.485
 8377SOL    HW226031   5.698   6.522   0.359
 8378SOL     OW26032   4.150   5.311   3.760
 8378SOL    HW126033   4.184   5.401   3.789
 8378SOL    HW226034   4.227   5.250   3.744
 8379SOL     OW26035   4.999   2.719   2.116
 8379SOL    HW126036   5.062   2.792   2.142
 8379SOL    HW226037   4.985   2.658   2.194
 8380SOL     OW26038   0.468   0.110   6.681
 8380SOL    HW126039   0.424   0.029   6.719
 8380SOL    HW226040   0.400   0.184   6.673
 8381SOL     OW26041   0.353   2.768   3.540
 8381SOL    HW126042   0.428   2.774   3.474
 8381SOL    HW226043   0.324   2.860   3.567
 8382SOL     OW26044   2.380   6.936   1.328
 8382SOL    HW126045   2.450   6.965   1.262
 8382SOL    HW226046   2.302   6.999   1.323
 8383SOL     OW26047   2.794   6.939   5.510
 8383SOL    HW126048   2.875   6.994   5.530
 8383SOL    HW226049   2.758   6.901   5.596
 8384SOL     OW26050   6.922   1.627   0.963
 8384SOL    HW126051   6.979   1.666   0.890
 8384SOL    HW226052   6.829   1.664   0.956
 8385SOL     OW26053   4.277   1.841   0.564
 8385SOL    HW126054   4.201   1.866   0.504
 8385SOL    HW226055   4.249   1.767   0.625
 8386SOL     OW26056   2.354   5.590   1.182
 8386SOL    HW126057   2.302   5.540   1.113
 8386SOL    HW226058   2.340   5.688   1.169
 8387SOL     OW26059   1.763   2.018   1.527
 8387SOL    HW126060   1.852   1.974   1.540
 8387SOL    HW226061   1.748   2.035   1.430
 8388SOL     OW26062   1.482   6.445   1.184
 8388SOL    HW126063   1.459   6.489   1.097
 8388SOL    HW226064   1.512   6.515   1.249
 8389SOL     OW26065   0.219   3.669   4.398
 8389SOL    HW126066   0.191   3.613   4.476
 8389SOL    HW226067   0.262   3.753   4.431
 8390SOL     OW26068   3.915   6.780   6.809
 8390SOL    HW126069   3.994   6.719   6.815
 8390SOL    HW226070   3.841   6.746   6.866
 8391SOL     OW26071   4.774   5.087   1.243
 8391SOL    HW126072   4.690   5.032   1.244
 8391SOL    HW226073   4.780   5.139   1.329
 8392SOL     OW26074   6.559   5.569   5.986
 8392SOL    HW126075   6.504   5.612   5.915
 8392SOL    HW226076   6.531   5.602   6.076
 8393SOL     OW26077   6.867   6.822   3.752
 8393SOL    HW126078   6.959   6.843   3.785
 8393SOL    HW226079   6.817   6.907   3.736
 8394SOL     OW26080   0.041   2.893   1.490
 8394SOL    HW126081   0.010   2.966   1.552
 8394SOL    HW226082   0.140   2.897   1.482
 8395SOL     OW26083   1.216   6.172   4.733
 8395SOL    HW126084   1.302   6.157   4.684
 8395SOL    HW226085   1.141   6.132   4.682
 8396SOL     OW26086   4.161   4.694   1.943
 8396SOL    HW126087   4.135   4.654   1.855
 8396SOL    HW226088   4.087   4.752   1.976
 8397SOL     OW26089   2.293   0.953   3.586
 8397SOL    HW126090   2.251   0.994   3.506
 8397SOL    HW226091   2.375   1.005   3.612
 8398SOL     OW26092   4.305   2.419   6.328
 8398SOL    HW126093   4.361   2.445   6.249
 8398SOL    HW226094   4.282   2.322   6.322
 8399SOL     OW26095   6.702   0.486   6.943
 8399SOL    HW126096   6.605   0.503   6.927
 8399SOL    HW226097   6.712   0.419   7.017
 8400SOL     OW26098   1.006   0.259   3.595
 8400SOL    HW126099   1.086   0.317   3.607
 8400SOL    HW226100   0.933   0.290   3.656
 8401SOL     OW26101   3.476   2.106   5.769
 8401SOL    HW126102   3.425   2.020   5.776
 8401SOL    HW226103   3.480   2.150   5.858
 8402SOL     OW26104   4.196   1.878   5.594
 8402SOL    HW126105   4.162   1.938   5.522
 8402SOL    HW226106   4.272   1.823   5.560
 8403SOL     OW26107   0.669   1.888   3.203
 8403SOL    HW126108   0.715   1.930   3.124
 8403SOL    HW226109   0.667   1.789   3.190
 8404SOL     OW26110   5.008   5.944   6.680
 8404SOL    HW126111   5.005   5.865   6.618
 8404SOL    HW226112   5.021   5.912   6.774
 8405SOL     OW26113   2.429   0.901   6.237
 8405SOL    HW126114   2.502   0.964   6.210
 8405SOL    HW226115   2.365   0.889   6.161
 8406SOL     OW26116   4.465   0.192   0.640
 8406SOL    HW126117   4.405   0.246   0.699
 8406SOL    HW226118   4.559   0.198   0.674
 8407SOL     OW26119   4.619   6.471   3.589
 8407SOL    HW126120   4.525   6.495   3.563
 8407SOL    HW226121   4.680   6.547   3.568
 8408SOL     OW26122   5.121   2.854   2.736
 8408SOL    HW126123   5.055   2.836   2.808
 8408SOL    HW226124   5.138   2.952   2.729
 8409SOL     OW26125   6.283   3.415   3.200
 8409SOL    HW126126   6.351   3.346   3.226
 8409SOL    HW226127   6.193   3.386   3.232
 8410SOL     OW26128   4.828   0.759   1.508
 8410SOL    HW126129   4.837   0.680   1.569
 8410SOL    HW226130   4.917   0.781   1.468
 8411SOL     OW26131   1.499   5.371   5.595
 8411SOL    HW126132   1.491   5.381   5.496
 8411SOL    HW226133   1.513   5.275   5.618
 8412SOL     OW26134   4.379   1.932   2.033
 8412SOL    HW126135   4.296   1.922   1.978
 8412SOL    HW226136   4.429   1.845   2.034
 8413SOL     OW26137   4.784   4.685   0.347
 8413SOL    HW126138   4.872   4.654   0.382
 8413SOL    HW226139   4.760   4.634   0.265
 8414SOL     OW26140   4.464   5.611   2.860
 8414SOL    HW126141   4.382   5.657   2.825
 8414SOL    HW226142   4.504   5.666   2.932
 8415SOL     OW26143   6.770   5.612   4.174
 8415SOL    HW126144   6.868   5.616   4.189
 8415SOL    HW226145   6.731   5.704   4.177
 8416SOL     OW26146   5.610   4.368   3.205
 8416SOL    HW126147   5.558   4.283   3.193
 8416SOL    HW226148   5.706   4.351   3.186
 8417SOL     OW26149   1.283   5.149   6.348
 8417SOL    HW126150   1.371   5.158   6.301
 8417SOL    HW226151   1.253   5.054   6.344
 8418SOL     OW26152   6.209   5.286   1.269
 8418SOL    HW126153   6.262   5.245   1.343
 8418SOL    HW226154   6.264   5.354   1.222
 8419SOL     OW26155   5.358   1.618   3.089
 8419SOL    HW126156   5.348   1.711   3.053
 8419SOL    HW226157   5.267   1.583   3.114
 8420SOL     OW26158   4.113   0.157   0.914
 8420SOL    HW126159   4.035   0.183   0.855
 8420SOL    HW226160   4.163   0.082   0.871
 8421SOL     OW26161   2.963   6.059   0.959
 8421SOL    HW126162   2.937   6.004   0.880
 8421SOL    HW226163   2.895   6.131   0.974
 8422SOL     OW26164   4.431   0.702   1.467
 8422SOL    HW126165   4.502   0.680   1.400
 8422SOL    HW226166   4.411   0.622   1.523
 8423SOL     OW26167   3.939   4.432   6.187
 8423SOL    HW126168   3.995   4.430   6.104
 8423SOL    HW226169   3.961   4.514   6.240
 8424SOL     OW26170   2.594   2.460   2.678
 8424SOL    HW126171   2.554   2.497   2.594
 8424SOL    HW226172   2.681   2.415   2.656
 8425SOL     OW26173   5.789   5.938   0.781
 8425SOL    HW126174   5.739   5.856   0.807
 8425SOL    HW226175   5.885   5.915   0.764
 8426SOL     OW26176   3.268   2.993   4.274
 8426SOL    HW126177   3.247   2.996   4.176
 8426SOL    HW226178   3.185   3.011   4.326
 8427SOL     OW26179   2.616   3.601   5.675
 8427SOL    HW126180   2.617   3.627   5.579
 8427SOL    HW226181   2.582   3.507   5.684
 8428SOL     OW26182   6.845   3.999   1.295
 8428SOL    HW126183   6.889   4.088   1.291
 8428SOL    HW226184   6.782   3.989   1.217
 8429SOL     OW26185   2.101   3.936   3.736
 8429SOL    HW126186   2.166   4.009   3.754
 8429SOL    HW226187   2.038   3.929   3.813
 8430SOL     OW26188   3.722   5.953   3.878
 8430SOL    HW126189   3.734   5.971   3.780
 8430SOL    HW226190   3.720   5.855   3.894
 8431SOL     OW26191   2.759   5.686   0.826
 8431SOL    HW126192   2.704   5.708   0.746
 8431SOL    HW226193   2.845   5.737   0.822
 8432SOL     OW26194   5.903   0.067   6.104
 8432SOL    HW126195   5.815   0.113   6.093
 8432SOL    HW226196   5.904   7.001   6.051
 8433SOL     OW26197   6.454   2.295   0.472
 8433SOL    HW126198   6.441   2.254   0.382
 8433SOL    HW226199   6.550   2.288   0.498
 8434SOL     OW26200   3.297   6.388   5.385
 8434SOL    HW126201   3.326   6.442   5.464
 8434SOL    HW226202   3.199   6.403   5.369
 8435SOL     OW26203   5.088   0.605   1.078
 8435SOL    HW126204   5.022   0.585   1.006
 8435SOL    HW226205   5.076   0.541   1.154
 8436SOL     OW26206   3.362   6.745   4.702
 8436SOL    HW126207   3.397   6.821   4.647
 8436SOL    HW226208   3.266   6.762   4.726
 8437SOL     OW26209   1.384   0.049   3.234
 8437SOL    HW126210   1.410   0.066   3.329
 8437SOL    HW226211   1.355   6.972   3.223
 8438SOL     OW26212   2.846   5.042   2.176
 8438SOL    HW126213   2.775   5.071   2.112
 8438SOL    HW226214   2.864   4.944   2.166
 8439SOL     OW26215   6.318   5.157   1.498
 8439SOL    HW126216   6.343   5.211   1.578
 8439SOL    HW226217   6.224   5.124   1.508
 8440SOL     OW26218   0.799   1.825   3.876
 8440SOL    HW126219   0.773   1.910   3.829
 8440SOL    HW226220   0.717   1.772   3.897
 8441SOL     OW26221   5.730   6.525   0.107
 8441SOL    HW126222   5.652   6.578   0.074
 8441SOL    HW226223   5.714   6.428   0.090
 8442SOL     OW26224   3.337   2.796   5.911
 8442SOL    HW126225   3.266   2.828   5.973
 8442SOL    HW226226   3.296   2.743   5.837
 8443SOL     OW26227   1.094   6.197   3.375
 8443SOL    HW126228   1.148   6.280   3.389
 8443SOL    HW226229   1.136   6.140   3.306
 8444SOL     OW26230   3.303   5.703   3.940
 8444SOL    HW126231   3.242   5.624   3.939
 8444SOL    HW226232   3.388   5.678   3.985
 8445SOL     OW26233   3.576   5.410   1.458
 8445SOL    HW126234   3.551   5.480   1.525
 8445SOL    HW226235   3.517   5.330   1.471
 8446SOL     OW26236   4.283   5.059   0.565
 8446SOL    HW126237   4.302   5.157   0.572
 8446SOL    HW226238   4.199   5.037   0.615
 8447SOL     OW26239   5.591   2.235   2.066
 8447SOL    HW126240   5.612   2.318   2.015
 8447SOL    HW226241   5.502   2.200   2.038
 8448SOL     OW26242   5.609   4.821   4.508
 8448SOL    HW126243   5.633   4.918   4.505
 8448SOL    HW226244   5.678   4.772   4.560
 8449SOL     OW26245   6.225   3.269   4.504
 8449SOL    HW126246   6.284   3.317   4.439
 8449SOL    HW226247   6.170   3.202   4.455
 8450SOL     OW26248   1.514   5.652   2.231
 8450SOL    HW126249   1.553   5.691   2.147
 8450SOL    HW226250   1.526   5.717   2.306
 8451SOL     OW26251   4.966   2.853   0.791
 8451SOL    HW126252   5.054   2.812   0.768
 8451SOL    HW226253   4.896   2.820   0.726
 8452SOL     OW26254   0.417   0.969   2.192
 8452SOL    HW126255   0.387   0.922   2.109
 8452SOL    HW226256   0.490   1.033   2.169
 8453SOL     OW26257   6.564   4.120   6.775
 8453SOL    HW126258   6.590   4.136   6.680
 8453SOL    HW226259   6.472   4.157   6.791
 8454SOL     OW26260   0.408   6.420   0.400
 8454SOL    HW126261   0.390   6.363   0.481
 8454SOL    HW226262   0.501   6.404   0.369
 8455SOL     OW26263   5.344   1.768   1.388
 8455SOL    HW126264   5.281   1.705   1.434
 8455SOL    HW226265   5.308   1.861   1.393
 8456SOL     OW26266   4.567   4.737   3.094
 8456SOL    HW126267   4.665   4.719   3.098
 8456SOL    HW226268   4.525   4.679   3.023
 8457SOL     OW26269   0.285   6.364   5.346
 8457SOL    HW126270   0.376   6.407   5.344
 8457SOL    HW226271   0.291   6.273   5.304
 8458SOL     OW26272   2.445   1.462   6.849
 8458SOL    HW126273   2.445   1.373   6.896
 8458SOL    HW226274   2.382   1.524   6.896
 8459SOL     OW26275   3.116   6.307   1.943
 8459SOL    HW126276   3.113   6.395   1.896
 8459SOL    HW226277   3.055   6.242   1.898
 8460SOL     OW26278   4.582   2.582   5.618
 8460SOL    HW126279   4.495   2.541   5.644
 8460SOL    HW226280   4.596   2.570   5.520
 8461SOL     OW26281   0.884   3.855   2.702
 8461SOL    HW126282   0.909   3.859   2.606
 8461SOL    HW226283   0.858   3.761   2.726
 8462SOL     OW26284   3.640   2.466   0.728
 8462SOL    HW126285   3.687   2.539   0.678
 8462SOL    HW226286   3.543   2.489   0.737
 8463SOL     OW26287   6.456   0.466   6.818
 8463SOL    HW126288   6.392   0.542   6.806
 8463SOL    HW226289   6.423   0.386   6.767
 8464SOL     OW26290   5.739   3.915   5.815
 8464SOL    HW126291   5.731   3.825   5.858
 8464SOL    HW226292   5.808   3.912   5.743
 8465SOL     OW26293   2.425   2.342   0.761
 8465SOL    HW126294   2.468   2.402   0.694
 8465SOL    HW226295   2.458   2.249   0.749
 8466SOL     OW26296   6.968   0.082   5.592
 8466SOL    HW126297   6.924   7.011   5.608
 8466SOL    HW226298   6.928   0.151   5.652
 8467SOL     OW26299   3.721   0.628   1.334
 8467SOL    HW126300   3.685   0.570   1.407
 8467SOL    HW226301   3.793   0.579   1.285
 8468SOL     OW26302   4.495   2.441   0.691
 8468SOL    HW126303   4.411   2.430   0.744
 8468SOL    HW226304   4.569   2.474   0.750
 8469SOL     OW26305   2.870   1.900   5.449
 8469SOL    HW126306   2.831   1.808   5.443
 8469SOL    HW226307   2.860   1.946   5.360
 8470SOL     OW26308   0.405   4.845   0.042
 8470SOL    HW126309   0.383   4.905   6.983
 8470SOL    HW226310   0.466   4.893   0.105
 8471SOL     OW26311   4.251   0.488   4.645
 8471SOL    HW126312   4.287   0.578   4.669
 8471SOL    HW226313   4.172   0.467   4.702
 8472SOL     OW26314   6.525   0.406   5.752
 8472SOL    HW126315   6.489   0.459   5.829
 8472SOL    HW226316   6.498   0.310   5.762
 8473SOL     OW26317   6.787   6.091   1.041
 8473SOL    HW126318   6.728   6.030   0.986
 8473SOL    HW226319   6.764   6.081   1.137
 8474SOL     OW26320   3.441   3.688   2.274
 8474SOL    HW126321   3.414   3.714   2.182
 8474SOL    HW226322   3.383   3.736   2.341
 8475SOL     OW26323   0.182   2.810   2.927
 8475SOL    HW126324   0.241   2.767   2.995
 8475SOL    HW226325   0.195   2.765   2.839
 8476SOL     OW26326   6.379   1.623   1.246
 8476SOL    HW126327   6.302   1.609   1.309
 8476SOL    HW226328   6.432   1.538   1.239
 8477SOL     OW26329   5.129   6.457   2.662
 8477SOL    HW126330   5.054   6.395   2.637
 8477SOL    HW226331   5.199   6.454   2.591
 8478SOL     OW26332   1.440   6.644   6.080
 8478SOL    HW126333   1.351   6.603   6.098
 8478SOL    HW226334   1.452   6.658   5.982
 8479SOL     OW26335   0.887   2.230   0.933
 8479SOL    HW126336   0.851   2.198   1.021
 8479SOL    HW226337   0.811   2.239   0.868
 8480SOL     OW26338   5.240   2.910   0.539
 8480SOL    HW126339   5.227   2.850   0.619
 8480SOL    HW226340   5.295   2.989   0.565
 8481SOL     OW26341   4.959   2.735   5.021
 8481SOL    HW126342   5.013   2.806   5.066
 8481SOL    HW226343   4.976   2.737   4.923
 8482SOL     OW26344   4.844   6.942   2.809
 8482SOL    HW126345   4.842   0.023   2.820
 8482SOL    HW226346   4.926   6.916   2.757
 8483SOL     OW26347   3.526   6.057   1.909
 8483SOL    HW126348   3.618   6.027   1.934
 8483SOL    HW226349   3.464   6.040   1.986
 8484SOL     OW26350   6.796   6.068   3.386
 8484SOL    HW126351   6.809   6.042   3.482
 8484SOL    HW226352   6.711   6.120   3.377
 8485SOL     OW26353   3.516   2.566   0.421
 8485SOL    HW126354   3.517   2.472   0.457
 8485SOL    HW226355   3.478   2.565   0.328
 8486SOL     OW26356   1.901   1.729   2.597
 8486SOL    HW126357   1.995   1.708   2.571
 8486SOL    HW226358   1.853   1.770   2.519
 8487SOL     OW26359   5.752   1.691   5.433
 8487SOL    HW126360   5.706   1.644   5.358
 8487SOL    HW226361   5.694   1.766   5.466
 8488SOL     OW26362   5.524   6.387   1.239
 8488SOL    HW126363   5.441   6.438   1.218
 8488SOL    HW226364   5.515   6.343   1.328
 8489SOL     OW26365   6.488   1.628   1.643
 8489SOL    HW126366   6.566   1.641   1.581
 8489SOL    HW226367   6.476   1.530   1.661
 8490SOL     OW26368   3.902   6.558   5.136
 8490SOL    HW126369   3.831   6.576   5.067
 8490SOL    HW226370   3.943   6.468   5.120
 8491SOL     OW26371   2.382   6.157   1.724
 8491SOL    HW126372   2.392   6.139   1.626
 8491SOL    HW226373   2.288   6.138   1.752
 8492SOL     OW26374   5.720   4.235   5.319
 8492SOL    HW126375   5.687   4.145   5.346
 8492SOL    HW226376   5.810   4.251   5.360
 8493SOL     OW26377   2.113   2.435   5.823
 8493SOL    HW126378   2.047   2.394   5.760
 8493SOL    HW226379   2.181   2.366   5.848
 8494SOL     OW26380   4.160   5.203   1.271
 8494SOL    HW126381   4.160   5.283   1.212
 8494SOL    HW226382   4.214   5.223   1.353
 8495SOL     OW26383   6.355   4.941   2.046
 8495SOL    HW126384   6.410   5.005   2.100
 8495SOL    HW226385   6.308   4.990   1.973
 8496SOL     OW26386   1.757   1.995   2.440
 8496SOL    HW126387   1.709   2.082   2.436
 8496SOL    HW226388   1.847   2.009   2.483
 8497SOL     OW26389   6.571   0.751   3.567
 8497SOL    HW126390   6.654   0.719   3.613
 8497SOL    HW226391   6.594   0.822   3.501
 8498SOL     OW26392   6.135   5.991   2.786
 8498SOL    HW126393   6.091   6.080   2.778
 8498SOL    HW226394   6.234   6.002   2.781
 8499SOL     OW26395   2.165   3.791   6.515
 8499SOL    HW126396   2.163   3.885   6.549
 8499SOL    HW226397   2.072   3.758   6.501
 8500SOL     OW26398   1.678   6.024   5.633
 8500SOL    HW126399   1.728   6.050   5.550
 8500SOL    HW226400   1.658   6.107   5.686
 8501SOL     OW26401   0.133   2.524   6.495
 8501SOL    HW126402   0.195   2.454   6.530
 8501SOL    HW226403   0.053   2.480   6.454
 8502SOL     OW26404   0.575   3.445   1.200
 8502SOL    HW126405   0.610   3.355   1.224
 8502SOL    HW226406   0.596   3.510   1.273
 8503SOL     OW26407   1.203   4.987   4.902
 8503SOL    HW126408   1.235   4.998   4.996
 8503SOL    HW226409   1.276   5.010   4.838
 8504SOL     OW26410   2.300   5.032   2.698
 8504SOL    HW126411   2.387   5.081   2.702
 8504SOL    HW226412   2.240   5.075   2.631
 8505SOL     OW26413   6.646   3.452   3.105
 8505SOL    HW126414   6.598   3.364   3.106
 8505SOL    HW226415   6.585   3.523   3.139
 8506SOL     OW26416   1.094   1.143   0.237
 8506SOL    HW126417   1.180   1.092   0.230
 8506SOL    HW226418   1.017   1.079   0.236
 8507SOL     OW26419   3.539   0.233   4.835
 8507SOL    HW126420   3.547   0.134   4.852
 8507SOL    HW226421   3.468   0.250   4.767
 8508SOL     OW26422   4.965   1.886   4.467
 8508SOL    HW126423   4.865   1.891   4.465
 8508SOL    HW226424   5.001   1.913   4.377
 8509SOL     OW26425   4.566   1.189   3.518
 8509SOL    HW126426   4.507   1.257   3.561
 8509SOL    HW226427   4.657   1.229   3.503
 8510SOL     OW26428   5.685   4.603   2.300
 8510SOL    HW126429   5.704   4.698   2.276
 8510SOL    HW226430   5.744   4.576   2.376
 8511SOL     OW26431   6.336   4.372   2.459
 8511SOL    HW126432   6.346   4.383   2.558
 8511SOL    HW226433   6.262   4.308   2.440
 8512SOL     OW26434   2.627   1.369   2.480
 8512SOL    HW126435   2.606   1.282   2.433
 8512SOL    HW226436   2.693   1.352   2.553
 8513SOL     OW26437   6.979   5.591   0.789
 8513SOL    HW126438   6.886   5.618   0.817
 8513SOL    HW226439   0.017   5.577   0.871
 8514SOL     OW26440   2.089   2.227   3.859
 8514SOL    HW126441   2.134   2.138   3.857
 8514SOL    HW226442   2.150   2.296   3.819
 8515SOL     OW26443   4.842   2.047   1.051
 8515SOL    HW126444   4.775   2.110   1.013
 8515SOL    HW226445   4.853   2.064   1.149
 8516SOL     OW26446   0.274   1.859   2.049
 8516SOL    HW126447   0.297   1.929   1.981
 8516SOL    HW226448   0.249   1.774   2.001
 8517SOL     OW26449   0.475   2.321   6.168
 8517SOL    HW126450   0.439   2.243   6.117
 8517SOL    HW226451   0.406   2.393   6.171
 8518SOL     OW26452   4.668   3.769   0.273
 8518SOL    HW126453   4.679   3.688   0.216
 8518SOL    HW226454   4.587   3.820   0.245
 8519SOL     OW26455   1.947   5.060   2.157
 8519SOL    HW126456   1.929   5.118   2.236
 8519SOL    HW226457   1.970   5.118   2.078
 8520SOL     OW26458   3.821   1.854   0.954
 8520SOL    HW126459   3.825   1.756   0.933
 8520SOL    HW226460   3.877   1.904   0.888
 8521SOL     OW26461   1.845   5.003   5.895
 8521SOL    HW126462   1.859   5.068   5.820
 8521SOL    HW226463   1.865   4.911   5.863
 8522SOL     OW26464   1.494   5.810   1.725
 8522SOL    HW126465   1.537   5.863   1.798
 8522SOL    HW226466   1.420   5.863   1.684
 8523SOL     OW26467   3.236   0.202   6.580
 8523SOL    HW126468   3.247   0.297   6.609
 8523SOL    HW226469   3.139   0.183   6.563
 8524SOL     OW26470   1.472   1.886   4.764
 8524SOL    HW126471   1.447   1.971   4.810
 8524SOL    HW226472   1.494   1.817   4.833
 8525SOL     OW26473   6.388   4.480   2.758
 8525SOL    HW126474   6.395   4.578   2.738
 8525SOL    HW226475   6.479   4.439   2.753
 8526SOL     OW26476   3.699   4.822   0.706
 8526SOL    HW126477   3.693   4.739   0.761
 8526SOL    HW226478   3.749   4.892   0.757
 8527SOL     OW26479   2.955   0.201   5.014
 8527SOL    HW126480   2.968   0.102   5.018
 8527SOL    HW226481   2.866   0.221   4.972
 8528SOL     OW26482   5.192   2.956   6.050
 8528SOL    HW126483   5.261   2.901   6.096
 8528SOL    HW226484   5.122   2.984   6.115
 8529SOL     OW26485   0.890   0.480   0.087
 8529SOL    HW126486   0.915   0.490   7.009
 8529SOL    HW226487   0.826   0.404   0.097
 8530SOL     OW26488   2.020   4.125   5.686
 8530SOL    HW126489   1.941   4.071   5.659
 8530SOL    HW226490   2.046   4.186   5.610
 8531SOL     OW26491   6.179   4.327   1.698
 8531SOL    HW126492   6.151   4.422   1.690
 8531SOL    HW226493   6.113   4.269   1.650
 8532SOL     OW26494   4.254   5.118   4.470
 8532SOL    HW126495   4.257   5.119   4.570
 8532SOL    HW226496   4.254   5.023   4.439
 8533SOL     OW26497   1.984   6.951   6.026
 8533SOL    HW126498   2.027   0.001   5.967
 8533SOL    HW226499   1.949   6.995   6.108
 8534SOL     OW26500   6.819   3.704   3.844
 8534SOL    HW126501   6.769   3.681   3.761
 8534SOL    HW226502   6.881   3.780   3.826
 8535SOL     OW26503   0.520   1.686   5.466
 8535SOL    HW126504   0.460   1.662   5.389
 8535SOL    HW226505   0.510   1.783   5.487
 8536SOL     OW26506   5.683   1.552   4.959
 8536SOL    HW126507   5.649   1.641   4.927
 8536SOL    HW226508   5.783   1.553   4.960
 8537SOL     OW26509   5.690   1.184   2.346
 8537SOL    HW126510   5.634   1.222   2.272
 8537SOL    HW226511   5.781   1.227   2.343
 8538SOL     OW26512   0.850   1.306   5.238
 8538SOL    HW126513   0.798   1.310   5.153
 8538SOL    HW226514   0.917   1.380   5.239
 8539SOL     OW26515   6.607   1.907   2.067
 8539SOL    HW126516   6.609   1.830   2.004
 8539SOL    HW226517   6.592   1.992   2.016
 8540SOL     OW26518   3.539   1.674   0.198
 8540SOL    HW126519   3.629   1.647   0.163
 8540SOL    HW226520   3.528   1.773   0.189
 8541SOL     OW26521   3.353   2.030   4.354
 8541SOL    HW126522   3.336   2.076   4.267
 8541SOL    HW226523   3.293   1.950   4.362
 8542SOL     OW26524   2.501   4.454   5.393
 8542SOL    HW126525   2.467   4.370   5.350
 8542SOL    HW226526   2.600   4.460   5.380
 8543SOL     OW26527   3.246   1.279   6.347
 8543SOL    HW126528   3.158   1.232   6.341
 8543SOL    HW226529   3.246   1.357   6.284
 8544SOL     OW26530   5.265   2.870   4.462
 8544SOL    HW126531   5.244   2.962   4.494
 8544SOL    HW226532   5.238   2.861   4.366
 8545SOL     OW26533   4.083   6.932   4.863
 8545SOL    HW126534   4.075   6.883   4.950
 8545SOL    HW226535   4.179   6.939   4.837
 8546SOL     OW26536   0.582   0.300   2.446
 8546SOL    HW126537   0.486   0.324   2.457
 8546SOL    HW226538   0.594   0.202   2.461
 8547SOL     OW26539   1.216   6.769   6.358
 8547SOL    HW126540   1.196   6.812   6.270
 8547SOL    HW226541   1.178   6.677   6.359
 8548SOL     OW26542   6.884   3.381   5.600
 8548SOL    HW126543   6.969   3.431   5.585
 8548SOL    HW226544   6.853   3.394   5.694
 8549SOL     OW26545   0.503   2.282   4.355
 8549SOL    HW126546   0.559   2.277   4.438
 8549SOL    HW226547   0.533   2.212   4.290
 8550SOL     OW26548   1.405   4.728   0.268
 8550SOL    HW126549   1.356   4.807   0.230
 8550SOL    HW226550   1.340   4.671   0.319
 8551SOL     OW26551   2.872   2.796   0.089
 8551SOL    HW126552   2.827   2.880   0.123
 8551SOL    HW226553   2.945   2.821   0.025
 8552SOL     OW26554   1.931   0.606   2.934
 8552SOL    HW126555   1.859   0.624   3.001
 8552SOL    HW226556   1.921   0.669   2.857
 8553SOL     OW26557   4.234   4.260   6.499
 8553SOL    HW126558   4.135   4.266   6.487
 8553SOL    HW226559   4.259   4.296   6.588
 8554SOL     OW26560   0.244   5.743   0.739
 8554SOL    HW126561   0.274   5.681   0.667
 8554SOL    HW226562   0.241   5.836   0.704
 8555SOL     OW26563   3.300   1.126   3.461
 8555SOL    HW126564   3.319   1.157   3.368
 8555SOL    HW226565   3.215   1.072   3.462
 8556SOL     OW26566   2.085   6.161   4.781
 8556SOL    HW126567   2.065   6.244   4.832
 8556SOL    HW226568   2.055   6.081   4.833
 8557SOL     OW26569   6.677   0.354   2.364
 8557SOL    HW126570   6.584   0.387   2.376
 8557SOL    HW226571   6.689   0.268   2.414
 8558SOL     OW26572   2.284   5.741   2.953
 8558SOL    HW126573   2.306   5.838   2.957
 8558SOL    HW226574   2.301   5.699   3.042
 8559SOL     OW26575   1.761   6.996   2.799
 8559SOL    HW126576   1.769   6.900   2.828
 8559SOL    HW226577   1.669   7.013   2.764
 8560SOL     OW26578   1.319   5.462   2.220
 8560SOL    HW126579   1.367   5.549   2.227
 8560SOL    HW226580   1.252   5.454   2.294
 8561SOL     OW26581   3.155   6.999   3.067
 8561SOL    HW126582   3.214   0.061   3.059
 8561SOL    HW226583   3.141   6.958   2.977
 8562SOL     OW26584   3.641   6.211   6.646
 8562SOL    HW126585   3.573   6.206   6.719
 8562SOL    HW226586   3.705   6.285   6.666
 8563SOL     OW26587   1.220   4.883   2.183
 8563SOL    HW126588   1.240   4.962   2.125
 8563SOL    HW226589   1.212   4.801   2.126
 8564SOL     OW26590   2.959   6.947   5.084
 8564SOL    HW126591   2.871   6.971   5.125
 8564SOL    HW226592   2.950   6.860   5.037
 8565SOL     OW26593   3.363   4.830   1.106
 8565SOL    HW126594   3.346   4.871   1.016
 8565SOL    HW226595   3.276   4.815   1.153
 8566SOL     OW26596   1.260   0.196   1.604
 8566SOL    HW126597   1.219   0.117   1.649
 8566SOL    HW226598   1.353   0.211   1.639
 8567SOL     OW26599   0.571   2.078   2.246
 8567SOL    HW126600   0.636   2.146   2.280
 8567SOL    HW226601   0.491   2.076   2.307
 8568SOL     OW26602   5.665   2.093   0.219
 8568SOL    HW126603   5.629   2.187   0.221
 8568SOL    HW226604   5.765   2.096   0.221
 8569SOL     OW26605   5.032   2.262   5.105
 8569SOL    HW126606   5.061   2.245   5.199
 8569SOL    HW226607   5.097   2.219   5.042
 8570SOL     OW26608   0.909   1.510   4.098
 8570SOL    HW126609   1.003   1.478   4.087
 8570SOL    HW226610   0.847   1.451   4.046
 8571SOL     OW26611   0.832   6.324   5.277
 8571SOL    HW126612   0.895   6.365   5.211
 8571SOL    HW226613   0.817   6.228   5.254
 8572SOL     OW26614   1.622   4.270   5.749
 8572SOL    HW126615   1.606   4.278   5.650
 8572SOL    HW226616   1.703   4.323   5.773
 8573SOL     OW26617   3.306   5.731   6.181
 8573SOL    HW126618   3.288   5.773   6.270
 8573SOL    HW226619   3.392   5.767   6.144
 8574SOL     OW26620   5.873   0.354   6.443
 8574SOL    HW126621   5.840   0.261   6.426
 8574SOL    HW226622   5.952   0.373   6.385
 8575SOL     OW26623   2.430   2.215   3.406
 8575SOL    HW126624   2.384   2.211   3.317
 8575SOL    HW226625   2.429   2.309   3.440
 8576SOL     OW26626   1.704   4.780   4.458
 8576SOL    HW126627   1.714   4.805   4.361
 8576SOL    HW226628   1.615   4.736   4.472
 8577SOL     OW26629   1.508   0.358   6.100
 8577SOL    HW126630   1.578   0.287   6.096
 8577SOL    HW226631   1.424   0.324   6.057
 8578SOL     OW26632   6.756   5.174   5.030
 8578SOL    HW126633   6.783   5.215   5.117
 8578SOL    HW226634   6.666   5.131   5.040
 8579SOL     OW26635   1.752   6.379   2.106
 8579SOL    HW126636   1.708   6.467   2.125
 8579SOL    HW226637   1.845   6.380   2.141
 8580SOL     OW26638   1.878   5.633   0.614
 8580SOL    HW126639   1.876   5.618   0.713
 8580SOL    HW226640   1.787   5.613   0.576
 8581SOL     OW26641   3.282   4.406   1.558
 8581SOL    HW126642   3.184   4.403   1.581
 8581SOL    HW226643   3.315   4.312   1.544
 8582SOL     OW26644   4.773   4.276   5.155
 8582SOL    HW126645   4.714   4.284   5.075
 8582SOL    HW226646   4.868   4.292   5.128
 8583SOL     OW26647   3.657   0.225   3.970
 8583SOL    HW126648   3.690   0.296   3.908
 8583SOL    HW226649   3.667   0.255   4.064
 8584SOL     OW26650   1.180   6.401   5.800
 8584SOL    HW126651   1.136   6.364   5.882
 8584SOL    HW226652   1.188   6.329   5.731
 8585SOL     OW26653   5.998   1.322   0.448
 8585SOL    HW126654   5.902   1.295   0.439
 8585SOL    HW226655   6.007   1.419   0.425
 8586SOL     OW26656   3.401   6.423   1.875
 8586SOL    HW126657   3.456   6.429   1.792
 8586SOL    HW226658   3.332   6.496   1.874
 8587SOL     OW26659   0.844   0.708   4.427
 8587SOL    HW126660   0.934   0.749   4.445
 8587SOL    HW226661   0.846   0.611   4.452
 8588SOL     OW26662   4.671   1.452   6.599
 8588SOL    HW126663   4.732   1.386   6.555
 8588SOL    HW226664   4.657   1.425   6.694
 8589SOL     OW26665   6.285   2.390   5.088
 8589SOL    HW126666   6.282   2.418   4.992
 8589SOL    HW226667   6.295   2.470   5.147
 8590SOL     OW26668   0.337   0.600   2.361
 8590SOL    HW126669   0.335   0.538   2.440
 8590SOL    HW226670   0.343   0.695   2.394
 8591SOL     OW26671   0.156   3.906   0.087
 8591SOL    HW126672   0.056   3.900   0.094
 8591SOL    HW226673   0.183   3.907   7.009
 8592SOL     OW26674   5.596   1.986   6.868
 8592SOL    HW126675   5.606   1.935   6.953
 8592SOL    HW226676   5.506   1.968   6.828
 8593SOL     OW26677   3.379   1.008   6.821
 8593SOL    HW126678   3.367   1.058   6.907
 8593SOL    HW226679   3.359   1.069   6.744
 8594SOL     OW26680   5.476   2.366   5.353
 8594SOL    HW126681   5.444   2.460   5.345
 8594SOL    HW226682   5.575   2.363   5.339
 8595SOL     OW26683   6.750   1.216   3.984
 8595SOL    HW126684   6.775   1.125   4.014
 8595SOL    HW226685   6.650   1.222   3.976
 8596SOL     OW26686   1.192   4.659   3.031
 8596SOL    HW126687   1.212   4.654   3.129
 8596SOL    HW226688   1.151   4.574   3.001
 8597SOL     OW26689   5.366   1.537   2.113
 8597SOL    HW126690   5.303   1.587   2.172
 8597SOL    HW226691   5.368   1.580   2.022
 8598SOL     OW26692   5.609   0.667   6.517
 8598SOL    HW126693   5.664   0.609   6.577
 8598SOL    HW226694   5.595   0.621   6.429
 8599SOL     OW26695   1.869   2.497   4.530
 8599SOL    HW126696   1.804   2.555   4.579
 8599SOL    HW226697   1.957   2.542   4.524
 8600SOL     OW26698   5.182   3.828   0.125
 8600SOL    HW126699   5.180   3.778   0.212
 8600SOL    HW226700   5.117   3.904   0.129
 8601SOL     OW26701   0.585   1.680   3.914
 8601SOL    HW126702   0.576   1.679   3.815
 8601SOL    HW226703   0.521   1.614   3.953
 8602SOL     OW26704   3.038   6.760   2.491
 8602SOL    HW126705   2.942   6.747   2.516
 8602SOL    HW226706   3.051   6.734   2.396
 8603SOL     OW26707   5.056   6.651   1.153
 8603SOL    HW126708   5.027   6.695   1.068
 8603SOL    HW226709   5.154   6.630   1.147
 8604SOL     OW26710   1.138   2.374   5.726
 8604SOL    HW126711   1.061   2.410   5.779
 8604SOL    HW226712   1.223   2.392   5.775
 8605SOL     OW26713   2.220   5.513   3.987
 8605SOL    HW126714   2.281   5.490   3.911
 8605SOL    HW226715   2.245   5.604   4.023
 8606SOL     OW26716   1.823   2.638   6.766
 8606SOL    HW126717   1.798   2.545   6.740
 8606SOL    HW226718   1.758   2.673   6.833
 8607SOL     OW26719   2.815   4.640   6.264
 8607SOL    HW126720   2.839   4.562   6.207
 8607SOL    HW226721   2.897   4.673   6.311
 8608SOL     OW26722   2.282   4.844   2.922
 8608SOL    HW126723   2.193   4.801   2.910
 8608SOL    HW226724   2.311   4.884   2.835
 8609SOL     OW26725   5.048   0.522   3.348
 8609SOL    HW126726   5.014   0.516   3.442
 8609SOL    HW226727   4.970   0.533   3.286
 8610SOL     OW26728   0.416   1.144   2.942
 8610SOL    HW126729   0.387   1.227   2.989
 8610SOL    HW226730   0.442   1.166   2.848
 8611SOL     OW26731   3.055   1.656   4.212
 8611SOL    HW126732   2.992   1.716   4.164
 8611SOL    HW226733   3.149   1.691   4.203
 8612SOL     OW26734   2.796   3.359   0.902
 8612SOL    HW126735   2.848   3.283   0.861
 8612SOL    HW226736   2.763   3.331   0.992
 8613SOL     OW26737   2.933   1.884   1.922
 8613SOL    HW126738   2.950   1.939   1.840
 8613SOL    HW226739   2.921   1.944   2.001
 8614SOL     OW26740   1.205   3.007   4.088
 8614SOL    HW126741   1.111   3.037   4.100
 8614SOL    HW226742   1.236   3.032   3.996
 8615SOL     OW26743   4.115   2.131   5.222
 8615SOL    HW126744   4.055   2.174   5.154
 8615SOL    HW226745   4.199   2.100   5.178
 8616SOL     OW26746   3.123   4.819   2.027
 8616SOL    HW126747   3.052   4.780   2.085
 8616SOL    HW226748   3.184   4.875   2.084
 8617SOL     OW26749   5.474   1.119   4.887
 8617SOL    HW126750   5.500   1.083   4.797
 8617SOL    HW226751   5.434   1.210   4.877
 8618SOL     OW26752   6.618   4.748   1.093
 8618SOL    HW126753   6.540   4.801   1.126
 8618SOL    HW226754   6.612   4.655   1.130
 8619SOL     OW26755   4.053   5.304   1.816
 8619SOL    HW126756   4.105   5.337   1.736
 8619SOL    HW226757   4.117   5.269   1.884
 8620SOL     OW26758   2.173   6.010   3.267
 8620SOL    HW126759   2.084   5.983   3.233
 8620SOL    HW226760   2.178   5.994   3.366
 8621SOL     OW26761   5.343   2.306   2.280
 8621SOL    HW126762   5.273   2.342   2.341
 8621SOL    HW226763   5.348   2.207   2.289
 8622SOL     OW26764   4.891   4.130   1.450
 8622SOL    HW126765   4.835   4.066   1.502
 8622SOL    HW226766   4.893   4.219   1.497
 8623SOL     OW26767   0.785   4.173   5.563
 8623SOL    HW126768   0.856   4.159   5.495
 8623SOL    HW226769   0.706   4.115   5.542
 8624SOL     OW26770   2.036   3.757   5.022
 8624SOL    HW126771   2.028   3.695   5.099
 8624SOL    HW226772   1.991   3.718   4.942
 8625SOL     OW26773   4.971   0.999   5.588
 8625SOL    HW126774   4.971   1.081   5.647
 8625SOL    HW226775   4.879   0.961   5.584
 8626SOL     OW26776   4.002   2.272   6.684
 8626SOL    HW126777   4.000   2.351   6.623
 8626SOL    HW226778   3.912   2.261   6.727
 8627SOL     OW26779   1.829   1.547   2.227
 8627SOL    HW126780   1.758   1.487   2.262
 8627SOL    HW226781   1.806   1.574   2.133
 8628SOL     OW26782   6.068   6.690   0.459
 8628SOL    HW126783   6.161   6.653   0.450
 8628SOL    HW226784   6.023   6.687   0.370
 8629SOL     OW26785   1.490   6.649   4.897
 8629SOL    HW126786   1.585   6.628   4.879
 8629SOL    HW226787   1.482   6.745   4.924
 8630SOL     OW26788   4.952   2.736   3.926
 8630SOL    HW126789   4.926   2.805   3.994
 8630SOL    HW226790   4.880   2.667   3.919
 8631SOL     OW26791   1.198   5.547   6.585
 8631SOL    HW126792   1.178   5.523   6.490
 8631SOL    HW226793   1.115   5.580   6.629
 8632SOL     OW26794   3.956   5.005   5.415
 8632SOL    HW126795   3.954   4.914   5.457
 8632SOL    HW226796   4.003   4.999   5.326
 8633SOL     OW26797   5.685   2.629   6.134
 8633SOL    HW126798   5.689   2.685   6.052
 8633SOL    HW226799   5.765   2.648   6.191
 8634SOL     OW26800   5.486   4.142   6.630
 8634SOL    HW126801   5.537   4.226   6.612
 8634SOL    HW226802   5.399   4.164   6.674
 8635SOL     OW26803   5.319   3.111   6.710
 8635SOL    HW126804   5.306   3.012   6.702
 8635SOL    HW226805   5.299   3.140   6.803
 8636SOL     OW26806   5.549   5.651   0.555
 8636SOL    HW126807   5.557   5.711   0.634
 8636SOL    HW226808   5.542   5.706   0.472
 8637SOL     OW26809   2.178   1.212   6.737
 8637SOL    HW126810   2.083   1.222   6.706
 8637SOL    HW226811   2.240   1.222   6.659
 8638SOL     OW26812   3.688   2.069   4.857
 8638SOL    HW126813   3.598   2.078   4.900
 8638SOL    HW226814   3.679   2.076   4.758
 8639SOL     OW26815   5.249   2.834   0.266
 8639SOL    HW126816   5.282   2.851   0.359
 8639SOL    HW226817   5.307   2.766   0.221
 8640SOL     OW26818   4.069   3.399   6.524
 8640SOL    HW126819   4.036   3.306   6.506
 8640SOL    HW226820   4.005   3.465   6.485
 8641SOL     OW26821   4.162   4.764   4.020
 8641SOL    HW126822   4.211   4.826   3.960
 8641SOL    HW226823   4.226   4.697   4.058
 8642SOL     OW26824   0.919   6.506   4.244
 8642SOL    HW126825   0.956   6.579   4.300
 8642SOL    HW226826   0.830   6.533   4.208
 8643SOL     OW26827   2.305   0.779   6.458
 8643SOL    HW126828   2.308   0.681   6.440
 8643SOL    HW226829   2.369   0.826   6.397
 8644SOL     OW26830   5.504   2.329   5.951
 8644SOL    HW126831   5.444   2.324   5.871
 8644SOL    HW226832   5.559   2.412   5.946
 8645SOL     OW26833   4.171   4.738   1.173
 8645SOL    HW126834   4.193   4.641   1.156
 8645SOL    HW226835   4.072   4.750   1.168
 8646SOL     OW26836   0.248   1.935   6.876
 8646SOL    HW126837   0.245   2.012   6.812
 8646SOL    HW226838   0.315   1.954   6.948
 8647SOL     OW26839   2.223   4.880   6.763
 8647SOL    HW126840   2.304   4.821   6.757
 8647SOL    HW226841   2.152   4.834   6.817
 8648SOL     OW26842   7.010   0.460   2.546
 8648SOL    HW126843   0.020   0.537   2.604
 8648SOL    HW226844   6.973   0.495   2.460
 8649SOL     OW26845   5.457   5.766   6.726
 8649SOL    HW126846   5.384   5.807   6.671
 8649SOL    HW226847   5.523   5.722   6.666
 8650SOL     OW26848   1.228   5.545   4.870
 8650SOL    HW126849   1.289   5.556   4.792
 8650SOL    HW226850   1.267   5.590   4.950
 8651SOL     OW26851   4.218   0.831   0.479
 8651SOL    HW126852   4.290   0.775   0.521
 8651SOL    HW226853   4.149   0.853   0.547
 8652SOL     OW26854   1.543   4.900   3.311
 8652SOL    HW126855   1.491   4.826   3.352
 8652SOL    HW226856   1.492   4.939   3.234
 8653SOL     OW26857   0.126   1.066   6.110
 8653SOL    HW126858   0.199   1.005   6.080
 8653SOL    HW226859   0.161   1.128   6.180
 8654SOL     OW26860   0.737   5.054   1.650
 8654SOL    HW126861   0.706   4.961   1.631
 8654SOL    HW226862   0.803   5.083   1.581
 8655SOL     OW26863   6.213   0.406   4.384
 8655SOL    HW126864   6.202   0.478   4.453
 8655SOL    HW226865   6.212   0.316   4.429
 8656SOL     OW26866   6.606   0.822   1.994
 8656SOL    HW126867   6.703   0.840   2.013
 8656SOL    HW226868   6.584   0.853   1.902
 8657SOL     OW26869   5.295   6.003   0.053
 8657SOL    HW126870   5.394   5.990   0.050
 8657SOL    HW226871   5.274   6.101   0.054
 8658SOL     OW26872   6.304   6.521   0.437
 8658SOL    HW126873   6.343   6.510   0.529
 8658SOL    HW226874   6.304   6.433   0.391
 8659SOL     OW26875   4.834   2.328   2.087
 8659SOL    HW126876   4.812   2.356   1.994
 8659SOL    HW226877   4.764   2.364   2.149
 8660SOL     OW26878   7.013   3.460   1.674
 8660SOL    HW126879   7.002   3.515   1.757
 8660SOL    HW226880   0.085   3.416   1.674
 8661SOL     OW26881   6.670   3.841   1.136
 8661SOL    HW126882   6.635   3.791   1.215
 8661SOL    HW226883   6.760   3.805   1.111
 8662SOL     OW26884   4.524   5.627   1.465
 8662SOL    HW126885   4.563   5.644   1.555
 8662SOL    HW226886   4.443   5.684   1.453
 8663SOL     OW26887   2.597   5.430   2.600
 8663SOL    HW126888   2.666   5.358   2.597
 8663SOL    HW226889   2.599   5.474   2.690
 8664SOL     OW26890   2.195   5.052   1.561
 8664SOL    HW126891   2.240   5.126   1.512
 8664SOL    HW226892   2.262   4.981   1.583
 8665SOL     OW26893   5.469   5.358   4.668
 8665SOL    HW126894   5.382   5.322   4.634
 8665SOL    HW226895   5.454   5.449   4.707
 8666SOL     OW26896   5.549   1.152   3.661
 8666SOL    HW126897   5.606   1.080   3.702
 8666SOL    HW226898   5.607   1.225   3.627
 8667SOL     OW26899   4.412   1.617   4.529
 8667SOL    HW126900   4.446   1.705   4.497
 8667SOL    HW226901   4.468   1.586   4.606
 8668SOL     OW26902   5.476   3.748   3.596
 8668SOL    HW126903   5.417   3.778   3.521
 8668SOL    HW226904   5.506   3.655   3.580
 8669SOL     OW26905   0.325   6.613   0.019
 8669SOL    HW126906   0.349   6.677   0.092
 8669SOL    HW226907   0.336   6.520   0.052
 8670SOL     OW26908   4.223   5.507   6.380
 8670SOL    HW126909   4.314   5.514   6.421
 8670SOL    HW226910   4.153   5.511   6.451
 8671SOL     OW26911   6.833   1.593   3.381
 8671SOL    HW126912   6.786   1.536   3.448
 8671SOL    HW226913   6.806   1.688   3.392
 8672SOL     OW26914   0.570   5.539   3.927
 8672SOL    HW126915   0.477   5.519   3.956
 8672SOL    HW226916   0.575   5.542   3.828
 8673SOL     OW26917   5.866   1.804   0.152
 8673SOL    HW126918   5.915   1.758   0.078
 8673SOL    HW226919   5.910   1.893   0.170
 8674SOL     OW26920   5.951   5.376   2.849
 8674SOL    HW126921   5.876   5.322   2.809
 8674SOL    HW226922   5.990   5.326   2.926
 8675SOL     OW26923   4.268   1.615   5.084
 8675SOL    HW126924   4.265   1.694   5.145
 8675SOL    HW226925   4.246   1.644   4.991
 8676SOL     OW26926   5.216   6.794   3.125
 8676SOL    HW126927   5.148   6.825   3.192
 8676SOL    HW226928   5.177   6.798   3.033
 8677SOL     OW26929   2.095   5.599   6.453
 8677SOL    HW126930   2.101   5.650   6.367
 8677SOL    HW226931   2.168   5.531   6.456
 8678SOL     OW26932   1.079   0.592   0.871
 8678SOL    HW126933   1.160   0.534   0.867
 8678SOL    HW226934   1.076   0.652   0.791
 8679SOL     OW26935   0.733   1.275   3.465
 8679SOL    HW126936   0.698   1.289   3.557
 8679SOL    HW226937   0.661   1.236   3.407
 8680SOL     OW26938   6.141   4.010   0.191
 8680SOL    HW126939   6.044   4.021   0.213
 8680SOL    HW226940   6.184   3.950   0.259
 8681SOL     OW26941   4.877   5.523   1.311
 8681SOL    HW126942   4.796   5.470   1.337
 8681SOL    HW226943   4.865   5.618   1.339
 8682SOL     OW26944   6.135   6.993   2.756
 8682SOL    HW126945   6.124   6.975   2.854
 8682SOL    HW226946   6.076   6.930   2.705
 8683SOL     OW26947   1.498   2.271   5.393
 8683SOL    HW126948   1.522   2.189   5.445
 8683SOL    HW226949   1.493   2.248   5.296
 8684SOL     OW26950   5.830   3.166   4.511
 8684SOL    HW126951   5.837   3.116   4.425
 8684SOL    HW226952   5.816   3.263   4.492
 8685SOL     OW26953   5.656   2.348   6.204
 8685SOL    HW126954   5.557   2.338   6.203
 8685SOL    HW226955   5.681   2.440   6.172
 8686SOL     OW26956   6.876   0.888   2.018
 8686SOL    HW126957   6.895   0.793   1.994
 8686SOL    HW226958   6.886   0.900   2.117
 8687SOL     OW26959   5.329   5.060   2.378
 8687SOL    HW126960   5.329   5.120   2.298
 8687SOL    HW226961   5.334   5.115   2.462
 8688SOL     OW26962   1.095   5.140   6.555
 8688SOL    HW126963   1.111   5.218   6.615
 8688SOL    HW226964   1.166   5.136   6.485
 8689SOL     OW26965   3.993   2.253   0.968
 8689SOL    HW126966   3.894   2.264   0.977
 8689SOL    HW226967   4.031   2.331   0.920
 8690SOL     OW26968   1.490   3.677   4.326
 8690SOL    HW126969   1.542   3.605   4.281
 8690SOL    HW226970   1.544   3.716   4.400
 8691SOL     OW26971   4.137   1.947   6.137
 8691SOL    HW126972   4.230   1.977   6.114
 8691SOL    HW226973   4.071   2.014   6.104
 8692SOL     OW26974   3.115   1.198   3.933
 8692SOL    HW126975   3.156   1.282   3.969
 8692SOL    HW226976   3.187   1.141   3.893
 8693SOL     OW26977   5.995   0.015   0.385
 8693SOL    HW126978   6.080   6.998   0.345
 8693SOL    HW226979   6.003   0.015   0.484
 8694SOL     OW26980   5.350   1.221   4.575
 8694SOL    HW126981   5.296   1.234   4.657
 8694SOL    HW226982   5.302   1.259   4.496
 8695SOL     OW26983   4.414   3.461   6.071
 8695SOL    HW126984   4.382   3.489   6.162
 8695SOL    HW226985   4.432   3.543   6.016
 8696SOL     OW26986   2.363   5.486   5.296
 8696SOL    HW126987   2.400   5.439   5.376
 8696SOL    HW226988   2.358   5.584   5.313
 8697SOL     OW26989   0.339   4.300   6.609
 8697SOL    HW126990   0.244   4.272   6.602
 8697SOL    HW226991   0.347   4.377   6.673
 8698SOL     OW26992   4.905   5.944   5.143
 8698SOL    HW126993   4.988   5.887   5.142
 8698SOL    HW226994   4.927   6.035   5.107
 8699SOL     OW26995   1.679   3.043   4.608
 8699SOL    HW126996   1.724   3.132   4.597
 8699SOL    HW226997   1.613   3.030   4.534
 8700SOL     OW26998   0.985   0.575   4.736
 8700SOL    HW126999   0.960   0.670   4.750
 8700SOL    HW227000   1.084   0.564   4.748
 8701SOL     OW27001   1.360   1.684   0.280
 8701SOL    HW127002   1.311   1.759   0.236
 8701SOL    HW227003   1.310   1.656   0.363
 8702SOL     OW27004   5.135   5.088   1.937
 8702SOL    HW127005   5.213   5.025   1.943
 8702SOL    HW227006   5.165   5.173   1.892
 8703SOL     OW27007   3.030   4.802   6.937
 8703SOL    HW127008   3.114   4.835   6.981
 8703SOL    HW227009   2.965   4.877   6.929
 8704SOL     OW27010   0.434   4.173   3.492
 8704SOL    HW127011   0.343   4.196   3.460
 8704SOL    HW227012   0.499   4.182   3.417
 8705SOL     OW27013   5.060   1.872   6.163
 8705SOL    HW127014   5.055   1.887   6.064
 8705SOL    HW227015   5.069   1.960   6.210
 8706SOL     OW27016   4.978   2.037   0.257
 8706SOL    HW127017   4.882   2.050   0.233
 8706SOL    HW227018   4.996   2.081   0.345
 8707SOL     OW27019   0.537   1.712   4.891
 8707SOL    HW127020   0.457   1.656   4.915
 8707SOL    HW227021   0.596   1.662   4.829
 8708SOL     OW27022   4.194   1.983   3.846
 8708SOL    HW127023   4.107   1.950   3.810
 8708SOL    HW227024   4.258   1.906   3.854
 8709SOL     OW27025   6.762   0.116   6.806
 8709SOL    HW127026   6.822   0.186   6.767
 8709SOL    HW227027   6.707   0.075   6.733
 8710SOL     OW27028   2.009   2.986   3.187
 8710SOL    HW127029   1.936   2.987   3.119
 8710SOL    HW227030   1.970   2.987   3.279
 8711SOL     OW27031   2.109   6.550   2.973
 8711SOL    HW127032   2.040   6.478   2.975
 8711SOL    HW227033   2.157   6.549   2.885
 8712SOL     OW27034   3.564   1.706   4.252
 8712SOL    HW127035   3.655   1.668   4.232
 8712SOL    HW227036   3.571   1.768   4.331
 8713SOL     OW27037   6.965   3.285   2.034
 8713SOL    HW127038   6.909   3.239   2.103
 8713SOL    HW227039   6.916   3.285   1.947
 8714SOL     OW27040   1.399   0.271   5.379
 8714SOL    HW127041   1.299   0.274   5.371
 8714SOL    HW227042   1.424   0.265   5.475
 8715SOL     OW27043   3.940   0.950   0.821
 8715SOL    HW127044   4.012   1.006   0.862
 8715SOL    HW227045   3.880   0.915   0.892
 8716SOL     OW27046   0.330   6.315   0.128
 8716SOL    HW127047   0.342   6.329   0.226
 8716SOL    HW227048   0.251   6.257   0.112
 8717SOL     OW27049   3.110   3.756   5.276
 8717SOL    HW127050   3.032   3.802   5.235
 8717SOL    HW227051   3.122   3.788   5.370
 8718SOL     OW27052   1.354   2.400   5.867
 8718SOL    HW127053   1.339   2.310   5.908
 8718SOL    HW227054   1.370   2.467   5.939
 8719SOL     OW27055   3.496   0.341   0.198
 8719SOL    HW127056   3.572   0.288   0.235
 8719SOL    HW227057   3.462   0.405   0.267
 8720SOL     OW27058   1.145   6.320   6.292
 8720SOL    HW127059   1.051   6.303   6.321
 8720SOL    HW227060   1.208   6.292   6.364
 8721SOL     OW27061   6.794   1.896   1.143
 8721SOL    HW127062   6.867   1.963   1.127
 8721SOL    HW227063   6.761   1.904   1.237
 8722SOL     OW27064   3.147   1.253   1.490
 8722SOL    HW127065   3.114   1.344   1.466
 8722SOL    HW227066   3.110   1.227   1.579
 8723SOL     OW27067   5.190   6.710   1.849
 8723SOL    HW127068   5.174   6.795   1.898
 8723SOL    HW227069   5.187   6.726   1.751
 8724SOL     OW27070   5.617   6.752   4.025
 8724SOL    HW127071   5.562   6.823   4.069
 8724SOL    HW227072   5.641   6.780   3.933
 8725SOL     OW27073   2.013   5.616   5.703
 8725SOL    HW127074   1.933   5.675   5.718
 8725SOL    HW227075   2.021   5.594   5.605
 8726SOL     OW27076   0.093   0.766   2.557
 8726SOL    HW127077   0.154   0.801   2.486
 8726SOL    HW227078   0.030   0.839   2.585
 8727SOL     OW27079   6.428   0.331   1.253
 8727SOL    HW127080   6.483   0.340   1.170
 8727SOL    HW227081   6.482   0.287   1.325
 8728SOL     OW27082   5.978   0.782   1.967
 8728SOL    HW127083   5.980   0.734   2.054
 8728SOL    HW227084   5.931   0.870   1.979
 8729SOL     OW27085   3.252   4.793   5.695
 8729SOL    HW127086   3.316   4.869   5.700
 8729SOL    HW227087   3.159   4.827   5.710
 8730SOL     OW27088   5.081   4.073   2.678
 8730SOL    HW127089   5.157   4.018   2.712
 8730SOL    HW227090   5.018   4.015   2.625
 8731SOL     OW27091   0.648   3.531   3.270
 8731SOL    HW127092   0.724   3.585   3.306
 8731SOL    HW227093   0.656   3.525   3.170
 8732SOL     OW27094   5.804   4.898   1.843
 8732SOL    HW127095   5.870   4.957   1.889
 8732SOL    HW227096   5.718   4.948   1.832
 8733SOL     OW27097   1.202   5.597   0.892
 8733SOL    HW127098   1.248   5.531   0.951
 8733SOL    HW227099   1.160   5.668   0.948
 8734SOL     OW27100   0.847   3.080   3.329
 8734SOL    HW127101   0.924   3.082   3.392
 8734SOL    HW227102   0.777   3.144   3.359
 8735SOL     OW27103   0.594   2.743   6.176
 8735SOL    HW127104   0.516   2.682   6.159
 8735SOL    HW227105   0.592   2.773   6.272
 8736SOL     OW27106   0.142   5.550   1.935
 8736SOL    HW127107   0.053   5.595   1.931
 8736SOL    HW227108   0.208   5.610   1.981
 8737SOL     OW27109   1.782   6.274   0.382
 8737SOL    HW127110   1.748   6.189   0.423
 8737SOL    HW227111   1.713   6.309   0.318
 8738SOL     OW27112   2.579   5.737   3.817
 8738SOL    HW127113   2.620   5.736   3.725
 8738SOL    HW227114   2.573   5.831   3.849
 8739SOL     OW27115   5.486   5.555   5.890
 8739SOL    HW127116   5.398   5.513   5.910
 8739SOL    HW227117   5.540   5.560   5.974
 8740SOL     OW27118   4.093   1.348   3.906
 8740SOL    HW127119   4.176   1.307   3.945
 8740SOL    HW227120   4.103   1.447   3.903
 8741SOL     OW27121   2.327   0.825   2.849
 8741SOL    HW127122   2.310   0.837   2.751
 8741SOL    HW227123   2.403   0.760   2.862
 8742SOL     OW27124   4.831   0.549   1.713
 8742SOL    HW127125   4.825   0.450   1.697
 8742SOL    HW227126   4.743   0.583   1.744
 8743SOL     OW27127   1.473   0.445   1.424
 8743SOL    HW127128   1.373   0.446   1.427
 8743SOL    HW227129   1.510   0.512   1.489
 8744SOL     OW27130   4.363   2.703   0.536
 8744SOL    HW127131   4.418   2.621   0.553
 8744SOL    HW227132   4.415   2.784   0.562
 8745SOL     OW27133   6.040   1.743   6.385
 8745SOL    HW127134   6.119   1.699   6.429
 8745SOL    HW227135   5.996   1.678   6.323
 8746SOL     OW27136   5.419   5.860   4.568
 8746SOL    HW127137   5.468   5.934   4.524
 8746SOL    HW227138   5.426   5.777   4.513
 8747SOL     OW27139   0.516   1.583   2.710
 8747SOL    HW127140   0.465   1.587   2.624
 8747SOL    HW227141   0.613   1.569   2.691
 8748SOL     OW27142   0.333   1.551   4.961
 8748SOL    HW127143   0.249   1.538   5.014
 8748SOL    HW227144   0.333   1.489   4.882
 8749SOL     OW27145   1.737   0.268   5.563
 8749SOL    HW127146   1.699   0.214   5.638
 8749SOL    HW227147   1.833   0.288   5.581
 8750SOL     OW27148   3.470   3.675   5.854
 8750SOL    HW127149   3.518   3.761   5.874
 8750SOL    HW227150   3.486   3.611   5.929
 8751SOL     OW27151   6.823   1.771   2.424
 8751SOL    HW127152   6.845   1.797   2.330
 8751SOL    HW227153   6.907   1.760   2.476
 8752SOL     OW27154   3.556   2.896   6.796
 8752SOL    HW127155   3.571   2.797   6.793
 8752SOL    HW227156   3.525   2.927   6.707
 8753SOL     OW27157   2.855   2.135   6.388
 8753SOL    HW127158   2.833   2.233   6.394
 8753SOL    HW227159   2.847   2.105   6.293
 8754SOL     OW27160   2.043   4.539   5.527
 8754SOL    HW127161   2.045   4.483   5.444
 8754SOL    HW227162   2.135   4.541   5.568
 8755SOL     OW27163   2.053   0.609   1.033
 8755SOL    HW127164   1.975   0.671   1.025
 8755SOL    HW227165   2.138   0.659   1.016
 8756SOL     OW27166   2.103   3.353   3.226
 8756SOL    HW127167   2.089   3.346   3.127
 8756SOL    HW227168   2.160   3.433   3.245
 8757SOL     OW27169   4.513   5.494   0.007
 8757SOL    HW127170   4.605   5.468   6.996
 8757SOL    HW227171   4.498   5.463   0.101
 8758SOL     OW27172   4.588   6.292   2.765
 8758SOL    HW127173   4.669   6.318   2.816
 8758SOL    HW227174   4.521   6.250   2.826
 8759SOL     OW27175   5.470   3.163   0.146
 8759SOL    HW127176   5.492   3.109   0.227
 8759SOL    HW227177   5.488   3.108   0.064
 8760SOL     OW27178   2.563   0.869   4.519
 8760SOL    HW127179   2.492   0.818   4.567
 8760SOL    HW227180   2.527   0.904   4.432
 8761SOL     OW27181   6.039   2.089   1.297
 8761SOL    HW127182   6.018   2.042   1.212
 8761SOL    HW227183   6.053   2.186   1.279
 8762SOL     OW27184   0.578   5.185   4.691
 8762SOL    HW127185   0.652   5.208   4.628
 8762SOL    HW227186   0.551   5.090   4.677
 8763SOL     OW27187   6.050   0.111   5.683
 8763SOL    HW127188   5.954   0.137   5.694
 8763SOL    HW227189   6.103   0.191   5.654
 8764SOL     OW27190   4.262   6.506   5.753
 8764SOL    HW127191   4.167   6.512   5.785
 8764SOL    HW227192   4.276   6.569   5.676
 8765SOL     OW27193   4.916   0.714   4.170
 8765SOL    HW127194   4.924   0.632   4.226
 8765SOL    HW227195   4.853   0.696   4.095
 8766SOL     OW27196   4.354   4.247   5.273
 8766SOL    HW127197   4.335   4.338   5.236
 8766SOL    HW227198   4.331   4.178   5.204
 8767SOL     OW27199   5.351   6.819   2.702
 8767SOL    HW127200   5.286   6.770   2.760
 8767SOL    HW227201   5.311   6.906   2.673
 8768SOL     OW27202   1.032   2.754   0.269
 8768SOL    HW127203   1.008   2.851   0.275
 8768SOL    HW227204   1.084   2.739   0.184
 8769SOL     OW27205   6.896   1.300   3.168
 8769SOL    HW127206   6.848   1.310   3.081
 8769SOL    HW227207   6.830   1.279   3.240
 8770SOL     OW27208   4.602   4.346   2.224
 8770SOL    HW127209   4.540   4.273   2.252
 8770SOL    HW227210   4.570   4.388   2.139
 8771SOL     OW27211   1.028   1.798   6.286
 8771SOL    HW127212   1.028   1.847   6.199
 8771SOL    HW227213   1.122   1.783   6.316
 8772SOL     OW27214   4.535   0.227   6.447
 8772SOL    HW127215   4.442   0.245   6.412
 8772SOL    HW227216   4.564   0.304   6.503
 8773SOL     OW27217   5.794   2.626   3.291
 8773SOL    HW127218   5.764   2.710   3.246
 8773SOL    HW227219   5.716   2.582   3.336
 8774SOL     OW27220   1.329   0.374   0.364
 8774SOL    HW127221   1.354   0.468   0.339
 8774SOL    HW227222   1.251   0.376   0.426
 8775SOL     OW27223   5.457   0.941   6.081
 8775SOL    HW127224   5.397   1.006   6.033
 8775SOL    HW227225   5.412   0.911   6.165
 8776SOL     OW27226   4.705   3.456   1.091
 8776SOL    HW127227   4.741   3.364   1.104
 8776SOL    HW227228   4.634   3.454   1.020
 8777SOL     OW27229   6.841   4.457   3.402
 8777SOL    HW127230   6.906   4.384   3.427
 8777SOL    HW227231   6.752   4.416   3.380
 8778SOL     OW27232   4.876   2.765   5.725
 8778SOL    HW127233   4.963   2.791   5.765
 8778SOL    HW227234   4.802   2.789   5.788
 8779SOL     OW27235   2.714   6.011   2.444
 8779SOL    HW127236   2.709   6.031   2.346
 8779SOL    HW227237   2.746   5.918   2.457
 8780SOL     OW27238   6.936   0.244   2.731
 8780SOL    HW127239   6.946   0.314   2.660
 8780SOL    HW227240   7.000   0.262   2.805
 8781SOL     OW27241   4.719   0.423   3.732
 8781SOL    HW127242   4.703   0.326   3.751
 8781SOL    HW227243   4.697   0.478   3.813
 8782SOL     OW27244   6.756   0.818   1.505
 8782SOL    HW127245   6.749   0.906   1.552
 8782SOL    HW227246   6.666   0.775   1.502
 8783SOL     OW27247   6.850   4.076   3.176
 8783SOL    HW127248   6.791   4.131   3.117
 8783SOL    HW227249   6.814   4.075   3.269
 8784SOL     OW27250   6.992   6.517   6.138
 8784SOL    HW127251   6.989   6.440   6.074
 8784SOL    HW227252   6.944   6.492   6.222
 8785SOL     OW27253   6.200   5.364   6.816
 8785SOL    HW127254   6.143   5.283   6.819
 8785SOL    HW227255   6.291   5.340   6.781
 8786SOL     OW27256   2.881   1.432   1.130
 8786SOL    HW127257   2.942   1.496   1.084
 8786SOL    HW227258   2.792   1.431   1.083
 8787SOL     OW27259   2.903   1.136   2.243
 8787SOL    HW127260   2.874   1.220   2.289
 8787SOL    HW227261   3.002   1.141   2.226
 8788SOL     OW27262   6.950   1.240   5.186
 8788SOL    HW127263   0.019   1.203   5.152
 8788SOL    HW227264   6.954   1.247   5.286
 8789SOL     OW27265   6.515   5.278   5.452
 8789SOL    HW127266   6.575   5.294   5.373
 8789SOL    HW227267   6.433   5.230   5.421
 8790SOL     OW27268   6.023   0.715   6.432
 8790SOL    HW127269   6.072   0.797   6.401
 8790SOL    HW227270   5.991   0.664   6.352
 8791SOL     OW27271   4.983   6.822   5.237
 8791SOL    HW127272   5.010   6.811   5.142
 8791SOL    HW227273   5.002   6.737   5.287
 8792SOL     OW27274   3.164   4.873   2.998
 8792SOL    HW127275   3.215   4.870   3.084
 8792SOL    HW227276   3.228   4.885   2.922
 8793SOL     OW27277   0.533   5.032   2.720
 8793SOL    HW127278   0.552   5.038   2.622
 8793SOL    HW227279   0.511   5.122   2.756
 8794SOL     OW27280   5.530   0.631   3.202
 8794SOL    HW127281   5.586   0.713   3.188
 8794SOL    HW227282   5.572   0.574   3.272
 8795SOL     OW27283   1.206   4.562   5.654
 8795SOL    HW127284   1.147   4.485   5.681
 8795SOL    HW227285   1.216   4.625   5.730
 8796SOL     OW27286   5.174   2.732   3.070
 8796SOL    HW127287   5.093   2.755   3.017
 8796SOL    HW227288   5.151   2.727   3.167
 8797SOL     OW27289   0.068   6.883   5.939
 8797SOL    HW127290   0.051   6.982   5.944
 8797SOL    HW227291   0.011   6.837   6.007
 8798SOL     OW27292   4.669   6.236   6.868
 8798SOL    HW127293   4.605   6.312   6.851
 8798SOL    HW227294   4.624   6.150   6.845
 8799SOL     OW27295   2.408   4.877   3.701
 8799SOL    HW127296   2.311   4.892   3.679
 8799SOL    HW227297   2.420   4.878   3.800
 8800SOL     OW27298   5.248   4.901   6.366
 8800SOL    HW127299   5.307   4.913   6.286
 8800SOL    HW227300   5.237   4.989   6.413
 8801SOL     OW27301   6.054   1.491   4.663
 8801SOL    HW127302   6.088   1.413   4.715
 8801SOL    HW227303   5.977   1.463   4.606
 8802SOL     OW27304   1.807   5.810   5.997
 8802SOL    HW127305   1.880   5.856   5.947
 8802SOL    HW227306   1.833   5.801   6.093
 8803SOL     OW27307   6.848   0.273   0.369
 8803SOL    HW127308   6.869   0.179   0.340
 8803SOL    HW227309   6.916   0.304   0.436
 8804SOL     OW27310   2.417   6.186   1.257
 8804SOL    HW127311   2.346   6.253   1.234
 8804SOL    HW227312   2.411   6.108   1.194
 8805SOL     OW27313   3.545   5.760   3.346
 8805SOL    HW127314   3.474   5.810   3.295
 8805SOL    HW227315   3.547   5.665   3.315
 8806SOL     OW27316   2.816   4.948   1.008
 8806SOL    HW127317   2.833   5.046   1.001
 8806SOL    HW227318   2.782   4.927   1.100
 8807SOL     OW27319   4.707   1.260   0.119
 8807SOL    HW127320   4.621   1.234   0.075
 8807SOL    HW227321   4.741   1.344   0.078
 8808SOL     OW27322   6.543   2.370   6.204
 8808SOL    HW127323   6.551   2.435   6.127
 8808SOL    HW227324   6.615   2.301   6.197
 8809SOL     OW27325   2.714   4.813   3.392
 8809SOL    HW127326   2.799   4.764   3.410
 8809SOL    HW227327   2.729   4.911   3.400
 8810SOL     OW27328   5.856   0.131   4.836
 8810SOL    HW127329   5.826   0.048   4.882
 8810SOL    HW227330   5.906   0.189   4.900
 8811SOL     OW27331   3.034   0.685   3.187
 8811SOL    HW127332   3.117   0.704   3.240
 8811SOL    HW227333   3.056   0.688   3.090
 8812SOL     OW27334   2.391   0.446   0.325
 8812SOL    HW127335   2.442   0.368   0.360
 8812SOL    HW227336   2.295   0.422   0.315
 8813SOL     OW27337   1.864   5.432   3.082
 8813SOL    HW127338   1.784   5.492   3.090
 8813SOL    HW227339   1.909   5.424   3.171
 8814SOL     OW27340   6.189   0.126   0.619
 8814SOL    HW127341   6.219   0.109   0.525
 8814SOL    HW227342   6.093   0.102   0.628
 8815SOL     OW27343   5.743   6.954   1.379
 8815SOL    HW127344   5.822   6.984   1.327
 8815SOL    HW227345   5.659   6.982   1.331
 8816SOL     OW27346   1.113   6.662   6.728
 8816SOL    HW127347   1.056   6.598   6.678
 8816SOL    HW227348   1.116   6.636   6.825
 8817SOL     OW27349   6.986   3.997   3.449
 8817SOL    HW127350   7.009   4.006   3.352
 8817SOL    HW227351   6.889   3.973   3.459
 8818SOL     OW27352   1.466   5.580   3.757
 8818SOL    HW127353   1.389   5.636   3.789
 8818SOL    HW227354   1.468   5.494   3.808
 8819SOL     OW27355   6.116   4.970   5.425
 8819SOL    HW127356   6.201   5.021   5.414
 8819SOL    HW227357   6.088   4.971   5.521
 8820SOL     OW27358   2.690   0.786   5.453
 8820SOL    HW127359   2.645   0.711   5.405
 8820SOL    HW227360   2.759   0.750   5.516
 8821SOL     OW27361   1.507   5.669   0.785
 8821SOL    HW127362   1.423   5.626   0.749
 8821SOL    HW227363   1.483   5.731   0.859
 8822SOL     OW27364   0.632   0.594   3.386
 8822SOL    HW127365   0.621   0.633   3.295
 8822SOL    HW227366   0.648   0.668   3.452
 8823SOL     OW27367   2.130   1.258   2.350
 8823SOL    HW127368   2.038   1.258   2.389
 8823SOL    HW227369   2.127   1.300   2.258
 8824SOL     OW27370   1.392   1.329   0.470
 8824SOL    HW127371   1.471   1.287   0.426
 8824SOL    HW227372   1.395   1.428   0.457
 8825SOL     OW27373   1.272   1.405   1.729
 8825SOL    HW127374   1.353   1.438   1.682
 8825SOL    HW227375   1.209   1.481   1.745
 8826SOL     OW27376   1.156   3.627   1.142
 8826SOL    HW127377   1.126   3.674   1.226
 8826SOL    HW227378   1.168   3.694   1.069
 8827SOL     OW27379   4.226   0.245   2.947
 8827SOL    HW127380   4.130   0.247   2.976
 8827SOL    HW227381   4.254   0.150   2.933
 8828SOL     OW27382   4.135   4.900   6.778
 8828SOL    HW127383   4.100   4.897   6.871
 8828SOL    HW227384   4.146   4.807   6.744
 8829SOL     OW27385   5.593   1.760   1.234
 8829SOL    HW127386   5.530   1.751   1.158
 8829SOL    HW227387   5.542   1.781   1.318
 8830SOL     OW27388   2.194   1.613   2.653
 8830SOL    HW127389   2.279   1.662   2.673
 8830SOL    HW227390   2.168   1.628   2.558
 8831SOL     OW27391   5.488   2.559   3.081
 8831SOL    HW127392   5.488   2.659   3.089
 8831SOL    HW227393   5.581   2.525   3.093
 8832SOL     OW27394   6.095   5.991   3.743
 8832SOL    HW127395   6.116   6.085   3.716
 8832SOL    HW227396   6.073   5.989   3.841
 8833SOL     OW27397   3.326   4.655   6.523
 8833SOL    HW127398   3.372   4.594   6.458
 8833SOL    HW227399   3.264   4.601   6.580
 8834SOL     OW27400   5.548   3.582   4.329
 8834SOL    HW127401   5.479   3.531   4.279
 8834SOL    HW227402   5.632   3.587   4.274
 8835SOL     OW27403   5.190   0.669   6.081
 8835SOL    HW127404   5.100   0.703   6.108
 8835SOL    HW227405   5.198   0.671   5.981
 8836SOL     OW27406   4.648   1.424   0.948
 8836SOL    HW127407   4.744   1.431   0.920
 8836SOL    HW227408   4.642   1.383   1.039
 8837SOL     OW27409   0.272   0.137   2.705
 8837SOL    HW127410   0.191   0.092   2.666
 8837SOL    HW227411   0.245   0.186   2.788
 8838SOL     OW27412   1.818   4.365   3.632
 8838SOL    HW127413   1.824   4.399   3.726
 8838SOL    HW227414   1.904   4.322   3.606
 8839SOL     OW27415   4.219   6.334   2.225
 8839SOL    HW127416   4.281   6.413   2.233
 8839SOL    HW227417   4.154   6.335   2.300
 8840SOL     OW27418   6.950   0.846   2.301
 8840SOL    HW127419   6.963   0.778   2.374
 8840SOL    HW227420   6.884   0.915   2.332
 8841SOL     OW27421   6.445   1.808   4.094
 8841SOL    HW127422   6.375   1.771   4.155
 8841SOL    HW227423   6.407   1.884   4.042
 8842SOL     OW27424   3.224   3.644   3.461
 8842SOL    HW127425   3.311   3.692   3.469
 8842SOL    HW227426   3.150   3.710   3.445
 8843SOL     OW27427   2.108   3.249   3.902
 8843SOL    HW127428   2.125   3.332   3.850
 8843SOL    HW227429   2.155   3.172   3.858
 8844SOL     OW27430   6.478   1.627   4.755
 8844SOL    HW127431   6.386   1.622   4.714
 8844SOL    HW227432   6.481   1.569   4.836
 8845SOL     OW27433   2.354   3.912   0.830
 8845SOL    HW127434   2.345   3.843   0.758
 8845SOL    HW227435   2.275   3.907   0.890
 8846SOL     OW27436   3.426   4.922   4.381
 8846SOL    HW127437   3.338   4.916   4.428
 8846SOL    HW227438   3.500   4.914   4.448
 8847SOL     OW27439   2.725   1.099   3.074
 8847SOL    HW127440   2.703   1.060   2.984
 8847SOL    HW227441   2.730   1.026   3.142
 8848SOL     OW27442   3.193   2.153   2.391
 8848SOL    HW127443   3.149   2.226   2.338
 8848SOL    HW227444   3.254   2.100   2.331
 8849SOL     OW27445   3.575   5.431   3.120
 8849SOL    HW127446   3.578   5.441   3.219
 8849SOL    HW227447   3.635   5.356   3.092
 8850SOL     OW27448   2.332   0.789   6.967
 8850SOL    HW127449   2.342   0.830   6.876
 8850SOL    HW227450   2.235   0.771   6.984
 8851SOL     OW27451   0.862   5.012   2.087
 8851SOL    HW127452   0.869   4.912   2.095
 8851SOL    HW227453   0.918   5.055   2.158
 8852SOL     OW27454   4.412   4.128   5.783
 8852SOL    HW127455   4.467   4.081   5.852
 8852SOL    HW227456   4.338   4.179   5.828
 8853SOL     OW27457   3.407   0.582   6.099
 8853SOL    HW127458   3.473   0.507   6.105
 8853SOL    HW227459   3.450   0.666   6.132
 8854SOL     OW27460   3.273   1.471   6.160
 8854SOL    HW127461   3.222   1.440   6.080
 8854SOL    HW227462   3.265   1.570   6.170
 8855SOL     OW27463   6.676   6.089   0.264
 8855SOL    HW127464   6.710   6.180   0.288
 8855SOL    HW227465   6.592   6.097   0.210
 8856SOL     OW27466   6.422   0.833   5.945
 8856SOL    HW127467   6.381   0.834   6.036
 8856SOL    HW227468   6.516   0.867   5.950
 8857SOL     OW27469   6.665   2.254   4.252
 8857SOL    HW127470   6.709   2.268   4.163
 8857SOL    HW227471   6.732   2.267   4.325
 8858SOL     OW27472   1.267   2.380   5.457
 8858SOL    HW127473   1.355   2.336   5.439
 8858SOL    HW227474   1.259   2.398   5.555
 8859SOL     OW27475   6.827   0.962   4.342
 8859SOL    HW127476   6.847   0.866   4.359
 8859SOL    HW227477   6.751   0.991   4.401
 8860SOL     OW27478   1.010   3.587   3.119
 8860SOL    HW127479   1.099   3.571   3.076
 8860SOL    HW227480   0.970   3.500   3.146
 8861SOL     OW27481   3.596   1.808   5.821
 8861SOL    HW127482   3.574   1.842   5.729
 8861SOL    HW227483   3.696   1.802   5.831
 8862SOL     OW27484   6.281   0.470   3.311
 8862SOL    HW127485   6.237   0.560   3.309
 8862SOL    HW227486   6.216   0.401   3.277
 8863SOL     OW27487   0.785   5.760   3.789
 8863SOL    HW127488   0.735   5.724   3.868
 8863SOL    HW227489   0.800   5.858   3.801
 8864SOL     OW27490   2.316   2.664   6.198
 8864SOL    HW127491   2.315   2.598   6.273
 8864SOL    HW227492   2.230   2.659   6.148
 8865SOL     OW27493   3.170   1.576   5.816
 8865SOL    HW127494   3.258   1.618   5.838
 8865SOL    HW227495   3.096   1.636   5.846
 8866SOL     OW27496   4.760   6.696   3.528
 8866SOL    HW127497   4.741   6.768   3.462
 8866SOL    HW227498   4.858   6.676   3.528
 8867SOL     OW27499   5.406   3.613   2.440
 8867SOL    HW127500   5.358   3.616   2.353
 8867SOL    HW227501   5.368   3.682   2.501
 8868SOL     OW27502   6.318   3.347   0.224
 8868SOL    HW127503   6.230   3.312   0.191
 8868SOL    HW227504   6.380   3.271   0.242
 8869SOL     OW27505   4.367   5.843   4.269
 8869SOL    HW127506   4.354   5.926   4.323
 8869SOL    HW227507   4.313   5.848   4.185
 8870SOL     OW27508   4.423   0.301   0.361
 8870SOL    HW127509   4.430   0.253   0.448
 8870SOL    HW227510   4.424   0.400   0.377
 8871SOL     OW27511   0.908   0.834   3.627
 8871SOL    HW127512   0.950   0.855   3.539
 8871SOL    HW227513   0.830   0.773   3.613
 8872SOL     OW27514   1.489   4.923   5.053
 8872SOL    HW127515   1.545   4.907   5.134
 8872SOL    HW227516   1.392   4.917   5.078
 8873SOL     OW27517   0.844   5.680   2.077
 8873SOL    HW127518   0.811   5.733   1.999
 8873SOL    HW227519   0.884   5.594   2.045
 8874SOL     OW27520   3.040   6.460   1.709
 8874SOL    HW127521   2.975   6.405   1.657
 8874SOL    HW227522   3.103   6.505   1.647
 8875SOL     OW27523   6.039   3.779   4.567
 8875SOL    HW127524   6.132   3.788   4.602
 8875SOL    HW227525   6.042   3.738   4.475
 8876SOL     OW27526   2.111   0.323   3.996
 8876SOL    HW127527   2.118   0.280   3.906
 8876SOL    HW227528   2.137   0.419   3.989
 8877SOL     OW27529   2.612   1.457   4.256
 8877SOL    HW127530   2.658   1.440   4.343
 8877SOL    HW227531   2.680   1.480   4.186
 8878SOL     OW27532   6.998   5.750   0.538
 8878SOL    HW127533   6.972   5.685   0.610
 8878SOL    HW227534   6.958   5.721   0.451
 8879SOL     OW27535   4.874   4.647   1.812
 8879SOL    HW127536   4.931   4.698   1.876
 8879SOL    HW227537   4.923   4.567   1.779
 8880SOL     OW27538   5.714   5.416   4.545
 8880SOL    HW127539   5.663   5.378   4.622
 8880SOL    HW227540   5.787   5.353   4.518
 8881SOL     OW27541   6.412   6.625   4.471
 8881SOL    HW127542   6.455   6.714   4.490
 8881SOL    HW227543   6.348   6.603   4.545
 8882SOL     OW27544   5.582   1.471   1.060
 8882SOL    HW127545   5.523   1.499   1.136
 8882SOL    HW227546   5.538   1.496   0.974
 8883SOL     OW27547   1.960   6.903   5.437
 8883SOL    HW127548   1.936   6.821   5.385
 8883SOL    HW227549   1.911   6.981   5.399
 8884SOL     OW27550   6.060   4.534   6.408
 8884SOL    HW127551   5.969   4.530   6.447
 8884SOL    HW227552   6.089   4.629   6.399
 8885SOL     OW27553   0.674   3.298   0.450
 8885SOL    HW127554   0.654   3.202   0.431
 8885SOL    HW227555   0.620   3.328   0.529
 8886SOL     OW27556   3.599   6.058   5.068
 8886SOL    HW127557   3.599   6.034   5.165
 8886SOL    HW227558   3.508   6.043   5.030
 8887SOL     OW27559   3.157   1.673   1.716
 8887SOL    HW127560   3.059   1.659   1.700
 8887SOL    HW227561   3.175   1.771   1.731
 8888SOL     OW27562   1.345   1.580   0.045
 8888SOL    HW127563   1.366   1.622   0.133
 8888SOL    HW227564   1.283   1.502   0.059
 8889SOL     OW27565   5.522   6.960   5.100
 8889SOL    HW127566   5.618   6.986   5.110
 8889SOL    HW227567   5.470   0.020   5.064
 8890SOL     OW27568   6.157   5.470   3.639
 8890SOL    HW127569   6.153   5.386   3.585
 8890SOL    HW227570   6.195   5.544   3.584
 8891SOL     OW27571   5.195   3.602   5.610
 8891SOL    HW127572   5.292   3.626   5.605
 8891SOL    HW227573   5.167   3.558   5.525
 8892SOL     OW27574   3.852   5.681   3.222
 8892SOL    HW127575   3.932   5.707   3.168
 8892SOL    HW227576   3.778   5.746   3.205
 8893SOL     OW27577   0.964   6.682   2.715
 8893SOL    HW127578   0.956   6.601   2.774
 8893SOL    HW227579   0.932   6.660   2.623
 8894SOL     OW27580   4.007   2.575   5.573
 8894SOL    HW127581   3.990   2.670   5.599
 8894SOL    HW227582   4.081   2.538   5.629
 8895SOL     OW27583   6.503   1.693   1.934
 8895SOL    HW127584   6.424   1.689   1.995
 8895SOL    HW227585   6.478   1.658   1.844
 8896SOL     OW27586   1.711   3.196   5.277
 8896SOL    HW127587   1.621   3.240   5.280
 8896SOL    HW227588   1.758   3.223   5.193
 8897SOL     OW27589   1.530   3.219   3.470
 8897SOL    HW127590   1.502   3.275   3.392
 8897SOL    HW227591   1.586   3.274   3.533
 8898SOL     OW27592   5.544   3.976   3.762
 8898SOL    HW127593   5.483   4.054   3.748
 8898SOL    HW227594   5.499   3.893   3.730
 8899SOL     OW27595   1.966   4.682   0.278
 8899SOL    HW127596   1.928   4.600   0.320
 8899SOL    HW227597   2.017   4.657   0.196
 8900SOL     OW27598   5.869   3.048   2.096
 8900SOL    HW127599   5.827   2.990   2.166
 8900SOL    HW227600   5.953   3.089   2.133
 8901SOL     OW27601   1.781   1.543   4.457
 8901SOL    HW127602   1.688   1.519   4.430
 8901SOL    HW227603   1.802   1.501   4.545
 8902SOL     OW27604   2.527   6.763   0.924
 8902SOL    HW127605   2.605   6.737   0.867
 8902SOL    HW227606   2.560   6.795   1.013
 8903SOL     OW27607   0.696   1.615   4.714
 8903SOL    HW127608   0.721   1.704   4.674
 8903SOL    HW227609   0.692   1.546   4.641
 8904SOL     OW27610   5.884   5.709   3.696
 8904SOL    HW127611   5.851   5.646   3.625
 8904SOL    HW227612   5.949   5.661   3.755
 8905SOL     OW27613   1.869   4.554   4.318
 8905SOL    HW127614   1.804   4.624   4.348
 8905SOL    HW227615   1.960   4.577   4.352
 8906SOL     OW27616   6.878   6.930   6.476
 8906SOL    HW127617   6.869   6.853   6.539
 8906SOL    HW227618   6.807   6.997   6.495
 8907SOL     OW27619   3.114   2.148   4.550
 8907SOL    HW127620   3.086   2.244   4.555
 8907SOL    HW227621   3.127   2.122   4.454
 8908SOL     OW27622   0.953   3.695   6.972
 8908SOL    HW127623   0.998   3.780   7.000
 8908SOL    HW227624   0.990   3.665   6.884
 8909SOL     OW27625   1.974   0.472   5.345
 8909SOL    HW127626   2.039   0.396   5.341
 8909SOL    HW227627   1.943   0.484   5.439
 8910SOL     OW27628   0.666   2.431   5.601
 8910SOL    HW127629   0.646   2.527   5.583
 8910SOL    HW227630   0.592   2.392   5.655
 8911SOL     OW27631   4.382   2.292   4.952
 8911SOL    HW127632   4.460   2.352   4.932
 8911SOL    HW227633   4.314   2.343   5.005
 8912SOL     OW27634   3.894   2.853   0.986
 8912SOL    HW127635   3.843   2.767   0.989
 8912SOL    HW227636   3.932   2.865   0.894
 8913SOL     OW27637   4.858   5.009   6.802
 8913SOL    HW127638   4.947   4.963   6.805
 8913SOL    HW227639   4.870   5.105   6.779
 8914SOL     OW27640   3.968   0.680   4.355
 8914SOL    HW127641   3.877   0.716   4.375
 8914SOL    HW227642   4.036   0.731   4.408
 8915SOL     OW27643   0.909   2.948   3.918
 8915SOL    HW127644   0.814   2.976   3.928
 8915SOL    HW227645   0.924   2.861   3.964
 8916SOL     OW27646   6.911   4.026   0.332
 8916SOL    HW127647   6.813   4.022   0.313
 8916SOL    HW227648   6.941   3.938   0.369
 8917SOL     OW27649   6.563   4.525   6.174
 8917SOL    HW127650   6.627   4.530   6.251
 8917SOL    HW227651   6.480   4.575   6.197
 8918SOL     OW27652   6.904   3.716   1.013
 8918SOL    HW127653   6.945   3.632   0.976
 8918SOL    HW227654   6.869   3.772   0.939
 8919SOL     OW27655   4.002   4.015   0.493
 8919SOL    HW127656   3.999   4.059   0.583
 8919SOL    HW227657   3.913   4.025   0.449
 8920SOL     OW27658   1.211   6.942   0.347
 8920SOL    HW127659   1.257   6.899   0.424
 8920SOL    HW227660   1.135   6.885   0.317
 8921SOL     OW27661   2.468   2.112   2.578
 8921SOL    HW127662   2.450   2.014   2.570
 8921SOL    HW227663   2.559   2.126   2.618
 8922SOL     OW27664   3.572   5.009   1.161
 8922SOL    HW127665   3.515   4.929   1.139
 8922SOL    HW227666   3.575   5.020   1.260
 8923SOL     OW27667   1.165   2.860   6.243
 8923SOL    HW127668   1.233   2.889   6.176
 8923SOL    HW227669   1.206   2.796   6.308
 8924SOL     OW27670   3.252   6.184   5.926
 8924SOL    HW127671   3.190   6.110   5.899
 8924SOL    HW227672   3.273   6.240   5.846
 8925SOL     OW27673   0.814   1.315   2.397
 8925SOL    HW127674   0.784   1.221   2.386
 8925SOL    HW227675   0.735   1.376   2.390
 8926SOL     OW27676   5.583   4.017   6.036
 8926SOL    HW127677   5.597   4.011   6.135
 8926SOL    HW227678   5.656   3.967   5.988
 8927SOL     OW27679   1.000   1.555   4.495
 8927SOL    HW127680   1.094   1.549   4.527
 8927SOL    HW227681   0.977   1.474   4.442
 8928SOL     OW27682   0.063   1.132   5.841
 8928SOL    HW127683   0.087   1.091   5.753
 8928SOL    HW227684   7.012   1.075   5.886
 8929SOL     OW27685   6.670   3.695   4.104
 8929SOL    HW127686   6.652   3.607   4.147
 8929SOL    HW227687   6.707   3.680   4.012
 8930SOL     OW27688   1.803   4.000   4.714
 8930SOL    HW127689   1.796   3.983   4.616
 8930SOL    HW227690   1.809   4.098   4.731
 8931SOL     OW27691   3.277   3.113   1.165
 8931SOL    HW127692   3.269   3.038   1.231
 8931SOL    HW227693   3.229   3.088   1.081
 8932SOL     OW27694   5.396   0.103   0.457
 8932SOL    HW127695   5.332   0.104   0.535
 8932SOL    HW227696   5.478   0.053   0.483
 8933SOL     OW27697   1.457   2.873   6.077
 8933SOL    HW127698   1.490   2.960   6.040
 8933SOL    HW227699   1.532   2.827   6.125
 8934SOL     OW27700   3.078   5.343   4.499
 8934SOL    HW127701   3.018   5.417   4.530
 8934SOL    HW227702   3.029   5.256   4.507
 8935SOL     OW27703   5.730   3.859   1.509
 8935SOL    HW127704   5.667   3.907   1.448
 8935SOL    HW227705   5.762   3.775   1.465
 8936SOL     OW27706   1.454   3.524   0.897
 8936SOL    HW127707   1.384   3.482   0.955
 8936SOL    HW227708   1.483   3.458   0.827
 8937SOL     OW27709   0.109   0.056   4.831
 8937SOL    HW127710   0.016   0.061   4.867
 8937SOL    HW227711   0.143   0.149   4.813
 8938SOL     OW27712   6.811   0.967   0.047
 8938SOL    HW127713   6.799   1.047   0.107
 8938SOL    HW227714   6.842   0.889   0.102
 8939SOL     OW27715   5.772   3.752   4.546
 8939SOL    HW127716   5.776   3.804   4.461
 8939SOL    HW227717   5.864   3.741   4.583
 8940SOL     OW27718   5.804   1.359   1.415
 8940SOL    HW127719   5.722   1.329   1.367
 8940SOL    HW227720   5.792   1.345   1.514
 8941SOL     OW27721   6.518   2.699   2.955
 8941SOL    HW127722   6.424   2.693   2.988
 8941SOL    HW227723   6.517   2.705   2.855
 8942SOL     OW27724   0.913   5.525   5.534
 8942SOL    HW127725   0.857   5.580   5.596
 8942SOL    HW227726   0.872   5.524   5.443
 8943SOL     OW27727   3.723   5.469   0.065
 8943SOL    HW127728   3.808   5.517   0.047
 8943SOL    HW227729   3.664   5.525   0.124
 8944SOL     OW27730   5.073   6.077   4.798
 8944SOL    HW127731   5.014   6.082   4.878
 8944SOL    HW227732   5.156   6.026   4.820
 8945SOL     OW27733   6.969   2.248   4.409
 8945SOL    HW127734   0.041   2.222   4.375
 8945SOL    HW227735   6.920   2.166   4.438
 8946SOL     OW27736   4.138   0.990   4.206
 8946SOL    HW127737   4.050   1.035   4.225
 8946SOL    HW227738   4.201   1.008   4.281
 8947SOL     OW27739   1.935   3.050   5.828
 8947SOL    HW127740   1.935   2.956   5.794
 8947SOL    HW227741   1.921   3.113   5.752
 8948SOL     OW27742   6.176   6.094   3.388
 8948SOL    HW127743   6.099   6.156   3.401
 8948SOL    HW227744   6.145   6.000   3.403
 8949SOL     OW27745   3.954   5.941   0.410
 8949SOL    HW127746   3.970   5.986   0.498
 8949SOL    HW227747   3.997   5.851   0.410
 8950SOL     OW27748   4.238   3.076   1.014
 8950SOL    HW127749   4.291   3.161   1.022
 8950SOL    HW227750   4.151   3.096   0.969
 8951SOL     OW27751   1.945   0.642   4.936
 8951SOL    HW127752   1.864   0.596   4.972
 8951SOL    HW227753   1.932   0.661   4.839
 8952SOL     OW27754   0.910   4.997   3.550
 8952SOL    HW127755   0.882   5.001   3.454
 8952SOL    HW227756   0.830   4.985   3.608
 8953SOL     OW27757   0.269   4.903   0.975
 8953SOL    HW127758   0.251   4.983   1.033
 8953SOL    HW227759   0.364   4.874   0.986
 8954SOL     OW27760   0.069   0.228   4.103
 8954SOL    HW127761   0.106   0.320   4.099
 8954SOL    HW227762   0.144   0.163   4.118
 8955SOL     OW27763   6.838   4.981   3.266
 8955SOL    HW127764   6.856   5.035   3.348
 8955SOL    HW227765   6.844   4.884   3.289
 8956SOL     OW27766   1.532   1.094   5.650
 8956SOL    HW127767   1.607   1.141   5.696
 8956SOL    HW227768   1.568   1.039   5.575
 8957SOL     OW27769   2.346   4.466   1.273
 8957SOL    HW127770   2.267   4.430   1.322
 8957SOL    HW227771   2.349   4.565   1.283
 8958SOL     OW27772   0.925   2.342   5.519
 8958SOL    HW127773   0.992   2.380   5.582
 8958SOL    HW227774   0.835   2.338   5.564
 8959SOL     OW27775   1.918   3.947   2.789
 8959SOL    HW127776   1.929   4.000   2.874
 8959SOL    HW227777   2.004   3.950   2.738
 8960SOL     OW27778   5.336   5.325   3.943
 8960SOL    HW127779   5.352   5.323   4.042
 8960SOL    HW227780   5.238   5.323   3.925
 8961SOL     OW27781   3.426   1.281   3.980
 8961SOL    HW127782   3.391   1.198   3.936
 8961SOL    HW227783   3.526   1.280   3.979
 8962SOL     OW27784   6.403   5.259   1.756
 8962SOL    HW127785   6.421   5.354   1.782
 8962SOL    HW227786   6.478   5.201   1.786
 8963SOL     OW27787   3.710   6.621   4.932
 8963SOL    HW127788   3.632   6.560   4.918
 8963SOL    HW227789   3.724   6.677   4.850
 8964SOL     OW27790   5.975   2.825   2.842
 8964SOL    HW127791   5.959   2.734   2.804
 8964SOL    HW227792   6.064   2.859   2.811
 8965SOL     OW27793   2.514   5.367   0.224
 8965SOL    HW127794   2.525   5.291   0.289
 8965SOL    HW227795   2.432   5.351   0.169
 8966SOL     OW27796   6.522   4.121   0.581
 8966SOL    HW127797   6.589   4.058   0.541
 8966SOL    HW227798   6.500   4.092   0.674
 8967SOL     OW27799   3.969   0.626   2.115
 8967SOL    HW127800   3.960   0.601   2.212
 8967SOL    HW227801   3.924   0.557   2.059
 8968SOL     OW27802   4.198   5.990   2.048
 8968SOL    HW127803   4.108   5.965   2.013
 8968SOL    HW227804   4.254   5.907   2.057
 8969SOL     OW27805   0.211   0.501   3.789
 8969SOL    HW127806   0.250   0.426   3.736
 8969SOL    HW227807   0.165   0.565   3.727
 8970SOL     OW27808   2.091   2.660   6.456
 8970SOL    HW127809   2.113   2.577   6.507
 8970SOL    HW227810   2.139   2.738   6.496
 8971SOL     OW27811   5.601   5.735   1.063
 8971SOL    HW127812   5.573   5.829   1.081
 8971SOL    HW227813   5.650   5.698   1.141
 8972SOL     OW27814   4.746   3.880   0.562
 8972SOL    HW127815   4.647   3.876   0.569
 8972SOL    HW227816   4.786   3.887   0.653
 8973SOL     OW27817   6.818   2.987   3.052
 8973SOL    HW127818   6.719   2.985   3.039
 8973SOL    HW227819   6.863   2.969   2.964
 8974SOL     OW27820   1.881   3.158   4.000
 8974SOL    HW127821   1.878   3.138   4.098
 8974SOL    HW227822   1.974   3.184   3.974
 8975SOL     OW27823   0.841   6.248   6.772
 8975SOL    HW127824   0.787   6.230   6.854
 8975SOL    HW227825   0.808   6.192   6.696
 8976SOL     OW27826   6.957   5.628   0.298
 8976SOL    HW127827   0.019   5.575   0.326
 8976SOL    HW227828   6.896   5.570   0.245
 8977SOL     OW27829   6.575   3.777   6.570
 8977SOL    HW127830   6.489   3.824   6.592
 8977SOL    HW227831   6.621   3.751   6.655
 8978SOL     OW27832   6.049   6.912   4.800
 8978SOL    HW127833   5.952   6.891   4.801
 8978SOL    HW227834   6.063   7.010   4.784
 8979SOL     OW27835   1.386   4.625   6.322
 8979SOL    HW127836   1.447   4.664   6.391
 8979SOL    HW227837   1.438   4.608   6.238
 8980SOL     OW27838   4.819   2.961   5.522
 8980SOL    HW127839   4.837   2.877   5.573
 8980SOL    HW227840   4.761   3.021   5.578
 8981SOL     OW27841   4.972   1.961   5.661
 8981SOL    HW127842   4.977   2.026   5.737
 8981SOL    HW227843   4.911   1.997   5.590
 8982SOL     OW27844   0.400   1.909   0.822
 8982SOL    HW127845   0.364   1.880   0.733
 8982SOL    HW227846   0.332   1.889   0.893
 8983SOL     OW27847   0.237   5.582   0.951
 8983SOL    HW127848   0.226   5.489   0.916
 8983SOL    HW227849   0.208   5.648   0.882
 8984SOL     OW27850   6.218   5.966   4.104
 8984SOL    HW127851   6.181   6.057   4.082
 8984SOL    HW227852   6.146   5.910   4.147
 8985SOL     OW27853   2.690   1.997   0.983
 8985SOL    HW127854   2.690   2.069   1.053
 8985SOL    HW227855   2.647   1.915   1.019
 8986SOL     OW27856   3.879   5.308   2.719
 8986SOL    HW127857   3.959   5.351   2.761
 8986SOL    HW227858   3.903   5.215   2.689
 8987SOL     OW27859   2.814   0.475   1.463
 8987SOL    HW127860   2.912   0.489   1.447
 8987SOL    HW227861   2.761   0.536   1.405
 8988SOL     OW27862   2.321   4.652   0.432
 8988SOL    HW127863   2.235   4.609   0.461
 8988SOL    HW227864   2.397   4.590   0.453
 8989SOL     OW27865   5.110   3.849   2.046
 8989SOL    HW127866   5.051   3.772   2.025
 8989SOL    HW227867   5.186   3.818   2.104
 8990SOL     OW27868   2.561   5.264   1.837
 8990SOL    HW127869   2.618   5.258   1.920
 8990SOL    HW227870   2.480   5.319   1.856
 8991SOL     OW27871   2.338   1.214   0.793
 8991SOL    HW127872   2.241   1.206   0.768
 8991SOL    HW227873   2.347   1.280   0.868
 8992SOL     OW27874   6.695   2.265   6.871
 8992SOL    HW127875   6.763   2.242   6.801
 8992SOL    HW227876   6.636   2.338   6.836
 8993SOL     OW27877   4.628   2.605   2.345
 8993SOL    HW127878   4.609   2.511   2.315
 8993SOL    HW227879   4.548   2.662   2.329
 8994SOL     OW27880   0.733   6.098   4.499
 8994SOL    HW127881   0.727   6.059   4.407
 8994SOL    HW227882   0.731   6.197   4.494
 8995SOL     OW27883   1.016   2.689   5.589
 8995SOL    HW127884   0.994   2.775   5.635
 8995SOL    HW227885   0.994   2.613   5.650
 8996SOL     OW27886   0.275   4.644   1.945
 8996SOL    HW127887   0.265   4.547   1.923
 8996SOL    HW227888   0.210   4.697   1.891
 8997SOL     OW27889   4.288   1.219   6.458
 8997SOL    HW127890   4.287   1.316   6.437
 8997SOL    HW227891   4.199   1.192   6.496
 8998SOL     OW27892   0.551   2.619   4.199
 8998SOL    HW127893   0.586   2.712   4.192
 8998SOL    HW227894   0.495   2.598   4.119
 8999SOL     OW27895   3.834   0.377   6.721
 8999SOL    HW127896   3.887   0.333   6.793
 8999SOL    HW227897   3.832   0.476   6.736
 9000SOL     OW27898   1.980   4.401   6.425
 9000SOL    HW127899   1.883   4.425   6.429
 9000SOL    HW227900   2.033   4.472   6.470
 9001SOL     OW27901   1.503   5.394   3.243
 9001SOL    HW127902   1.563   5.316   3.263
 9001SOL    HW227903   1.485   5.445   3.327
 9002SOL     OW27904   0.901   4.957   4.883
 9002SOL    HW127905   0.836   5.007   4.825
 9002SOL    HW227906   0.994   4.976   4.852
 9003SOL     OW27907   5.382   2.723   1.279
 9003SOL    HW127908   5.386   2.807   1.224
 9003SOL    HW227909   5.303   2.726   1.339
 9004SOL     OW27910   4.146   6.726   1.863
 9004SOL    HW127911   4.072   6.794   1.869
 9004SOL    HW227912   4.107   6.636   1.848
 9005SOL     OW27913   5.910   2.067   4.294
 9005SOL    HW127914   5.938   1.972   4.306
 9005SOL    HW227915   5.833   2.071   4.230
 9006SOL     OW27916   1.115   6.045   1.008
 9006SOL    HW127917   1.028   6.083   1.038
 9006SOL    HW227918   1.169   6.017   1.087
 9007SOL     OW27919   3.605   6.006   4.117
 9007SOL    HW127920   3.516   5.964   4.099
 9007SOL    HW227921   3.663   5.997   4.036
 9008SOL     OW27922   6.792   5.398   2.577
 9008SOL    HW127923   6.851   5.332   2.623
 9008SOL    HW227924   6.846   5.478   2.550
 9009SOL     OW27925   2.444   6.622   0.610
 9009SOL    HW127926   2.472   6.604   0.704
 9009SOL    HW227927   2.482   6.553   0.550
 9010SOL     OW27928   1.125   0.097   4.597
 9010SOL    HW127929   1.141   0.074   4.501
 9010SOL    HW227930   1.026   0.102   4.614
 9011SOL     OW27931   4.204   1.874   1.829
 9011SOL    HW127932   4.190   1.777   1.852
 9011SOL    HW227933   4.130   1.905   1.770
 9012SOL     OW27934   2.757   4.900   1.281
 9012SOL    HW127935   2.745   4.834   1.355
 9012SOL    HW227936   2.776   4.990   1.320
 9013SOL     OW27937   6.041   6.175   4.462
 9013SOL    HW127938   6.027   6.179   4.561
 9013SOL    HW227939   6.133   6.139   4.443
 9014SOL     OW27940   1.521   1.120   6.857
 9014SOL    HW127941   1.537   1.152   6.951
 9014SOL    HW227942   1.567   1.032   6.844
 9015SOL     OW27943   6.445   0.762   0.480
 9015SOL    HW127944   6.350   0.742   0.457
 9015SOL    HW227945   6.459   0.750   0.579
 9016SOL     OW27946   6.914   6.495   6.495
 9016SOL    HW127947   6.829   6.536   6.526
 9016SOL    HW227948   6.991   6.548   6.529
 9017SOL     OW27949   5.065   2.859   2.474
 9017SOL    HW127950   4.986   2.808   2.441
 9017SOL    HW227951   5.080   2.837   2.571
 9018SOL     OW27952   4.535   1.454   5.366
 9018SOL    HW127953   4.464   1.386   5.382
 9018SOL    HW227954   4.597   1.456   5.445
 9019SOL     OW27955   1.059   0.285   1.000
 9019SOL    HW127956   0.996   0.226   1.050
 9019SOL    HW227957   1.042   0.275   0.902
 9020SOL     OW27958   1.546   3.640   1.940
 9020SOL    HW127959   1.615   3.628   1.869
 9020SOL    HW227960   1.504   3.551   1.961
 9021SOL     OW27961   6.057   0.164   3.730
 9021SOL    HW127962   6.082   0.083   3.782
 9021SOL    HW227963   6.048   0.242   3.791
 9022SOL     OW27964   2.684   0.601   1.233
 9022SOL    HW127965   2.604   0.553   1.271
 9022SOL    HW227966   2.710   0.558   1.146
 9023SOL     OW27967   3.797   2.926   2.725
 9023SOL    HW127968   3.705   2.929   2.686
 9023SOL    HW227969   3.862   2.962   2.660
 9024SOL     OW27970   1.437   5.697   6.614
 9024SOL    HW127971   1.350   5.648   6.604
 9024SOL    HW227972   1.467   5.730   6.525
 9025SOL     OW27973   6.655   5.882   0.865
 9025SOL    HW127974   6.697   5.791   0.870
 9025SOL    HW227975   6.570   5.876   0.813
 9026SOL     OW27976   3.787   3.351   2.741
 9026SOL    HW127977   3.722   3.275   2.738
 9026SOL    HW227978   3.878   3.315   2.763
 9027SOL     OW27979   2.310   1.799   3.436
 9027SOL    HW127980   2.255   1.740   3.376
 9027SOL    HW227981   2.347   1.744   3.511
 9028SOL     OW27982   2.348   4.079   6.018
 9028SOL    HW127983   2.383   4.132   5.941
 9028SOL    HW227984   2.284   4.136   6.071
 9029SOL     OW27985   3.009   5.536   5.203
 9029SOL    HW127986   3.053   5.508   5.289
 9029SOL    HW227987   3.071   5.516   5.127
 9030SOL     OW27988   1.780   0.907   2.841
 9030SOL    HW127989   1.755   0.817   2.805
 9030SOL    HW227990   1.709   0.938   2.904
 9031SOL     OW27991   4.923   5.072   5.468
 9031SOL    HW127992   4.984   5.148   5.446
 9031SOL    HW227993   4.930   5.003   5.396
 9032SOL     OW27994   3.892   3.126   0.995
 9032SOL    HW127995   3.901   3.028   0.975
 9032SOL    HW227996   3.796   3.147   1.013
 9033SOL     OW27997   1.940   3.837   3.548
 9033SOL    HW127998   1.866   3.778   3.580
 9033SOL    HW227999   1.994   3.868   3.627
 9034SOL     OW28000   3.296   0.211   4.702
 9034SOL    HW128001   3.322   0.224   4.606
 9034SOL    HW228002   3.223   0.276   4.725
 9035SOL     OW28003   1.133   6.242   5.381
 9035SOL    HW128004   1.088   6.233   5.470
 9035SOL    HW228005   1.232   6.238   5.394
 9036SOL     OW28006   1.303   1.146   4.589
 9036SOL    HW128007   1.329   1.050   4.581
 9036SOL    HW228008   1.300   1.187   4.498
 9037SOL     OW28009   1.134   4.215   6.292
 9037SOL    HW128010   1.165   4.194   6.199
 9037SOL    HW228011   1.206   4.191   6.357
 9038SOL     OW28012   4.614   0.623   4.892
 9038SOL    HW128013   4.533   0.648   4.837
 9038SOL    HW228014   4.648   0.535   4.862
 9039SOL     OW28015   1.690   4.453   4.884
 9039SOL    HW128016   1.697   4.413   4.975
 9039SOL    HW228017   1.673   4.552   4.892
 9040SOL     OW28018   2.524   1.606   3.274
 9040SOL    HW128019   2.548   1.697   3.307
 9040SOL    HW228020   2.599   1.571   3.216
 9041SOL     OW28021   0.546   2.323   1.935
 9041SOL    HW128022   0.589   2.243   1.976
 9041SOL    HW228023   0.598   2.350   1.853
 9042SOL     OW28024   3.413   6.688   3.951
 9042SOL    HW128025   3.444   6.594   3.960
 9042SOL    HW228026   3.313   6.690   3.945
 9043SOL     OW28027   1.877   1.036   5.995
 9043SOL    HW128028   1.883   1.136   5.989
 9043SOL    HW228029   1.939   0.994   5.930
 9044SOL     OW28030   6.591   1.241   1.375
 9044SOL    HW128031   6.590   1.216   1.278
 9044SOL    HW228032   6.497   1.244   1.409
 9045SOL     OW28033   3.690   1.847   2.525
 9045SOL    HW128034   3.594   1.818   2.514
 9045SOL    HW228035   3.724   1.816   2.614
 9046SOL     OW28036   3.393   3.521   4.265
 9046SOL    HW128037   3.404   3.422   4.254
 9046SOL    HW228038   3.483   3.564   4.267
 9047SOL     OW28039   1.847   3.261   5.034
 9047SOL    HW128040   1.943   3.288   5.035
 9047SOL    HW228041   1.832   3.190   4.965
 9048SOL     OW28042   5.883   2.851   6.341
 9048SOL    HW128043   5.808   2.906   6.304
 9048SOL    HW228044   5.935   2.811   6.265
 9049SOL     OW28045   4.113   6.754   6.337
 9049SOL    HW128046   4.071   6.672   6.297
 9049SOL    HW228047   4.041   6.817   6.367
 9050SOL     OW28048   0.212   5.150   5.755
 9050SOL    HW128049   0.151   5.169   5.832
 9050SOL    HW228050   0.304   5.131   5.788
 9051SOL     OW28051   4.504   6.191   1.116
 9051SOL    HW128052   4.596   6.217   1.144
 9051SOL    HW228053   4.505   6.157   1.022
 9052SOL     OW28054   1.841   2.995   3.438
 9052SOL    HW128055   1.758   2.974   3.491
 9052SOL    HW228056   1.909   3.036   3.499
 9053SOL     OW28057   2.157   1.659   3.268
 9053SOL    HW128058   2.162   1.560   3.257
 9053SOL    HW228059   2.061   1.687   3.273
 9054SOL     OW28060   1.219   0.131   1.984
 9054SOL    HW128061   1.195   0.208   2.044
 9054SOL    HW228062   1.143   0.111   1.924
 9055SOL     OW28063   6.902   3.849   2.999
 9055SOL    HW128064   6.956   3.818   3.077
 9055SOL    HW228065   6.838   3.920   3.029
 9056SOL     OW28066   6.069   0.025   2.129
 9056SOL    HW128067   6.008   0.088   2.081
 9056SOL    HW228068   6.070   6.955   2.080
 9057SOL     OW28069   6.040   5.349   6.054
 9057SOL    HW128070   6.036   5.437   6.102
 9057SOL    HW228071   6.135   5.318   6.049
 9058SOL     OW28072   1.453   1.992   3.464
 9058SOL    HW128073   1.431   2.089   3.479
 9058SOL    HW228074   1.411   1.961   3.379
 9059SOL     OW28075   0.345   1.477   4.204
 9059SOL    HW128076   0.370   1.569   4.232
 9059SOL    HW228077   0.297   1.480   4.116
 9060SOL     OW28078   0.260   3.366   1.806
 9060SOL    HW128079   0.206   3.418   1.873
 9060SOL    HW228080   0.258   3.269   1.830
 9061SOL     OW28081   3.864   5.674   2.127
 9061SOL    HW128082   3.922   5.594   2.136
 9061SOL    HW228083   3.902   5.736   2.057
 9062SOL     OW28084   1.844   5.187   2.403
 9062SOL    HW128085   1.819   5.277   2.439
 9062SOL    HW228086   1.762   5.132   2.391
 9063SOL     OW28087   2.540   0.239   2.781
 9063SOL    HW128088   2.546   0.152   2.730
 9063SOL    HW228089   2.629   0.285   2.778
 9064SOL     OW28090   5.769   3.652   4.177
 9064SOL    HW128091   5.787   3.727   4.241
 9064SOL    HW228092   5.844   3.646   4.111
 9065SOL     OW28093   3.596   5.293   6.934
 9065SOL    HW128094   3.602   5.205   6.981
 9065SOL    HW228095   3.638   5.364   6.991
 9066SOL     OW28096   5.953   0.603   0.315
 9066SOL    HW128097   5.931   0.563   0.226
 9066SOL    HW228098   5.868   0.615   0.367
 9067SOL     OW28099   6.083   6.924   5.064
 9067SOL    HW128100   6.073   6.898   4.968
 9067SOL    HW228101   6.083   6.842   5.121
 9068SOL     OW28102   3.039   0.467   5.016
 9068SOL    HW128103   3.017   0.370   5.007
 9068SOL    HW228104   3.118   0.478   5.077
 9069SOL     OW28105   3.384   2.357   1.701
 9069SOL    HW128106   3.412   2.263   1.715
 9069SOL    HW228107   3.465   2.416   1.695
 9070SOL     OW28108   0.506   3.480   6.263
 9070SOL    HW128109   0.500   3.457   6.360
 9070SOL    HW228110   0.576   3.551   6.250
 9071SOL     OW28111   4.754   6.837   0.627
 9071SOL    HW128112   4.825   6.835   0.556
 9071SOL    HW228113   4.699   6.754   0.621
 9072SOL     OW28114   6.027   0.969   1.683
 9072SOL    HW128115   6.024   0.887   1.739
 9072SOL    HW228116   5.942   0.977   1.631
 9073SOL     OW28117   3.522   6.389   0.799
 9073SOL    HW128118   3.550   6.300   0.836
 9073SOL    HW228119   3.469   6.438   0.868
 9074SOL     OW28120   1.793   0.664   1.756
 9074SOL    HW128121   1.784   0.730   1.831
 9074SOL    HW228122   1.785   0.713   1.669
 9075SOL     OW28123   0.879   0.178   1.153
 9075SOL    HW128124   0.847   0.099   1.205
 9075SOL    HW228125   0.847   0.262   1.196
 9076SOL     OW28126   5.288   1.290   5.087
 9076SOL    HW128127   5.316   1.320   5.178
 9076SOL    HW228128   5.347   1.333   5.018
 9077SOL     OW28129   5.731   0.991   6.867
 9077SOL    HW128130   5.705   0.976   6.772
 9077SOL    HW228131   5.654   1.033   6.915
 9078SOL     OW28132   4.970   3.507   0.474
 9078SOL    HW128133   5.006   3.415   0.462
 9078SOL    HW228134   4.870   3.506   0.462
 9079SOL     OW28135   1.701   6.277   4.263
 9079SOL    HW128136   1.731   6.184   4.285
 9079SOL    HW228137   1.677   6.282   4.166
 9080SOL     OW28138   5.466   2.330   0.059
 9080SOL    HW128139   5.561   2.359   0.075
 9080SOL    HW228140   5.462   2.273   6.995
 9081SOL     OW28141   3.525   6.917   2.284
 9081SOL    HW128142   3.548   6.824   2.255
 9081SOL    HW228143   3.602   6.956   2.334
 9082SOL     OW28144   2.609   6.815   5.704
 9082SOL    HW128145   2.519   6.842   5.670
 9082SOL    HW228146   2.616   6.837   5.801
 9083SOL     OW28147   3.881   4.204   5.584
 9083SOL    HW128148   3.789   4.242   5.596
 9083SOL    HW228149   3.880   4.107   5.609
 9084SOL     OW28150   2.851   2.643   6.125
 9084SOL    HW128151   2.949   2.627   6.139
 9084SOL    HW228152   2.836   2.670   6.029
 9085SOL     OW28153   1.376   4.981   0.591
 9085SOL    HW128154   1.279   4.980   0.565
 9085SOL    HW228155   1.395   4.904   0.652
 9086SOL     OW28156   6.652   4.350   0.910
 9086SOL    HW128157   6.743   4.388   0.929
 9086SOL    HW228158   6.655   4.251   0.916
 9087SOL     OW28159   4.609   2.584   1.621
 9087SOL    HW128160   4.626   2.674   1.662
 9087SOL    HW228161   4.616   2.590   1.522
 9088SOL     OW28162   6.848   6.350   1.058
 9088SOL    HW128163   6.815   6.256   1.056
 9088SOL    HW228164   6.935   6.356   1.010
 9089SOL     OW28165   4.672   6.158   5.417
 9089SOL    HW128166   4.633   6.141   5.327
 9089SOL    HW228167   4.716   6.074   5.451
 9090SOL     OW28168   6.350   6.304   3.647
 9090SOL    HW128169   6.387   6.327   3.737
 9090SOL    HW228170   6.358   6.384   3.587
 9091SOL     OW28171   2.687   3.943   0.756
 9091SOL    HW128172   2.616   3.986   0.700
 9091SOL    HW228173   2.648   3.866   0.806
 9092SOL     OW28174   0.024   1.098   0.585
 9092SOL    HW128175   6.954   1.138   0.558
 9092SOL    HW228176   0.033   1.008   0.542
 9093SOL     OW28177   1.713   6.102   6.731
 9093SOL    HW128178   1.700   6.174   6.662
 9093SOL    HW228179   1.738   6.016   6.685
 9094SOL     OW28180   6.348   5.209   2.913
 9094SOL    HW128181   6.417   5.263   2.961
 9094SOL    HW228182   6.260   5.221   2.958
 9095SOL     OW28183   4.587   3.749   6.767
 9095SOL    HW128184   4.682   3.777   6.768
 9095SOL    HW228185   4.582   3.650   6.752
 9096SOL     OW28186   5.458   4.069   1.773
 9096SOL    HW128187   5.451   4.098   1.678
 9096SOL    HW228188   5.501   3.979   1.777
 9097SOL     OW28189   0.854   2.604   7.001
 9097SOL    HW128190   0.933   2.571   0.035
 9097SOL    HW228191   0.881   2.685   6.948
 9098SOL     OW28192   3.661   2.667   6.826
 9098SOL    HW128193   3.693   2.672   6.732
 9098SOL    HW228194   3.585   2.602   6.833
 9099SOL     OW28195   2.816   3.380   6.796
 9099SOL    HW128196   2.721   3.407   6.779
 9099SOL    HW228197   2.873   3.409   6.719
 9100SOL     OW28198   1.213   3.631   4.332
 9100SOL    HW128199   1.312   3.627   4.343
 9100SOL    HW228200   1.187   3.581   4.249
 9101SOL     OW28201   2.655   2.291   2.930
 9101SOL    HW128202   2.646   2.193   2.909
 9101SOL    HW228203   2.656   2.343   2.845
 9102SOL     OW28204   2.704   0.335   2.153
 9102SOL    HW128205   2.740   0.409   2.097
 9102SOL    HW228206   2.607   0.322   2.132
 9103SOL     OW28207   6.479   3.325   6.672
 9103SOL    HW128208   6.559   3.271   6.645
 9103SOL    HW228209   6.484   3.343   6.771
 9104SOL     OW28210   5.613   6.395   2.633
 9104SOL    HW128211   5.595   6.344   2.717
 9104SOL    HW228212   5.571   6.486   2.639
 9105SOL     OW28213   1.776   1.471   0.072
 9105SOL    HW128214   1.839   1.445   0.145
 9105SOL    HW228215   1.805   1.428   7.004
 9106SOL     OW28216   6.912   3.813   0.100
 9106SOL    HW128217   6.879   3.757   0.024
 9106SOL    HW228218   6.834   3.846   0.153
 9107SOL     OW28219   3.082   0.837   6.108
 9107SOL    HW128220   2.988   0.842   6.141
 9107SOL    HW228221   3.106   0.921   6.060
 9108SOL     OW28222   4.625   3.853   5.743
 9108SOL    HW128223   4.619   3.930   5.807
 9108SOL    HW228224   4.662   3.886   5.656
 9109SOL     OW28225   0.780   3.052   2.630
 9109SOL    HW128226   0.805   3.028   2.724
 9109SOL    HW228227   0.738   3.143   2.629
 9110SOL     OW28228   1.971   3.739   4.092
 9110SOL    HW128229   1.926   3.752   4.180
 9110SOL    HW228230   1.953   3.818   4.033
 9111SOL     OW28231   4.627   1.281   0.683
 9111SOL    HW128232   4.586   1.303   0.772
 9111SOL    HW228233   4.577   1.207   0.640
 9112SOL     OW28234   0.490   4.764   3.815
 9112SOL    HW128235   0.531   4.854   3.835
 9112SOL    HW228236   0.562   4.697   3.801
 9113SOL     OW28237   5.615   1.036   2.578
 9113SOL    HW128238   5.666   1.069   2.499
 9113SOL    HW228239   5.600   1.113   2.641
 9114SOL     OW28240   0.660   4.568   1.625
 9114SOL    HW128241   0.699   4.603   1.710
 9114SOL    HW228242   0.593   4.497   1.646
 9115SOL     OW28243   6.944   4.865   5.407
 9115SOL    HW128244   6.856   4.911   5.396
 9115SOL    HW228245   6.932   4.783   5.463
 9116SOL     OW28246   6.826   1.286   1.800
 9116SOL    HW128247   6.749   1.334   1.843
 9116SOL    HW228248   6.880   1.350   1.746
 9117SOL     OW28249   5.994   2.719   0.294
 9117SOL    HW128250   6.061   2.791   0.282
 9117SOL    HW228251   6.040   2.630   0.296
 9118SOL     OW28252   6.674   3.638   0.198
 9118SOL    HW128253   6.698   3.651   0.294
 9118SOL    HW228254   6.691   3.543   0.172
 9119SOL     OW28255   4.978   0.765   1.835
 9119SOL    HW128256   5.063   0.733   1.876
 9119SOL    HW228257   4.940   0.695   1.775
 9120SOL     OW28258   5.877   1.782   5.683
 9120SOL    HW128259   5.868   1.769   5.585
 9120SOL    HW228260   5.817   1.856   5.713
 9121SOL     OW28261   3.588   1.244   5.014
 9121SOL    HW128262   3.566   1.214   5.107
 9121SOL    HW228263   3.573   1.342   5.006
 9122SOL     OW28264   1.580   4.043   2.509
 9122SOL    HW128265   1.551   4.139   2.504
 9122SOL    HW228266   1.597   4.008   2.417
 9123SOL     OW28267   2.018   1.206   4.063
 9123SOL    HW128268   1.919   1.207   4.078
 9123SOL    HW228269   2.040   1.143   3.988
 9124SOL     OW28270   5.368   6.644   6.872
 9124SOL    HW128271   5.431   6.690   6.936
 9124SOL    HW228272   5.357   6.549   6.900
 9125SOL     OW28273   4.624   3.818   0.979
 9125SOL    HW128274   4.665   3.743   0.927
 9125SOL    HW228275   4.562   3.869   0.919
 9126SOL     OW28276   6.153   3.464   1.426
 9126SOL    HW128277   6.173   3.556   1.392
 9126SOL    HW228278   6.107   3.470   1.514
 9127SOL     OW28279   6.815   1.718   6.110
 9127SOL    HW128280   6.730   1.677   6.143
 9127SOL    HW228281   6.803   1.817   6.100
 9128SOL     OW28282   5.429   1.392   5.333
 9128SOL    HW128283   5.418   1.474   5.277
 9128SOL    HW228284   5.505   1.404   5.397
 9129SOL     OW28285   0.386   2.662   0.314
 9129SOL    HW128286   0.394   2.653   0.413
 9129SOL    HW228287   0.462   2.717   0.279
 9130SOL     OW28288   0.154   3.639   6.463
 9130SOL    HW128289   0.186   3.544   6.464
 9130SOL    HW228290   0.191   3.685   6.382
 9131SOL     OW28291   5.788   2.402   4.833
 9131SOL    HW128292   5.731   2.320   4.825
 9131SOL    HW228293   5.844   2.396   4.915
 9132SOL     OW28294   0.735   5.230   4.481
 9132SOL    HW128295   0.721   5.316   4.432
 9132SOL    HW228296   0.713   5.154   4.421
 9133SOL     OW28297   3.187   6.612   1.546
 9133SOL    HW128298   3.148   6.630   1.456
 9133SOL    HW228299   3.281   6.578   1.536
 9134SOL     OW28300   4.591   5.857   1.145
 9134SOL    HW128301   4.654   5.855   1.222
 9134SOL    HW228302   4.631   5.807   1.068
 9135SOL     OW28303   6.703   6.822   1.871
 9135SOL    HW128304   6.723   6.724   1.866
 9135SOL    HW228305   6.622   6.842   1.816
 9136SOL     OW28306   5.132   6.671   6.715
 9136SOL    HW128307   5.127   6.763   6.676
 9136SOL    HW228308   5.213   6.663   6.772
 9137SOL     OW28309   5.384   1.443   0.525
 9137SOL    HW128310   5.310   1.394   0.479
 9137SOL    HW228311   5.387   1.538   0.491
 9138SOL     OW28312   0.452   5.973   6.789
 9138SOL    HW128313   0.448   6.058   6.841
 9138SOL    HW228314   0.487   5.992   6.697
 9139SOL     OW28315   2.430   1.970   3.222
 9139SOL    HW128316   2.403   1.907   3.294
 9139SOL    HW228317   2.520   2.008   3.242
 9140SOL     OW28318   7.008   3.380   2.697
 9140SOL    HW128319   0.019   3.285   2.704
 9140SOL    HW228320   6.956   3.405   2.779
 9141SOL     OW28321   5.600   0.249   0.867
 9141SOL    HW128322   5.694   0.254   0.834
 9141SOL    HW228323   5.586   0.320   0.936
 9142SOL     OW28324   0.949   2.486   0.867
 9142SOL    HW128325   0.938   2.400   0.917
 9142SOL    HW228326   0.861   2.535   0.866
 9143SOL     OW28327   6.458   3.467   6.920
 9143SOL    HW128328   6.440   3.386   6.975
 9143SOL    HW228329   6.372   3.513   6.899
 9144SOL     OW28330   2.420   5.066   4.497
 9144SOL    HW128331   2.432   5.111   4.586
 9144SOL    HW228332   2.346   4.999   4.504
 9145SOL     OW28333   0.252   5.690   0.202
 9145SOL    HW128334   0.182   5.619   0.194
 9145SOL    HW228335   0.216   5.766   0.256
 9146SOL     OW28336   5.384   2.955   3.461
 9146SOL    HW128337   5.420   2.863   3.471
 9146SOL    HW228338   5.390   3.003   3.549
 9147SOL     OW28339   6.040   0.143   5.198
 9147SOL    HW128340   6.049   0.056   5.149
 9147SOL    HW228341   6.010   0.214   5.135
 9148SOL     OW28342   5.271   6.093   1.258
 9148SOL    HW128343   5.338   6.050   1.319
 9148SOL    HW228344   5.260   6.189   1.284
 9149SOL     OW28345   5.896   3.925   2.782
 9149SOL    HW128346   5.976   3.885   2.828
 9149SOL    HW228347   5.845   3.982   2.847
 9150SOL     OW28348   3.685   5.499   1.215
 9150SOL    HW128349   3.659   5.471   1.307
 9150SOL    HW228350   3.603   5.519   1.161
 9151SOL     OW28351   2.163   4.171   3.230
 9151SOL    HW128352   2.096   4.245   3.222
 9151SOL    HW228353   2.246   4.206   3.274
 9152SOL     OW28354   2.081   4.353   4.869
 9152SOL    HW128355   2.109   4.263   4.835
 9152SOL    HW228356   2.002   4.343   4.929
 9153SOL     OW28357   0.463   2.696   6.794
 9153SOL    HW128358   0.513   2.652   6.719
 9153SOL    HW228359   0.520   2.695   6.876
 9154SOL     OW28360   4.986   4.551   6.858
 9154SOL    HW128361   4.934   4.516   6.780
 9154SOL    HW228362   5.074   4.504   6.863
 9155SOL     OW28363   1.596   3.593   2.222
 9155SOL    HW128364   1.617   3.495   2.224
 9155SOL    HW228365   1.604   3.626   2.128
 9156SOL     OW28366   0.946   2.311   0.122
 9156SOL    HW128367   1.003   2.288   0.043
 9156SOL    HW228368   0.920   2.227   0.170
 9157SOL     OW28369   1.369   3.927   6.516
 9157SOL    HW128370   1.392   3.837   6.552
 9157SOL    HW228371   1.424   3.946   6.435
 9158SOL     OW28372   5.726   3.592   4.788
 9158SOL    HW128373   5.754   3.636   4.703
 9158SOL    HW228374   5.631   3.560   4.780
 9159SOL     OW28375   1.589   1.232   2.060
 9159SOL    HW128376   1.671   1.180   2.083
 9159SOL    HW228377   1.575   1.305   2.127
 9160SOL     OW28378   6.752   6.181   5.537
 9160SOL    HW128379   6.671   6.202   5.590
 9160SOL    HW228380   6.759   6.244   5.459
 9161SOL     OW28381   5.495   4.899   4.226
 9161SOL    HW128382   5.523   4.842   4.304
 9161SOL    HW228383   5.574   4.948   4.190
 9162SOL     OW28384   3.990   1.226   3.246
 9162SOL    HW128385   3.991   1.126   3.250
 9162SOL    HW228386   4.037   1.262   3.327
 9163SOL     OW28387   0.651   2.559   4.593
 9163SOL    HW128388   0.575   2.602   4.544
 9163SOL    HW228389   0.695   2.627   4.652
 9164SOL     OW28390   2.565   0.205   6.877
 9164SOL    HW128391   2.550   0.111   6.907
 9164SOL    HW228392   2.526   0.268   6.944
 9165SOL     OW28393   6.222   1.103   5.498
 9165SOL    HW128394   6.222   1.037   5.424
 9165SOL    HW228395   6.244   1.057   5.584
 9166SOL     OW28396   4.455   6.020   1.332
 9166SOL    HW128397   4.444   5.932   1.288
 9166SOL    HW228398   4.468   6.091   1.263
 9167SOL     OW28399   2.315   1.952   6.300
 9167SOL    HW128400   2.371   2.027   6.265
 9167SOL    HW228401   2.371   1.891   6.356
 9168SOL     OW28402   0.064   5.992   5.774
 9168SOL    HW128403   0.008   5.910   5.785
 9168SOL    HW228404   0.131   5.997   5.847
 9169SOL     OW28405   6.692   0.616   6.155
 9169SOL    HW128406   6.771   0.554   6.153
 9169SOL    HW228407   6.723   0.710   6.165
 9170SOL     OW28408   1.354   0.262   6.604
 9170SOL    HW128409   1.401   0.175   6.621
 9170SOL    HW228410   1.386   0.300   6.517
 9171SOL     OW28411   4.063   5.201   0.396
 9171SOL    HW128412   4.055   5.108   0.433
 9171SOL    HW228413   3.972   5.240   0.384
 9172SOL     OW28414   5.205   0.707   2.655
 9172SOL    HW128415   5.280   0.704   2.721
 9172SOL    HW228416   5.172   0.614   2.637
 9173SOL     OW28417   5.790   4.210   6.046
 9173SOL    HW128418   5.716   4.146   6.028
 9173SOL    HW228419   5.760   4.278   6.112
 9174SOL     OW28420   6.326   4.385   0.627
 9174SOL    HW128421   6.315   4.345   0.536
 9174SOL    HW228422   6.411   4.352   0.668
 9175SOL     OW28423   1.240   6.195   6.566
 9175SOL    HW128424   1.188   6.226   6.645
 9175SOL    HW228425   1.207   6.104   6.539
 9176SOL     OW28426   2.292   1.045   3.280
 9176SOL    HW128427   2.341   1.122   3.239
 9176SOL    HW228428   2.271   0.977   3.209
 9177SOL     OW28429   0.641   4.622   4.118
 9177SOL    HW128430   0.663   4.717   4.095
 9177SOL    HW228431   0.692   4.561   4.057
 9178SOL     OW28432   1.650   5.187   0.972
 9178SOL    HW128433   1.661   5.285   0.955
 9178SOL    HW228434   1.660   5.136   0.887
 9179SOL     OW28435   2.052   5.101   3.879
 9179SOL    HW128436   2.058   5.139   3.971
 9179SOL    HW228437   2.012   5.169   3.817
 9180SOL     OW28438   6.735   3.024   3.684
 9180SOL    HW128439   6.779   3.034   3.596
 9180SOL    HW228440   6.761   2.936   3.725
 9181SOL     OW28441   5.699   2.643   4.399
 9181SOL    HW128442   5.625   2.587   4.360
 9181SOL    HW228443   5.765   2.584   4.444
 9182SOL     OW28444   2.891   6.841   3.109
 9182SOL    HW128445   2.955   6.892   3.052
 9182SOL    HW228446   2.865   6.896   3.187
 9183SOL     OW28447   4.613   4.125   0.053
 9183SOL    HW128448   4.551   4.195   0.088
 9183SOL    HW228449   4.560   4.052   0.010
 9184SOL     OW28450   4.467   1.845   0.986
 9184SOL    HW128451   4.499   1.893   1.067
 9184SOL    HW228452   4.493   1.897   0.904
 9185SOL     OW28453   5.682   6.290   5.322
 9185SOL    HW128454   5.744   6.353   5.368
 9185SOL    HW228455   5.596   6.284   5.373
 9186SOL     OW28456   6.069   6.801   4.429
 9186SOL    HW128457   6.153   6.855   4.421
 9186SOL    HW228458   6.044   6.791   4.525
 9187SOL     OW28459   3.604   2.282   0.427
 9187SOL    HW128460   3.529   2.289   0.493
 9187SOL    HW228461   3.570   2.304   0.336
 9188SOL     OW28462   2.043   0.399   2.062
 9188SOL    HW128463   2.053   0.333   1.988
 9188SOL    HW228464   2.051   0.353   2.150
 9189SOL     OW28465   3.192   5.401   1.944
 9189SOL    HW128466   3.220   5.398   2.040
 9189SOL    HW228467   3.169   5.495   1.918
 9190SOL     OW28468   1.513   3.759   5.552
 9190SOL    HW128469   1.553   3.791   5.638
 9190SOL    HW228470   1.582   3.709   5.500
 9191SOL     OW28471   5.597   1.104   0.211
 9191SOL    HW128472   5.553   1.137   0.295
 9191SOL    HW228473   5.695   1.122   0.217
 9192SOL     OW28474   6.939   2.409   6.272
 9192SOL    HW128475   6.857   2.459   6.244
 9192SOL    HW228476   6.913   2.332   6.330
 9193SOL     OW28477   4.031   3.791   5.189
 9193SOL    HW128478   4.094   3.717   5.211
 9193SOL    HW228479   3.953   3.755   5.139
 9194SOL     OW28480   2.829   1.273   2.629
 9194SOL    HW128481   2.888   1.323   2.565
 9194SOL    HW228482   2.864   1.180   2.641
 9195SOL     OW28483   0.991   3.846   3.093
 9195SOL    HW128484   1.008   3.748   3.093
 9195SOL    HW228485   0.902   3.864   3.051
 9196SOL     OW28486   5.343   6.776   3.611
 9196SOL    HW128487   5.385   6.856   3.568
 9196SOL    HW228488   5.331   6.704   3.544
 9197SOL     OW28489   2.997   4.676   1.425
 9197SOL    HW128490   2.943   4.596   1.401
 9197SOL    HW228491   3.031   4.720   1.342
 9198SOL     OW28492   6.428   4.279   6.212
 9198SOL    HW128493   6.495   4.354   6.209
 9198SOL    HW228494   6.336   4.317   6.210
 9199SOL     OW28495   6.650   3.289   5.512
 9199SOL    HW128496   6.592   3.369   5.495
 9199SOL    HW228497   6.739   3.319   5.547
 9200SOL     OW28498   3.243   6.583   5.867
 9200SOL    HW128499   3.315   6.561   5.932
 9200SOL    HW228500   3.155   6.552   5.904
 9201SOL     OW28501   6.998   3.550   0.164
 9201SOL    HW128502   6.927   3.480   0.175
 9201SOL    HW228503   6.956   3.641   0.163
 9202SOL     OW28504   0.788   6.027   3.756
 9202SOL    HW128505   0.841   6.111   3.767
 9202SOL    HW228506   0.789   5.999   3.660
 9203SOL     OW28507   6.234   2.924   6.102
 9203SOL    HW128508   6.208   2.963   6.190
 9203SOL    HW228509   6.266   2.996   6.041
 9204SOL     OW28510   4.860   3.408   4.433
 9204SOL    HW128511   4.859   3.312   4.407
 9204SOL    HW228512   4.818   3.418   4.524
 9205SOL     OW28513   5.326   5.625   3.511
 9205SOL    HW128514   5.248   5.654   3.566
 9205SOL    HW228515   5.322   5.671   3.421
 9206SOL     OW28516   3.230   5.645   3.125
 9206SOL    HW128517   3.239   5.594   3.211
 9206SOL    HW228518   3.247   5.585   3.048
 9207SOL     OW28519   4.857   3.974   0.293
 9207SOL    HW128520   4.771   4.023   0.284
 9207SOL    HW228521   4.840   3.875   0.292
 9208SOL     OW28522   5.572   4.647   3.063
 9208SOL    HW128523   5.486   4.688   3.093
 9208SOL    HW228524   5.562   4.547   3.061
 9209SOL     OW28525   4.691   0.954   0.064
 9209SOL    HW128526   4.695   1.033   0.004
 9209SOL    HW228527   4.733   0.875   0.019
 9210SOL     OW28528   1.283   1.857   1.353
 9210SOL    HW128529   1.216   1.842   1.426
 9210SOL    HW228530   1.271   1.948   1.316
 9211SOL     OW28531   5.857   2.658   5.850
 9211SOL    HW128532   5.909   2.730   5.896
 9211SOL    HW228533   5.867   2.572   5.900
 9212SOL     OW28534   4.986   5.243   4.074
 9212SOL    HW128535   4.894   5.281   4.082
 9212SOL    HW228536   5.032   5.284   3.995
 9213SOL     OW28537   5.586   4.635   5.030
 9213SOL    HW128538   5.636   4.697   4.969
 9213SOL    HW228539   5.606   4.540   5.006
 9214SOL     OW28540   6.936   3.212   5.377
 9214SOL    HW128541   6.900   3.276   5.445
 9214SOL    HW228542   0.017   3.226   5.367
 9215SOL     OW28543   1.828   3.724   2.203
 9215SOL    HW128544   1.841   3.672   2.118
 9215SOL    HW228545   1.743   3.697   2.246
 9216SOL     OW28546   2.747   6.989   3.317
 9216SOL    HW128547   2.681   0.030   3.270
 9216SOL    HW228548   2.711   6.896   3.321
 9217SOL     OW28549   5.870   3.475   6.145
 9217SOL    HW128550   5.895   3.558   6.096
 9217SOL    HW228551   5.942   3.406   6.132
 9218SOL     OW28552   3.300   0.798   7.012
 9218SOL    HW128553   3.354   0.862   6.957
 9218SOL    HW228554   3.268   0.723   6.954
 9219SOL     OW28555   5.331   3.876   6.191
 9219SOL    HW128556   5.355   3.951   6.252
 9219SOL    HW228557   5.288   3.913   6.109
 9220SOL     OW28558   1.040   6.174   2.033
 9220SOL    HW128559   1.019   6.136   2.123
 9220SOL    HW228560   1.135   6.204   2.031
 9221SOL     OW28561   1.716   0.567   3.110
 9221SOL    HW128562   1.737   0.601   3.202
 9221SOL    HW228563   1.684   0.473   3.117
 9222SOL     OW28564   2.569   5.888   5.498
 9222SOL    HW128565   2.479   5.928   5.517
 9222SOL    HW228566   2.607   5.932   5.416
 9223SOL     OW28567   1.679   2.209   4.191
 9223SOL    HW128568   1.726   2.166   4.268
 9223SOL    HW228569   1.727   2.186   4.106
 9224SOL     OW28570   0.795   5.601   4.080
 9224SOL    HW128571   0.720   5.567   4.023
 9224SOL    HW228572   0.842   5.525   4.123
 9225SOL     OW28573   3.127   6.256   6.182
 9225SOL    HW128574   3.180   6.220   6.106
 9225SOL    HW228575   3.097   6.349   6.162
 9226SOL     OW28576   0.231   6.863   1.525
 9226SOL    HW128577   0.263   6.809   1.604
 9226SOL    HW228578   0.136   6.890   1.539
 9227SOL     OW28579   1.987   5.624   1.154
 9227SOL    HW128580   1.928   5.657   1.228
 9227SOL    HW228581   2.068   5.683   1.148
 9228SOL     OW28582   3.024   1.087   6.637
 9228SOL    HW128583   3.110   1.056   6.677
 9228SOL    HW228584   2.990   1.167   6.688
 9229SOL     OW28585   0.724   5.115   5.728
 9229SOL    HW128586   0.801   5.179   5.724
 9229SOL    HW228587   0.750   5.027   5.689
 9230SOL     OW28588   5.033   2.983   3.605
 9230SOL    HW128589   5.058   2.897   3.649
 9230SOL    HW228590   5.071   2.985   3.512
 9231SOL     OW28591   1.366   3.662   4.662
 9231SOL    HW128592   1.271   3.632   4.661
 9231SOL    HW228593   1.378   3.738   4.599
 9232SOL     OW28594   3.804   5.310   6.754
 9232SOL    HW128595   3.709   5.312   6.724
 9232SOL    HW228596   3.818   5.234   6.817
 9233SOL     OW28597   6.017   5.671   1.667
 9233SOL    HW128598   5.931   5.701   1.625
 9233SOL    HW228599   6.079   5.749   1.676
 9234SOL     OW28600   3.327   5.321   0.249
 9234SOL    HW128601   3.287   5.409   0.226
 9234SOL    HW228602   3.373   5.327   0.338
 9235SOL     OW28603   1.829   2.794   3.710
 9235SOL    HW128604   1.746   2.757   3.667
 9235SOL    HW228605   1.813   2.890   3.732
 9236SOL     OW28606   1.837   4.133   6.691
 9236SOL    HW128607   1.848   4.190   6.610
 9236SOL    HW228608   1.873   4.180   6.771
 9237SOL     OW28609   0.223   6.169   3.103
 9237SOL    HW128610   0.195   6.233   3.174
 9237SOL    HW228611   0.318   6.142   3.117
 9238SOL     OW28612   1.803   2.717   6.445
 9238SOL    HW128613   1.759   2.645   6.499
 9238SOL    HW228614   1.900   2.695   6.433
 9239SOL     OW28615   0.146   4.000   6.784
 9239SOL    HW128616   0.194   4.067   6.841
 9239SOL    HW228617   0.047   4.008   6.799
 9240SOL     OW28618   5.448   2.594   2.452
 9240SOL    HW128619   5.404   2.608   2.363
 9240SOL    HW228620   5.398   2.524   2.503
 9241SOL     OW28621   0.817   5.423   6.196
 9241SOL    HW128622   0.753   5.386   6.263
 9241SOL    HW228623   0.785   5.402   6.103
 9242SOL     OW28624   1.458   4.740   0.711
 9242SOL    HW128625   1.548   4.726   0.668
 9242SOL    HW228626   1.471   4.771   0.805
 9243SOL     OW28627   0.821   0.283   1.431
 9243SOL    HW128628   0.812   0.183   1.424
 9243SOL    HW228629   0.756   0.326   1.368
 9244SOL     OW28630   3.401   4.618   5.962
 9244SOL    HW128631   3.378   4.586   5.870
 9244SOL    HW228632   3.318   4.623   6.017
 9245SOL     OW28633   1.054   5.510   3.958
 9245SOL    HW128634   1.009   5.595   3.986
 9245SOL    HW228635   1.058   5.447   4.035
 9246SOL     OW28636   6.485   6.568   2.264
 9246SOL    HW128637   6.420   6.576   2.339
 9246SOL    HW228638   6.482   6.651   2.208
 9247SOL     OW28639   2.427   6.148   3.303
 9247SOL    HW128640   2.507   6.123   3.358
 9247SOL    HW228641   2.357   6.076   3.310
 9248SOL     OW28642   2.947   1.979   4.326
 9248SOL    HW128643   2.964   1.948   4.233
 9248SOL    HW228644   2.909   1.904   4.380
 9249SOL     OW28645   3.549   4.629   1.102
 9249SOL    HW128646   3.478   4.699   1.098
 9249SOL    HW228647   3.588   4.625   1.194
 9250SOL     OW28648   6.052   3.143   4.126
 9250SOL    HW128649   6.078   3.105   4.215
 9250SOL    HW228650   6.029   3.068   4.063
 9251SOL     OW28651   4.022   1.539   2.886
 9251SOL    HW128652   4.118   1.565   2.875
 9251SOL    HW228653   3.983   1.587   2.964
 9252SOL     OW28654   5.146   0.870   4.122
 9252SOL    HW128655   5.153   0.946   4.186
 9252SOL    HW228656   5.063   0.817   4.141
 9253SOL     OW28657   5.283   5.227   5.777
 9253SOL    HW128658   5.191   5.199   5.749
 9253SOL    HW228659   5.327   5.276   5.702
 9254SOL     OW28660   5.669   5.177   3.486
 9254SOL    HW128661   5.573   5.173   3.515
 9254SOL    HW228662   5.727   5.193   3.566
 9255SOL     OW28663   4.566   4.179   0.752
 9255SOL    HW128664   4.467   4.177   0.764
 9255SOL    HW228665   4.610   4.141   0.833
 9256SOL     OW28666   2.872   0.624   2.777
 9256SOL    HW128667   2.879   0.659   2.683
 9256SOL    HW228668   2.959   0.639   2.823
 9257SOL     OW28669   0.155   4.402   3.125
 9257SOL    HW128670   0.239   4.455   3.136
 9257SOL    HW228671   0.163   4.343   3.045
 9258SOL     OW28672   3.382   4.164   2.976
 9258SOL    HW128673   3.478   4.186   2.962
 9258SOL    HW228674   3.374   4.087   3.040
 9259SOL     OW28675   0.200   2.167   0.148
 9259SOL    HW128676   0.259   2.225   0.205
 9259SOL    HW228677   0.196   2.205   0.056
 9260SOL     OW28678   5.978   1.773   5.295
 9260SOL    HW128679   5.994   1.872   5.289
 9260SOL    HW228680   5.910   1.755   5.366
 9261SOL     OW28681   2.706   1.345   0.283
 9261SOL    HW128682   2.693   1.261   0.334
 9261SOL    HW228683   2.618   1.385   0.260
 9262SOL     OW28684   6.482   4.907   4.966
 9262SOL    HW128685   6.443   4.818   4.943
 9262SOL    HW228686   6.450   4.975   4.901
 9263SOL     OW28687   4.730   0.284   1.705
 9263SOL    HW128688   4.649   0.250   1.753
 9263SOL    HW228689   4.800   0.212   1.702
 9264SOL     OW28690   5.080   4.362   0.233
 9264SOL    HW128691   5.050   4.433   0.169
 9264SOL    HW228692   5.147   4.401   0.296
 9265SOL     OW28693   4.118   2.187   0.658
 9265SOL    HW128694   4.144   2.265   0.601
 9265SOL    HW228695   4.026   2.157   0.632
 9266SOL     OW28696   1.151   6.693   1.065
 9266SOL    HW128697   1.198   6.685   1.152
 9266SOL    HW228698   1.185   6.623   1.002
 9267SOL     OW28699   6.798   2.533   4.609
 9267SOL    HW128700   6.779   2.439   4.583
 9267SOL    HW228701   6.880   2.564   4.561
 9268SOL     OW28702   1.339   5.185   2.444
 9268SOL    HW128703   1.423   5.231   2.474
 9268SOL    HW228704   1.318   5.211   2.350
 9269SOL     OW28705   4.022   1.518   6.576
 9269SOL    HW128706   3.987   1.492   6.666
 9269SOL    HW228707   4.122   1.511   6.577
 9270SOL     OW28708   4.232   6.851   5.896
 9270SOL    HW128709   4.262   6.877   5.988
 9270SOL    HW228710   4.183   6.764   5.901
 9271SOL     OW28711   6.006   0.337   1.107
 9271SOL    HW128712   6.102   0.364   1.113
 9271SOL    HW228713   5.948   0.418   1.116
 9272SOL     OW28714   1.201   5.897   5.274
 9272SOL    HW128715   1.226   5.908   5.371
 9272SOL    HW228716   1.184   5.986   5.234
 9273SOL     OW28717   5.532   6.650   2.624
 9273SOL    HW128718   5.463   6.699   2.678
 9273SOL    HW228719   5.588   6.716   2.574
 9274SOL     OW28720   6.329   1.320   0.230
 9274SOL    HW128721   6.252   1.257   0.227
 9274SOL    HW228722   6.388   1.297   0.308
 9275SOL     OW28723   6.604   0.953   0.358
 9275SOL    HW128724   6.539   0.899   0.412
 9275SOL    HW228725   6.649   1.021   0.417
 9276SOL     OW28726   1.555   3.153   1.605
 9276SOL    HW128727   1.512   3.234   1.644
 9276SOL    HW228728   1.489   3.105   1.547
 9277SOL     OW28729   4.468   4.016   0.307
 9277SOL    HW128730   4.467   3.977   0.399
 9277SOL    HW228731   4.540   4.085   0.301
 9278SOL     OW28732   2.051   0.229   5.911
 9278SOL    HW128733   2.114   0.221   5.834
 9278SOL    HW228734   2.058   0.320   5.951
 9279SOL     OW28735   3.489   1.014   2.324
 9279SOL    HW128736   3.412   1.044   2.268
 9279SOL    HW228737   3.538   0.942   2.276
 9280SOL     OW28738   2.147   1.813   3.036
 9280SOL    HW128739   2.179   1.774   3.122
 9280SOL    HW228740   2.067   1.762   3.004
 9281SOL     OW28741   2.195   3.540   6.236
 9281SOL    HW128742   2.099   3.550   6.209
 9281SOL    HW228743   2.231   3.629   6.263
 9282SOL     OW28744   5.326   0.374   3.551
 9282SOL    HW128745   5.262   0.327   3.489
 9282SOL    HW228746   5.409   0.398   3.500
 9283SOL     OW28747   5.324   0.886   3.933
 9283SOL    HW128748   5.265   0.889   4.014
 9283SOL    HW228749   5.270   0.863   3.852
 9284SOL     OW28750   2.596   3.292   5.363
 9284SOL    HW128751   2.527   3.228   5.328
 9284SOL    HW228752   2.680   3.242   5.385
 9285SOL     OW28753   4.666   2.227   0.912
 9285SOL    HW128754   4.720   2.306   0.883
 9285SOL    HW228755   4.618   2.248   0.997
 9286SOL     OW28756   4.994   5.679   0.964
 9286SOL    HW128757   5.024   5.600   1.017
 9286SOL    HW228758   5.066   5.748   0.963
 9287SOL     OW28759   3.295   5.073   0.587
 9287SOL    HW128760   3.211   5.120   0.560
 9287SOL    HW228761   3.292   4.979   0.555
 9288SOL     OW28762   4.625   1.550   2.890
 9288SOL    HW128763   4.572   1.534   2.807
 9288SOL    HW228764   4.690   1.625   2.874
 9289SOL     OW28765   3.816   0.461   1.975
 9289SOL    HW128766   3.741   0.408   2.015
 9289SOL    HW228767   3.782   0.510   1.894
 9290SOL     OW28768   5.576   1.255   3.128
 9290SOL    HW128769   5.662   1.225   3.088
 9290SOL    HW228770   5.560   1.206   3.214
 9291SOL     OW28771   1.127   5.834   5.596
 9291SOL    HW128772   1.113   5.741   5.562
 9291SOL    HW228773   1.219   5.865   5.571
 9292SOL     OW28774   1.811   3.000   6.460
 9292SOL    HW128775   1.785   3.014   6.555
 9292SOL    HW228776   1.799   2.904   6.436
 9293SOL     OW28777   5.330   2.891   6.356
 9293SOL    HW128778   5.393   2.817   6.378
 9293SOL    HW228779   5.236   2.856   6.356
 9294SOL     OW28780   4.356   0.249   5.936
 9294SOL    HW128781   4.453   0.226   5.949
 9294SOL    HW228782   4.336   0.254   5.839
 9295SOL     OW28783   5.419   0.804   5.146
 9295SOL    HW128784   5.516   0.810   5.169
 9295SOL    HW228785   5.380   0.896   5.145
 9296SOL     OW28786   1.700   5.910   0.043
 9296SOL    HW128787   1.798   5.914   0.025
 9296SOL    HW228788   1.652   5.878   6.980
 9297SOL     OW28789   0.546   6.620   2.680
 9297SOL    HW128790   0.466   6.584   2.633
 9297SOL    HW228791   0.516   6.682   2.753
 9298SOL     OW28792   0.935   6.516   6.553
 9298SOL    HW128793   0.910   6.423   6.526
 9298SOL    HW228794   0.936   6.575   6.472
 9299SOL     OW28795   0.484   2.505   4.919
 9299SOL    HW128796   0.432   2.591   4.925
 9299SOL    HW228797   0.580   2.522   4.942
 9300SOL     OW28798   0.098   4.619   5.983
 9300SOL    HW128799   0.179   4.596   6.037
 9300SOL    HW228800   0.102   4.572   5.895
 9301SOL     OW28801   5.601   5.480   4.315
 9301SOL    HW128802   5.666   5.547   4.279
 9301SOL    HW228803   5.633   5.447   4.404
 9302SOL     OW28804   2.260   2.677   4.258
 9302SOL    HW128805   2.165   2.700   4.280
 9302SOL    HW228806   2.280   2.703   4.163
 9303SOL     OW28807   2.878   4.035   0.943
 9303SOL    HW128808   2.811   4.029   0.869
 9303SOL    HW228809   2.954   3.973   0.923
 9304SOL     OW28810   4.070   4.535   1.740
 9304SOL    HW128811   3.981   4.529   1.696
 9304SOL    HW228812   4.119   4.449   1.727
 9305SOL     OW28813   3.189   1.091   0.806
 9305SOL    HW128814   3.195   1.097   0.906
 9305SOL    HW228815   3.163   1.180   0.769
 9306SOL     OW28816   0.597   5.029   5.480
 9306SOL    HW128817   0.512   4.990   5.445
 9306SOL    HW228818   0.579   5.075   5.567
 9307SOL     OW28819   1.267   3.395   1.064
 9307SOL    HW128820   1.319   3.353   1.139
 9307SOL    HW228821   1.243   3.489   1.088
 9308SOL     OW28822   2.188   3.475   0.339
 9308SOL    HW128823   2.109   3.427   0.302
 9308SOL    HW228824   2.175   3.490   0.437
 9309SOL     OW28825   3.661   4.747   6.236
 9309SOL    HW128826   3.740   4.797   6.269
 9309SOL    HW228827   3.679   4.713   6.143
 9310SOL     OW28828   5.271   5.164   6.052
 9310SOL    HW128829   5.277   5.199   5.958
 9310SOL    HW228830   5.208   5.087   6.055
 9311SOL     OW28831   4.610   4.575   1.770
 9311SOL    HW128832   4.706   4.601   1.783
 9311SOL    HW228833   4.565   4.569   1.859
 9312SOL     OW28834   1.213   3.618   0.743
 9312SOL    HW128835   1.220   3.674   0.826
 9312SOL    HW228836   1.296   3.563   0.733
 9313SOL     OW28837   0.366   0.580   0.833
 9313SOL    HW128838   0.356   0.678   0.852
 9313SOL    HW228839   0.453   0.548   0.869
 9314SOL     OW28840   5.892   4.292   0.011
 9314SOL    HW128841   5.809   4.275   0.063
 9314SOL    HW228842   5.877   4.368   6.966
 9315SOL     OW28843   6.258   0.182   5.343
 9315SOL    HW128844   6.179   0.170   5.283
 9315SOL    HW228845   6.286   0.093   5.379
 9316SOL     OW28846   5.563   6.815   5.651
 9316SOL    HW128847   5.583   6.754   5.727
 9316SOL    HW228848   5.499   6.886   5.681
 9317SOL     OW28849   5.480   5.227   3.725
 9317SOL    HW128850   5.418   5.154   3.698
 9317SOL    HW228851   5.456   5.259   3.817
 9318SOL     OW28852   5.901   1.362   5.955
 9318SOL    HW128853   5.823   1.303   5.975
 9318SOL    HW228854   5.878   1.422   5.878
 9319SOL     OW28855   2.798   2.430   6.684
 9319SOL    HW128856   2.840   2.468   6.766
 9319SOL    HW228857   2.727   2.364   6.710
 9320SOL     OW28858   3.270   0.589   4.887
 9320SOL    HW128859   3.287   0.669   4.945
 9320SOL    HW228860   3.172   0.566   4.890
 9321SOL     OW28861   0.228   0.309   4.728
 9321SOL    HW128862   0.325   0.323   4.709
 9321SOL    HW228863   0.208   0.335   4.822
 9322SOL     OW28864   6.862   3.635   5.983
 9322SOL    HW128865   6.764   3.649   5.997
 9322SOL    HW228866   6.890   3.549   6.027
 9323SOL     OW28867   1.318   0.587   5.332
 9323SOL    HW128868   1.417   0.572   5.345
 9323SOL    HW228869   1.296   0.683   5.349
 9324SOL     OW28870   1.310   4.121   1.670
 9324SOL    HW128871   1.262   4.161   1.592
 9324SOL    HW228872   1.331   4.193   1.736
 9325SOL     OW28873   5.672   1.454   0.220
 9325SOL    HW128874   5.717   1.405   0.145
 9325SOL    HW228875   5.737   1.515   0.264
 9326SOL     OW28876   2.610   4.868   0.575
 9326SOL    HW128877   2.620   4.881   0.674
 9326SOL    HW228878   2.651   4.781   0.548
 9327SOL     OW28879   4.784   0.255   2.361
 9327SOL    HW128880   4.843   0.305   2.425
 9327SOL    HW228881   4.745   0.319   2.295
 9328SOL     OW28882   2.563   0.874   4.847
 9328SOL    HW128883   2.534   0.811   4.919
 9328SOL    HW228884   2.482   0.908   4.798
 9329SOL     OW28885   5.850   3.720   0.812
 9329SOL    HW128886   5.897   3.774   0.882
 9329SOL    HW228887   5.892   3.736   0.723
 9330SOL     OW28888   6.286   0.425   5.199
 9330SOL    HW128889   6.276   0.336   5.244
 9330SOL    HW228890   6.255   0.496   5.261
 9331SOL     OW28891   2.319   0.914   6.727
 9331SOL    HW128892   2.373   0.998   6.720
 9331SOL    HW228893   2.278   0.893   6.639
 9332SOL     OW28894   4.045   4.651   0.736
 9332SOL    HW128895   4.142   4.677   0.741
 9332SOL    HW228896   3.990   4.718   0.785
 9333SOL     OW28897   3.523   4.151   6.633
 9333SOL    HW128898   3.426   4.129   6.628
 9333SOL    HW228899   3.535   4.250   6.644
 9334SOL     OW28900   4.985   6.602   3.833
 9334SOL    HW128901   5.076   6.602   3.874
 9334SOL    HW228902   4.990   6.636   3.740
 9335SOL     OW28903   1.169   0.872   6.841
 9335SOL    HW128904   1.093   0.874   6.906
 9335SOL    HW228905   1.135   0.890   6.749
 9336SOL     OW28906   3.563   6.635   5.270
 9336SOL    HW128907   3.531   6.583   5.190
 9336SOL    HW228908   3.486   6.654   5.330
 9337SOL     OW28909   4.130   1.191   4.827
 9337SOL    HW128910   4.212   1.175   4.882
 9337SOL    HW228911   4.053   1.212   4.888
 9338SOL     OW28912   6.269   7.015   1.738
 9338SOL    HW128913   6.306   0.050   1.814
 9338SOL    HW228914   6.174   0.024   1.722
 9339SOL     OW28915   6.171   6.392   0.702
 9339SOL    HW128916   6.156   6.487   0.731
 9339SOL    HW228917   6.266   6.368   0.717
 9340SOL     OW28918   4.578   4.769   3.376
 9340SOL    HW128919   4.559   4.692   3.315
 9340SOL    HW228920   4.501   4.782   3.438
 9341SOL     OW28921   6.806   4.861   0.894
 9341SOL    HW128922   6.900   4.889   0.874
 9341SOL    HW228923   6.750   4.872   0.811
 9342SOL     OW28924   3.055   0.009   3.852
 9342SOL    HW128925   2.988   0.083   3.855
 9342SOL    HW228926   3.123   0.028   3.782
 9343SOL     OW28927   5.094   3.949   1.503
 9343SOL    HW128928   5.045   4.036   1.513
 9343SOL    HW228929   5.093   3.900   1.589
 9344SOL     OW28930   5.282   6.499   1.980
 9344SOL    HW128931   5.242   6.575   1.929
 9344SOL    HW228932   5.264   6.511   2.078
 9345SOL     OW28933   6.785   5.815   2.037
 9345SOL    HW128934   6.826   5.754   1.969
 9345SOL    HW228935   6.751   5.898   1.992
 9346SOL     OW28936   5.563   0.852   1.566
 9346SOL    HW128937   5.601   0.943   1.583
 9346SOL    HW228938   5.609   0.811   1.487
 9347SOL     OW28939   3.574   4.090   0.269
 9347SOL    HW128940   3.542   3.996   0.255
 9347SOL    HW228941   3.666   4.088   0.309
 9348SOL     OW28942   2.347   6.236   2.745
 9348SOL    HW128943   2.408   6.162   2.717
 9348SOL    HW228944   2.372   6.319   2.694
 9349SOL     OW28945   5.948   4.996   2.046
 9349SOL    HW128946   5.886   4.937   2.097
 9349SOL    HW228947   6.043   4.972   2.069
 9350SOL     OW28948   0.040   2.525   5.565
 9350SOL    HW128949   0.041   2.590   5.641
 9350SOL    HW228950   0.026   2.574   5.479
 9351SOL     OW28951   3.177   0.215   6.100
 9351SOL    HW128952   3.236   0.215   6.180
 9351SOL    HW228953   3.205   0.288   6.037
 9352SOL     OW28954   3.927   1.261   6.442
 9352SOL    HW128955   3.926   1.354   6.477
 9352SOL    HW228956   3.974   1.201   6.507
 9353SOL     OW28957   0.413   4.263   0.808
 9353SOL    HW128958   0.456   4.307   0.887
 9353SOL    HW228959   0.442   4.309   0.724
 9354SOL     OW28960   0.077   2.211   5.914
 9354SOL    HW128961   7.001   2.178   5.916
 9354SOL    HW228962   0.139   2.135   5.932
 9355SOL     OW28963   0.066   1.889   4.614
 9355SOL    HW128964   0.027   1.796   4.614
 9355SOL    HW228965   0.114   1.905   4.528
 9356SOL     OW28966   4.785   6.127   2.117
 9356SOL    HW128967   4.719   6.139   2.043
 9356SOL    HW228968   4.782   6.207   2.177
 9357SOL     OW28969   1.402   3.221   6.619
 9357SOL    HW128970   1.418   3.287   6.545
 9357SOL    HW228971   1.481   3.221   6.681
 9358SOL     OW28972   6.867   3.092   2.214
 9358SOL    HW128973   6.866   3.142   2.301
 9358SOL    HW228974   6.774   3.062   2.191
 9359SOL     OW28975   1.780   3.437   5.621
 9359SOL    HW128976   1.734   3.486   5.548
 9359SOL    HW228977   1.862   3.488   5.649
 9360SOL     OW28978   1.252   5.359   6.988
 9360SOL    HW128979   1.213   5.450   7.004
 9360SOL    HW228980   1.270   5.315   0.058
 9361SOL     OW28981   1.515   5.324   2.623
 9361SOL    HW128982   1.416   5.336   2.622
 9361SOL    HW228983   1.553   5.370   2.704
 9362SOL     OW28984   2.111   3.045   2.589
 9362SOL    HW128985   2.024   2.995   2.584
 9362SOL    HW228986   2.186   2.981   2.597
 9363SOL     OW28987   3.545   6.370   2.112
 9363SOL    HW128988   3.583   6.446   2.165
 9363SOL    HW228989   3.472   6.404   2.053
 9364SOL     OW28990   3.585   3.125   6.322
 9364SOL    HW128991   3.578   3.083   6.232
 9364SOL    HW228992   3.654   3.078   6.376
 9365SOL     OW28993   2.355   1.782   4.265
 9365SOL    HW128994   2.257   1.777   4.246
 9365SOL    HW228995   2.407   1.751   4.185
 9366SOL     OW28996   3.684   5.716   6.280
 9366SOL    HW128997   3.697   5.624   6.318
 9366SOL    HW228998   3.761   5.774   6.306
 9367SOL     OW28999   0.163   6.900   3.008
 9367SOL    HW129000   0.179   6.832   2.935
 9367SOL    HW229001   0.067   6.929   3.005
 9368SOL     OW29002   2.651   1.069   2.505
 9368SOL    HW129003   2.744   1.035   2.514
 9368SOL    HW229004   2.622   1.063   2.410
 9369SOL     OW29005   6.732   5.985   4.744
 9369SOL    HW129006   6.707   5.890   4.724
 9369SOL    HW229007   6.793   5.988   4.823
 9370SOL     OW29008   5.433   0.005   3.534
 9370SOL    HW129009   5.413   0.001   3.436
 9370SOL    HW229010   5.480   0.091   3.554
 9371SOL     OW29011   2.843   5.251   1.017
 9371SOL    HW129012   2.795   5.232   0.931
 9371SOL    HW229013   2.878   5.345   1.017
 9372SOL     OW29014   5.118   0.636   2.106
 9372SOL    HW129015   5.196   0.694   2.082
 9372SOL    HW229016   5.053   0.689   2.161
 9373SOL     OW29017   5.300   1.762   2.295
 9373SOL    HW129018   5.316   1.824   2.372
 9373SOL    HW229019   5.311   1.813   2.210
 9374SOL     OW29020   0.235   3.438   0.167
 9374SOL    HW129021   0.143   3.478   0.166
 9374SOL    HW229022   0.301   3.505   0.134
 9375SOL     OW29023   0.729   1.462   1.452
 9375SOL    HW129024   0.640   1.463   1.407
 9375SOL    HW229025   0.770   1.371   1.443
 9376SOL     OW29026   2.486   3.989   1.312
 9376SOL    HW129027   2.553   3.918   1.290
 9376SOL    HW229028   2.490   4.061   1.243
 9377SOL     OW29029   1.880   5.543   3.645
 9377SOL    HW129030   1.893   5.560   3.743
 9377SOL    HW229031   1.966   5.560   3.597
 9378SOL     OW29032   1.776   0.978   3.859
 9378SOL    HW129033   1.779   1.066   3.907
 9378SOL    HW229034   1.756   0.993   3.762
 9379SOL     OW29035   4.943   6.868   5.721
 9379SOL    HW129036   4.993   6.787   5.689
 9379SOL    HW229037   4.859   6.840   5.767
 9380SOL     OW29038   4.718   5.490   5.308
 9380SOL    HW129039   4.806   5.534   5.292
 9380SOL    HW229040   4.731   5.411   5.369
 9381SOL     OW29041   4.217   3.093   5.736
 9381SOL    HW129042   4.268   3.070   5.818
 9381SOL    HW229043   4.280   3.125   5.665
 9382SOL     OW29044   3.361   0.843   4.014
 9382SOL    HW129045   3.435   0.792   3.970
 9382SOL    HW229046   3.395   0.883   4.100
 9383SOL     OW29047   6.573   5.703   4.465
 9383SOL    HW129048   6.628   5.620   4.479
 9383SOL    HW229049   6.631   5.776   4.430
 9384SOL     OW29050   4.229   0.579   1.915
 9384SOL    HW129051   4.282   0.518   1.856
 9384SOL    HW229052   4.150   0.529   1.952
 9385SOL     OW29053   4.125   1.382   3.558
 9385SOL    HW129054   4.109   1.348   3.651
 9385SOL    HW229055   4.189   1.322   3.511
 9386SOL     OW29056   2.660   5.728   5.089
 9386SOL    HW129057   2.690   5.820   5.113
 9386SOL    HW229058   2.708   5.698   5.006
 9387SOL     OW29059   2.833   1.700   0.141
 9387SOL    HW129060   2.870   1.635   0.207
 9387SOL    HW229061   2.770   1.652   0.080
 9388SOL     OW29062   2.746   5.732   3.105
 9388SOL    HW129063   2.801   5.812   3.131
 9388SOL    HW229064   2.800   5.674   3.044
 9389SOL     OW29065   2.054   0.589   3.472
 9389SOL    HW129066   2.121   0.636   3.414
 9389SOL    HW229067   2.021   0.507   3.425
 9390SOL     OW29068   5.722   4.827   6.457
 9390SOL    HW129069   5.651   4.896   6.469
 9390SOL    HW229070   5.757   4.831   6.363
 9391SOL     OW29071   1.440   0.988   5.285
 9391SOL    HW129072   1.356   1.024   5.245
 9391SOL    HW229073   1.488   0.932   5.217
 9392SOL     OW29074   5.584   5.174   5.858
 9392SOL    HW129075   5.640   5.243   5.904
 9392SOL    HW229076   5.507   5.219   5.812
 9393SOL     OW29077   3.349   6.863   6.751
 9393SOL    HW129078   3.416   6.816   6.694
 9393SOL    HW229079   3.382   6.956   6.770
 9394SOL     OW29080   6.771   0.577   1.674
 9394SOL    HW129081   6.742   0.648   1.610
 9394SOL    HW229082   6.697   0.512   1.689
 9395SOL     OW29083   3.482   1.614   0.944
 9395SOL    HW129084   3.566   1.574   0.981
 9395SOL    HW229085   3.404   1.558   0.971
 9396SOL     OW29086   2.306   4.213   4.097
 9396SOL    HW129087   2.265   4.148   4.161
 9396SOL    HW229088   2.377   4.265   4.144
 9397SOL     OW29089   3.760   6.333   6.075
 9397SOL    HW129090   3.772   6.352   6.172
 9397SOL    HW229091   3.670   6.292   6.060
 9398SOL     OW29092   6.057   0.984   5.089
 9398SOL    HW129093   6.028   0.969   5.183
 9398SOL    HW229094   6.134   1.048   5.087
 9399SOL     OW29095   1.186   2.813   5.111
 9399SOL    HW129096   1.276   2.781   5.082
 9399SOL    HW229097   1.164   2.774   5.201
 9400SOL     OW29098   4.965   1.332   0.876
 9400SOL    HW129099   5.019   1.378   0.947
 9400SOL    HW229100   4.930   1.400   0.812
 9401SOL     OW29101   6.586   1.019   3.375
 9401SOL    HW129102   6.560   0.996   3.281
 9401SOL    HW229103   6.603   1.118   3.381
 9402SOL     OW29104   1.118   5.417   2.403
 9402SOL    HW129105   1.189   5.388   2.467
 9402SOL    HW229106   1.052   5.475   2.451
 9403SOL     OW29107   6.517   1.353   1.681
 9403SOL    HW129108   6.463   1.312   1.607
 9403SOL    HW229109   6.515   1.293   1.761
 9404SOL     OW29110   0.808   2.312   0.439
 9404SOL    HW129111   0.891   2.361   0.468
 9404SOL    HW229112   0.833   2.223   0.402
 9405SOL     OW29113   2.240   4.157   3.824
 9405SOL    HW129114   2.278   4.157   3.917
 9405SOL    HW229115   2.279   4.232   3.772
 9406SOL     OW29116   0.228   2.968   6.482
 9406SOL    HW129117   0.133   2.986   6.507
 9406SOL    HW229118   0.287   2.989   6.560
 9407SOL     OW29119   2.484   5.090   3.529
 9407SOL    HW129120   2.506   5.075   3.433
 9407SOL    HW229121   2.474   5.003   3.576
 9408SOL     OW29122   6.231   2.643   6.121
 9408SOL    HW129123   6.249   2.740   6.111
 9408SOL    HW229124   6.135   2.629   6.147
 9409SOL     OW29125   6.479   5.223   0.832
 9409SOL    HW129126   6.531   5.309   0.831
 9409SOL    HW229127   6.418   5.221   0.753
 9410SOL     OW29128   1.615   0.669   2.439
 9410SOL    HW129129   1.697   0.619   2.413
 9410SOL    HW229130   1.537   0.606   2.443
 9411SOL     OW29131   3.714   3.778   3.025
 9411SOL    HW129132   3.809   3.805   3.039
 9411SOL    HW229133   3.709   3.709   2.953
 9412SOL     OW29134   1.205   1.452   2.193
 9412SOL    HW129135   1.108   1.459   2.169
 9412SOL    HW229136   1.256   1.419   2.114
 9413SOL     OW29137   4.144   5.311   3.471
 9413SOL    HW129138   4.104   5.317   3.563
 9413SOL    HW229139   4.235   5.272   3.477
 9414SOL     OW29140   2.695   1.364   2.837
 9414SOL    HW129141   2.745   1.294   2.786
 9414SOL    HW229142   2.596   1.349   2.826
 9415SOL     OW29143   2.104   6.756   2.722
 9415SOL    HW129144   2.200   6.727   2.727
 9415SOL    HW229145   2.098   6.843   2.673
 9416SOL     OW29146   0.046   1.582   6.047
 9416SOL    HW129147   0.045   1.492   6.002
 9416SOL    HW229148   6.976   1.598   6.091
 9417SOL     OW29149   3.666   0.662   0.781
 9417SOL    HW129150   3.583   0.714   0.761
 9417SOL    HW229151   3.699   0.687   0.872
 9418SOL     OW29152   2.942   0.767   1.500
 9418SOL    HW129153   2.996   0.684   1.488
 9418SOL    HW229154   2.994   0.846   1.470
 9419SOL     OW29155   2.329   4.468   6.303
 9419SOL    HW129156   2.320   4.389   6.364
 9419SOL    HW229157   2.238   4.505   6.284
 9420SOL     OW29158   5.743   5.115   0.627
 9420SOL    HW129159   5.667   5.055   0.655
 9420SOL    HW229160   5.737   5.201   0.677
 9421SOL     OW29161   2.625   6.571   4.397
 9421SOL    HW129162   2.637   6.652   4.455
 9421SOL    HW229163   2.537   6.577   4.349
 9422SOL     OW29164   3.189   5.385   2.672
 9422SOL    HW129165   3.182   5.472   2.624
 9422SOL    HW229166   3.278   5.344   2.654
 9423SOL     OW29167   3.352   6.546   3.666
 9423SOL    HW129168   3.379   6.516   3.758
 9423SOL    HW229169   3.429   6.590   3.621
 9424SOL     OW29170   4.683   1.820   4.656
 9424SOL    HW129171   4.686   1.724   4.627
 9424SOL    HW229172   4.619   1.830   4.732
 9425SOL     OW29173   5.080   3.877   1.246
 9425SOL    HW129174   4.993   3.920   1.220
 9425SOL    HW229175   5.098   3.896   1.343
 9426SOL     OW29176   3.530   1.935   6.050
 9426SOL    HW129177   3.619   1.935   6.097
 9426SOL    HW229178   3.540   1.889   5.962
 9427SOL     OW29179   2.993   5.624   3.289
 9427SOL    HW129180   3.068   5.670   3.242
 9427SOL    HW229181   2.972   5.538   3.241
 9428SOL     OW29182   6.891   0.737   1.282
 9428SOL    HW129183   6.952   0.810   1.253
 9428SOL    HW229184   6.837   0.768   1.361
 9429SOL     OW29185   2.125   3.906   3.355
 9429SOL    HW129186   2.182   3.987   3.342
 9429SOL    HW229187   2.060   3.923   3.429
 9430SOL     OW29188   0.211   2.658   5.146
 9430SOL    HW129189   0.300   2.683   5.107
 9430SOL    HW229190   0.225   2.596   5.223
 9431SOL     OW29191   6.448   4.510   0.993
 9431SOL    HW129192   6.490   4.439   0.937
 9431SOL    HW229193   6.440   4.594   0.940
 9432SOL     OW29194   5.949   0.534   3.877
 9432SOL    HW129195   5.956   0.600   3.802
 9432SOL    HW229196   5.957   0.582   3.965
 9433SOL     OW29197   3.227   6.311   3.069
 9433SOL    HW129198   3.165   6.348   3.000
 9433SOL    HW229199   3.259   6.220   3.040
 9434SOL     OW29200   5.463   5.839   2.029
 9434SOL    HW129201   5.405   5.920   2.020
 9434SOL    HW229202   5.428   5.781   2.103
 9435SOL     OW29203   0.239   2.524   3.574
 9435SOL    HW129204   0.298   2.443   3.584
 9435SOL    HW229205   0.296   2.606   3.572
 9436SOL     OW29206   1.510   2.515   1.542
 9436SOL    HW129207   1.553   2.577   1.478
 9436SOL    HW229208   1.456   2.567   1.608
 9437SOL     OW29209   0.629   6.004   2.917
 9437SOL    HW129210   0.666   6.023   2.827
 9437SOL    HW229211   0.556   5.936   2.910
 9438SOL     OW29212   0.605   0.220   2.116
 9438SOL    HW129213   0.694   0.256   2.090
 9438SOL    HW229214   0.551   0.292   2.160
 9439SOL     OW29215   0.834   3.080   0.014
 9439SOL    HW129216   0.855   3.123   6.945
 9439SOL    HW229217   0.774   3.140   0.067
 9440SOL     OW29218   3.577   4.907   2.784
 9440SOL    HW129219   3.644   4.849   2.738
 9440SOL    HW229220   3.616   4.944   2.868
 9441SOL     OW29221   5.849   4.499   5.851
 9441SOL    HW129222   5.750   4.486   5.842
 9441SOL    HW229223   5.897   4.432   5.795
 9442SOL     OW29224   5.273   3.627   1.481
 9442SOL    HW129225   5.364   3.645   1.518
 9442SOL    HW229226   5.204   3.667   1.542
 9443SOL     OW29227   2.336   4.994   0.869
 9443SOL    HW129228   2.334   5.032   0.777
 9443SOL    HW229229   2.406   4.923   0.875
 9444SOL     OW29230   1.730   3.608   0.682
 9444SOL    HW129231   1.713   3.649   0.771
 9444SOL    HW229232   1.804   3.541   0.689
 9445SOL     OW29233   6.093   3.326   2.770
 9445SOL    HW129234   6.137   3.415   2.756
 9445SOL    HW229235   6.159   3.253   2.754
 9446SOL     OW29236   6.057   5.268   5.191
 9446SOL    HW129237   6.123   5.234   5.124
 9446SOL    HW229238   6.025   5.359   5.164
 9447SOL     OW29239   5.614   4.927   3.837
 9447SOL    HW129240   5.674   4.877   3.774
 9447SOL    HW229241   5.529   4.951   3.790
 9448SOL     OW29242   0.008   0.122   5.949
 9448SOL    HW129243   0.049   0.212   5.933
 9448SOL    HW229244   6.927   0.129   5.935
 9449SOL     OW29245   5.446   6.936   0.206
 9449SOL    HW129246   5.420   6.869   0.276
 9449SOL    HW229247   5.389   7.018   0.215
 9450SOL     OW29248   2.586   5.935   3.012
 9450SOL    HW129249   2.507   5.994   3.025
 9450SOL    HW229250   2.591   5.869   3.088
 9451SOL     OW29251   4.579   6.273   5.869
 9451SOL    HW129252   4.495   6.285   5.817
 9451SOL    HW229253   4.558   6.231   5.958
 9452SOL     OW29254   1.675   3.910   6.800
 9452SOL    HW129255   1.589   3.954   6.827
 9452SOL    HW229256   1.736   3.978   6.760
 9453SOL     OW29257   2.792   5.499   2.862
 9453SOL    HW129258   2.701   5.510   2.901
 9453SOL    HW229259   2.825   5.405   2.878
 9454SOL     OW29260   3.267   3.474   6.430
 9454SOL    HW129261   3.352   3.424   6.417
 9454SOL    HW229262   3.287   3.564   6.469
 9455SOL     OW29263   2.586   1.780   3.772
 9455SOL    HW129264   2.682   1.752   3.782
 9455SOL    HW229265   2.540   1.720   3.707
 9456SOL     OW29266   6.822   3.159   0.313
 9456SOL    HW129267   6.821   3.147   0.412
 9456SOL    HW229268   6.916   3.173   0.282
 9457SOL     OW29269   1.119   4.329   4.242
 9457SOL    HW129270   1.074   4.318   4.331
 9457SOL    HW229271   1.119   4.242   4.194
 9458SOL     OW29272   0.316   3.686   6.190
 9458SOL    HW129273   0.357   3.773   6.218
 9458SOL    HW229274   0.385   3.614   6.193
 9459SOL     OW29275   5.039   4.794   3.595
 9459SOL    HW129276   5.008   4.824   3.505
 9459SOL    HW229277   5.040   4.694   3.598
 9460SOL     OW29278   1.768   3.961   4.434
 9460SOL    HW129279   1.816   3.883   4.394
 9460SOL    HW229280   1.810   4.046   4.402
 9461SOL     OW29281   0.450   1.795   1.490
 9461SOL    HW129282   0.491   1.886   1.484
 9461SOL    HW229283   0.449   1.753   1.399
 9462SOL     OW29284   1.817   3.288   3.643
 9462SOL    HW129285   1.795   3.358   3.712
 9462SOL    HW229286   1.892   3.231   3.675
 9463SOL     OW29287   5.880   0.462   1.382
 9463SOL    HW129288   5.853   0.502   1.294
 9463SOL    HW229289   5.978   0.443   1.381
 9464SOL     OW29290   5.882   0.314   0.858
 9464SOL    HW129291   5.962   0.373   0.847
 9464SOL    HW229292   5.880   0.278   0.952
 9465SOL     OW29293   0.130   4.032   1.537
 9465SOL    HW129294   0.143   4.017   1.439
 9465SOL    HW229295   0.106   3.945   1.581
 9466SOL     OW29296   3.302   4.457   5.392
 9466SOL    HW129297   3.240   4.531   5.363
 9466SOL    HW229298   3.259   4.369   5.374
 9467SOL     OW29299   1.621   2.709   1.057
 9467SOL    HW129300   1.688   2.742   1.124
 9467SOL    HW229301   1.537   2.762   1.065
 9468SOL     OW29302   5.565   3.934   6.428
 9468SOL    HW129303   5.641   4.000   6.425
 9468SOL    HW229304   5.492   3.970   6.485
 9469SOL     OW29305   0.207   5.091   1.885
 9469SOL    HW129306   0.198   5.172   1.827
 9469SOL    HW229307   0.118   5.046   1.893
 9470SOL     OW29308   5.247   3.173   7.008
 9470SOL    HW129309   5.333   3.194   0.036
 9470SOL    HW229310   5.202   3.096   0.035
 9471SOL     OW29311   6.366   2.761   4.354
 9471SOL    HW129312   6.410   2.715   4.430
 9471SOL    HW229313   6.324   2.693   4.294
 9472SOL     OW29314   6.323   2.729   5.288
 9472SOL    HW129315   6.344   2.670   5.366
 9472SOL    HW229316   6.399   2.726   5.222
 9473SOL     OW29317   3.205   4.810   0.368
 9473SOL    HW129318   3.122   4.793   0.421
 9473SOL    HW229319   3.282   4.760   0.408
 9474SOL     OW29320   6.953   3.820   0.522
 9474SOL    HW129321   6.982   3.848   0.614
 9474SOL    HW229322   0.006   3.764   0.480
 9475SOL     OW29323   3.741   3.169   0.311
 9475SOL    HW129324   3.827   3.119   0.320
 9475SOL    HW229325   3.677   3.137   0.381
 9476SOL     OW29326   4.079   3.847   4.394
 9476SOL    HW129327   4.135   3.927   4.374
 9476SOL    HW229328   4.075   3.787   4.314
 9477SOL     OW29329   0.932   3.042   0.299
 9477SOL    HW129330   0.891   3.093   0.224
 9477SOL    HW229331   0.897   3.077   0.386
 9478SOL     OW29332   5.150   3.498   1.295
 9478SOL    HW129333   5.216   3.539   1.359
 9478SOL    HW229334   5.084   3.568   1.267
 9479SOL     OW29335   4.247   6.700   0.356
 9479SOL    HW129336   4.315   6.774   0.350
 9479SOL    HW229337   4.175   6.716   0.289
 9480SOL     OW29338   5.580   4.968   0.292
 9480SOL    HW129339   5.590   5.067   0.299
 9480SOL    HW229340   5.658   4.923   0.334
 9481SOL     OW29341   5.147   3.452   2.463
 9481SOL    HW129342   5.193   3.364   2.451
 9481SOL    HW229343   5.101   3.478   2.377
 9482SOL     OW29344   0.382   1.303   2.734
 9482SOL    HW129345   0.312   1.336   2.671
 9482SOL    HW229346   0.452   1.373   2.746
 9483SOL     OW29347   1.767   0.172   0.652
 9483SOL    HW129348   1.865   0.180   0.669
 9483SOL    HW229349   1.734   0.084   0.686
 9484SOL     OW29350   3.883   6.937   4.498
 9484SOL    HW129351   3.840   6.978   4.578
 9484SOL    HW229352   3.958   6.996   4.466
 9485SOL     OW29353   0.484   1.062   0.706
 9485SOL    HW129354   0.413   1.052   0.636
 9485SOL    HW229355   0.572   1.077   0.663
 9486SOL     OW29356   4.060   6.184   1.053
 9486SOL    HW129357   3.970   6.198   1.095
 9486SOL    HW229358   4.053   6.191   0.954
 9487SOL     OW29359   3.277   3.875   3.941
 9487SOL    HW129360   3.254   3.786   3.980
 9487SOL    HW229361   3.254   3.876   3.844
 9488SOL     OW29362   2.704   0.228   1.267
 9488SOL    HW129363   2.754   0.202   1.349
 9488SOL    HW229364   2.764   0.220   1.187
 9489SOL     OW29365   4.832   4.377   1.549
 9489SOL    HW129366   4.810   4.428   1.466
 9489SOL    HW229367   4.747   4.354   1.597
 9490SOL     OW29368   6.214   5.413   2.709
 9490SOL    HW129369   6.124   5.438   2.745
 9490SOL    HW229370   6.236   5.319   2.737
 9491SOL     OW29371   5.083   4.607   4.110
 9491SOL    HW129372   4.990   4.633   4.134
 9491SOL    HW229373   5.108   4.522   4.157
 9492SOL     OW29374   3.897   3.213   4.748
 9492SOL    HW129375   3.815   3.266   4.772
 9492SOL    HW229376   3.881   3.164   4.662
 9493SOL     OW29377   2.391   5.755   4.157
 9493SOL    HW129378   2.443   5.777   4.239
 9493SOL    HW229379   2.429   5.805   4.079
 9494SOL     OW29380   5.589   3.162   2.963
 9494SOL    HW129381   5.536   3.087   2.923
 9494SOL    HW229382   5.680   3.129   2.988
 9495SOL     OW29383   6.715   2.086   3.293
 9495SOL    HW129384   6.779   2.162   3.282
 9495SOL    HW229385   6.635   2.100   3.236
 9496SOL     OW29386   6.139   3.670   1.707
 9496SOL    HW129387   6.185   3.653   1.794
 9496SOL    HW229388   6.078   3.593   1.687
 9497SOL     OW29389   5.909   6.837   5.317
 9497SOL    HW129390   5.962   6.883   5.388
 9497SOL    HW229391   5.824   6.802   5.356
 9498SOL     OW29392   5.736   5.840   4.439
 9498SOL    HW129393   5.701   5.934   4.440
 9498SOL    HW229394   5.827   5.839   4.481
 9499SOL     OW29395   2.263   5.105   6.064
 9499SOL    HW129396   2.236   5.009   6.072
 9499SOL    HW229397   2.282   5.142   6.155
 9500SOL     OW29398   4.704   0.196   0.760
 9500SOL    HW129399   4.731   0.116   0.814
 9500SOL    HW229400   4.729   0.279   0.808
 9501SOL     OW29401   2.756   0.861   5.183
 9501SOL    HW129402   2.719   0.841   5.273
 9501SOL    HW229403   2.718   0.948   5.150
 9502SOL     OW29404   5.972   2.318   5.071
 9502SOL    HW129405   6.036   2.258   5.120
 9502SOL    HW229406   5.987   2.413   5.098
 9503SOL     OW29407   0.362   1.344   0.684
 9503SOL    HW129408   0.414   1.402   0.621
 9503SOL    HW229409   0.380   1.248   0.664
 9504SOL     OW29410   6.777   3.370   0.141
 9504SOL    HW129411   6.760   3.286   0.192
 9504SOL    HW229412   6.762   3.353   0.043
 9505SOL     OW29413   5.295   4.599   4.889
 9505SOL    HW129414   5.267   4.569   4.798
 9505SOL    HW229415   5.357   4.677   4.881
 9506SOL     OW29416   1.789   2.346   6.799
 9506SOL    HW129417   1.888   2.337   6.806
 9506SOL    HW229418   1.746   2.310   6.882
 9507SOL     OW29419   0.654   1.130   2.075
 9507SOL    HW129420   0.742   1.145   2.120
 9507SOL    HW229421   0.664   1.058   2.006
 9508SOL     OW29422   6.335   2.057   1.898
 9508SOL    HW129423   6.295   1.972   1.862
 9508SOL    HW229424   6.355   2.119   1.823
 9509SOL     OW29425   0.199   0.824   4.343
 9509SOL    HW129426   0.284   0.832   4.394
 9509SOL    HW229427   0.216   0.778   4.256
 9510SOL     OW29428   1.744   3.690   3.679
 9510SOL    HW129429   1.668   3.626   3.688
 9510SOL    HW229430   1.721   3.777   3.723
 9511SOL     OW29431   1.848   0.262   1.079
 9511SOL    HW129432   1.832   0.193   1.150
 9511SOL    HW229433   1.767   0.270   1.021
 9512SOL     OW29434   6.211   1.916   1.431
 9512SOL    HW129435   6.174   1.846   1.492
 9512SOL    HW229436   6.136   1.968   1.391
 9513SOL     OW29437   2.161   4.232   6.190
 9513SOL    HW129438   2.089   4.182   6.239
 9513SOL    HW229439   2.119   4.304   6.134
 9514SOL     OW29440   2.548   5.582   6.066
 9514SOL    HW129441   2.624   5.531   6.027
 9514SOL    HW229442   2.462   5.533   6.047
 9515SOL     OW29443   1.664   5.607   1.136
 9515SOL    HW129444   1.648   5.510   1.158
 9515SOL    HW229445   1.754   5.634   1.170
 9516SOL     OW29446   6.076   5.134   6.778
 9516SOL    HW129447   6.063   5.038   6.755
 9516SOL    HW229448   6.028   5.191   6.711
 9517SOL     OW29449   1.371   3.843   1.323
 9517SOL    HW129450   1.455   3.872   1.368
 9517SOL    HW229451   1.364   3.886   1.233
 9518SOL     OW29452   2.043   1.844   0.581
 9518SOL    HW129453   2.014   1.848   0.676
 9518SOL    HW229454   1.973   1.797   0.527
 9519SOL     OW29455   3.369   3.144   4.643
 9519SOL    HW129456   3.375   3.208   4.720
 9519SOL    HW229457   3.356   3.051   4.678
 9520SOL     OW29458   2.416   1.807   2.984
 9520SOL    HW129459   2.481   1.825   3.058
 9520SOL    HW229460   2.326   1.842   3.009
 9521SOL     OW29461   5.275   6.036   2.092
 9521SOL    HW129462   5.287   6.129   2.129
 9521SOL    HW229463   5.177   6.018   2.080
 9522SOL     OW29464   2.492   5.363   1.253
 9522SOL    HW129465   2.425   5.436   1.251
 9522SOL    HW229466   2.583   5.400   1.273
 9523SOL     OW29467   3.255   5.280   4.775
 9523SOL    HW129468   3.162   5.243   4.780
 9523SOL    HW229469   3.294   5.261   4.684
 9524SOL     OW29470   3.627   2.994   1.682
 9524SOL    HW129471   3.699   2.968   1.619
 9524SOL    HW229472   3.560   2.920   1.689
 9525SOL     OW29473   2.295   2.961   5.910
 9525SOL    HW129474   2.268   2.866   5.900
 9525SOL    HW229475   2.247   3.017   5.843
 9526SOL     OW29476   5.329   5.630   1.874
 9526SOL    HW129477   5.349   5.724   1.902
 9526SOL    HW229478   5.230   5.618   1.866
 9527SOL     OW29479   0.895   0.420   2.968
 9527SOL    HW129480   0.987   0.450   2.996
 9527SOL    HW229481   0.902   0.331   2.923
 9528SOL     OW29482   0.064   1.037   6.924
 9528SOL    HW129483   0.027   1.040   7.017
 9528SOL    HW229484   0.039   1.122   6.876
 9529SOL     OW29485   6.197   2.981   5.247
 9529SOL    HW129486   6.247   2.902   5.280
 9529SOL    HW229487   6.191   3.050   5.319
 9530SOL     OW29488   1.818   3.300   2.482
 9530SOL    HW129489   1.798   3.398   2.478
 9530SOL    HW229490   1.884   3.282   2.555
 9531SOL     OW29491   4.544   5.940   2.875
 9531SOL    HW129492   4.595   5.915   2.792
 9531SOL    HW229493   4.451   5.904   2.870
 9532SOL     OW29494   6.963   6.491   2.275
 9532SOL    HW129495   7.001   6.583   2.272
 9532SOL    HW229496   6.872   6.491   2.233
 9533SOL     OW29497   6.697   0.237   5.121
 9533SOL    HW129498   6.655   0.148   5.140
 9533SOL    HW229499   6.633   0.295   5.072
 9534SOL     OW29500   6.228   3.457   5.326
 9534SOL    HW129501   6.167   3.395   5.374
 9534SOL    HW229502   6.234   3.430   5.229
 9535SOL     OW29503   2.512   1.040   5.701
 9535SOL    HW129504   2.595   1.045   5.646
 9535SOL    HW229505   2.432   1.045   5.641
 9536SOL     OW29506   3.171   4.697   5.278
 9536SOL    HW129507   3.204   4.789   5.256
 9536SOL    HW229508   3.085   4.680   5.229
 9537SOL     OW29509   2.719   6.675   2.969
 9537SOL    HW129510   2.730   6.591   3.023
 9537SOL    HW229511   2.793   6.739   2.991
 9538SOL     OW29512   6.750   2.332   3.955
 9538SOL    HW129513   6.659   2.369   3.970
 9538SOL    HW229514   6.767   2.323   3.857
 9539SOL     OW29515   1.615   3.419   5.084
 9539SOL    HW129516   1.597   3.483   5.009
 9539SOL    HW229517   1.697   3.366   5.063
 9540SOL     OW29518   5.421   3.834   4.276
 9540SOL    HW129519   5.448   3.754   4.328
 9540SOL    HW229520   5.388   3.806   4.186
 9541SOL     OW29521   2.987   1.753   5.924
 9541SOL    HW129522   2.922   1.719   5.992
 9541SOL    HW229523   2.945   1.828   5.872
 9542SOL     OW29524   5.100   3.668   4.420
 9542SOL    HW129525   5.179   3.643   4.477
 9542SOL    HW229526   5.036   3.592   4.417
 9543SOL     OW29527   2.809   0.979   4.655
 9543SOL    HW129528   2.732   1.015   4.708
 9543SOL    HW229529   2.784   0.891   4.616
 9544SOL     OW29530   0.261   1.684   3.178
 9544SOL    HW129531   0.242   1.779   3.202
 9544SOL    HW229532   0.181   1.628   3.200
 9545SOL     OW29533   6.598   5.084   3.516
 9545SOL    HW129534   6.538   5.010   3.485
 9545SOL    HW229535   6.544   5.166   3.531
 9546SOL     OW29536   2.761   2.423   5.710
 9546SOL    HW129537   2.766   2.353   5.638
 9546SOL    HW229538   2.820   2.397   5.786
 9547SOL     OW29539   2.267   6.383   3.993
 9547SOL    HW129540   2.289   6.467   3.943
 9547SOL    HW229541   2.230   6.407   4.083
 9548SOL     OW29542   6.109   6.233   5.212
 9548SOL    HW129543   6.045   6.307   5.191
 9548SOL    HW229544   6.199   6.254   5.173
 9549SOL     OW29545   3.068   3.663   1.214
 9549SOL    HW129546   3.128   3.622   1.283
 9549SOL    HW229547   3.064   3.604   1.134
 9550SOL     OW29548   6.936   1.306   0.153
 9550SOL    HW129549   6.838   1.292   0.165
 9550SOL    HW229550   6.985   1.228   0.192
 9551SOL     OW29551   6.259   0.939   4.069
 9551SOL    HW129552   6.338   0.879   4.066
 9551SOL    HW229553   6.197   0.909   4.142
 9552SOL     OW29554   0.858   5.833   2.495
 9552SOL    HW129555   0.911   5.875   2.569
 9552SOL    HW229556   0.899   5.745   2.470
 9553SOL     OW29557   6.215   3.949   6.951
 9553SOL    HW129558   6.284   3.877   6.940
 9553SOL    HW229559   6.179   3.947   0.026
 9554SOL     OW29560   2.484   0.432   1.338
 9554SOL    HW129561   2.561   0.369   1.334
 9554SOL    HW229562   2.449   0.435   1.432
 9555SOL     OW29563   0.841   1.206   1.491
 9555SOL    HW129564   0.846   1.122   1.438
 9555SOL    HW229565   0.934   1.241   1.506
 9556SOL     OW29566   2.926   2.635   0.905
 9556SOL    HW129567   2.955   2.554   0.957
 9556SOL    HW229568   2.826   2.637   0.900
 9557SOL     OW29569   6.380   0.891   3.194
 9557SOL    HW129570   6.373   0.975   3.247
 9557SOL    HW229571   6.344   0.907   3.102
 9558SOL     OW29572   6.227   5.493   4.366
 9558SOL    HW129573   6.140   5.525   4.327
 9558SOL    HW229574   6.293   5.480   4.293
 9559SOL     OW29575   0.259   3.587   1.381
 9559SOL    HW129576   0.161   3.604   1.364
 9559SOL    HW229577   0.275   3.489   1.388
 9560SOL     OW29578   1.448   1.815   2.814
 9560SOL    HW129579   1.496   1.899   2.789
 9560SOL    HW229580   1.380   1.793   2.744
 9561SOL     OW29581   1.705   6.544   0.638
 9561SOL    HW129582   1.777   6.595   0.592
 9561SOL    HW229583   1.616   6.569   0.600
 9562SOL     OW29584   3.458   6.735   4.953
 9562SOL    HW129585   3.425   6.719   4.860
 9562SOL    HW229586   3.381   6.726   5.017
 9563SOL     OW29587   5.947   6.686   0.195
 9563SOL    HW129588   5.896   6.771   0.193
 9563SOL    HW229589   5.890   6.611   0.162
 9564SOL     OW29590   2.854   6.954   6.601
 9564SOL    HW129591   2.911   6.914   6.672
 9564SOL    HW229592   2.867   0.035   6.599
 9565SOL     OW29593   4.162   6.077   5.294
 9565SOL    HW129594   4.191   6.022   5.372
 9565SOL    HW229595   4.184   6.029   5.209
 9566SOL     OW29596   3.473   4.616   0.107
 9566SOL    HW129597   3.397   4.566   0.066
 9566SOL    HW229598   3.487   4.702   0.058
 9567SOL     OW29599   6.815   5.162   6.483
 9567SOL    HW129600   6.834   5.199   6.574
 9567SOL    HW229601   6.733   5.106   6.486
 9568SOL     OW29602   5.052   2.671   7.013
 9568SOL    HW129603   5.151   2.658   7.014
 9568SOL    HW229604   5.029   2.752   6.959
 9569SOL     OW29605   0.183   0.715   2.161
 9569SOL    HW129606   0.183   0.814   2.175
 9569SOL    HW229607   0.228   0.671   2.238
 9570SOL     OW29608   0.885   2.036   1.648
 9570SOL    HW129609   0.947   2.103   1.607
 9570SOL    HW229610   0.913   2.018   1.742
 9571SOL     OW29611   2.736   3.805   6.887
 9571SOL    HW129612   2.828   3.781   6.857
 9571SOL    HW229613   2.688   3.851   6.813
 9572SOL     OW29614   1.579   5.351   1.217
 9572SOL    HW129615   1.626   5.263   1.211
 9572SOL    HW229616   1.527   5.356   1.302
 9573SOL     OW29617   0.485   1.554   6.526
 9573SOL    HW129618   0.458   1.636   6.576
 9573SOL    HW229619   0.475   1.570   6.428
 9574SOL     OW29620   3.921   3.059   4.510
 9574SOL    HW129621   3.889   2.964   4.514
 9574SOL    HW229622   3.861   3.112   4.450
 9575SOL     OW29623   5.377   0.639   1.115
 9575SOL    HW129624   5.425   0.661   1.030
 9575SOL    HW229625   5.290   0.594   1.093
 9576SOL     OW29626   2.915   1.019   2.572
 9576SOL    HW129627   2.984   1.041   2.504
 9576SOL    HW229628   2.936   0.930   2.613
 9577SOL     OW29629   1.163   1.017   3.594
 9577SOL    HW129630   1.157   0.934   3.650
 9577SOL    HW229631   1.075   1.036   3.552
 9578SOL     OW29632   0.010   3.728   3.189
 9578SOL    HW129633   0.099   3.764   3.219
 9578SOL    HW229634   0.006   3.630   3.209
 9579SOL     OW29635   1.271   5.335   3.030
 9579SOL    HW129636   1.202   5.403   3.054
 9579SOL    HW229637   1.360   5.365   3.064
 9580SOL     OW29638   4.933   2.879   1.062
 9580SOL    HW129639   4.946   2.910   0.968
 9580SOL    HW229640   4.986   2.937   1.124
 9581SOL     OW29641   1.368   5.325   6.690
 9581SOL    HW129642   1.349   5.323   6.788
 9581SOL    HW229643   1.364   5.419   6.657
 9582SOL     OW29644   4.261   4.749   4.802
 9582SOL    HW129645   4.317   4.675   4.839
 9582SOL    HW229646   4.174   4.753   4.852
 9583SOL     OW29647   2.755   3.327   1.179
 9583SOL    HW129648   2.743   3.333   1.278
 9583SOL    HW229649   2.852   3.316   1.158
 9584SOL     OW29650   5.964   6.246   6.782
 9584SOL    HW129651   5.969   6.152   6.817
 9584SOL    HW229652   5.875   6.285   6.803
 9585SOL     OW29653   6.515   1.356   2.975
 9585SOL    HW129654   6.566   1.270   2.965
 9585SOL    HW229655   6.568   1.420   3.030
 9586SOL     OW29656   6.165   3.919   2.062
 9586SOL    HW129657   6.218   4.001   2.041
 9586SOL    HW229658   6.082   3.918   2.006
 9587SOL     OW29659   6.199   0.335   2.394
 9587SOL    HW129660   6.120   0.317   2.335
 9587SOL    HW229661   6.177   0.309   2.488
 9588SOL     OW29662   0.625   1.618   2.011
 9588SOL    HW129663   0.615   1.673   2.094
 9588SOL    HW229664   0.615   1.676   1.930
 9589SOL     OW29665   3.078   5.806   6.371
 9589SOL    HW129666   3.043   5.899   6.375
 9589SOL    HW229667   3.172   5.803   6.405
 9590SOL     OW29668   0.061   4.920   2.589
 9590SOL    HW129669   0.072   4.912   2.489
 9590SOL    HW229670   0.139   4.876   2.634
 9591SOL     OW29671   3.262   5.663   0.033
 9591SOL    HW129672   3.341   5.613   7.015
 9591SOL    HW229673   3.253   5.750   7.003
 9592SOL     OW29674   3.781   5.066   1.868
 9592SOL    HW129675   3.775   4.969   1.891
 9592SOL    HW229676   3.695   5.112   1.893
 9593SOL     OW29677   5.319   0.886   4.735
 9593SOL    HW129678   5.406   0.904   4.689
 9593SOL    HW229679   5.295   0.964   4.793
 9594SOL     OW29680   0.105   5.688   3.649
 9594SOL    HW129681   0.080   5.593   3.631
 9594SOL    HW229682   0.185   5.690   3.710
 9595SOL     OW29683   1.925   4.315   4.167
 9595SOL    HW129684   1.907   4.405   4.207
 9595SOL    HW229685   1.989   4.324   4.091
 9596SOL     OW29686   0.450   5.401   0.292
 9596SOL    HW129687   0.462   5.425   0.195
 9596SOL    HW229688   0.513   5.455   0.347
 9597SOL     OW29689   6.914   4.160   1.005
 9597SOL    HW129690   6.869   4.208   1.080
 9597SOL    HW229691   7.013   4.164   1.017
 9598SOL     OW29692   0.409   3.664   5.107
 9598SOL    HW129693   0.323   3.614   5.121
 9598SOL    HW229694   0.485   3.599   5.106
 9599SOL     OW29695   2.968   0.645   4.692
 9599SOL    HW129696   2.963   0.685   4.784
 9599SOL    HW229697   2.892   0.680   4.637
 9600SOL     OW29698   2.224   6.949   5.804
 9600SOL    HW129699   2.297   6.990   5.749
 9600SOL    HW229700   2.245   6.853   5.821
 9601SOL     OW29701   6.253   4.213   5.868
 9601SOL    HW129702   6.223   4.176   5.956
 9601SOL    HW229703   6.320   4.286   5.884
 9602SOL     OW29704   6.865   4.828   6.585
 9602SOL    HW129705   6.797   4.883   6.537
 9602SOL    HW229706   6.954   4.873   6.578
 9603SOL     OW29707   2.113   7.006   4.315
 9603SOL    HW129708   2.151   0.070   4.273
 9603SOL    HW229709   2.160   6.987   4.402
 9604SOL     OW29710   5.026   0.501   0.645
 9604SOL    HW129711   5.065   0.570   0.584
 9604SOL    HW229712   4.987   0.546   0.725
 9605SOL     OW29713   0.348   4.839   6.029
 9605SOL    HW129714   0.260   4.873   5.995
 9605SOL    HW229715   0.422   4.896   5.993
 9606SOL     OW29716   0.878   6.597   4.768
 9606SOL    HW129717   0.796   6.633   4.723
 9606SOL    HW229718   0.957   6.651   4.742
 9607SOL     OW29719   1.478   2.077   1.929
 9607SOL    HW129720   1.415   2.007   1.961
 9607SOL    HW229721   1.478   2.079   1.829
 9608SOL     OW29722   0.340   6.535   2.536
 9608SOL    HW129723   0.389   6.500   2.455
 9608SOL    HW229724   0.244   6.508   2.531
 9609SOL     OW29725   1.248   3.658   5.494
 9609SOL    HW129726   1.188   3.633   5.570
 9609SOL    HW229727   1.335   3.692   5.530
 9610SOL     OW29728   1.643   3.611   5.301
 9610SOL    HW129729   1.591   3.530   5.272
 9610SOL    HW229730   1.701   3.641   5.225
 9611SOL     OW29731   0.404   6.890   1.026
 9611SOL    HW129732   0.322   6.948   1.028
 9611SOL    HW229733   0.377   6.795   1.014
 9612SOL     OW29734   6.069   3.043   1.100
 9612SOL    HW129735   6.062   2.973   1.029
 9612SOL    HW229736   6.057   3.002   1.190
 9613SOL     OW29737   4.885   5.991   3.963
 9613SOL    HW129738   4.919   5.994   4.057
 9613SOL    HW229739   4.936   6.056   3.907
 9614SOL     OW29740   4.053   3.807   1.389
 9614SOL    HW129741   4.004   3.755   1.320
 9614SOL    HW229742   3.988   3.862   1.442
 9615SOL     OW29743   1.660   6.394   2.416
 9615SOL    HW129744   1.643   6.359   2.324
 9615SOL    HW229745   1.659   6.317   2.481
 9616SOL     OW29746   4.412   3.299   1.001
 9616SOL    HW129747   4.433   3.393   0.975
 9616SOL    HW229748   4.496   3.252   1.029
 9617SOL     OW29749   1.293   4.053   4.521
 9617SOL    HW129750   1.265   4.140   4.562
 9617SOL    HW229751   1.232   3.980   4.552
 9618SOL     OW29752   3.188   0.341   6.916
 9618SOL    HW129753   3.247   0.279   6.968
 9618SOL    HW229754   3.093   0.315   6.929
 9619SOL     OW29755   1.323   0.188   0.982
 9619SOL    HW129756   1.232   0.217   1.013
 9619SOL    HW229757   1.320   0.091   0.957
 9620SOL     OW29758   4.691   2.015   0.088
 9620SOL    HW129759   4.707   2.036   7.009
 9620SOL    HW229760   4.721   1.922   0.108
 9621SOL     OW29761   1.371   1.032   2.105
 9621SOL    HW129762   1.365   1.012   2.203
 9621SOL    HW229763   1.462   1.066   2.084
 9622SOL     OW29764   6.201   1.320   6.862
 9622SOL    HW129765   6.148   1.320   6.777
 9622SOL    HW229766   6.271   1.249   6.858
 9623SOL     OW29767   4.309   5.012   6.393
 9623SOL    HW129768   4.365   4.938   6.430
 9623SOL    HW229769   4.368   5.077   6.346
 9624SOL     OW29770   5.351   4.400   5.070
 9624SOL    HW129771   5.349   4.419   5.169
 9624SOL    HW229772   5.340   4.486   5.020
 9625SOL     OW29773   4.741   4.345   6.882
 9625SOL    HW129774   4.762   4.438   6.914
 9625SOL    HW229775   4.715   4.288   6.959
 9626SOL     OW29776   2.345   5.831   4.692
 9626SOL    HW129777   2.378   5.909   4.745
 9626SOL    HW229778   2.411   5.756   4.700
 9627SOL     OW29779   0.470   4.515   4.949
 9627SOL    HW129780   0.563   4.503   4.914
 9627SOL    HW229781   0.463   4.603   4.996
 9628SOL     OW29782   5.706   3.490   0.714
 9628SOL    HW129783   5.774   3.559   0.742
 9628SOL    HW229784   5.727   3.459   0.621
 9629SOL     OW29785   6.806   6.180   3.072
 9629SOL    HW129786   6.865   6.104   3.099
 9629SOL    HW229787   6.862   6.261   3.052
 9630SOL     OW29788   6.431   6.044   5.695
 9630SOL    HW129789   6.344   6.053   5.647
 9630SOL    HW229790   6.477   6.132   5.697
 9631SOL     OW29791   4.480   1.620   0.824
 9631SOL    HW129792   4.451   1.690   0.890
 9631SOL    HW229793   4.533   1.551   0.872
 9632SOL     OW29794   2.144   5.579   1.405
 9632SOL    HW129795   2.211   5.579   1.331
 9632SOL    HW229796   2.052   5.573   1.367
 9633SOL     OW29797   4.125   3.793   0.586
 9633SOL    HW129798   4.064   3.714   0.599
 9633SOL    HW229799   4.075   3.866   0.539
 9634SOL     OW29800   6.085   5.441   3.224
 9634SOL    HW129801   6.103   5.539   3.232
 9634SOL    HW229802   5.988   5.423   3.237
 9635SOL     OW29803   0.829   4.561   5.614
 9635SOL    HW129804   0.838   4.606   5.525
 9635SOL    HW229805   0.858   4.466   5.605
 9636SOL     OW29806   3.882   1.638   6.386
 9636SOL    HW129807   3.940   1.599   6.457
 9636SOL    HW229808   3.824   1.566   6.347
 9637SOL     OW29809   3.620   3.365   1.202
 9637SOL    HW129810   3.668   3.278   1.190
 9637SOL    HW229811   3.522   3.347   1.214
 9638SOL     OW29812   6.988   3.418   6.089
 9638SOL    HW129813   0.016   3.366   6.160
 9638SOL    HW229814   0.036   3.476   6.041
 9639SOL     OW29815   4.285   2.333   1.825
 9639SOL    HW129816   4.310   2.422   1.787
 9639SOL    HW229817   4.195   2.305   1.790
 9640SOL     OW29818   3.239   0.672   2.367
 9640SOL    HW129819   3.274   0.603   2.305
 9640SOL    HW229820   3.311   0.738   2.388
 9641SOL     OW29821   5.645   6.232   2.189
 9641SOL    HW129822   5.614   6.271   2.103
 9641SOL    HW229823   5.689   6.143   2.171
 9642SOL     OW29824   1.261   6.556   4.009
 9642SOL    HW129825   1.166   6.586   4.009
 9642SOL    HW229826   1.274   6.486   4.080
 9643SOL     OW29827   5.371   3.779   4.024
 9643SOL    HW129828   5.299   3.744   3.964
 9643SOL    HW229829   5.460   3.748   3.991
 9644SOL     OW29830   1.836   6.014   5.154
 9644SOL    HW129831   1.855   6.012   5.056
 9644SOL    HW229832   1.831   5.921   5.190
 9645SOL     OW29833   2.297   4.523   4.847
 9645SOL    HW129834   2.347   4.548   4.929
 9645SOL    HW229835   2.234   4.448   4.867
 9646SOL     OW29836   3.162   5.608   2.509
 9646SOL    HW129837   3.212   5.664   2.442
 9646SOL    HW229838   3.071   5.587   2.474
 9647SOL     OW29839   0.078   0.044   3.297
 9647SOL    HW129840   0.166   0.013   3.333
 9647SOL    HW229841   0.005   0.020   3.361
 9648SOL     OW29842   4.716   2.888   1.264
 9648SOL    HW129843   4.637   2.947   1.249
 9648SOL    HW229844   4.771   2.883   1.180
 9649SOL     OW29845   2.493   4.212   6.806
 9649SOL    HW129846   2.497   4.293   6.747
 9649SOL    HW229847   2.568   4.150   6.781
 9650SOL     OW29848   5.009   4.116   3.120
 9650SOL    HW129849   4.967   4.053   3.185
 9650SOL    HW229850   4.949   4.129   3.041
 9651SOL     OW29851   4.166   1.066   0.946
 9651SOL    HW129852   4.190   1.056   1.043
 9651SOL    HW229853   4.244   1.039   0.890
 9652SOL     OW29854   0.940   5.147   1.205
 9652SOL    HW129855   0.965   5.113   1.296
 9652SOL    HW229856   1.012   5.122   1.140
 9653SOL     OW29857   4.689   4.539   5.455
 9653SOL    HW129858   4.603   4.524   5.504
 9653SOL    HW229859   4.742   4.454   5.454
 9654SOL     OW29860   3.219   3.482   3.229
 9654SOL    HW129861   3.192   3.515   3.319
 9654SOL    HW229862   3.149   3.421   3.193
 9655SOL     OW29863   0.123   1.709   0.433
 9655SOL    HW129864   0.042   1.709   0.374
 9655SOL    HW229865   0.183   1.634   0.408
 9656SOL     OW29866   4.754   2.492   0.841
 9656SOL    HW129867   4.691   2.558   0.882
 9656SOL    HW229868   4.847   2.510   0.873
 9657SOL     OW29869   5.998   4.350   2.683
 9657SOL    HW129870   6.051   4.427   2.719
 9657SOL    HW229871   5.991   4.279   2.753
 9658SOL     OW29872   5.961   2.188   2.675
 9658SOL    HW129873   6.014   2.108   2.701
 9658SOL    HW229874   6.012   2.271   2.700
 9659SOL     OW29875   1.097   2.469   0.285
 9659SOL    HW129876   1.070   2.559   0.252
 9659SOL    HW229877   1.040   2.399   0.243
 9660SOL     OW29878   0.694   0.014   2.267
 9660SOL    HW129879   0.677   0.052   2.357
 9660SOL    HW229880   0.675   0.083   2.197
 9661SOL     OW29881   4.078   6.166   1.402
 9661SOL    HW129882   4.124   6.103   1.465
 9661SOL    HW229883   4.017   6.114   1.342
 9662SOL     OW29884   5.027   3.803   0.485
 9662SOL    HW129885   5.031   3.708   0.455
 9662SOL    HW229886   4.933   3.836   0.477
 9663SOL     OW29887   0.494   5.749   2.786
 9663SOL    HW129888   0.468   5.659   2.751
 9663SOL    HW229889   0.421   5.814   2.766
 9664SOL     OW29890   5.380   4.402   4.284
 9664SOL    HW129891   5.379   4.497   4.316
 9664SOL    HW229892   5.293   4.358   4.306
 9665SOL     OW29893   6.140   6.302   5.985
 9665SOL    HW129894   6.221   6.347   6.021
 9665SOL    HW229895   6.167   6.223   5.930
 9666SOL     OW29896   6.385   3.531   2.166
 9666SOL    HW129897   6.308   3.473   2.193
 9666SOL    HW229898   6.418   3.582   2.245
 9667SOL     OW29899   3.864   3.428   0.317
 9667SOL    HW129900   3.831   3.340   0.281
 9667SOL    HW229901   3.853   3.430   0.416
 9668SOL     OW29902   1.099   0.885   6.585
 9668SOL    HW129903   1.115   0.934   6.500
 9668SOL    HW229904   1.063   0.794   6.565
 9669SOL     OW29905   1.957   6.865   1.715
 9669SOL    HW129906   1.970   6.906   1.806
 9669SOL    HW229907   1.927   6.771   1.726
 9670SOL     OW29908   0.274   5.336   5.559
 9670SOL    HW129909   0.266   5.296   5.650
 9670SOL    HW229910   0.370   5.356   5.539
 9671SOL     OW29911   6.633   4.407   0.265
 9671SOL    HW129912   6.658   4.318   0.226
 9671SOL    HW229913   6.563   4.394   0.335
 9672SOL     OW29914   1.671   4.995   3.561
 9672SOL    HW129915   1.618   5.043   3.630
 9672SOL    HW229916   1.619   4.988   3.476
 9673SOL     OW29917   3.423   3.719   1.139
 9673SOL    HW129918   3.338   3.729   1.088
 9673SOL    HW229919   3.500   3.749   1.083
 9674SOL     OW29920   3.960   6.522   3.310
 9674SOL    HW129921   3.915   6.595   3.361
 9674SOL    HW229922   3.979   6.553   3.217
 9675SOL     OW29923   4.917   2.530   0.171
 9675SOL    HW129924   4.956   2.604   0.115
 9675SOL    HW229925   4.977   2.450   0.166
 9676SOL     OW29926   1.448   3.284   6.152
 9676SOL    HW129927   1.469   3.212   6.085
 9676SOL    HW229928   1.505   3.364   6.133
 9677SOL     OW29929   6.721   5.040   5.401
 9677SOL    HW129930   6.762   5.113   5.348
 9677SOL    HW229931   6.698   5.074   5.492
 9678SOL     OW29932   2.987   3.445   4.240
 9678SOL    HW129933   3.023   3.353   4.259
 9678SOL    HW229934   2.943   3.481   4.323
 9679SOL     OW29935   2.182   6.889   3.793
 9679SOL    HW129936   2.172   6.789   3.794
 9679SOL    HW229937   2.200   6.920   3.700
 9680SOL     OW29938   4.421   0.264   4.595
 9680SOL    HW129939   4.382   0.182   4.553
 9680SOL    HW229940   4.347   0.325   4.623
 9681SOL     OW29941   3.045   2.450   0.735
 9681SOL    HW129942   3.058   2.496   0.647
 9681SOL    HW229943   2.997   2.511   0.798
 9682SOL     OW29944   4.771   4.072   3.641
 9682SOL    HW129945   4.674   4.094   3.636
 9682SOL    HW229946   4.782   3.974   3.660
 9683SOL     OW29947   3.139   6.678   1.258
 9683SOL    HW129948   3.225   6.712   1.219
 9683SOL    HW229949   3.088   6.755   1.297
 9684SOL     OW29950   0.555   3.973   5.049
 9684SOL    HW129951   0.479   3.910   5.038
 9684SOL    HW229952   0.578   4.014   4.961
 9685SOL     OW29953   4.474   4.321   1.091
 9685SOL    HW129954   4.466   4.322   1.191
 9685SOL    HW229955   4.410   4.387   1.051
 9686SOL     OW29956   0.476   3.031   6.199
 9686SOL    HW129957   0.425   3.117   6.198
 9686SOL    HW229958   0.414   2.955   6.180
 9687SOL     OW29959   0.173   1.350   3.636
 9687SOL    HW129960   0.098   1.314   3.691
 9687SOL    HW229961   0.183   1.295   3.553
 9688SOL     OW29962   1.048   2.450   0.610
 9688SOL    HW129963   1.089   2.533   0.571
 9688SOL    HW229964   1.022   2.466   0.705
 9689SOL     OW29965   1.052   4.697   6.563
 9689SOL    HW129966   1.096   4.617   6.523
 9689SOL    HW229967   1.115   4.742   6.627
 9690SOL     OW29968   5.931   6.527   6.254
 9690SOL    HW129969   5.930   6.439   6.206
 9690SOL    HW229970   6.025   6.560   6.260
 9691SOL     OW29971   3.021   3.762   1.496
 9691SOL    HW129972   3.031   3.775   1.398
 9691SOL    HW229973   2.940   3.707   1.516
 9692SOL     OW29974   4.301   5.916   1.063
 9692SOL    HW129975   4.386   5.966   1.051
 9692SOL    HW229976   4.224   5.979   1.058
 9693SOL     OW29977   6.046   4.296   2.949
 9693SOL    HW129978   6.005   4.282   3.038
 9693SOL    HW229979   6.057   4.395   2.932
 9694SOL     OW29980   3.025   1.184   1.745
 9694SOL    HW129981   3.068   1.134   1.819
 9694SOL    HW229982   2.967   1.256   1.783
 9695SOL     OW29983   6.924   2.739   3.180
 9695SOL    HW129984   6.998   2.743   3.247
 9695SOL    HW229985   6.890   2.831   3.161
 9696SOL     OW29986   5.632   2.867   1.582
 9696SOL    HW129987   5.547   2.889   1.535
 9696SOL    HW229988   5.623   2.887   1.679
 9697SOL     OW29989   0.556   5.921   0.413
 9697SOL    HW129990   0.497   6.001   0.403
 9697SOL    HW229991   0.585   5.913   0.509
 9698SOL     OW29992   5.390   2.617   6.134
 9698SOL    HW129993   5.488   2.600   6.123
 9698SOL    HW229994   5.343   2.599   6.048
 9699SOL     OW29995   6.761   5.850   0.004
 9699SOL    HW129996   6.694   5.831   0.075
 9699SOL    HW229997   6.854   5.840   0.042
 9700SOL     OW29998   5.862   5.061   4.744
 9700SOL    HW129999   5.766   5.078   4.724
 9700SOL    HW230000   5.878   5.068   4.842
 9701SOL     OW30001   4.921   4.078   5.986
 9701SOL    HW130002   4.925   3.984   6.018
 9701SOL    HW230003   4.893   4.080   5.890
 9702SOL     OW30004   3.784   2.323   0.019
 9702SOL    HW130005   3.855   2.262   7.003
 9702SOL    HW230006   3.803   2.346   0.115
 9703SOL     OW30007   4.990   3.258   3.565
 9703SOL    HW130008   5.070   3.311   3.590
 9703SOL    HW230009   5.013   3.160   3.565
 9704SOL     OW30010   3.373   6.252   1.510
 9704SOL    HW130011   3.330   6.214   1.592
 9704SOL    HW230012   3.409   6.178   1.453
 9705SOL     OW30013   5.473   4.369   6.079
 9705SOL    HW130014   5.484   4.386   6.177
 9705SOL    HW230015   5.430   4.280   6.065
 9706SOL     OW30016   3.027   2.431   1.062
 9706SOL    HW130017   3.088   2.401   0.990
 9706SOL    HW230018   3.070   2.416   1.151
 9707SOL     OW30019   6.436   4.704   2.608
 9707SOL    HW130020   6.382   4.673   2.530
 9707SOL    HW230021   6.471   4.796   2.590
 9708SOL     OW30022   0.154   1.727   3.588
 9708SOL    HW130023   0.165   1.820   3.554
 9708SOL    HW230024   0.178   1.662   3.515
 9709SOL     OW30025   5.305   5.684   2.487
 9709SOL    HW130026   5.205   5.689   2.485
 9709SOL    HW230027   5.333   5.599   2.532
 9710SOL     OW30028   6.896   1.657   1.460
 9710SOL    HW130029   6.985   1.695   1.435
 9710SOL    HW230030   6.825   1.726   1.444
 9711SOL     OW30031   4.427   5.278   6.335
 9711SOL    HW130032   4.340   5.315   6.301
 9711SOL    HW230033   4.480   5.352   6.377
 9712SOL     OW30034   5.303   3.616   0.337
 9712SOL    HW130035   5.391   3.664   0.344
 9712SOL    HW230036   5.287   3.563   0.420
 9713SOL     OW30037   2.055   4.238   3.583
 9713SOL    HW130038   2.068   4.139   3.590
 9713SOL    HW230039   2.140   4.280   3.549
 9714SOL     OW30040   4.224   6.766   6.606
 9714SOL    HW130041   4.233   6.864   6.620
 9714SOL    HW230042   4.167   6.749   6.525
 9715SOL     OW30043   5.688   4.397   0.214
 9715SOL    HW130044   5.757   4.362   0.277
 9715SOL    HW230045   5.599   4.357   0.235
 9716SOL     OW30046   3.257   4.047   6.926
 9716SOL    HW130047   3.167   4.082   6.953
 9716SOL    HW230048   3.324   4.121   6.928
 9717SOL     OW30049   5.242   0.033   6.134
 9717SOL    HW130050   5.151   0.022   6.175
 9717SOL    HW230051   5.241   0.111   6.071
 9718SOL     OW30052   5.090   3.397   0.823
 9718SOL    HW130053   4.995   3.425   0.811
 9718SOL    HW230054   5.125   3.361   0.736
 9719SOL     OW30055   5.911   0.837   5.944
 9719SOL    HW130056   6.000   0.863   5.982
 9719SOL    HW230057   5.893   0.891   5.861
 9720SOL     OW30058   0.799   4.282   2.101
 9720SOL    HW130059   0.821   4.233   2.185
 9720SOL    HW230060   0.787   4.379   2.120
 9721SOL     OW30061   0.633   1.338   0.266
 9721SOL    HW130062   0.653   1.369   0.359
 9721SOL    HW230063   0.676   1.399   0.200
 9722SOL     OW30064   3.571   1.503   4.964
 9722SOL    HW130065   3.527   1.542   4.884
 9722SOL    HW230066   3.615   1.576   5.017
 9723SOL     OW30067   3.805   6.440   3.709
 9723SOL    HW130068   3.890   6.490   3.727
 9723SOL    HW230069   3.798   6.363   3.772
 9724SOL     OW30070   1.289   4.972   0.150
 9724SOL    HW130071   1.368   4.975   0.089
 9724SOL    HW230072   1.209   4.942   0.099
 9725SOL     OW30073   4.318   5.973   6.176
 9725SOL    HW130074   4.259   5.897   6.150
 9725SOL    HW230075   4.411   5.939   6.193
 9726SOL     OW30076   4.446   1.263   3.168
 9726SOL    HW130077   4.507   1.256   3.089
 9726SOL    HW230078   4.351   1.268   3.137
 9727SOL     OW30079   0.781   2.423   6.803
 9727SOL    HW130080   0.806   2.473   6.886
 9727SOL    HW230081   0.854   2.360   6.779
 9728SOL     OW30082   0.218   0.680   5.230
 9728SOL    HW130083   0.300   0.707   5.179
 9728SOL    HW230084   0.155   0.757   5.235
 9729SOL     OW30085   1.140   4.564   3.550
 9729SOL    HW130086   1.087   4.636   3.504
 9729SOL    HW230087   1.087   4.480   3.552
 9730SOL     OW30088   1.632   4.450   2.929
 9730SOL    HW130089   1.569   4.483   3.000
 9730SOL    HW230090   1.660   4.357   2.950
 9731SOL     OW30091   5.213   5.790   1.319
 9731SOL    HW130092   5.119   5.824   1.318
 9731SOL    HW230093   5.214   5.693   1.342
 9732SOL     OW30094   0.735   4.043   1.956
 9732SOL    HW130095   0.794   4.036   1.875
 9732SOL    HW230096   0.767   4.118   2.014
 9733SOL     OW30097   5.088   5.563   0.460
 9733SOL    HW130098   5.052   5.638   0.404
 9733SOL    HW230099   5.045   5.477   0.434
 9734SOL     OW30100   0.033   0.447   0.206
 9734SOL    HW130101   0.122   0.491   0.190
 9734SOL    HW230102   0.026   0.364   0.150
 9735SOL     OW30103   1.892   3.395   3.390
 9735SOL    HW130104   1.980   3.363   3.355
 9735SOL    HW230105   1.870   3.346   3.474
 9736SOL     OW30106   5.635   1.392   5.544
 9736SOL    HW130107   5.674   1.446   5.618
 9736SOL    HW230108   5.597   1.307   5.580
 9737SOL     OW30109   5.185   2.276   3.072
 9737SOL    HW130110   5.124   2.224   3.011
 9737SOL    HW230111   5.138   2.358   3.104
 9738SOL     OW30112   2.416   6.690   0.166
 9738SOL    HW130113   2.392   6.618   0.231
 9738SOL    HW230114   2.434   6.649   0.076
 9739SOL     OW30115   5.216   5.770   0.590
 9739SOL    HW130116   5.170   5.685   0.565
 9739SOL    HW230117   5.207   5.836   0.515
 9740SOL     OW30118   0.108   1.537   3.389
 9740SOL    HW130119   0.119   1.447   3.347
 9740SOL    HW230120   0.012   1.565   3.384
 9741SOL     OW30121   2.301   1.098   2.467
 9741SOL    HW130122   2.390   1.113   2.423
 9741SOL    HW230123   2.232   1.156   2.423
 9742SOL     OW30124   3.513   1.217   0.199
 9742SOL    HW130125   3.605   1.232   0.236
 9742SOL    HW230126   3.463   1.303   0.197
 9743SOL     OW30127   0.049   3.867   3.847
 9743SOL    HW130128   0.082   3.825   3.763
 9743SOL    HW230129   0.016   3.960   3.828
 9744SOL     OW30130   1.387   6.945   2.029
 9744SOL    HW130131   1.304   7.001   2.028
 9744SOL    HW230132   1.451   6.981   2.097
 9745SOL     OW30133   4.876   2.760   6.689
 9745SOL    HW130134   4.844   2.830   6.625
 9745SOL    HW230135   4.875   2.796   6.782
 9746SOL     OW30136   5.722   0.535   5.776
 9746SOL    HW130137   5.673   0.543   5.862
 9746SOL    HW230138   5.797   0.470   5.786
 9747SOL     OW30139   2.809   2.181   1.786
 9747SOL    HW130140   2.872   2.235   1.842
 9747SOL    HW230141   2.717   2.189   1.823
 9748SOL     OW30142   6.144   6.759   3.570
 9748SOL    HW130143   6.182   6.781   3.481
 9748SOL    HW230144   6.181   6.820   3.639
 9749SOL     OW30145   1.496   0.676   4.218
 9749SOL    HW130146   1.587   0.705   4.187
 9749SOL    HW230147   1.429   0.746   4.192
 9750SOL     OW30148   5.822   5.330   3.280
 9750SOL    HW130149   5.755   5.261   3.310
 9750SOL    HW230150   5.773   5.413   3.253
 9751SOL     OW30151   2.250   0.315   1.227
 9751SOL    HW130152   2.339   0.357   1.245
 9751SOL    HW230153   2.253   0.265   1.140
 9752SOL     OW30154   4.304   1.312   5.412
 9752SOL    HW130155   4.254   1.270   5.487
 9752SOL    HW230156   4.252   1.389   5.376
 9753SOL     OW30157   0.280   5.658   6.641
 9753SOL    HW130158   0.280   5.699   6.733
 9753SOL    HW230159   0.187   5.632   6.616
 9754SOL     OW30160   2.039   0.074   1.020
 9754SOL    HW130161   1.980   0.151   1.044
 9754SOL    HW230162   2.016   0.043   0.927
 9755SOL     OW30163   3.809   3.754   4.473
 9755SOL    HW130164   3.896   3.773   4.428
 9755SOL    HW230165   3.819   3.769   4.572
 9756SOL     OW30166   5.371   2.417   5.721
 9756SOL    HW130167   5.416   2.452   5.638
 9756SOL    HW230168   5.350   2.493   5.782
 9757SOL     OW30169   5.801   4.763   4.103
 9757SOL    HW130170   5.818   4.861   4.107
 9757SOL    HW230171   5.787   4.736   4.008
 9758SOL     OW30172   2.099   0.519   6.842
 9758SOL    HW130173   2.106   0.595   6.907
 9758SOL    HW230174   2.190   0.484   6.823
 9759SOL     OW30175   1.375   0.720   6.716
 9759SOL    HW130176   1.447   0.777   6.757
 9759SOL    HW230177   1.286   0.753   6.747
 9760SOL     OW30178   4.992   3.302   5.692
 9760SOL    HW130179   5.088   3.288   5.715
 9760SOL    HW230180   4.976   3.275   5.597
 9761SOL     OW30181   0.609   2.023   1.482
 9761SOL    HW130182   0.624   2.026   1.383
 9761SOL    HW230183   0.697   2.019   1.529
 9762SOL     OW30184   3.464   2.070   4.628
 9762SOL    HW130185   3.448   2.095   4.533
 9762SOL    HW230186   3.381   2.088   4.682
 9763SOL     OW30187   4.954   2.254   2.715
 9763SOL    HW130188   4.873   2.238   2.771
 9763SOL    HW230189   4.927   2.269   2.620
 9764SOL     OW30190   6.533   2.947   3.085
 9764SOL    HW130191   6.555   2.866   3.030
 9764SOL    HW230192   6.527   2.921   3.182
 9765SOL     OW30193   6.562   6.596   3.559
 9765SOL    HW130194   6.602   6.555   3.640
 9765SOL    HW230195   6.500   6.531   3.515
 9766SOL     OW30196   2.463   6.666   2.399
 9766SOL    HW130197   2.384   6.724   2.378
 9766SOL    HW230198   2.481   6.605   2.322
 9767SOL     OW30199   3.375   1.770   5.382
 9767SOL    HW130200   3.392   1.858   5.338
 9767SOL    HW230201   3.348   1.703   5.313
 9768SOL     OW30202   5.345   1.156   1.786
 9768SOL    HW130203   5.440   1.183   1.800
 9768SOL    HW230204   5.341   1.076   1.726
 9769SOL     OW30205   4.213   0.384   4.351
 9769SOL    HW130206   4.270   0.425   4.280
 9769SOL    HW230207   4.246   0.411   4.441
 9770SOL     OW30208   4.050   1.028   6.273
 9770SOL    HW130209   4.012   1.093   6.338
 9770SOL    HW230210   3.984   1.009   6.201
 9771SOL     OW30211   2.672   5.166   0.802
 9771SOL    HW130212   2.627   5.083   0.835
 9771SOL    HW230213   2.603   5.237   0.786
 9772SOL     OW30214   1.151   5.928   1.423
 9772SOL    HW130215   1.216   5.940   1.348
 9772SOL    HW230216   1.186   5.972   1.505
 9773SOL     OW30217   5.396   5.368   4.205
 9773SOL    HW130218   5.320   5.422   4.239
 9773SOL    HW230219   5.479   5.392   4.254
 9774SOL     OW30220   6.485   5.238   2.139
 9774SOL    HW130221   6.558   5.299   2.169
 9774SOL    HW230222   6.489   5.226   2.040
 9775SOL     OW30223   2.853   0.463   3.524
 9775SOL    HW130224   2.895   0.373   3.514
 9775SOL    HW230225   2.767   0.454   3.575
 9776SOL     OW30226   0.147   4.898   5.552
 9776SOL    HW130227   0.095   4.898   5.638
 9776SOL    HW230228   0.084   4.892   5.475
 9777SOL     OW30229   5.668   5.381   0.267
 9777SOL    HW130230   5.593   5.362   0.331
 9777SOL    HW230231   5.676   5.305   0.202
 9778SOL     OW30232   0.213   2.272   4.340
 9778SOL    HW130233   0.196   2.341   4.411
 9778SOL    HW230234   0.306   2.238   4.350
 9779SOL     OW30235   0.572   2.073   4.175
 9779SOL    HW130236   0.539   2.076   4.081
 9779SOL    HW230237   0.599   1.979   4.198
 9780SOL     OW30238   2.551   2.321   0.201
 9780SOL    HW130239   2.577   2.404   0.153
 9780SOL    HW230240   2.472   2.339   0.259
 9781SOL     OW30241   2.391   2.350   4.714
 9781SOL    HW130242   2.293   2.356   4.732
 9781SOL    HW230243   2.408   2.280   4.644
 9782SOL     OW30244   0.218   1.462   0.890
 9782SOL    HW130245   0.237   1.434   0.984
 9782SOL    HW230246   0.262   1.399   0.826
 9783SOL     OW30247   4.794   2.945   3.094
 9783SOL    HW130248   4.834   3.019   3.148
 9783SOL    HW230249   4.742   2.885   3.154
 9784SOL     OW30250   3.497   1.733   6.416
 9784SOL    HW130251   3.489   1.652   6.359
 9784SOL    HW230252   3.593   1.763   6.419
 9785SOL     OW30253   0.663   1.869   5.910
 9785SOL    HW130254   0.696   1.837   5.999
 9785SOL    HW230255   0.572   1.832   5.893
 9786SOL     OW30256   2.851   4.010   0.384
 9786SOL    HW130257   2.764   4.015   0.335
 9786SOL    HW230258   2.926   4.027   0.320
 9787SOL     OW30259   3.084   3.192   2.832
 9787SOL    HW130260   3.032   3.245   2.766
 9787SOL    HW230261   3.076   3.094   2.811
 9788SOL     OW30262   0.879   0.086   3.407
 9788SOL    HW130263   0.930   0.078   3.321
 9788SOL    HW230264   0.916   0.162   3.461
 9789SOL     OW30265   1.582   4.919   0.412
 9789SOL    HW130266   1.557   4.927   0.315
 9789SOL    HW230267   1.506   4.952   0.468
 9790SOL     OW30268   6.646   5.005   6.660
 9790SOL    HW130269   6.625   4.908   6.672
 9790SOL    HW230270   6.568   5.052   6.620
 9791SOL     OW30271   0.504   0.473   6.964
 9791SOL    HW130272   0.548   0.563   6.969
 9791SOL    HW230273   0.424   0.478   6.905
 9792SOL     OW30274   3.476   4.209   0.950
 9792SOL    HW130275   3.442   4.119   0.924
 9792SOL    HW230276   3.399   4.268   0.976
 9793SOL     OW30277   4.195   6.948   2.465
 9793SOL    HW130278   4.145   0.011   2.437
 9793SOL    HW230279   4.206   6.949   2.565
 9794SOL     OW30280   6.909   4.039   6.775
 9794SOL    HW130281   6.811   4.058   6.782
 9794SOL    HW230282   6.930   4.012   6.681
 9795SOL     OW30283   1.372   1.775   4.389
 9795SOL    HW130284   1.460   1.797   4.431
 9795SOL    HW230285   1.315   1.724   4.455
 9796SOL     OW30286   3.796   2.890   2.339
 9796SOL    HW130287   3.801   2.834   2.421
 9796SOL    HW230288   3.750   2.839   2.266
 9797SOL     OW30289   2.275   5.559   0.371
 9797SOL    HW130290   2.203   5.628   0.372
 9797SOL    HW230291   2.364   5.605   0.371
 9798SOL     OW30292   3.601   0.802   2.210
 9798SOL    HW130293   3.691   0.819   2.170
 9798SOL    HW230294   3.544   0.755   2.143
 9799SOL     OW30295   2.767   4.198   5.349
 9799SOL    HW130296   2.672   4.189   5.318
 9799SOL    HW230297   2.803   4.108   5.374
 9800SOL     OW30298   4.912   5.244   5.022
 9800SOL    HW130299   4.821   5.225   5.059
 9800SOL    HW230300   4.982   5.220   5.089
 9801SOL     OW30301   4.860   4.052   6.939
 9801SOL    HW130302   4.777   4.054   6.994
 9801SOL    HW230303   4.938   4.079   6.996
 9802SOL     OW30304   6.518   4.104   1.684
 9802SOL    HW130305   6.551   4.198   1.673
 9802SOL    HW230306   6.594   4.045   1.710
 9803SOL     OW30307   1.750   2.208   6.308
 9803SOL    HW130308   1.751   2.140   6.235
 9803SOL    HW230309   1.799   2.290   6.277
 9804SOL     OW30310   1.191   6.110   3.114
 9804SOL    HW130311   1.223   6.016   3.117
 9804SOL    HW230312   1.263   6.168   3.075
 9805SOL     OW30313   1.001   0.036   3.158
 9805SOL    HW130314   1.005   6.980   3.091
 9805SOL    HW230315   1.079   0.098   3.144
 9806SOL     OW30316   1.631   0.890   6.747
 9806SOL    HW130317   1.669   0.847   6.665
 9806SOL    HW230318   1.657   0.836   6.827
 9807SOL     OW30319   3.619   3.892   1.049
 9807SOL    HW130320   3.565   3.922   0.971
 9807SOL    HW230321   3.612   3.958   1.123
 9808SOL     OW30322   3.664   6.867   5.085
 9808SOL    HW130323   3.585   6.811   5.058
 9808SOL    HW230324   3.735   6.807   5.121
 9809SOL     OW30325   0.873   3.226   6.327
 9809SOL    HW130326   0.872   3.311   6.380
 9809SOL    HW230327   0.781   3.186   6.328
 9810SOL     OW30328   2.169   2.565   3.807
 9810SOL    HW130329   2.146   2.617   3.724
 9810SOL    HW230330   2.236   2.494   3.784
 9811SOL     OW30331   5.729   4.920   3.063
 9811SOL    HW130332   5.819   4.919   3.020
 9811SOL    HW230333   5.693   4.826   3.067
 9812SOL     OW30334   4.003   1.426   5.582
 9812SOL    HW130335   3.941   1.373   5.640
 9812SOL    HW230336   3.993   1.396   5.487
 9813SOL     OW30337   4.598   1.464   0.458
 9813SOL    HW130338   4.558   1.431   0.372
 9813SOL    HW230339   4.616   1.386   0.518
 9814SOL     OW30340   0.040   0.369   6.495
 9814SOL    HW130341   0.037   0.467   6.475
 9814SOL    HW230342   0.006   0.353   6.587
 9815SOL     OW30343   5.327   3.694   4.597
 9815SOL    HW130344   5.396   3.767   4.604
 9815SOL    HW230345   5.263   3.703   4.674
 9816SOL     OW30346   1.118   0.616   6.070
 9816SOL    HW130347   1.162   0.614   5.981
 9816SOL    HW230348   1.095   0.523   6.099
 9817SOL     OW30349   2.879   6.483   3.109
 9817SOL    HW130350   2.814   6.410   3.132
 9817SOL    HW230351   2.934   6.455   3.031
 9818SOL     OW30352   0.752   0.465   3.699
 9818SOL    HW130353   0.685   0.420   3.640
 9818SOL    HW230354   0.733   0.563   3.702
 9819SOL     OW30355   4.856   3.480   3.484
 9819SOL    HW130356   4.923   3.408   3.506
 9819SOL    HW230357   4.793   3.492   3.560
 9820SOL     OW30358   3.961   3.134   6.165
 9820SOL    HW130359   3.889   3.074   6.129
 9820SOL    HW230360   3.980   3.207   6.099
 9821SOL     OW30361   4.947   1.247   6.347
 9821SOL    HW130362   4.869   1.184   6.337
 9821SOL    HW230363   4.950   1.282   6.440
 9822SOL     OW30364   1.741   0.318   3.614
 9822SOL    HW130365   1.645   0.289   3.609
 9822SOL    HW230366   1.785   0.304   3.526
 9823SOL     OW30367   2.694   0.562   0.223
 9823SOL    HW130368   2.662   0.608   0.141
 9823SOL    HW230369   2.670   0.616   0.304
 9824SOL     OW30370   1.690   5.143   4.620
 9824SOL    HW130371   1.709   5.091   4.702
 9824SOL    HW230372   1.767   5.134   4.556
 9825SOL     OW30373   4.966   5.586   5.236
 9825SOL    HW130374   4.936   5.580   5.141
 9825SOL    HW230375   5.065   5.574   5.241
 9826SOL     OW30376   4.863   4.815   6.451
 9826SOL    HW130377   4.830   4.901   6.490
 9826SOL    HW230378   4.910   4.833   6.365
 9827SOL     OW30379   2.125   3.395   3.612
 9827SOL    HW130380   2.117   3.480   3.663
 9827SOL    HW230381   2.094   3.409   3.518
 9828SOL     OW30382   2.393   2.735   5.667
 9828SOL    HW130383   2.429   2.729   5.574
 9828SOL    HW230384   2.437   2.666   5.724
 9829SOL     OW30385   4.052   4.848   0.005
 9829SOL    HW130386   4.124   4.846   0.074
 9829SOL    HW230387   3.991   4.770   0.017
 9830SOL     OW30388   6.163   2.436   2.261
 9830SOL    HW130389   6.185   2.349   2.217
 9830SOL    HW230390   6.067   2.435   2.289
 9831SOL     OW30391   2.373   5.165   1.392
 9831SOL    HW130392   2.331   5.107   1.322
 9831SOL    HW230393   2.422   5.240   1.347
 9832SOL     OW30394   5.115   5.292   2.644
 9832SOL    HW130395   5.207   5.277   2.607
 9832SOL    HW230396   5.057   5.214   2.621
 9833SOL     OW30397   3.454   3.545   4.860
 9833SOL    HW130398   3.359   3.576   4.859
 9833SOL    HW230399   3.505   3.595   4.930
 9834SOL     OW30400   2.796   4.487   5.340
 9834SOL    HW130401   2.867   4.543   5.297
 9834SOL    HW230402   2.818   4.390   5.328
 9835SOL     OW30403   4.169   3.301   5.375
 9835SOL    HW130404   4.132   3.219   5.332
 9835SOL    HW230405   4.124   3.315   5.463
 9836SOL     OW30406   6.932   4.626   3.640
 9836SOL    HW130407   6.904   4.722   3.639
 9836SOL    HW230408   6.896   4.581   3.558
 9837SOL     OW30409   3.269   0.232   3.021
 9837SOL    HW130410   3.241   0.317   3.066
 9837SOL    HW230411   3.268   0.246   2.921
 9838SOL     OW30412   2.024   0.096   6.703
 9838SOL    HW130413   2.036   7.016   6.686
 9838SOL    HW230414   1.927   0.118   6.703
 9839SOL     OW30415   5.431   0.379   3.804
 9839SOL    HW130416   5.530   0.365   3.796
 9839SOL    HW230417   5.395   0.406   3.714
 9840SOL     OW30418   5.997   1.445   0.866
 9840SOL    HW130419   5.930   1.411   0.800
 9840SOL    HW230420   6.067   1.376   0.880
 9841SOL     OW30421   1.983   4.856   5.220
 9841SOL    HW130422   1.950   4.879   5.312
 9841SOL    HW230423   2.057   4.789   5.228
 9842SOL     OW30424   3.891   3.672   2.152
 9842SOL    HW130425   3.806   3.621   2.165
 9842SOL    HW230426   3.963   3.609   2.123
 9843SOL     OW30427   6.063   0.865   1.146
 9843SOL    HW130428   6.077   0.943   1.207
 9843SOL    HW230429   6.052   0.898   1.053
 9844SOL     OW30430   6.245   0.668   2.340
 9844SOL    HW130431   6.158   0.649   2.295
 9844SOL    HW230432   6.230   0.677   2.438
 9845SOL     OW30433   2.006   2.743   2.865
 9845SOL    HW130434   2.091   2.794   2.857
 9845SOL    HW230435   1.946   2.789   2.931
 9846SOL     OW30436   3.648   3.540   2.144
 9846SOL    HW130437   3.624   3.444   2.125
 9846SOL    HW230438   3.576   3.581   2.201
 9847SOL     OW30439   3.545   2.983   3.696
 9847SOL    HW130440   3.634   2.941   3.715
 9847SOL    HW230441   3.530   3.059   3.759
 9848SOL     OW30442   3.644   3.251   5.045
 9848SOL    HW130443   3.619   3.280   4.953
 9848SOL    HW230444   3.679   3.330   5.096
 9849SOL     OW30445   0.949   6.898   6.688
 9849SOL    HW130446   1.020   6.826   6.689
 9849SOL    HW230447   0.989   6.983   6.656
 9850SOL     OW30448   5.750   7.016   4.184
 9850SOL    HW130449   5.657   6.981   4.172
 9850SOL    HW230450   5.770   0.007   4.281
 9851SOL     OW30451   6.107   0.568   4.625
 9851SOL    HW130452   6.184   0.598   4.681
 9851SOL    HW230453   6.024   0.564   4.681
 9852SOL     OW30454   4.341   2.085   3.613
 9852SOL    HW130455   4.410   2.033   3.563
 9852SOL    HW230456   4.331   2.047   3.705
 9853SOL     OW30457   4.803   4.038   4.864
 9853SOL    HW130458   4.802   4.038   4.964
 9853SOL    HW230459   4.842   4.124   4.831
 9854SOL     OW30460   6.902   5.420   4.901
 9854SOL    HW130461   6.852   5.335   4.913
 9854SOL    HW230462   6.871   5.466   4.818
 9855SOL     OW30463   2.148   3.252   1.306
 9855SOL    HW130464   2.061   3.296   1.326
 9855SOL    HW230465   2.200   3.239   1.391
 9856SOL     OW30466   5.038   4.576   4.978
 9856SOL    HW130467   5.011   4.490   5.021
 9856SOL    HW230468   5.138   4.583   4.977
 9857SOL     OW30469   4.864   3.051   2.732
 9857SOL    HW130470   4.887   3.117   2.661
 9857SOL    HW230471   4.897   3.083   2.820
 9858SOL     OW30472   0.362   0.806   1.191
 9858SOL    HW130473   0.303   0.734   1.227
 9858SOL    HW230474   0.385   0.870   1.264
 9859SOL     OW30475   6.408   6.896   2.642
 9859SOL    HW130476   6.372   6.922   2.552
 9859SOL    HW230477   6.336   6.907   2.711
 9860SOL     OW30478   1.142   1.505   3.301
 9860SOL    HW130479   1.139   1.407   3.284
 9860SOL    HW230480   1.227   1.528   3.348
 9861SOL     OW30481   2.987   0.216   3.512
 9861SOL    HW130482   3.058   0.162   3.556
 9861SOL    HW230483   2.966   0.177   3.422
 9862SOL     OW30484   3.995   2.887   0.062
 9862SOL    HW130485   4.003   2.951   0.139
 9862SOL    HW230486   3.906   2.842   0.066
 9863SOL     OW30487   3.188   0.308   2.704
 9863SOL    HW130488   3.115   0.251   2.741
 9863SOL    HW230489   3.255   0.250   2.657
 9864SOL     OW30490   3.845   6.765   3.886
 9864SOL    HW130491   3.826   6.856   3.923
 9864SOL    HW230492   3.801   6.695   3.942
 9865SOL     OW30493   1.265   0.613   4.721
 9865SOL    HW130494   1.304   0.652   4.805
 9865SOL    HW230495   1.335   0.608   4.651
 9866SOL     OW30496   5.580   4.614   6.307
 9866SOL    HW130497   5.543   4.626   6.215
 9866SOL    HW230498   5.633   4.696   6.332
 9867SOL     OW30499   6.515   0.673   1.094
 9867SOL    HW130500   6.556   0.585   1.069
 9867SOL    HW230501   6.562   0.747   1.047
 9868SOL     OW30502   0.527   3.543   5.450
 9868SOL    HW130503   0.444   3.493   5.425
 9868SOL    HW230504   0.600   3.520   5.385
 9869SOL     OW30505   1.267   2.913   1.770
 9869SOL    HW130506   1.167   2.904   1.764
 9869SOL    HW230507   1.291   2.971   1.848
 9870SOL     OW30508   3.462   6.052   2.677
 9870SOL    HW130509   3.447   6.031   2.774
 9870SOL    HW230510   3.445   6.149   2.660
 9871SOL     OW30511   0.195   5.943   6.001
 9871SOL    HW130512   0.185   6.019   6.066
 9871SOL    HW230513   0.159   5.860   6.042
 9872SOL     OW30514   2.205   5.801   4.448
 9872SOL    HW130515   2.255   5.758   4.373
 9872SOL    HW230516   2.267   5.816   4.524
 9873SOL     OW30517   2.601   2.705   0.329
 9873SOL    HW130518   2.561   2.621   0.365
 9873SOL    HW230519   2.537   2.747   0.265
 9874SOL     OW30520   5.683   3.104   5.157
 9874SOL    HW130521   5.716   3.041   5.087
 9874SOL    HW230522   5.760   3.160   5.190
 9875SOL     OW30523   5.888   6.439   1.860
 9875SOL    HW130524   5.834   6.478   1.934
 9875SOL    HW230525   5.878   6.340   1.859
 9876SOL     OW30526   6.513   0.257   3.669
 9876SOL    HW130527   6.449   0.207   3.610
 9876SOL    HW230528   6.462   0.311   3.736
 9877SOL     OW30529   0.026   5.668   4.196
 9877SOL    HW130530   7.018   5.762   4.173
 9877SOL    HW230531   0.126   5.663   4.202
 9878SOL     OW30532   2.682   4.699   5.502
 9878SOL    HW130533   2.721   4.607   5.507
 9878SOL    HW230534   2.717   4.746   5.421
 9879SOL     OW30535   5.797   5.546   5.075
 9879SOL    HW130536   5.743   5.514   5.153
 9879SOL    HW230537   5.866   5.611   5.107
 9880SOL     OW30538   3.844   0.921   6.891
 9880SOL    HW130539   3.855   0.878   6.981
 9880SOL    HW230540   3.762   0.885   6.846
 9881SOL     OW30541   1.179   1.025   4.326
 9881SOL    HW130542   1.145   0.976   4.406
 9881SOL    HW230543   1.102   1.063   4.275
 9882SOL     OW30544   1.519   3.037   4.108
 9882SOL    HW130545   1.436   3.030   4.052
 9882SOL    HW230546   1.570   3.119   4.081
 9883SOL     OW30547   1.295   6.274   1.345
 9883SOL    HW130548   1.206   6.302   1.308
 9883SOL    HW230549   1.365   6.336   1.310
 9884SOL     OW30550   4.734   2.428   1.835
 9884SOL    HW130551   4.694   2.463   1.751
 9884SOL    HW230552   4.829   2.461   1.843
 9885SOL     OW30553   6.862   2.213   4.801
 9885SOL    HW130554   6.785   2.151   4.785
 9885SOL    HW230555   6.855   2.292   4.740
 9886SOL     OW30556   1.331   4.850   1.699
 9886SOL    HW130557   1.430   4.848   1.681
 9886SOL    HW230558   1.307   4.772   1.758
 9887SOL     OW30559   4.277   0.343   6.646
 9887SOL    HW130560   4.335   0.413   6.690
 9887SOL    HW230561   4.182   0.355   6.675
 9888SOL     OW30562   5.357   4.759   2.179
 9888SOL    HW130563   5.364   4.660   2.194
 9888SOL    HW230564   5.345   4.806   2.266
 9889SOL     OW30565   6.510   4.602   0.497
 9889SOL    HW130566   6.543   4.573   0.587
 9889SOL    HW230567   6.588   4.630   0.441
 9890SOL     OW30568   0.879   2.954   1.284
 9890SOL    HW130569   0.906   2.952   1.188
 9890SOL    HW230570   0.801   2.892   1.298
 9891SOL     OW30571   5.831   3.249   1.623
 9891SOL    HW130572   5.785   3.183   1.683
 9891SOL    HW230573   5.763   3.296   1.566
 9892SOL     OW30574   1.154   4.644   2.018
 9892SOL    HW130575   1.184   4.658   1.924
 9892SOL    HW230576   1.121   4.550   2.029
 9893SOL     OW30577   0.454   0.617   2.113
 9893SOL    HW130578   0.396   0.692   2.081
 9893SOL    HW230579   0.432   0.596   2.208
 9894SOL     OW30580   3.169   2.495   0.309
 9894SOL    HW130581   3.241   2.524   0.246
 9894SOL    HW230582   3.142   2.401   0.287
 9895SOL     OW30583   5.338   3.691   5.149
 9895SOL    HW130584   5.290   3.650   5.227
 9895SOL    HW230585   5.396   3.766   5.182
 9896SOL     OW30586   6.240   1.034   0.554
 9896SOL    HW130587   6.336   1.009   0.563
 9896SOL    HW230588   6.223   1.122   0.600
 9897SOL     OW30589   5.873   6.700   2.432
 9897SOL    HW130590   5.951   6.705   2.371
 9897SOL    HW230591   5.788   6.708   2.380
 9898SOL     OW30592   1.184   5.224   5.621
 9898SOL    HW130593   1.236   5.278   5.686
 9898SOL    HW230594   1.204   5.256   5.528
 9899SOL     OW30595   1.423   5.437   1.432
 9899SOL    HW130596   1.494   5.499   1.467
 9899SOL    HW230597   1.411   5.362   1.497
 9900SOL     OW30598   1.427   3.079   3.084
 9900SOL    HW130599   1.445   3.012   3.012
 9900SOL    HW230600   1.463   3.168   3.056
 9901SOL     OW30601   2.868   0.829   6.925
 9901SOL    HW130602   2.862   0.819   0.006
 9901SOL    HW230603   2.806   0.764   6.881
 9902SOL     OW30604   3.271   4.444   1.205
 9902SOL    HW130605   3.350   4.505   1.221
 9902SOL    HW230606   3.268   4.374   1.277
 9903SOL     OW30607   5.515   1.422   1.734
 9903SOL    HW130608   5.482   1.430   1.640
 9903SOL    HW230609   5.474   1.494   1.790
 9904SOL     OW30610   0.588   3.913   6.586
 9904SOL    HW130611   0.493   3.932   6.611
 9904SOL    HW230612   0.634   3.870   6.663
 9905SOL     OW30613   2.389   0.412   5.696
 9905SOL    HW130614   2.463   0.478   5.693
 9905SOL    HW230615   2.342   0.418   5.784
 9906SOL     OW30616   1.824   2.877   0.320
 9906SOL    HW130617   1.762   2.862   0.243
 9906SOL    HW230618   1.799   2.962   0.367
 9907SOL     OW30619   1.391   0.870   1.118
 9907SOL    HW130620   1.410   0.804   1.044
 9907SOL    HW230621   1.292   0.879   1.129
 9908SOL     OW30622   6.316   2.165   4.681
 9908SOL    HW130623   6.376   2.206   4.750
 9908SOL    HW230624   6.273   2.083   4.718
 9909SOL     OW30625   3.923   0.823   2.525
 9909SOL    HW130626   3.983   0.820   2.605
 9909SOL    HW230627   3.979   0.818   2.442
 9910SOL     OW30628   1.234   5.053   1.907
 9910SOL    HW130629   1.264   5.148   1.919
 9910SOL    HW230630   1.242   5.028   1.811
 9911SOL     OW30631   2.547   6.270   2.274
 9911SOL    HW130632   2.534   6.369   2.265
 9911SOL    HW230633   2.457   6.227   2.283
 9912SOL     OW30634   3.704   1.482   1.044
 9912SOL    HW130635   3.661   1.393   1.058
 9912SOL    HW230636   3.779   1.474   0.979
 9913SOL     OW30637   6.289   3.544   0.805
 9913SOL    HW130638   6.343   3.461   0.785
 9913SOL    HW230639   6.348   3.612   0.848
 9914SOL     OW30640   5.972   0.309   5.000
 9914SOL    HW130641   5.934   0.390   5.044
 9914SOL    HW230642   6.057   0.334   4.953
 9915SOL     OW30643   5.973   0.662   3.630
 9915SOL    HW130644   6.007   0.755   3.617
 9915SOL    HW230645   6.046   0.596   3.611
 9916SOL     OW30646   2.005   2.589   3.096
 9916SOL    HW130647   1.980   2.635   3.011
 9916SOL    HW230648   2.091   2.540   3.084
 9917SOL     OW30649   4.139   4.191   5.888
 9917SOL    HW130650   4.094   4.263   5.835
 9917SOL    HW230651   4.076   4.159   5.960
 9918SOL     OW30652   1.361   2.322   2.933
 9918SOL    HW130653   1.332   2.262   2.858
 9918SOL    HW230654   1.285   2.383   2.958
 9919SOL     OW30655   1.708   5.451   0.864
 9919SOL    HW130656   1.629   5.510   0.847
 9919SOL    HW230657   1.789   5.508   0.878
 9920SOL     OW30658   5.277   0.755   2.380
 9920SOL    HW130659   5.279   0.733   2.477
 9920SOL    HW230660   5.235   0.845   2.367
 9921SOL     OW30661   4.313   6.099   4.005
 9921SOL    HW130662   4.381   6.170   4.026
 9921SOL    HW230663   4.225   6.143   3.986
 9922SOL     OW30664   4.044   4.186   0.705
 9922SOL    HW130665   4.031   4.194   0.804
 9922SOL    HW230666   4.017   4.271   0.660
 9923SOL     OW30667   6.083   4.321   6.631
 9923SOL    HW130668   6.097   4.348   6.535
 9923SOL    HW230669   6.018   4.383   6.674
 9924SOL     OW30670   5.729   2.414   3.066
 9924SOL    HW130671   5.801   2.380   3.126
 9924SOL    HW230672   5.719   2.353   2.988
 9925SOL     OW30673   0.504   5.254   4.118
 9925SOL    HW130674   0.488   5.178   4.055
 9925SOL    HW230675   0.461   5.337   4.082
 9926SOL     OW30676   4.174   2.563   1.120
 9926SOL    HW130677   4.110   2.505   1.170
 9926SOL    HW230678   4.203   2.516   1.037
 9927SOL     OW30679   1.589   0.776   0.739
 9927SOL    HW130680   1.678   0.821   0.739
 9927SOL    HW230681   1.517   0.845   0.747
 9928SOL     OW30682   4.782   4.557   3.558
 9928SOL    HW130683   4.686   4.537   3.538
 9928SOL    HW230684   4.831   4.572   3.472
 9929SOL     OW30685   3.710   4.111   4.529
 9929SOL    HW130686   3.666   4.027   4.495
 9929SOL    HW230687   3.708   4.180   4.457
 9930SOL     OW30688   0.075   6.675   5.756
 9930SOL    HW130689   0.124   6.732   5.690
 9930SOL    HW230690   0.038   6.733   5.829
 9931SOL     OW30691   6.788   4.865   4.707
 9931SOL    HW130692   6.819   4.941   4.763
 9931SOL    HW230693   6.691   4.849   4.723
 9932SOL     OW30694   2.581   3.022   5.631
 9932SOL    HW130695   2.499   3.013   5.575
 9932SOL    HW230696   2.660   2.989   5.579
 9933SOL     OW30697   1.824   6.569   4.159
 9933SOL    HW130698   1.827   6.479   4.202
 9933SOL    HW230699   1.742   6.617   4.188
 9934SOL     OW30700   0.216   2.096   6.150
 9934SOL    HW130701   0.172   2.006   6.156
 9934SOL    HW230702   0.162   2.163   6.200
 9935SOL     OW30703   2.546   0.037   1.125
 9935SOL    HW130704   2.570   0.111   1.187
 9935SOL    HW230705   2.481   0.070   1.056
 9936SOL     OW30706   6.092   4.565   0.441
 9936SOL    HW130707   6.063   4.596   0.351
 9936SOL    HW230708   6.183   4.600   0.461
 9937SOL     OW30709   0.462   2.222   1.630
 9937SOL    HW130710   0.375   2.262   1.598
 9937SOL    HW230711   0.500   2.164   1.558
 9938SOL     OW30712   5.296   4.967   3.787
 9938SOL    HW130713   5.297   4.916   3.873
 9938SOL    HW230714   5.211   5.019   3.780
 9939SOL     OW30715   3.928   2.846   1.301
 9939SOL    HW130716   3.926   2.857   1.201
 9939SOL    HW230717   4.003   2.901   1.338
 9940SOL     OW30718   1.128   0.462   1.640
 9940SOL    HW130719   1.170   0.380   1.600
 9940SOL    HW230720   1.082   0.437   1.725
 9941SOL     OW30721   3.260   3.805   5.533
 9941SOL    HW130722   3.326   3.755   5.476
 9941SOL    HW230723   3.226   3.744   5.605
 9942SOL     OW30724   3.435   5.293   2.623
 9942SOL    HW130725   3.493   5.352   2.680
 9942SOL    HW230726   3.461   5.303   2.527
 9943SOL     OW30727   0.878   4.940   6.543
 9943SOL    HW130728   0.935   4.864   6.512
 9943SOL    HW230729   0.933   5.024   6.547
 9944SOL     OW30730   0.796   4.567   6.533
 9944SOL    HW130731   0.725   4.593   6.468
 9944SOL    HW230732   0.883   4.609   6.507
 9945SOL     OW30733   4.791   5.513   6.987
 9945SOL    HW130734   4.766   5.488   6.894
 9945SOL    HW230735   4.885   5.546   6.989
 9946SOL     OW30736   6.106   0.164   3.467
 9946SOL    HW130737   6.089   0.150   3.564
 9946SOL    HW230738   6.199   0.137   3.445
 9947SOL     OW30739   2.964   2.241   4.260
 9947SOL    HW130740   2.966   2.141   4.268
 9947SOL    HW230741   2.930   2.280   4.346
 9948SOL     OW30742   0.113   4.899   5.952
 9948SOL    HW130743   0.084   4.810   5.989
 9948SOL    HW230744   0.057   4.921   5.872
 9949SOL     OW30745   6.668   4.650   4.056
 9949SOL    HW130746   6.683   4.592   3.976
 9949SOL    HW230747   6.623   4.597   4.127
 9950SOL     OW30748   5.535   6.147   6.089
 9950SOL    HW130749   5.439   6.171   6.096
 9950SOL    HW230750   5.545   6.047   6.083
 9951SOL     OW30751   1.400   2.581   3.220
 9951SOL    HW130752   1.460   2.653   3.254
 9951SOL    HW230753   1.456   2.505   3.187
 9952SOL     OW30754   1.541   4.230   0.692
 9952SOL    HW130755   1.559   4.302   0.758
 9952SOL    HW230756   1.624   4.174   0.681
 9953SOL     OW30757   6.212   2.609   4.142
 9953SOL    HW130758   6.172   2.633   4.053
 9953SOL    HW230759   6.228   2.511   4.145
 9954SOL     OW30760   1.116   0.260   5.401
 9954SOL    HW130761   1.097   0.319   5.479
 9954SOL    HW230762   1.038   0.260   5.338
 9955SOL     OW30763   4.684   3.967   6.420
 9955SOL    HW130764   4.648   3.874   6.422
 9955SOL    HW230765   4.695   4.000   6.513
 9956SOL     OW30766   0.948   5.357   4.190
 9956SOL    HW130767   0.979   5.374   4.284
 9956SOL    HW230768   0.975   5.265   4.162
 9957SOL     OW30769   5.959   0.109   1.766
 9957SOL    HW130770   5.918   0.137   1.680
 9957SOL    HW230771   5.927   0.018   1.791
 9958SOL     OW30772   2.358   5.650   6.947
 9958SOL    HW130773   2.284   5.641   7.014
 9958SOL    HW230774   2.348   5.580   6.877
 9959SOL     OW30775   4.163   3.585   3.916
 9959SOL    HW130776   4.263   3.597   3.915
 9959SOL    HW230777   4.129   3.582   3.822
 9960SOL     OW30778   0.165   0.296   1.906
 9960SOL    HW130779   0.244   0.282   1.966
 9960SOL    HW230780   0.143   0.394   1.904
 9961SOL     OW30781   1.430   4.941   4.352
 9961SOL    HW130782   1.458   5.031   4.386
 9961SOL    HW230783   1.487   4.870   4.394
 9962SOL     OW30784   4.771   0.910   2.629
 9962SOL    HW130785   4.719   0.879   2.550
 9962SOL    HW230786   4.743   0.857   2.710
 9963SOL     OW30787   2.104   2.315   6.233
 9963SOL    HW130788   2.106   2.314   6.133
 9963SOL    HW230789   2.174   2.254   6.269
 9964SOL     OW30790   4.580   4.020   5.960
 9964SOL    HW130791   4.565   4.103   6.015
 9964SOL    HW230792   4.646   3.961   6.007
 9965SOL     OW30793   4.354   5.015   5.992
 9965SOL    HW130794   4.285   4.965   6.045
 9965SOL    HW230795   4.384   4.958   5.915
 9966SOL     OW30796   2.622   5.824   2.128
 9966SOL    HW130797   2.677   5.907   2.141
 9966SOL    HW230798   2.561   5.812   2.206
 9967SOL     OW30799   5.955   5.858   1.244
 9967SOL    HW130800   5.980   5.941   1.293
 9967SOL    HW230801   5.862   5.867   1.208
 9968SOL     OW30802   3.100   4.499   6.630
 9968SOL    HW130803   3.081   4.469   6.536
 9968SOL    HW230804   3.106   4.419   6.689
 9969SOL     OW30805   1.805   2.852   4.139
 9969SOL    HW130806   1.856   2.792   4.077
 9969SOL    HW230807   1.709   2.823   4.142
 9970SOL     OW30808   5.430   4.519   2.360
 9970SOL    HW130809   5.508   4.559   2.313
 9970SOL    HW230810   5.456   4.496   2.454
 9971SOL     OW30811   2.787   3.740   0.383
 9971SOL    HW130812   2.813   3.826   0.427
 9971SOL    HW230813   2.803   3.746   0.285
 9972SOL     OW30814   3.610   4.387   0.744
 9972SOL    HW130815   3.572   4.314   0.801
 9972SOL    HW230816   3.639   4.463   0.803
 9973SOL     OW30817   4.164   1.796   4.128
 9973SOL    HW130818   4.078   1.827   4.088
 9973SOL    HW230819   4.146   1.717   4.187
 9974SOL     OW30820   6.336   3.652   3.646
 9974SOL    HW130821   6.390   3.717   3.592
 9974SOL    HW230822   6.256   3.625   3.594
 9975SOL     OW30823   6.419   4.304   0.091
 9975SOL    HW130824   6.391   4.399   0.078
 9975SOL    HW230825   6.353   4.243   0.048
 9976SOL     OW30826   0.537   5.370   5.838
 9976SOL    HW130827   0.525   5.467   5.859
 9976SOL    HW230828   0.553   5.359   5.740
 9977SOL     OW30829   0.008   5.571   6.548
 9977SOL    HW130830   6.956   5.623   6.498
 9977SOL    HW230831   0.065   5.522   6.483
 9978SOL     OW30832   6.457   3.003   3.670
 9978SOL    HW130833   6.435   2.931   3.736
 9978SOL    HW230834   6.550   3.036   3.687
 9979SOL     OW30835   5.938   4.718   5.529
 9979SOL    HW130836   5.946   4.697   5.431
 9979SOL    HW230837   5.996   4.656   5.582
 9980SOL     OW30838   1.654   1.637   6.607
 9980SOL    HW130839   1.673   1.656   6.704
 9980SOL    HW230840   1.721   1.684   6.550
 9981SOL     OW30841   2.404   1.895   1.614
 9981SOL    HW130842   2.407   1.983   1.661
 9981SOL    HW230843   2.474   1.834   1.652
 9982SOL     OW30844   0.455   1.496   3.549
 9982SOL    HW130845   0.355   1.504   3.548
 9982SOL    HW230846   0.489   1.500   3.455
 9983SOL     OW30847   1.381   2.262   2.496
 9983SOL    HW130848   1.362   2.360   2.505
 9983SOL    HW230849   1.437   2.247   2.414
 9984SOL     OW30850   1.662   6.865   0.572
 9984SOL    HW130851   1.673   6.857   0.671
 9984SOL    HW230852   1.603   6.943   0.552
 9985SOL     OW30853   2.713   1.058   1.673
 9985SOL    HW130854   2.660   1.079   1.756
 9985SOL    HW230855   2.787   0.996   1.696
 9986SOL     OW30856   5.390   3.767   6.892
 9986SOL    HW130857   5.333   3.830   6.839
 9986SOL    HW230858   5.485   3.799   6.890
 9987SOL     OW30859   6.105   2.257   3.110
 9987SOL    HW130860   6.150   2.247   3.199
 9987SOL    HW230861   6.017   2.211   3.112
 9988SOL     OW30862   0.065   5.228   5.155
 9988SOL    HW130863   6.990   5.217   5.189
 9988SOL    HW230864   0.105   5.311   5.194
 9989SOL     OW30865   5.881   4.316   3.253
 9989SOL    HW130866   5.933   4.397   3.280
 9989SOL    HW230867   5.922   4.235   3.296
 9990SOL     OW30868   2.195   0.535   2.863
 9990SOL    HW130869   2.138   0.616   2.876
 9990SOL    HW230870   2.161   0.461   2.921
 9991SOL     OW30871   2.227   2.985   4.047
 9991SOL    HW130872   2.130   2.981   4.068
 9991SOL    HW230873   2.272   3.049   4.109
 9992SOL     OW30874   4.612   3.590   0.510
 9992SOL    HW130875   4.567   3.541   0.435
 9992SOL    HW230876   4.647   3.678   0.476
 9993SOL     OW30877   4.065   0.350   1.961
 9993SOL    HW130878   4.085   0.309   2.050
 9993SOL    HW230879   3.968   0.372   1.956
 9994SOL     OW30880   6.814   4.328   4.056
 9994SOL    HW130881   6.842   4.399   4.121
 9994SOL    HW230882   6.724   4.294   4.080
 9995SOL     OW30883   2.978   0.749   2.531
 9995SOL    HW130884   3.059   0.802   2.508
 9995SOL    HW230885   2.998   0.651   2.523
 9996SOL     OW30886   3.025   3.453   1.455
 9996SOL    HW130887   3.121   3.478   1.451
 9996SOL    HW230888   2.991   3.432   1.363
 9997SOL     OW30889   4.176   1.815   0.870
 9997SOL    HW130890   4.107   1.887   0.878
 9997SOL    HW230891   4.264   1.850   0.900
 9998SOL     OW30892   6.429   3.853   1.908
 9998SOL    HW130893   6.355   3.791   1.936
 9998SOL    HW230894   6.413   3.883   1.814
 9999SOL     OW30895   6.061   4.027   4.870
 9999SOL    HW130896   6.021   3.937   4.884
 9999SOL    HW230897   6.025   4.090   4.939
10000SOL     OW30898   5.728   3.301   6.934
10000SOL    HW130899   5.716   3.398   6.912
10000SOL    HW230900   5.753   3.291   0.012
10001SOL     OW30901   5.439   1.226   2.165
10001SOL    HW130902   5.370   1.191   2.100
10001SOL    HW230903   5.399   1.229   2.256
10002SOL     OW30904   1.529   0.325   0.655
10002SOL    HW130905   1.549   0.398   0.590
10002SOL    HW230906   1.611   0.270   0.669
10003SOL     OW30907   3.528   1.646   3.536
10003SOL    HW130908   3.518   1.571   3.602
10003SOL    HW230909   3.623   1.677   3.535
10004SOL     OW30910   4.566   2.119   4.626
10004SOL    HW130911   4.581   2.027   4.591
10004SOL    HW230912   4.504   2.117   4.705
10005SOL     OW30913   4.750   0.149   3.741
10005SOL    HW130914   4.806   0.068   3.758
10005SOL    HW230915   4.675   0.125   3.680
10006SOL     OW30916   5.239   1.322   3.737
10006SOL    HW130917   5.151   1.365   3.718
10006SOL    HW230918   5.243   1.232   3.693
10007SOL     OW30919   0.792   4.729   4.980
10007SOL    HW130920   0.836   4.803   4.929
10007SOL    HW230921   0.794   4.645   4.926
10008SOL     OW30922   4.237   1.549   3.795
10008SOL    HW130923   4.275   1.624   3.849
10008SOL    HW230924   4.256   1.564   3.698
10009SOL     OW30925   1.864   4.233   1.233
10009SOL    HW130926   1.870   4.249   1.332
10009SOL    HW230927   1.951   4.258   1.190
10010SOL     OW30928   2.456   6.575   6.944
10010SOL    HW130929   2.426   6.495   6.892
10010SOL    HW230930   2.546   6.558   6.983
10011SOL     OW30931   5.657   2.129   4.805
10011SOL    HW130932   5.559   2.109   4.803
10011SOL    HW230933   5.695   2.116   4.714
10012SOL     OW30934   4.643   0.357   2.970
10012SOL    HW130935   4.649   0.269   2.924
10012SOL    HW230936   4.547   0.376   2.993
10013SOL     OW30937   1.296   1.686   3.951
10013SOL    HW130938   1.206   1.729   3.942
10013SOL    HW230939   1.314   1.630   3.870
10014SOL     OW30940   6.143   2.984   6.818
10014SOL    HW130941   6.141   3.081   6.796
10014SOL    HW230942   6.216   2.939   6.765
10015SOL     OW30943   2.604   4.304   0.651
10015SOL    HW130944   2.558   4.215   0.648
10015SOL    HW230945   2.677   4.301   0.720
10016SOL     OW30946   1.930   0.144   5.199
10016SOL    HW130947   1.861   0.109   5.261
10016SOL    HW230948   2.018   0.151   5.247
10017SOL     OW30949   2.481   2.261   2.342
10017SOL    HW130950   2.519   2.350   2.369
10017SOL    HW230951   2.465   2.206   2.424
10018SOL     OW30952   4.626   0.056   5.613
10018SOL    HW130953   4.592   6.980   5.612
10018SOL    HW230954   4.701   0.065   5.548
10019SOL     OW30955   1.092   1.585   2.883
10019SOL    HW130956   1.174   1.621   2.928
10019SOL    HW230957   1.114   1.558   2.790
10020SOL     OW30958   0.625   3.031   1.510
10020SOL    HW130959   0.542   3.028   1.566
10020SOL    HW230960   0.688   3.099   1.547
10021SOL     OW30961   0.062   2.678   0.937
10021SOL    HW130962   6.984   2.693   0.961
10021SOL    HW230963   0.120   2.707   1.014
10022SOL     OW30964   3.521   0.014   0.429
10022SOL    HW130965   3.558   7.010   0.520
10022SOL    HW230966   3.494   0.110   0.426
10023SOL     OW30967   1.532   5.062   6.246
10023SOL    HW130968   1.587   4.999   6.191
10023SOL    HW230969   1.592   5.113   6.307
10024SOL     OW30970   2.173   6.772   2.008
10024SOL    HW130971   2.255   6.719   2.028
10024SOL    HW230972   2.111   6.769   2.087
10025SOL     OW30973   1.418   1.254   1.321
10025SOL    HW130974   1.357   1.247   1.242
10025SOL    HW230975   1.432   1.164   1.362
10026SOL     OW30976   4.819   6.496   4.129
10026SOL    HW130977   4.887   6.539   4.070
10026SOL    HW230978   4.842   6.400   4.141
10027SOL     OW30979   6.791   4.132   5.412
10027SOL    HW130980   6.792   4.043   5.366
10027SOL    HW230981   6.875   4.182   5.390
10028SOL     OW30982   1.361   1.583   1.303
10028SOL    HW130983   1.412   1.521   1.362
10028SOL    HW230984   1.372   1.677   1.337
10029SOL     OW30985   3.668   2.138   4.059
10029SOL    HW130986   3.709   2.113   4.147
10029SOL    HW230987   3.584   2.190   4.076
10030SOL     OW30988   2.094   6.635   3.755
10030SOL    HW130989   2.069   6.654   3.660
10030SOL    HW230990   2.013   6.608   3.806
10031SOL     OW30991   6.093   4.993   3.996
10031SOL    HW130992   6.044   4.962   3.914
10031SOL    HW230993   6.110   4.914   4.056
10032SOL     OW30994   2.875   1.719   4.695
10032SOL    HW130995   2.870   1.680   4.787
10032SOL    HW230996   2.926   1.805   4.698
10033SOL     OW30997   5.535   2.210   3.786
10033SOL    HW130998   5.459   2.163   3.832
10033SOL    HW230999   5.599   2.142   3.749
10034SOL     OW31000   2.695   0.188   4.382
10034SOL    HW131001   2.709   0.233   4.294
10034SOL    HW231002   2.704   0.089   4.370
10035SOL     OW31003   6.474   4.149   2.009
10035SOL    HW131004   6.414   4.222   2.043
10035SOL    HW231005   6.423   4.090   1.946
10036SOL     OW31006   5.913   1.898   1.817
10036SOL    HW131007   5.855   1.818   1.836
10036SOL    HW231008   5.855   1.978   1.800
10037SOL     OW31009   6.617   1.184   0.799
10037SOL    HW131010   6.704   1.233   0.790
10037SOL    HW231011   6.543   1.249   0.814
10038SOL     OW31012   5.254   0.621   0.232
10038SOL    HW131013   5.241   0.715   0.201
10038SOL    HW231014   5.168   0.585   0.267
10039SOL     OW31015   3.595   0.345   3.396
10039SOL    HW131016   3.582   0.248   3.372
10039SOL    HW231017   3.507   0.392   3.396
10040SOL     OW31018   4.693   5.509   6.210
10040SOL    HW131019   4.693   5.411   6.192
10040SOL    HW231020   4.762   5.553   6.151
10041SOL     OW31021   3.949   6.316   6.930
10041SOL    HW131022   3.920   6.236   6.983
10041SOL    HW231023   4.049   6.315   6.919
10042SOL     OW31024   0.879   1.688   4.297
10042SOL    HW131025   0.921   1.650   4.380
10042SOL    HW231026   0.892   1.625   4.221
10043SOL     OW31027   6.199   1.246   5.097
10043SOL    HW131028   6.295   1.219   5.110
10043SOL    HW231029   6.160   1.271   5.185
10044SOL     OW31030   2.353   1.801   4.717
10044SOL    HW131031   2.272   1.831   4.667
10044SOL    HW231032   2.421   1.874   4.719
10045SOL     OW31033   3.960   0.213   3.015
10045SOL    HW131034   3.886   0.278   2.999
10045SOL    HW231035   3.972   0.199   3.114
10046SOL     OW31036   2.094   3.685   0.923
10046SOL    HW131037   2.124   3.747   0.996
10046SOL    HW231038   2.048   3.606   0.962
10047SOL     OW31039   0.922   3.391   4.642
10047SOL    HW131040   0.948   3.295   4.632
10047SOL    HW231041   0.884   3.405   4.733
10048SOL     OW31042   6.986   0.540   2.288
10048SOL    HW131043   0.030   0.612   2.255
10048SOL    HW231044   6.901   0.543   2.237
10049SOL     OW31045   1.294   1.738   5.745
10049SOL    HW131046   1.281   1.721   5.648
10049SOL    HW231047   1.390   1.758   5.763
10050SOL     OW31048   4.975   3.799   5.100
10050SOL    HW131049   4.917   3.880   5.097
10050SOL    HW231050   4.930   3.724   5.054
10051SOL     OW31051   6.381   3.846   5.299
10051SOL    HW131052   6.414   3.927   5.250
10051SOL    HW231053   6.431   3.837   5.385
10052SOL     OW31054   1.968   1.289   3.090
10052SOL    HW131055   2.058   1.325   3.063
10052SOL    HW231056   1.944   1.212   3.031
10053SOL     OW31057   4.416   5.559   3.636
10053SOL    HW131058   4.461   5.551   3.725
10053SOL    HW231059   4.365   5.645   3.633
10054SOL     OW31060   5.429   6.300   5.464
10054SOL    HW131061   5.382   6.216   5.493
10054SOL    HW231062   5.376   6.380   5.494
10055SOL     OW31063   6.064   1.548   5.453
10055SOL    HW131064   6.017   1.627   5.414
10055SOL    HW231065   6.069   1.476   5.383
10056SOL     OW31066   5.197   4.508   3.019
10056SOL    HW131067   5.232   4.423   3.058
10056SOL    HW231068   5.104   4.495   2.986
10057SOL     OW31069   4.720   3.327   5.277
10057SOL    HW131070   4.706   3.315   5.375
10057SOL    HW231071   4.691   3.419   5.251
10058SOL     OW31072   6.305   3.560   4.795
10058SOL    HW131073   6.357   3.585   4.713
10058SOL    HW231074   6.219   3.612   4.797
10059SOL     OW31075   0.063   1.743   6.935
10059SOL    HW131076   0.007   1.781   7.009
10059SOL    HW231077   0.136   1.807   6.912
10060SOL     OW31078   2.283   2.703   2.272
10060SOL    HW131079   2.316   2.795   2.255
10060SOL    HW231080   2.273   2.654   2.186
10061SOL     OW31081   4.390   1.764   3.883
10061SOL    HW131082   4.472   1.746   3.829
10061SOL    HW231083   4.408   1.744   3.979
10062SOL     OW31084   6.399   0.795   4.418
10062SOL    HW131085   6.477   0.799   4.355
10062SOL    HW231086   6.315   0.815   4.368
10063SOL     OW31087   3.109   1.230   4.499
10063SOL    HW131088   3.072   1.321   4.476
10063SOL    HW231089   3.121   1.178   4.414
10064SOL     OW31090   4.834   6.506   0.137
10064SOL    HW131091   4.905   6.576   0.129
10064SOL    HW231092   4.806   6.477   0.045
10065SOL     OW31093   2.259   0.766   2.248
10065SOL    HW131094   2.309   0.850   2.226
10065SOL    HW231095   2.253   0.757   2.348
10066SOL     OW31096   0.409   2.765   4.955
10066SOL    HW131097   0.406   2.832   4.882
10066SOL    HW231098   0.442   2.808   5.039
10067SOL     OW31099   0.117   3.551   5.649
10067SOL    HW131100   0.074   3.618   5.710
10067SOL    HW231101   0.213   3.539   5.674
10068SOL     OW31102   1.122   3.692   3.966
10068SOL    HW131103   1.033   3.663   4.003
10068SOL    HW231104   1.171   3.745   4.035
10069SOL     OW31105   3.000   5.063   1.696
10069SOL    HW131106   2.913   5.073   1.648
10069SOL    HW231107   2.998   5.119   1.779
10070SOL     OW31108   0.265   5.775   5.362
10070SOL    HW131109   0.207   5.722   5.423
10070SOL    HW231110   0.333   5.825   5.416
10071SOL     OW31111   0.313   6.623   4.544
10071SOL    HW131112   0.316   6.634   4.643
10071SOL    HW231113   0.327   6.527   4.520
10072SOL     OW31114   0.362   0.779   4.005
10072SOL    HW131115   0.386   0.691   3.964
10072SOL    HW231116   0.318   0.837   3.937
10073SOL     OW31117   7.012   4.427   3.822
10073SOL    HW131118   7.013   4.486   3.741
10073SOL    HW231119   6.986   4.482   3.902
10074SOL     OW31120   2.374   6.784   6.586
10074SOL    HW131121   2.347   6.874   6.621
10074SOL    HW231122   2.403   6.726   6.662
10075SOL     OW31123   1.757   2.094   1.886
10075SOL    HW131124   1.781   2.136   1.799
10075SOL    HW231125   1.660   2.110   1.905
10076SOL     OW31126   4.795   6.295   2.973
10076SOL    HW131127   4.733   6.316   3.049
10076SOL    HW231128   4.878   6.252   3.008
10077SOL     OW31129   4.084   3.108   0.610
10077SOL    HW131130   4.133   3.128   0.525
10077SOL    HW231131   4.086   3.189   0.669
10078SOL     OW31132   6.328   5.832   4.746
10078SOL    HW131133   6.392   5.768   4.790
10078SOL    HW231134   6.322   5.811   4.648
10079SOL     OW31135   6.261   3.102   2.707
10079SOL    HW131136   6.257   3.089   2.806
10079SOL    HW231137   6.352   3.079   2.674
10080SOL     OW31138   4.949   1.694   5.964
10080SOL    HW131139   4.858   1.662   5.939
10080SOL    HW231140   5.015   1.620   5.953
10081SOL     OW31141   0.963   1.634   0.024
10081SOL    HW131142   1.005   1.649   0.113
10081SOL    HW231143   1.026   1.583   6.984
10082SOL     OW31144   0.752   5.453   2.284
10082SOL    HW131145   0.664   5.500   2.290
10082SOL    HW231146   0.740   5.366   2.237
10083SOL     OW31147   2.904   0.222   3.795
10083SOL    HW131148   2.929   0.219   3.698
10083SOL    HW231149   2.960   0.291   3.841
10084SOL     OW31150   0.518   0.244   5.369
10084SOL    HW131151   0.488   0.153   5.340
10084SOL    HW231152   0.438   0.303   5.382
10085SOL     OW31153   3.861   0.098   0.734
10085SOL    HW131154   3.889   0.182   0.687
10085SOL    HW231155   3.769   0.073   0.706
10086SOL     OW31156   5.897   6.483   2.859
10086SOL    HW131157   5.855   6.435   2.937
10086SOL    HW231158   5.833   6.485   2.783
10087SOL     OW31159   5.896   5.854   3.922
10087SOL    HW131160   5.883   5.797   3.841
10087SOL    HW231161   5.847   5.941   3.909
10088SOL     OW31162   6.689   0.116   1.336
10088SOL    HW131163   6.743   0.095   1.254
10088SOL    HW231164   6.716   0.206   1.371
10089SOL     OW31165   3.558   2.084   2.922
10089SOL    HW131166   3.492   2.063   2.850
10089SOL    HW231167   3.629   2.145   2.887
10090SOL     OW31168   0.381   5.243   2.114
10090SOL    HW131169   0.384   5.158   2.061
10090SOL    HW231170   0.286   5.262   2.141
10091SOL     OW31171   0.145   6.025   6.632
10091SOL    HW131172   0.125   6.097   6.565
10091SOL    HW231173   0.059   5.989   6.669
10092SOL     OW31174   0.949   2.932   5.993
10092SOL    HW131175   1.012   2.918   5.916
10092SOL    HW231176   0.972   3.017   6.039
10093SOL     OW31177   4.949   3.411   5.138
10093SOL    HW131178   4.898   3.351   5.200
10093SOL    HW231179   4.890   3.486   5.109
10094SOL     OW31180   2.270   6.424   0.839
10094SOL    HW131181   2.204   6.472   0.781
10094SOL    HW231182   2.299   6.484   0.913
10095SOL     OW31183   5.177   1.598   4.473
10095SOL    HW131184   5.155   1.639   4.562
10095SOL    HW231185   5.274   1.575   4.470
10096SOL     OW31186   4.573   0.121   2.777
10096SOL    HW131187   4.491   0.143   2.724
10096SOL    HW231188   4.556   0.040   2.833
10097SOL     OW31189   2.069   1.963   6.670
10097SOL    HW131190   2.112   1.971   6.760
10097SOL    HW231191   1.973   1.989   6.676
10098SOL     OW31192   2.916   6.552   4.791
10098SOL    HW131193   2.853   6.628   4.779
10098SOL    HW231194   2.889   6.476   4.732
10099SOL     OW31195   6.738   4.724   1.868
10099SOL    HW131196   6.759   4.627   1.880
10099SOL    HW231197   6.639   4.735   1.860
10100SOL     OW31198   5.577   6.007   5.590
10100SOL    HW131199   5.651   5.994   5.525
10100SOL    HW231200   5.600   5.960   5.676
10101SOL     OW31201   6.723   3.427   1.615
10101SOL    HW131202   6.810   3.380   1.601
10101SOL    HW231203   6.739   3.525   1.628
10102SOL     OW31204   6.791   0.396   1.450
10102SOL    HW131205   6.777   0.441   1.538
10102SOL    HW231206   6.875   0.431   1.408
10103SOL     OW31207   1.783   0.626   5.223
10103SOL    HW131208   1.858   0.566   5.250
10103SOL    HW231209   1.697   0.591   5.261
10104SOL     OW31210   1.346   0.845   5.511
10104SOL    HW131211   1.255   0.861   5.549
10104SOL    HW231212   1.369   0.920   5.449
10105SOL     OW31213   1.664   0.222   5.823
10105SOL    HW131214   1.659   0.198   5.920
10105SOL    HW231215   1.650   0.320   5.812
10106SOL     OW31216   3.957   6.468   0.870
10106SOL    HW131217   3.988   6.546   0.924
10106SOL    HW231218   3.970   6.488   0.772
10107SOL     OW31219   5.223   1.650   6.128
10107SOL    HW131220   5.314   1.687   6.108
10107SOL    HW231221   5.158   1.726   6.138
10108SOL     OW31222   0.426   2.375   0.247
10108SOL    HW131223   0.486   2.350   0.171
10108SOL    HW231224   0.431   2.474   0.261
10109SOL     OW31225   0.712   1.142   0.611
10109SOL    HW131226   0.750   1.150   0.703
10109SOL    HW231227   0.766   1.198   0.548
10110SOL     OW31228   4.817   4.671   4.252
10110SOL    HW131229   4.845   4.626   4.336
10110SOL    HW231230   4.854   4.764   4.249
10111SOL     OW31231   0.209   3.496   3.029
10111SOL    HW131232   0.191   3.532   2.937
10111SOL    HW231233   0.263   3.563   3.081
10112SOL     OW31234   5.639   3.560   2.825
10112SOL    HW131235   5.589   3.481   2.788
10112SOL    HW231236   5.711   3.587   2.761
10113SOL     OW31237   4.323   6.927   1.135
10113SOL    HW131238   4.291   6.891   1.047
10113SOL    HW231239   4.405   6.983   1.121
10114SOL     OW31240   4.093   2.079   3.246
10114SOL    HW131241   4.119   2.136   3.168
10114SOL    HW231242   4.094   2.134   3.329
10115SOL     OW31243   3.753   1.675   5.122
10115SOL    HW131244   3.805   1.696   5.205
10115SOL    HW231245   3.699   1.755   5.095
10116SOL     OW31246   0.592   6.987   6.475
10116SOL    HW131247   0.524   6.981   6.402
10116SOL    HW231248   0.557   0.029   6.547
10117SOL     OW31249   6.994   6.224   5.657
10117SOL    HW131250   7.015   6.142   5.710
10117SOL    HW231251   6.901   6.216   5.619
10118SOL     OW31252   2.662   4.624   3.981
10118SOL    HW131253   2.726   4.654   4.052
10118SOL    HW231254   2.591   4.693   3.970
10119SOL     OW31255   6.412   4.876   4.001
10119SOL    HW131256   6.436   4.842   4.092
10119SOL    HW231257   6.313   4.865   3.987
10120SOL     OW31258   1.629   3.293   4.004
10120SOL    HW131259   1.722   3.270   3.975
10120SOL    HW231260   1.631   3.378   4.056
10121SOL     OW31261   5.704   4.612   0.585
10121SOL    HW131262   5.615   4.642   0.618
10121SOL    HW231263   5.711   4.513   0.595
10122SOL     OW31264   6.094   2.794   3.724
10122SOL    HW131265   6.088   2.718   3.790
10122SOL    HW231266   6.041   2.771   3.643
10123SOL     OW31267   5.880   6.668   0.923
10123SOL    HW131268   5.806   6.605   0.897
10123SOL    HW231269   5.968   6.623   0.910
10124SOL     OW31270   1.159   5.094   1.030
10124SOL    HW131271   1.231   5.141   0.978
10124SOL    HW231272   1.196   5.062   1.117
10125SOL     OW31273   2.636   1.683   1.027
10125SOL    HW131274   2.658   1.587   1.010
10125SOL    HW231275   2.539   1.691   1.051
10126SOL     OW31276   6.779   0.073   5.851
10126SOL    HW131277   6.754   0.155   5.802
10126SOL    HW231278   6.750   7.010   5.800
10127SOL     OW31279   2.022   3.856   6.955
10127SOL    HW131280   1.933   3.900   6.938
10127SOL    HW231281   2.067   3.902   0.013
10128SOL     OW31282   2.783   1.022   5.922
10128SOL    HW131283   2.882   1.024   5.932
10128SOL    HW231284   2.740   1.057   6.006
10129SOL     OW31285   0.050   2.153   2.348
10129SOL    HW131286   0.133   2.175   2.295
10129SOL    HW231287   0.012   2.067   2.315
10130SOL     OW31288   0.804   3.226   1.637
10130SOL    HW131289   0.850   3.293   1.695
10130SOL    HW231290   0.836   3.236   1.543
10131SOL     OW31291   1.104   0.647   4.180
10131SOL    HW131292   1.165   0.726   4.177
10131SOL    HW231293   1.122   0.594   4.263
10132SOL     OW31294   1.268   0.354   2.860
10132SOL    HW131295   1.366   0.332   2.853
10132SOL    HW231296   1.240   0.405   2.778
10133SOL     OW31297   4.559   6.497   0.937
10133SOL    HW131298   4.487   6.516   1.003
10133SOL    HW231299   4.607   6.413   0.964
10134SOL     OW31300   6.335   1.620   3.477
10134SOL    HW131301   6.338   1.672   3.392
10134SOL    HW231302   6.309   1.525   3.459
10135SOL     OW31303   4.861   1.904   3.244
10135SOL    HW131304   4.800   1.834   3.208
10135SOL    HW231305   4.947   1.902   3.193
10136SOL     OW31306   5.578   2.326   2.613
10136SOL    HW131307   5.633   2.270   2.550
10136SOL    HW231308   5.481   2.305   2.599
10137SOL     OW31309   6.996   5.199   6.278
10137SOL    HW131310   6.925   5.195   6.349
10137SOL    HW231311   0.011   5.107   6.257
10138SOL     OW31312   5.464   2.634   0.523
10138SOL    HW131313   5.478   2.694   0.603
10138SOL    HW231314   5.500   2.680   0.442
10139SOL     OW31315   3.638   3.361   4.760
10139SOL    HW131316   3.609   3.360   4.665
10139SOL    HW231317   3.580   3.424   4.812
10140SOL     OW31318   6.845   6.190   6.381
10140SOL    HW131319   6.924   6.245   6.408
10140SOL    HW231320   6.876   6.112   6.327
10141SOL     OW31321   4.462   0.970   3.749
10141SOL    HW131322   4.526   1.038   3.713
10141SOL    HW231323   4.477   0.959   3.847
10142SOL     OW31324   6.329   6.707   5.759
10142SOL    HW131325   6.423   6.737   5.744
10142SOL    HW231326   6.314   6.620   5.711
10143SOL     OW31327   5.734   2.798   0.438
10143SOL    HW131328   5.766   2.726   0.377
10143SOL    HW231329   5.812   2.846   0.477
10144SOL     OW31330   4.561   0.025   5.253
10144SOL    HW131331   4.466   7.012   5.246
10144SOL    HW231332   4.614   6.977   5.307
10145SOL     OW31333   3.731   5.922   3.197
10145SOL    HW131334   3.783   6.007   3.203
10145SOL    HW231335   3.672   5.914   3.277
10146SOL     OW31336   6.552   4.469   4.222
10146SOL    HW131337   6.582   4.373   4.216
10146SOL    HW231338   6.549   4.497   4.318
10147SOL     OW31339   5.268   4.383   6.584
10147SOL    HW131340   5.254   4.284   6.592
10147SOL    HW231341   5.184   4.426   6.552
10148SOL     OW31342   5.811   3.925   1.091
10148SOL    HW131343   5.764   3.939   1.003
10148SOL    HW231344   5.906   3.900   1.074
10149SOL     OW31345   5.089   4.798   1.423
10149SOL    HW131346   5.174   4.810   1.474
10149SOL    HW231347   5.106   4.743   1.341
10150SOL     OW31348   4.960   3.351   1.713
10150SOL    HW131349   4.944   3.260   1.676
10150SOL    HW231350   5.035   3.395   1.663
10151SOL     OW31351   0.630   6.526   5.660
10151SOL    HW131352   0.624   6.591   5.736
10151SOL    HW231353   0.567   6.450   5.677
10152SOL     OW31354   6.274   5.814   3.881
10152SOL    HW131355   6.239   5.864   3.960
10152SOL    HW231356   6.223   5.841   3.799
10153SOL     OW31357   4.559   5.824   3.828
10153SOL    HW131358   4.652   5.788   3.820
10153SOL    HW231359   4.508   5.769   3.894
10154SOL     OW31360   3.610   6.012   6.175
10154SOL    HW131361   3.566   5.927   6.145
10154SOL    HW231362   3.709   6.003   6.167
10155SOL     OW31363   5.152   2.671   5.549
10155SOL    HW131364   5.094   2.714   5.480
10155SOL    HW231365   5.129   2.708   5.639
10156SOL     OW31366   4.766   0.459   1.193
10156SOL    HW131367   4.864   0.457   1.214
10156SOL    HW231368   4.721   0.381   1.237
10157SOL     OW31369   6.711   1.938   0.297
10157SOL    HW131370   6.786   1.877   0.272
10157SOL    HW231371   6.748   2.023   0.334
10158SOL     OW31372   6.083   6.328   2.138
10158SOL    HW131373   6.033   6.305   2.221
10158SOL    HW231374   6.067   6.424   2.115
10159SOL     OW31375   4.043   3.225   2.850
10159SOL    HW131376   3.998   3.142   2.884
10159SOL    HW231377   4.089   3.272   2.925
10160SOL     OW31378   1.651   3.962   3.439
10160SOL    HW131379   1.740   3.919   3.425
10160SOL    HW231380   1.661   4.061   3.440
10161SOL     OW31381   3.591   5.044   0.080
10161SOL    HW131382   3.556   4.969   0.024
10161SOL    HW231383   3.568   5.028   0.176
10162SOL     OW31384   2.421   4.114   1.051
10162SOL    HW131385   2.509   4.146   1.018
10162SOL    HW231386   2.402   4.153   1.141
10163SOL     OW31387   0.878   5.488   6.532
10163SOL    HW131388   0.871   5.462   6.436
10163SOL    HW231389   0.862   5.586   6.541
10164SOL     OW31390   5.957   3.561   3.993
10164SOL    HW131391   6.010   3.629   3.943
10164SOL    HW231392   6.015   3.482   4.014
10165SOL     OW31393   6.598   2.662   3.632
10165SOL    HW131394   6.588   2.696   3.539
10165SOL    HW231395   6.670   2.714   3.679
10166SOL     OW31396   1.273   2.111   1.249
10166SOL    HW131397   1.196   2.175   1.242
10166SOL    HW231398   1.357   2.157   1.219
10167SOL     OW31399   0.139   5.434   0.338
10167SOL    HW131400   0.103   5.361   0.395
10167SOL    HW231401   0.234   5.412   0.312
10168SOL     OW31402   6.104   1.621   5.939
10168SOL    HW131403   6.059   1.577   5.861
10168SOL    HW231404   6.041   1.686   5.982
10169SOL     OW31405   6.534   3.697   3.204
10169SOL    HW131406   6.563   3.756   3.128
10169SOL    HW231407   6.436   3.708   3.219
10170SOL     OW31408   6.225   5.299   6.461
10170SOL    HW131409   6.131   5.265   6.469
10170SOL    HW231410   6.238   5.344   6.373
10171SOL     OW31411   0.219   3.039   5.130
10171SOL    HW131412   0.208   2.943   5.104
10171SOL    HW231413   0.134   3.088   5.112
10172SOL     OW31414   0.110   7.012   4.495
10172SOL    HW131415   0.063   6.998   4.582
10172SOL    HW231416   0.190   0.052   4.510
10173SOL     OW31417   2.440   3.438   6.499
10173SOL    HW131418   2.479   3.367   6.441
10173SOL    HW231419   2.356   3.404   6.542
10174SOL     OW31420   4.356   4.586   3.790
10174SOL    HW131421   4.433   4.649   3.802
10174SOL    HW231422   4.340   4.536   3.875
10175SOL     OW31423   6.410   1.993   3.594
10175SOL    HW131424   6.505   2.023   3.603
10175SOL    HW231425   6.399   1.940   3.509
10176SOL     OW31426   5.826   3.913   5.378
10176SOL    HW131427   5.922   3.900   5.356
10176SOL    HW231428   5.774   3.926   5.294
10177SOL     OW31429   1.694   6.832   1.191
10177SOL    HW131430   1.658   6.793   1.107
10177SOL    HW231431   1.699   6.932   1.184
10178SOL     OW31432   1.631   1.320   0.709
10178SOL    HW131433   1.595   1.375   0.784
10178SOL    HW231434   1.557   1.268   0.667
10179SOL     OW31435   0.288   4.196   6.906
10179SOL    HW131436   0.252   4.290   6.910
10179SOL    HW231437   0.388   4.199   6.910
10180SOL     OW31438   4.202   0.545   0.185
10180SOL    HW131439   4.158   0.623   0.141
10180SOL    HW231440   4.292   0.573   0.220
10181SOL     OW31441   0.218   3.063   1.317
10181SOL    HW131442   0.120   3.069   1.301
10181SOL    HW231443   0.257   2.993   1.257
10182SOL     OW31444   4.947   1.187   7.003
10182SOL    HW131445   5.039   1.163   0.016
10182SOL    HW231446   4.884   1.186   0.063
10183SOL     OW31447   6.001   2.842   6.014
10183SOL    HW131448   5.938   2.911   5.979
10183SOL    HW231449   6.088   2.885   6.038
10184SOL     OW31450   5.551   3.059   6.900
10184SOL    HW131451   5.524   3.101   6.813
10184SOL    HW231452   5.638   3.098   6.931
10185SOL     OW31453   5.347   6.501   2.464
10185SOL    HW131454   5.412   6.548   2.524
10185SOL    HW231455   5.395   6.432   2.410
10186SOL     OW31456   4.870   3.794   4.799
10186SOL    HW131457   4.838   3.887   4.818
10186SOL    HW231458   4.813   3.729   4.849
10187SOL     OW31459   1.550   4.290   5.493
10187SOL    HW131460   1.602   4.213   5.457
10187SOL    HW231461   1.551   4.366   5.428
10188SOL     OW31462   2.840   5.343   6.829
10188SOL    HW131463   2.930   5.383   6.810
10188SOL    HW231464   2.791   5.327   6.744
10189SOL     OW31465   1.715   0.767   6.483
10189SOL    HW131466   1.634   0.760   6.425
10189SOL    HW231467   1.793   0.798   6.428
10190SOL     OW31468   4.006   3.298   1.197
10190SOL    HW131469   4.039   3.379   1.149
10190SOL    HW231470   3.961   3.237   1.132
10191SOL     OW31471   5.862   5.856   0.517
10191SOL    HW131472   5.950   5.809   0.507
10191SOL    HW231473   5.805   5.807   0.582
10192SOL     OW31474   2.864   1.589   4.934
10192SOL    HW131475   2.933   1.601   5.006
10192SOL    HW231476   2.879   1.501   4.889
10193SOL     OW31477   2.935   3.831   2.794
10193SOL    HW131478   2.919   3.768   2.870
10193SOL    HW231479   2.935   3.925   2.827
10194SOL     OW31480   3.884   0.302   4.638
10194SOL    HW131481   3.823   0.381   4.641
10194SOL    HW231482   3.845   0.226   4.690
10195SOL     OW31483   6.983   6.848   1.630
10195SOL    HW131484   6.902   6.851   1.571
10195SOL    HW231485   6.988   6.933   1.683
10196SOL     OW31486   5.407   1.931   3.248
10196SOL    HW131487   5.409   1.893   3.156
10196SOL    HW231488   5.497   1.921   3.290
10197SOL     OW31489   5.014   1.538   4.061
10197SOL    HW131490   4.980   1.488   3.982
10197SOL    HW231491   5.104   1.503   4.087
10198SOL     OW31492   3.545   6.835   0.884
10198SOL    HW131493   3.539   6.797   0.792
10198SOL    HW231494   3.574   6.931   0.879
10199SOL     OW31495   0.454   1.788   6.684
10199SOL    HW131496   0.434   1.803   6.781
10199SOL    HW231497   0.491   1.872   6.644
10200SOL     OW31498   4.987   3.002   5.108
10200SOL    HW131499   4.888   3.015   5.101
10200SOL    HW231500   5.034   3.079   5.063
10201SOL     OW31501   0.500   6.296   1.343
10201SOL    HW131502   0.460   6.364   1.282
10201SOL    HW231503   0.598   6.316   1.355
10202SOL     OW31504   1.577   3.339   0.296
10202SOL    HW131505   1.498   3.368   0.350
10202SOL    HW231506   1.552   3.336   0.199
10203SOL     OW31507   1.282   2.993   1.508
10203SOL    HW131508   1.283   2.977   1.607
10203SOL    HW231509   1.262   3.089   1.491
10204SOL     OW31510   3.624   5.130   6.434
10204SOL    HW131511   3.720   5.118   6.460
10204SOL    HW231512   3.578   5.041   6.434
10205SOL     OW31513   3.518   1.136   2.741
10205SOL    HW131514   3.564   1.078   2.809
10205SOL    HW231515   3.575   1.144   2.660
10206SOL     OW31516   4.779   6.748   6.573
10206SOL    HW131517   4.814   6.762   6.666
10206SOL    HW231518   4.679   6.759   6.574
10207SOL     OW31519   1.729   0.870   0.392
10207SOL    HW131520   1.697   0.798   0.453
10207SOL    HW231521   1.827   0.858   0.374
10208SOL     OW31522   6.475   4.864   4.325
10208SOL    HW131523   6.483   4.920   4.408
10208SOL    HW231524   6.399   4.799   4.336
10209SOL     OW31525   0.703   0.766   5.414
10209SOL    HW131526   0.714   0.674   5.451
10209SOL    HW231527   0.708   0.833   5.489
10210SOL     OW31528   5.193   0.064   1.613
10210SOL    HW131529   5.236   0.144   1.655
10210SOL    HW231530   5.113   0.037   1.666
10211SOL     OW31531   4.387   6.019   5.490
10211SOL    HW131532   4.377   6.040   5.587
10211SOL    HW231533   4.459   6.077   5.450
10212SOL     OW31534   0.339   1.416   4.683
10212SOL    HW131535   0.383   1.406   4.593
10212SOL    HW231536   0.242   1.393   4.674
10213SOL     OW31537   6.547   1.976   2.336
10213SOL    HW131538   6.474   2.042   2.319
10213SOL    HW231539   6.568   1.927   2.251
10214SOL     OW31540   1.081   2.154   2.191
10214SOL    HW131541   1.136   2.070   2.187
10214SOL    HW231542   1.141   2.232   2.207
10215SOL     OW31543   3.327   2.854   4.727
10215SOL    HW131544   3.416   2.858   4.773
10215SOL    HW231545   3.255   2.880   4.791
10216SOL     OW31546   0.545   0.029   0.828
10216SOL    HW131547   0.523   6.988   0.750
10216SOL    HW231548   0.516   7.004   0.913
10217SOL     OW31549   2.434   1.291   4.148
10217SOL    HW131550   2.463   1.324   4.058
10217SOL    HW231551   2.466   1.355   4.219
10218SOL     OW31552   1.660   1.051   1.489
10218SOL    HW131553   1.562   1.064   1.473
10218SOL    HW231554   1.711   1.091   1.414
10219SOL     OW31555   0.590   3.095   2.118
10219SOL    HW131556   0.664   3.094   2.051
10219SOL    HW231557   0.628   3.096   2.210
10220SOL     OW31558   4.535   1.551   2.223
10220SOL    HW131559   4.622   1.510   2.251
10220SOL    HW231560   4.459   1.502   2.266
10221SOL     OW31561   1.631   2.290   3.651
10221SOL    HW131562   1.621   2.314   3.748
10221SOL    HW231563   1.725   2.261   3.634
10222SOL     OW31564   1.551   3.102   5.945
10222SOL    HW131565   1.562   3.099   5.846
10222SOL    HW231566   1.640   3.095   5.989
10223SOL     OW31567   1.448   6.082   0.030
10223SOL    HW131568   1.530   6.026   0.037
10223SOL    HW231569   1.427   6.098   6.951
10224SOL     OW31570   6.526   1.207   4.801
10224SOL    HW131571   6.603   1.264   4.771
10224SOL    HW231572   6.515   1.215   4.900
10225SOL     OW31573   1.923   6.239   5.816
10225SOL    HW131574   1.985   6.262   5.741
10225SOL    HW231575   1.963   6.166   5.872
10226SOL     OW31576   2.641   6.845   6.750
10226SOL    HW131577   2.662   6.884   6.839
10226SOL    HW231578   2.705   6.882   6.682
10227SOL     OW31579   4.696   4.843   0.703
10227SOL    HW131580   4.690   4.765   0.765
10227SOL    HW231581   4.659   4.924   0.748
10228SOL     OW31582   1.273   5.816   2.338
10228SOL    HW131583   1.332   5.870   2.278
10228SOL    HW231584   1.195   5.782   2.286
10229SOL     OW31585   0.315   1.160   4.235
10229SOL    HW131586   0.262   1.184   4.154
10229SOL    HW231587   0.412   1.172   4.217
10230SOL     OW31588   6.224   6.853   3.821
10230SOL    HW131589   6.234   6.945   3.859
10230SOL    HW231590   6.128   6.826   3.827
10231SOL     OW31591   6.743   5.868   5.981
10231SOL    HW131592   6.788   5.880   5.893
10231SOL    HW231593   6.646   5.848   5.967
10232SOL     OW31594   2.608   0.878   3.650
10232SOL    HW131595   2.577   0.948   3.715
10232SOL    HW231596   2.651   0.803   3.700
10233SOL     OW31597   5.077   3.591   5.311
10233SOL    HW131598   5.076   3.662   5.241
10233SOL    HW231599   5.048   3.504   5.271
10234SOL     OW31600   4.983   1.234   1.294
10234SOL    HW131601   5.073   1.208   1.330
10234SOL    HW231602   4.943   1.156   1.247
10235SOL     OW31603   4.617   2.295   0.153
10235SOL    HW131604   4.583   2.296   0.247
10235SOL    HW231605   4.643   2.202   0.127
10236SOL     OW31606   2.112   6.817   2.294
10236SOL    HW131607   2.110   6.859   2.385
10236SOL    HW231608   2.022   6.778   2.274
10237SOL     OW31609   6.145   3.729   1.320
10237SOL    HW131610   6.192   3.775   1.244
10237SOL    HW231611   6.119   3.797   1.389
10238SOL     OW31612   3.498   4.206   4.068
10238SOL    HW131613   3.485   4.296   4.110
10238SOL    HW231614   3.432   4.142   4.107
10239SOL     OW31615   0.942   4.155   4.974
10239SOL    HW131616   0.930   4.173   5.072
10239SOL    HW231617   1.016   4.212   4.939
10240SOL     OW31618   2.038   4.907   3.271
10240SOL    HW131619   2.003   4.924   3.363
10240SOL    HW231620   1.981   4.955   3.204
10241SOL     OW31621   0.119   0.565   1.923
10241SOL    HW131622   0.167   0.614   1.995
10241SOL    HW231623   0.024   0.596   1.919
10242SOL     OW31624   6.602   1.754   6.723
10242SOL    HW131625   6.624   1.821   6.794
10242SOL    HW231626   6.507   1.765   6.694
10243SOL     OW31627   0.659   5.301   1.150
10243SOL    HW131628   0.748   5.256   1.164
10243SOL    HW231629   0.626   5.336   1.238
10244SOL     OW31630   1.708   4.701   0.539
10244SOL    HW131631   1.689   4.750   0.454
10244SOL    HW231632   1.762   4.619   0.518
10245SOL     OW31633   3.165   5.062   6.758
10245SOL    HW131634   3.114   5.126   6.700
10245SOL    HW231635   3.104   4.990   6.790
10246SOL     OW31636   2.881   3.660   4.092
10246SOL    HW131637   2.889   3.563   4.116
10246SOL    HW231638   2.864   3.713   4.175
10247SOL     OW31639   0.167   5.440   5.291
10247SOL    HW131640   0.253   5.393   5.274
10247SOL    HW231641   0.160   5.463   5.388
10248SOL     OW31642   3.505   6.597   2.502
10248SOL    HW131643   3.541   6.678   2.548
10248SOL    HW231644   3.407   6.589   2.520
10249SOL     OW31645   3.644   1.469   5.990
10249SOL    HW131646   3.678   1.524   5.914
10249SOL    HW231647   3.616   1.379   5.956
10250SOL     OW31648   6.715   2.102   0.948
10250SOL    HW131649   6.757   2.028   1.001
10250SOL    HW231650   6.626   2.124   0.989
10251SOL     OW31651   2.906   2.231   4.805
10251SOL    HW131652   2.824   2.262   4.852
10251SOL    HW231653   2.987   2.257   4.859
10252SOL     OW31654   6.230   6.054   0.686
10252SOL    HW131655   6.201   6.051   0.591
10252SOL    HW231656   6.155   6.086   0.743
10253SOL     OW31657   5.334   5.717   0.214
10253SOL    HW131658   5.342   5.701   0.116
10253SOL    HW231659   5.248   5.678   0.247
10254SOL     OW31660   4.021   1.955   5.428
10254SOL    HW131661   4.033   2.028   5.361
10254SOL    HW231662   3.956   1.985   5.498
10255SOL     OW31663   2.259   5.460   1.650
10255SOL    HW131664   2.207   5.498   1.574
10255SOL    HW231665   2.357   5.473   1.634
10256SOL     OW31666   6.074   0.597   1.795
10256SOL    HW131667   6.037   0.667   1.855
10256SOL    HW231668   6.051   0.506   1.831
10257SOL     OW31669   1.886   5.520   4.267
10257SOL    HW131670   1.929   5.449   4.211
10257SOL    HW231671   1.788   5.500   4.275
10258SOL     OW31672   4.722   0.192   4.185
10258SOL    HW131673   4.647   0.201   4.251
10258SOL    HW231674   4.693   0.132   4.110
10259SOL     OW31675   0.921   4.718   3.146
10259SOL    HW131676   0.973   4.781   3.090
10259SOL    HW231677   0.902   4.634   3.095
10260SOL     OW31678   0.303   0.142   3.001
10260SOL    HW131679   0.286   0.044   2.992
10260SOL    HW231680   0.347   0.161   3.089
10261SOL     OW31681   6.685   5.799   2.684
10261SOL    HW131682   6.655   5.752   2.601
10261SOL    HW231683   6.650   5.893   2.684
10262SOL     OW31684   2.352   6.847   4.161
10262SOL    HW131685   2.284   6.794   4.108
10262SOL    HW231686   2.348   6.943   4.132
10263SOL     OW31687   4.730   1.048   6.333
10263SOL    HW131688   4.734   1.002   6.245
10263SOL    HW231689   4.638   1.040   6.371
10264SOL     OW31690   5.573   2.326   6.813
10264SOL    HW131691   5.653   2.266   6.818
10264SOL    HW231692   5.562   2.359   6.719
10265SOL     OW31693   3.191   2.082   3.042
10265SOL    HW131694   3.123   2.148   3.072
10265SOL    HW231695   3.185   2.071   2.943
10266SOL     OW31696   3.416   2.801   5.511
10266SOL    HW131697   3.488   2.737   5.538
10266SOL    HW231698   3.352   2.812   5.587
10267SOL     OW31699   5.780   1.617   6.624
10267SOL    HW131700   5.702   1.589   6.680
10267SOL    HW231701   5.783   1.717   6.618
10268SOL     OW31702   4.138   5.602   2.067
10268SOL    HW131703   4.061   5.560   2.019
10268SOL    HW231704   4.121   5.601   2.165
10269SOL     OW31705   1.291   1.966   5.102
10269SOL    HW131706   1.381   2.009   5.093
10269SOL    HW231707   1.223   2.020   5.053
10270SOL     OW31708   2.398   5.511   3.431
10270SOL    HW131709   2.453   5.458   3.496
10270SOL    HW231710   2.455   5.582   3.389
10271SOL     OW31711   4.213   2.741   0.787
10271SOL    HW131712   4.131   2.795   0.768
10271SOL    HW231713   4.266   2.732   0.703
10272SOL     OW31714   0.311   0.187   4.492
10272SOL    HW131715   0.243   0.255   4.521
10272SOL    HW231716   0.355   0.147   4.573
10273SOL     OW31717   4.359   5.072   3.353
10273SOL    HW131718   4.410   5.106   3.274
10273SOL    HW231719   4.281   5.018   3.321
10274SOL     OW31720   0.811   4.056   4.759
10274SOL    HW131721   0.781   3.962   4.772
10274SOL    HW231722   0.875   4.081   4.831
10275SOL     OW31723   0.800   6.414   2.059
10275SOL    HW131724   0.843   6.324   2.063
10275SOL    HW231725   0.871   6.485   2.067
10276SOL     OW31726   5.632   5.548   5.672
10276SOL    HW131727   5.591   5.550   5.763
10276SOL    HW231728   5.595   5.623   5.617
10277SOL     OW31729   2.406   5.537   3.767
10277SOL    HW131730   2.435   5.470   3.699
10277SOL    HW231731   2.477   5.606   3.779
10278SOL     OW31732   5.530   1.020   4.622
10278SOL    HW131733   5.586   0.981   4.549
10278SOL    HW231734   5.478   1.097   4.587
10279SOL     OW31735   1.835   6.047   4.298
10279SOL    HW131736   1.813   6.047   4.201
10279SOL    HW231737   1.861   5.955   4.327
10280SOL     OW31738   1.601   3.526   1.252
10280SOL    HW131739   1.639   3.578   1.175
10280SOL    HW231740   1.612   3.579   1.336
10281SOL     OW31741   6.300   2.074   2.929
10281SOL    HW131742   6.274   2.170   2.936
10281SOL    HW231743   6.344   2.057   2.841
10282SOL     OW31744   6.342   4.427   4.022
10282SOL    HW131745   6.349   4.332   4.053
10282SOL    HW231746   6.380   4.487   4.093
10283SOL     OW31747   0.923   3.055   0.616
10283SOL    HW131748   0.840   3.085   0.664
10283SOL    HW231749   0.985   3.132   0.605
10284SOL     OW31750   5.096   3.834   5.477
10284SOL    HW131751   5.065   3.863   5.568
10284SOL    HW231752   5.079   3.736   5.466
10285SOL     OW31753   4.382   1.007   0.812
10285SOL    HW131754   4.434   0.971   0.735
10285SOL    HW231755   4.441   1.011   0.893
10286SOL     OW31756   3.284   2.147   4.110
10286SOL    HW131757   3.214   2.217   4.119
10286SOL    HW231758   3.287   2.114   4.015
10287SOL     OW31759   2.233   6.298   2.048
10287SOL    HW131760   2.213   6.248   1.964
10287SOL    HW231761   2.282   6.382   2.026
10288SOL     OW31762   4.865   6.657   2.262
10288SOL    HW131763   4.854   6.612   2.173
10288SOL    HW231764   4.787   6.636   2.320
10289SOL     OW31765   3.152   1.022   2.408
10289SOL    HW131766   3.150   1.115   2.371
10289SOL    HW231767   3.233   1.012   2.466
10290SOL     OW31768   3.265   4.085   2.168
10290SOL    HW131769   3.333   4.105   2.238
10290SOL    HW231770   3.300   4.115   2.079
10291SOL     OW31771   4.226   1.242   4.286
10291SOL    HW131772   4.190   1.254   4.379
10291SOL    HW231773   4.324   1.262   4.285
10292SOL     OW31774   1.459   0.621   4.543
10292SOL    HW131775   1.550   0.599   4.576
10292SOL    HW231776   1.461   0.633   4.443
10293SOL     OW31777   1.888   5.888   3.713
10293SOL    HW131778   1.825   5.823   3.755
10293SOL    HW231779   1.952   5.840   3.653
10294SOL     OW31780   4.807   3.951   2.545
10294SOL    HW131781   4.824   3.920   2.451
10294SOL    HW231782   4.816   3.875   2.608
10295SOL     OW31783   5.933   5.128   5.958
10295SOL    HW131784   5.881   5.157   5.878
10295SOL    HW231785   5.957   5.208   6.013
10296SOL     OW31786   4.835   3.210   6.447
10296SOL    HW131787   4.841   3.296   6.398
10296SOL    HW231788   4.891   3.215   6.530
10297SOL     OW31789   1.908   6.692   5.043
10297SOL    HW131790   1.884   6.672   5.138
10297SOL    HW231791   1.936   6.787   5.035
10298SOL     OW31792   3.861   5.217   2.174
10298SOL    HW131793   3.857   5.151   2.099
10298SOL    HW231794   3.941   5.198   2.231
10299SOL     OW31795   4.985   4.560   2.833
10299SOL    HW131796   5.012   4.650   2.800
10299SOL    HW231797   4.971   4.499   2.755
10300SOL     OW31798   1.796   4.706   2.900
10300SOL    HW131799   1.739   4.788   2.910
10300SOL    HW231800   1.739   4.625   2.912
10301SOL     OW31801   6.281   2.612   3.101
10301SOL    HW131802   6.190   2.651   3.113
10301SOL    HW231803   6.331   2.618   3.187
10302SOL     OW31804   0.456   6.256   4.088
10302SOL    HW131805   0.504   6.334   4.127
10302SOL    HW231806   0.522   6.195   4.043
10303SOL     OW31807   2.808   5.363   1.678
10303SOL    HW131808   2.714   5.332   1.696
10303SOL    HW231809   2.872   5.308   1.730
10304SOL     OW31810   5.408   0.607   2.820
10304SOL    HW131811   5.458   0.545   2.881
10304SOL    HW231812   5.473   0.658   2.764
10305SOL     OW31813   0.494   5.461   0.007
10305SOL    HW131814   0.566   5.521   6.992
10305SOL    HW231815   0.479   5.387   6.959
10306SOL     OW31816   4.812   6.598   6.877
10306SOL    HW131817   4.842   6.693   6.882
10306SOL    HW231818   4.847   6.556   6.794
10307SOL     OW31819   2.071   2.169   4.287
10307SOL    HW131820   2.100   2.192   4.380
10307SOL    HW231821   2.099   2.243   4.225
10308SOL     OW31822   2.669   5.205   3.876
10308SOL    HW131823   2.680   5.112   3.841
10308SOL    HW231824   2.572   5.230   3.875
10309SOL     OW31825   6.354   0.423   3.824
10309SOL    HW131826   6.389   0.511   3.794
10309SOL    HW231827   6.310   0.433   3.913
10310SOL     OW31828   4.325   2.466   1.398
10310SOL    HW131829   4.383   2.484   1.478
10310SOL    HW231830   4.294   2.370   1.401
10311SOL     OW31831   0.518   5.627   1.266
10311SOL    HW131832   0.474   5.699   1.320
10311SOL    HW231833   0.460   5.546   1.264
10312SOL     OW31834   2.630   5.774   1.225
10312SOL    HW131835   2.722   5.813   1.230
10312SOL    HW231836   2.624   5.713   1.146
10313SOL     OW31837   3.682   0.423   1.521
10313SOL    HW131838   3.634   0.372   1.449
10313SOL    HW231839   3.767   0.376   1.544
10314SOL     OW31840   6.522   0.665   1.468
10314SOL    HW131841   6.443   0.618   1.507
10314SOL    HW231842   6.587   0.598   1.432
10315SOL     OW31843   6.083   5.415   4.804
10315SOL    HW131844   6.003   5.356   4.815
10315SOL    HW231845   6.056   5.510   4.821
10316SOL     OW31846   6.128   2.697   4.845
10316SOL    HW131847   6.121   2.791   4.812
10316SOL    HW231848   6.074   2.637   4.787
10317SOL     OW31849   3.561   5.327   6.224
10317SOL    HW131850   3.597   5.257   6.285
10317SOL    HW231851   3.594   5.309   6.131
10318SOL     OW31852   5.160   6.180   0.276
10318SOL    HW131853   5.092   6.230   0.331
10318SOL    HW231854   5.191   6.239   0.202
10319SOL     OW31855   1.242   3.016   5.565
10319SOL    HW131856   1.254   2.939   5.503
10319SOL    HW231857   1.226   3.100   5.512
10320SOL     OW31858   0.763   0.620   1.098
10320SOL    HW131859   0.835   0.662   1.044
10320SOL    HW231860   0.741   0.680   1.175
10321SOL     OW31861   4.009   0.449   3.702
10321SOL    HW131862   3.920   0.496   3.703
10321SOL    HW231863   4.018   0.394   3.785
10322SOL     OW31864   6.172   5.849   6.897
10322SOL    HW131865   6.159   5.761   6.851
10322SOL    HW231866   6.084   5.892   6.914
10323SOL     OW31867   6.474   3.784   5.933
10323SOL    HW131868   6.420   3.738   5.862
10323SOL    HW231869   6.441   3.878   5.944
10324SOL     OW31870   3.074   3.077   3.324
10324SOL    HW131871   3.055   3.063   3.421
10324SOL    HW231872   3.000   3.131   3.283
10325SOL     OW31873   6.848   4.699   3.264
10325SOL    HW131874   6.861   4.607   3.301
10325SOL    HW231875   6.755   4.706   3.228
10326SOL     OW31876   4.099   2.624   6.726
10326SOL    HW131877   4.026   2.607   6.660
10326SOL    HW231878   4.187   2.618   6.679
10327SOL     OW31879   2.537   1.833   2.404
10327SOL    HW131880   2.445   1.837   2.442
10327SOL    HW231881   2.573   1.740   2.412
10328SOL     OW31882   6.607   3.140   1.639
10328SOL    HW131883   6.603   3.234   1.605
10328SOL    HW231884   6.576   3.138   1.734
10329SOL     OW31885   3.988   0.465   4.129
10329SOL    HW131886   4.017   0.560   4.141
10329SOL    HW231887   3.951   0.431   4.215
10330SOL     OW31888   3.239   5.791   2.673
10330SOL    HW131889   3.220   5.714   2.613
10330SOL    HW231890   3.191   5.872   2.641
10331SOL     OW31891   6.530   0.573   3.358
10331SOL    HW131892   6.502   0.629   3.436
10331SOL    HW231893   6.449   0.536   3.312
10332SOL     OW31894   5.890   1.597   0.408
10332SOL    HW131895   5.817   1.609   0.476
10332SOL    HW231896   5.896   1.679   0.352
10333SOL     OW31897   6.380   4.257   4.640
10333SOL    HW131898   6.477   4.244   4.622
10333SOL    HW231899   6.345   4.329   4.579
10334SOL     OW31900   2.209   5.742   3.724
10334SOL    HW131901   2.184   5.762   3.819
10334SOL    HW231902   2.271   5.665   3.721
10335SOL     OW31903   2.165   4.301   0.138
10335SOL    HW131904   2.105   4.249   0.078
10335SOL    HW231905   2.151   4.272   0.233
10336SOL     OW31906   5.685   6.803   3.038
10336SOL    HW131907   5.749   6.726   3.048
10336SOL    HW231908   5.705   6.852   2.953
10337SOL     OW31909   6.471   6.536   5.348
10337SOL    HW131910   6.467   6.566   5.252
10337SOL    HW231911   6.554   6.483   5.363
10338SOL     OW31912   2.931   6.828   1.656
10338SOL    HW131913   2.966   6.798   1.744
10338SOL    HW231914   2.944   6.755   1.588
10339SOL     OW31915   3.704   4.610   0.883
10339SOL    HW131916   3.639   4.634   0.955
10339SOL    HW231917   3.785   4.567   0.924
10340SOL     OW31918   1.332   5.221   0.215
10340SOL    HW131919   1.253   5.270   0.253
10340SOL    HW231920   1.310   5.124   0.207
10341SOL     OW31921   2.494   3.164   1.723
10341SOL    HW131922   2.479   3.249   1.773
10341SOL    HW231923   2.592   3.148   1.713
10342SOL     OW31924   2.409   5.754   5.226
10342SOL    HW131925   2.488   5.750   5.164
10342SOL    HW231926   2.428   5.819   5.300
10343SOL     OW31927   2.462   4.086   0.624
10343SOL    HW131928   2.451   4.054   0.530
10343SOL    HW231929   2.415   4.024   0.687
10344SOL     OW31930   3.654   3.541   2.886
10344SOL    HW131931   3.699   3.468   2.834
10344SOL    HW231932   3.565   3.561   2.843
10345SOL     OW31933   1.665   0.145   6.104
10345SOL    HW131934   1.617   0.062   6.130
10345SOL    HW231935   1.761   0.139   6.131
10346SOL     OW31936   6.180   0.692   1.323
10346SOL    HW131937   6.130   0.745   1.254
10346SOL    HW231938   6.276   0.720   1.324
10347SOL     OW31939   5.115   2.558   1.606
10347SOL    HW131940   5.049   2.553   1.531
10347SOL    HW231941   5.138   2.654   1.624
10348SOL     OW31942   6.648   1.272   6.379
10348SOL    HW131943   6.591   1.344   6.416
10348SOL    HW231944   6.598   1.185   6.379
10349SOL     OW31945   6.706   1.602   0.593
10349SOL    HW131946   6.773   1.676   0.605
10349SOL    HW231947   6.682   1.565   0.683
10350SOL     OW31948   2.951   6.163   4.916
10350SOL    HW131949   3.036   6.213   4.928
10350SOL    HW231950   2.875   6.216   4.956
10351SOL     OW31951   6.287   4.889   6.029
10351SOL    HW131952   6.188   4.883   6.012
10351SOL    HW231953   6.327   4.956   5.966
10352SOL     OW31954   5.363   2.224   6.483
10352SOL    HW131955   5.363   2.295   6.554
10352SOL    HW231956   5.359   2.266   6.393
10353SOL     OW31957   6.675   3.416   4.214
10353SOL    HW131958   6.694   3.403   4.117
10353SOL    HW231959   6.648   3.330   4.255
10354SOL     OW31960   0.954   3.008   1.041
10354SOL    HW131961   1.030   3.029   0.978
10354SOL    HW231962   0.889   3.083   1.040
10355SOL     OW31963   1.149   0.650   0.604
10355SOL    HW131964   1.117   0.563   0.565
10355SOL    HW231965   1.229   0.681   0.553
10356SOL     OW31966   6.761   3.585   5.745
10356SOL    HW131967   6.814   3.624   5.820
10356SOL    HW231968   6.747   3.654   5.674
10357SOL     OW31969   3.625   2.209   5.564
10357SOL    HW131970   3.569   2.191   5.645
10357SOL    HW231971   3.685   2.287   5.583
10358SOL     OW31972   0.968   3.233   3.979
10358SOL    HW131973   0.978   3.290   3.897
10358SOL    HW231974   0.914   3.152   3.956
10359SOL     OW31975   5.164   2.060   2.163
10359SOL    HW131976   5.143   2.134   2.099
10359SOL    HW231977   5.153   2.094   2.257
10360SOL     OW31978   5.530   5.817   2.399
10360SOL    HW131979   5.612   5.764   2.380
10360SOL    HW231980   5.470   5.765   2.459
10361SOL     OW31981   2.636   1.028   2.789
10361SOL    HW131982   2.620   0.929   2.787
10361SOL    HW231983   2.645   1.062   2.695
10362SOL     OW31984   0.449   5.267   2.830
10362SOL    HW131985   0.399   5.301   2.750
10362SOL    HW231986   0.392   5.279   2.912
10363SOL     OW31987   4.920   2.351   1.159
10363SOL    HW131988   4.935   2.448   1.140
10363SOL    HW231989   5.004   2.300   1.142
10364SOL     OW31990   4.788   4.265   1.922
10364SOL    HW131991   4.753   4.190   1.866
10364SOL    HW231992   4.711   4.319   1.957
10365SOL     OW31993   6.023   4.635   0.188
10365SOL    HW131994   5.982   4.566   0.129
10365SOL    HW231995   5.994   4.726   0.158
10366SOL     OW31996   3.491   6.740   3.342
10366SOL    HW131997   3.518   6.723   3.437
10366SOL    HW231998   3.447   6.658   3.305
10367SOL     OW31999   6.997   1.916   2.243
10367SOL    HW132000   6.947   1.930   2.158
10367SOL    HW232001   0.059   1.858   2.225
10368SOL     OW32002   2.009   1.004   2.366
10368SOL    HW132003   2.051   1.021   2.277
10368SOL    HW232004   2.080   1.000   2.436
10369SOL     OW32005   2.685   6.270   5.971
10369SOL    HW132006   2.639   6.188   6.005
10369SOL    HW232007   2.616   6.336   5.940
10370SOL     OW32008   6.233   1.537   5.016
10370SOL    HW132009   6.274   1.447   5.003
10370SOL    HW232010   6.297   1.595   5.067
10371SOL     OW32011   2.024   6.720   4.285
10371SOL    HW132012   1.979   6.705   4.197
10371SOL    HW232013   2.046   6.817   4.294
10372SOL     OW32014   2.926   1.083   0.917
10372SOL    HW132015   2.991   1.024   0.868
10372SOL    HW232016   2.964   1.106   1.007
10373SOL     OW32017   0.374   6.974   4.932
10373SOL    HW132018   0.300   6.990   4.997
10373SOL    HW232019   0.462   6.986   4.978
10374SOL     OW32020   3.342   0.347   3.619
10374SOL    HW132021   3.388   0.376   3.703
10374SOL    HW232022   3.365   0.410   3.545
10375SOL     OW32023   2.701   2.053   5.866
10375SOL    HW132024   2.662   1.975   5.914
10375SOL    HW232025   2.628   2.101   5.816
10376SOL     OW32026   1.089   6.270   4.356
10376SOL    HW132027   1.133   6.279   4.445
10376SOL    HW232028   1.038   6.354   4.337
10377SOL     OW32029   0.389   1.268   1.519
10377SOL    HW132030   0.289   1.268   1.530
10377SOL    HW232031   0.432   1.283   1.608
10378SOL     OW32032   5.933   5.710   5.824
10378SOL    HW132033   5.973   5.783   5.880
10378SOL    HW232034   5.910   5.747   5.734
10379SOL     OW32035   3.377   5.611   4.285
10379SOL    HW132036   3.287   5.570   4.301
10379SOL    HW232037   3.412   5.580   4.196
10380SOL     OW32038   0.773   2.501   4.957
10380SOL    HW132039   0.807   2.566   5.024
10380SOL    HW232040   0.818   2.412   4.969
10381SOL     OW32041   4.458   4.023   1.405
10381SOL    HW132042   4.393   3.952   1.433
10381SOL    HW232043   4.524   3.983   1.341
10382SOL     OW32044   3.126   5.919   1.694
10382SOL    HW132045   3.034   5.955   1.712
10382SOL    HW232046   3.194   5.988   1.717
10383SOL     OW32047   1.297   4.263   0.590
10383SOL    HW132048   1.280   4.169   0.558
10383SOL    HW232049   1.393   4.272   0.618
10384SOL     OW32050   6.898   6.849   0.486
10384SOL    HW132051   6.908   6.922   0.417
10384SOL    HW232052   6.805   6.851   0.523
10385SOL     OW32053   4.483   6.032   6.808
10385SOL    HW132054   4.507   5.998   6.717
10385SOL    HW232055   4.389   6.066   6.808
10386SOL     OW32056   0.381   0.774   5.787
10386SOL    HW132057   0.426   0.723   5.713
10386SOL    HW232058   0.337   0.710   5.850
10387SOL     OW32059   5.185   3.121   2.720
10387SOL    HW132060   5.209   3.149   2.627
10387SOL    HW232061   5.212   3.192   2.785
10388SOL     OW32062   1.256   6.018   1.651
10388SOL    HW132063   1.254   6.117   1.636
10388SOL    HW232064   1.207   5.996   1.735
10389SOL     OW32065   6.391   4.023   1.364
10389SOL    HW132066   6.435   4.023   1.453
10389SOL    HW232067   6.306   4.075   1.369
10390SOL     OW32068   2.053   3.056   0.209
10390SOL    HW132069   2.098   3.004   0.281
10390SOL    HW232070   2.083   3.023   0.120
10391SOL     OW32071   0.348   5.941   4.717
10391SOL    HW132072   0.314   6.031   4.744
10391SOL    HW232073   0.362   5.885   4.799
10392SOL     OW32074   5.810   4.978   5.520
10392SOL    HW132075   5.723   4.929   5.524
10392SOL    HW232076   5.884   4.914   5.497
10393SOL     OW32077   2.254   2.810   3.309
10393SOL    HW132078   2.228   2.891   3.257
10393SOL    HW232079   2.338   2.772   3.271
10394SOL     OW32080   2.867   5.389   5.033
10394SOL    HW132081   2.945   5.431   5.080
10394SOL    HW232082   2.847   5.300   5.075
10395SOL     OW32083   0.427   0.477   1.384
10395SOL    HW132084   0.377   0.468   1.470
10395SOL    HW232085   0.364   0.505   1.311
10396SOL     OW32086   3.355   1.676   3.892
10396SOL    HW132087   3.350   1.738   3.814
10396SOL    HW232088   3.448   1.641   3.902
10397SOL     OW32089   3.642   1.249   4.352
10397SOL    HW132090   3.655   1.261   4.450
10397SOL    HW232091   3.553   1.287   4.325
10398SOL     OW32092   5.624   2.494   0.305
10398SOL    HW132093   5.696   2.456   0.245
10398SOL    HW232094   5.599   2.425   0.373
10399SOL     OW32095   4.770   2.161   2.901
10399SOL    HW132096   4.701   2.110   2.953
10399SOL    HW232097   4.762   2.258   2.922
10400SOL     OW32098   4.694   5.817   7.014
10400SOL    HW132099   4.763   5.859   0.056
10400SOL    HW232100   4.667   5.729   0.034
10401SOL     OW32101   0.080   6.498   2.517
10401SOL    HW132102   0.013   6.474   2.587
10401SOL    HW232103   0.041   6.480   2.426
10402SOL     OW32104   6.745   1.671   5.195
10402SOL    HW132105   6.693   1.664   5.280
10402SOL    HW232106   6.841   1.689   5.216
10403SOL     OW32107   4.666   2.774   2.870
10403SOL    HW132108   4.662   2.777   2.770
10403SOL    HW232109   4.676   2.867   2.906
10404SOL     OW32110   5.847   6.496   4.571
10404SOL    HW132111   5.931   6.522   4.619
10404SOL    HW232112   5.771   6.554   4.602
10405SOL     OW32113   1.354   6.790   4.567
10405SOL    HW132114   1.334   6.708   4.513
10405SOL    HW232115   1.453   6.801   4.575
10406SOL     OW32116   2.071   3.126   3.548
10406SOL    HW132117   2.116   3.216   3.554
10406SOL    HW232118   2.093   3.073   3.630
10407SOL     OW32119   2.707   6.756   6.407
10407SOL    HW132120   2.787   6.773   6.464
10407SOL    HW232121   2.634   6.718   6.463
10408SOL     OW32122   4.529   0.046   1.070
10408SOL    HW132123   4.537   0.146   1.064
10408SOL    HW232124   4.614   0.009   1.108
10409SOL     OW32125   6.820   4.862   1.264
10409SOL    HW132126   6.894   4.917   1.224
10409SOL    HW232127   6.762   4.826   1.192
10410SOL     OW32128   4.938   1.895   1.777
10410SOL    HW132129   4.989   1.959   1.719
10410SOL    HW232130   4.972   1.901   1.871
10411SOL     OW32131   2.848   6.431   3.787
10411SOL    HW132132   2.895   6.446   3.700
10411SOL    HW232133   2.904   6.467   3.862
10412SOL     OW32134   0.045   1.531   0.160
10412SOL    HW132135   7.005   1.450   0.150
10412SOL    HW232136   0.140   1.502   0.173
10413SOL     OW32137   0.091   2.782   0.472
10413SOL    HW132138   0.011   2.829   0.437
10413SOL    HW232139   0.170   2.843   0.469
10414SOL     OW32140   4.431   5.457   5.640
10414SOL    HW132141   4.352   5.442   5.580
10414SOL    HW232142   4.417   5.540   5.693
10415SOL     OW32143   1.308   3.721   5.224
10415SOL    HW132144   1.375   3.795   5.215
10415SOL    HW232145   1.299   3.697   5.321
10416SOL     OW32146   5.521   0.123   5.570
10416SOL    HW132147   5.512   0.223   5.569
10416SOL    HW232148   5.455   0.085   5.635
10417SOL     OW32149   3.097   4.925   4.014
10417SOL    HW132150   3.113   4.947   3.918
10417SOL    HW232151   3.185   4.911   4.059
10418SOL     OW32152   6.432   4.027   6.100
10418SOL    HW132153   6.392   3.967   6.169
10418SOL    HW232154   6.433   4.121   6.134
10419SOL     OW32155   2.967   6.863   6.101
10419SOL    HW132156   2.924   6.784   6.143
10419SOL    HW232157   2.932   6.947   6.143
10420SOL     OW32158   0.379   3.780   4.105
10420SOL    HW132159   0.473   3.765   4.136
10420SOL    HW232160   0.357   3.877   4.111
10421SOL     OW32161   0.912   2.559   3.966
10421SOL    HW132162   1.006   2.525   3.961
10421SOL    HW232163   0.890   2.581   4.061
10422SOL     OW32164   6.013   3.324   5.419
10422SOL    HW132165   5.960   3.280   5.346
10422SOL    HW232166   5.959   3.397   5.460
10423SOL     OW32167   5.292   4.943   5.529
10423SOL    HW132168   5.252   4.913   5.442
10423SOL    HW232169   5.222   4.987   5.585
10424SOL     OW32170   4.447   3.144   0.623
10424SOL    HW132171   4.440   3.181   0.531
10424SOL    HW232172   4.371   3.177   0.678
10425SOL     OW32173   1.023   6.554   2.072
10425SOL    HW132174   1.078   6.627   2.031
10425SOL    HW232175   1.084   6.487   2.115
10426SOL     OW32176   5.002   5.229   0.407
10426SOL    HW132177   5.044   5.158   0.352
10426SOL    HW232178   4.943   5.286   0.350
10427SOL     OW32179   3.805   1.149   6.717
10427SOL    HW132180   3.781   1.241   6.749
10427SOL    HW232181   3.793   1.083   6.791
10428SOL     OW32182   3.797   0.674   3.592
10428SOL    HW132183   3.816   0.698   3.688
10428SOL    HW232184   3.698   0.681   3.576
10429SOL     OW32185   6.810   4.272   1.236
10429SOL    HW132186   6.712   4.292   1.232
10429SOL    HW232187   6.848   4.308   1.321
10430SOL     OW32188   5.223   0.152   4.641
10430SOL    HW132189   5.239   0.249   4.659
10430SOL    HW232190   5.251   0.098   4.720
10431SOL     OW32191   2.553   5.864   4.371
10431SOL    HW132192   2.527   5.944   4.424
10431SOL    HW232193   2.644   5.877   4.332
10432SOL     OW32194   5.440   0.124   4.444
10432SOL    HW132195   5.509   0.192   4.470
10432SOL    HW232196   5.369   0.120   4.514
10433SOL     OW32197   1.024   6.006   2.245
10433SOL    HW132198   1.052   5.913   2.222
10433SOL    HW232199   0.973   6.005   2.331
10434SOL     OW32200   3.873   6.334   3.002
10434SOL    HW132201   3.952   6.370   2.952
10434SOL    HW232202   3.900   6.250   3.049
10435SOL     OW32203   0.554   1.050   5.274
10435SOL    HW132204   0.584   1.031   5.368
10435SOL    HW232205   0.454   1.048   5.270
10436SOL     OW32206   6.671   4.800   5.682
10436SOL    HW132207   6.659   4.775   5.778
10436SOL    HW232208   6.602   4.754   5.627
10437SOL     OW32209   4.848   3.852   6.116
10437SOL    HW132210   4.753   3.826   6.103
10437SOL    HW232211   4.889   3.797   6.189
10438SOL     OW32212   6.317   6.434   6.981
10438SOL    HW132213   6.243   6.424   0.029
10438SOL    HW232214   6.287   6.398   6.892
10439SOL     OW32215   3.808   0.794   4.777
10439SOL    HW132216   3.771   0.887   4.786
10439SOL    HW232217   3.780   0.740   4.856
10440SOL     OW32218   1.426   6.500   0.925
10440SOL    HW132219   1.498   6.446   0.881
10440SOL    HW232220   1.337   6.461   0.903
10441SOL     OW32221   4.036   1.115   1.314
10441SOL    HW132222   3.953   1.124   1.369
10441SOL    HW232223   4.070   1.206   1.291
10442SOL     OW32224   4.290   6.239   6.576
10442SOL    HW132225   4.328   6.304   6.641
10442SOL    HW232226   4.326   6.258   6.484
10443SOL     OW32227   5.121   3.682   3.935
10443SOL    HW132228   5.171   3.598   3.912
10443SOL    HW232229   5.111   3.688   4.034
10444SOL     OW32230   4.545   5.275   3.847
10444SOL    HW132231   4.445   5.267   3.841
10444SOL    HW232232   4.574   5.361   3.806
10445SOL     OW32233   0.770   4.434   4.543
10445SOL    HW132234   0.682   4.389   4.556
10445SOL    HW232235   0.759   4.510   4.480
10446SOL     OW32236   1.448   3.259   5.252
10446SOL    HW132237   1.401   3.297   5.331
10446SOL    HW232238   1.444   3.324   5.176
10447SOL     OW32239   0.394   1.357   1.796
10447SOL    HW132240   0.423   1.383   1.888
10447SOL    HW232241   0.364   1.438   1.746
10448SOL     OW32242   4.745   0.655   2.381
10448SOL    HW132243   4.680   0.718   2.423
10448SOL    HW232244   4.702   0.610   2.302
10449SOL     OW32245   2.437   5.219   4.738
10449SOL    HW132246   2.398   5.310   4.726
10449SOL    HW232247   2.536   5.222   4.720
10450SOL     OW32248   0.679   1.592   0.734
10450SOL    HW132249   0.757   1.530   0.741
10450SOL    HW232250   0.696   1.674   0.790
10451SOL     OW32251   1.614   5.407   2.369
10451SOL    HW132252   1.583   5.411   2.464
10451SOL    HW232253   1.572   5.481   2.316
10452SOL     OW32254   6.551   3.081   1.899
10452SOL    HW132255   6.452   3.063   1.902
10452SOL    HW232256   6.587   3.084   1.992
10453SOL     OW32257   3.816   6.852   1.138
10453SOL    HW132258   3.816   6.919   1.064
10453SOL    HW232259   3.786   6.763   1.104
10454SOL     OW32260   4.478   3.527   0.287
10454SOL    HW132261   4.542   3.544   0.212
10454SOL    HW232262   4.385   3.529   0.252
10455SOL     OW32263   6.619   6.350   3.114
10455SOL    HW132264   6.546   6.305   3.165
10455SOL    HW232265   6.680   6.282   3.074
10456SOL     OW32266   2.735   6.297   0.816
10456SOL    HW132267   2.746   6.354   0.898
10456SOL    HW232268   2.639   6.297   0.789
10457SOL     OW32269   3.044   3.508   1.711
10457SOL    HW132270   3.044   3.493   1.612
10457SOL    HW232271   3.048   3.420   1.758
10458SOL     OW32272   6.326   1.137   6.298
10458SOL    HW132273   6.311   1.225   6.342
10458SOL    HW232274   6.366   1.151   6.208
10459SOL     OW32275   5.193   5.947   1.619
10459SOL    HW132276   5.131   5.942   1.540
10459SOL    HW232277   5.148   5.996   1.693
10460SOL     OW32278   0.734   4.514   2.249
10460SOL    HW132279   0.783   4.579   2.306
10460SOL    HW232280   0.637   4.539   2.246
10461SOL     OW32281   0.235   5.402   6.073
10461SOL    HW132282   0.197   5.480   6.024
10461SOL    HW232283   0.197   5.317   6.035
10462SOL     OW32284   5.861   1.777   3.429
10462SOL    HW132285   5.792   1.761   3.358
10462SOL    HW232286   5.907   1.864   3.411
10463SOL     OW32287   4.051   2.898   5.609
10463SOL    HW132288   4.105   2.963   5.662
10463SOL    HW232289   3.973   2.946   5.567
10464SOL     OW32290   6.668   0.273   0.808
10464SOL    HW132291   6.605   0.207   0.767
10464SOL    HW232292   6.761   0.256   0.774
10465SOL     OW32293   6.417   5.455   1.175
10465SOL    HW132294   6.490   5.405   1.129
10465SOL    HW232295   6.358   5.499   1.107
10466SOL     OW32296   4.504   4.770   6.536
10466SOL    HW132297   4.506   4.829   6.617
10466SOL    HW232298   4.438   4.695   6.551
10467SOL     OW32299   2.593   1.632   6.219
10467SOL    HW132300   2.545   1.545   6.231
10467SOL    HW232301   2.566   1.695   6.292
10468SOL     OW32302   3.794   5.243   3.088
10468SOL    HW132303   3.852   5.248   3.170
10468SOL    HW232304   3.848   5.271   3.008
10469SOL     OW32305   4.071   4.478   5.951
10469SOL    HW132306   4.036   4.441   5.865
10469SOL    HW232307   4.163   4.515   5.936
10470SOL     OW32308   2.429   2.479   3.482
10470SOL    HW132309   2.417   2.548   3.410
10470SOL    HW232310   2.514   2.497   3.532
10471SOL     OW32311   2.769   2.447   1.184
10471SOL    HW132312   2.787   2.546   1.182
10471SOL    HW232313   2.840   2.399   1.132
10472SOL     OW32314   4.260   5.333   0.536
10472SOL    HW132315   4.195   5.288   0.475
10472SOL    HW232316   4.279   5.425   0.503
10473SOL     OW32317   7.014   0.640   6.337
10473SOL    HW132318   6.923   0.681   6.334
10473SOL    HW232319   0.037   0.656   6.426
10474SOL     OW32320   4.052   2.063   4.440
10474SOL    HW132321   4.082   1.990   4.502
10474SOL    HW232322   4.109   2.144   4.453
10475SOL     OW32323   4.615   6.736   2.069
10475SOL    HW132324   4.610   6.833   2.092
10475SOL    HW232325   4.522   6.698   2.067
10476SOL     OW32326   7.015   6.451   0.053
10476SOL    HW132327   0.051   6.380   0.008
10476SOL    HW232328   0.014   6.450   0.152
10477SOL     OW32329   6.734   1.896   4.250
10477SOL    HW132330   6.775   1.935   4.167
10477SOL    HW232331   6.714   1.799   4.234
10478SOL     OW32332   0.169   0.591   1.297
10478SOL    HW132333   0.116   0.585   1.212
10478SOL    HW232334   0.108   0.581   1.375
10479SOL     OW32335   0.634   2.807   1.384
10479SOL    HW132336   0.669   2.744   1.452
10479SOL    HW232337   0.616   2.896   1.427
10480SOL     OW32338   6.632   0.113   1.827
10480SOL    HW132339   6.620   0.025   1.782
10480SOL    HW232340   6.691   0.102   1.907
10481SOL     OW32341   2.677   6.923   4.645
10481SOL    HW132342   2.715   6.831   4.651
10481SOL    HW232343   2.649   6.942   4.551
10482SOL     OW32344   6.503   5.611   4.824
10482SOL    HW132345   6.594   5.646   4.801
10482SOL    HW232346   6.461   5.572   4.742
10483SOL     OW32347   6.505   5.088   0.168
10483SOL    HW132348   6.469   5.008   0.120
10483SOL    HW232349   6.599   5.105   0.139
10484SOL     OW32350   6.119   1.221   1.762
10484SOL    HW132351   6.107   1.227   1.861
10484SOL    HW232352   6.070   1.141   1.726
10485SOL     OW32353   3.355   4.117   1.912
10485SOL    HW132354   3.277   4.163   1.869
10485SOL    HW232355   3.379   4.036   1.858
10486SOL     OW32356   6.749   0.817   6.379
10486SOL    HW132357   6.684   0.812   6.455
10486SOL    HW232358   6.769   0.913   6.359
10487SOL     OW32359   4.865   1.616   2.451
10487SOL    HW132360   4.853   1.565   2.537
10487SOL    HW232361   4.893   1.709   2.472
10488SOL     OW32362   2.999   1.627   5.533
10488SOL    HW132363   3.041   1.546   5.573
10488SOL    HW232364   2.916   1.601   5.484
10489SOL     OW32365   6.254   0.011   4.420
10489SOL    HW132366   6.294   0.030   4.509
10489SOL    HW232367   6.326   6.999   4.357
10490SOL     OW32368   6.252   1.813   0.981
10490SOL    HW132369   6.271   1.842   1.076
10490SOL    HW232370   6.154   1.794   0.971
10491SOL     OW32371   2.556   2.341   5.354
10491SOL    HW132372   2.620   2.321   5.429
10491SOL    HW232373   2.494   2.263   5.343
10492SOL     OW32374   5.149   5.910   0.963
10492SOL    HW132375   5.197   5.942   0.881
10492SOL    HW232376   5.212   5.904   1.039
10493SOL     OW32377   3.044   6.664   2.248
10493SOL    HW132378   3.060   6.569   2.277
10493SOL    HW232379   3.042   6.668   2.148
10494SOL     OW32380   5.437   4.387   6.371
10494SOL    HW132381   5.393   4.400   6.460
10494SOL    HW232382   5.493   4.466   6.349
10495SOL     OW32383   1.070   6.818   0.806
10495SOL    HW132384   1.163   6.847   0.782
10495SOL    HW232385   1.074   6.759   0.887
10496SOL     OW32386   6.057   4.179   6.084
10496SOL    HW132387   5.963   4.192   6.054
10496SOL    HW232388   6.057   4.141   6.177
10497SOL     OW32389   1.656   6.883   2.202
10497SOL    HW132390   1.717   6.959   2.180
10497SOL    HW232391   1.616   6.897   2.292
10498SOL     OW32392   5.187   5.301   0.612
10498SOL    HW132393   5.137   5.275   0.530
10498SOL    HW232394   5.139   5.376   0.658
10499SOL     OW32395   4.879   0.219   2.055
10499SOL    HW132396   4.897   0.133   2.007
10499SOL    HW232397   4.955   0.238   2.117
10500SOL     OW32398   5.912   1.200   5.573
10500SOL    HW132399   5.864   1.244   5.497
10500SOL    HW232400   5.956   1.269   5.629
10501SOL     OW32401   2.180   5.122   1.869
10501SOL    HW132402   2.192   5.096   1.773
10501SOL    HW232403   2.089   5.162   1.881
10502SOL     OW32404   2.849   2.743   1.165
10502SOL    HW132405   2.910   2.758   1.087
10502SOL    HW232406   2.867   2.812   1.235
10503SOL     OW32407   4.918   3.105   0.701
10503SOL    HW132408   4.823   3.120   0.675
10503SOL    HW232409   4.927   3.014   0.742
10504SOL     OW32410   0.523   3.045   5.648
10504SOL    HW132411   0.503   3.143   5.648
10504SOL    HW232412   0.510   3.009   5.741
10505SOL     OW32413   5.626   5.183   1.047
10505SOL    HW132414   5.669   5.103   1.006
10505SOL    HW232415   5.563   5.154   1.119
10506SOL     OW32416   0.432   3.583   0.020
10506SOL    HW132417   0.450   3.652   0.090
10506SOL    HW232418   0.517   3.536   7.015
10507SOL     OW32419   2.166   5.815   1.143
10507SOL    HW132420   2.105   5.892   1.162
10507SOL    HW232421   2.226   5.838   1.066
10508SOL     OW32422   0.150   5.265   4.825
10508SOL    HW132423   0.120   5.192   4.763
10508SOL    HW232424   0.096   5.261   4.909
10509SOL     OW32425   6.642   5.403   5.234
10509SOL    HW132426   6.612   5.399   5.139
10509SOL    HW232427   6.629   5.495   5.269
10510SOL     OW32428   4.446   6.872   0.322
10510SOL    HW132429   4.505   6.799   0.287
10510SOL    HW232430   4.499   6.932   0.381
10511SOL     OW32431   2.795   1.701   2.193
10511SOL    HW132432   2.835   1.646   2.119
10511SOL    HW232433   2.712   1.745   2.160
10512SOL     OW32434   3.706   0.923   5.870
10512SOL    HW132435   3.628   0.986   5.873
10512SOL    HW232436   3.690   0.846   5.931
10513SOL     OW32437   6.624   3.406   3.626
10513SOL    HW132438   6.717   3.435   3.651
10513SOL    HW232439   6.612   3.310   3.652
10514SOL     OW32440   0.613   3.164   1.202
10514SOL    HW132441   0.544   3.104   1.161
10514SOL    HW232442   0.630   3.135   1.296
10515SOL     OW32443   1.723   3.660   4.590
10515SOL    HW132444   1.796   3.637   4.654
10515SOL    HW232445   1.655   3.718   4.636
10516SOL     OW32446   3.089   1.767   0.684
10516SOL    HW132447   3.033   1.819   0.748
10516SOL    HW232448   3.124   1.828   0.613
10517SOL     OW32449   1.102   3.238   0.915
10517SOL    HW132450   1.165   3.306   0.954
10517SOL    HW232451   1.010   3.254   0.951
10518SOL     OW32452   6.861   6.052   1.330
10518SOL    HW132453   6.848   6.060   1.429
10518SOL    HW232454   6.930   6.118   1.301
10519SOL     OW32455   3.061   3.750   0.765
10519SOL    HW132456   3.103   3.680   0.706
10519SOL    HW232457   2.965   3.727   0.781
10520SOL     OW32458   0.716   2.285   5.974
10520SOL    HW132459   0.673   2.300   6.063
10520SOL    HW232460   0.815   2.297   5.982
10521SOL     OW32461   6.709   5.106   1.116
10521SOL    HW132462   6.707   5.031   1.051
10521SOL    HW232463   6.713   5.070   1.209
10522SOL     OW32464   0.213   1.901   4.379
10522SOL    HW132465   0.151   1.953   4.321
10522SOL    HW232466   0.300   1.886   4.331
10523SOL     OW32467   0.710   4.513   2.676
10523SOL    HW132468   0.649   4.579   2.632
10523SOL    HW232469   0.804   4.530   2.647
10524SOL     OW32470   0.091   6.338   4.655
10524SOL    HW132471   0.166   6.370   4.596
10524SOL    HW232472   0.025   6.288   4.600
10525SOL     OW32473   3.486   0.828   5.193
10525SOL    HW132474   3.547   0.846   5.270
10525SOL    HW232475   3.406   0.777   5.225
10526SOL     OW32476   0.964   0.078   1.880
10526SOL    HW132477   0.905   0.145   1.834
10526SOL    HW232478   0.949   0.082   1.979
10527SOL     OW32479   1.194   1.043   5.190
10527SOL    HW132480   1.130   1.079   5.257
10527SOL    HW232481   1.154   0.964   5.145
10528SOL     OW32482   1.475   4.004   6.258
10528SOL    HW132483   1.497   3.929   6.195
10528SOL    HW232484   1.467   4.089   6.206
10529SOL     OW32485   2.397   6.245   4.237
10529SOL    HW132486   2.483   6.225   4.189
10529SOL    HW232487   2.332   6.286   4.173
10530SOL     OW32488   1.427   0.120   6.360
10530SOL    HW132489   1.507   0.130   6.420
10530SOL    HW232490   1.446   0.051   6.291
10531SOL     OW32491   1.973   2.439   4.038
10531SOL    HW132492   2.053   2.451   4.096
10531SOL    HW232493   2.000   2.391   3.954
10532SOL     OW32494   0.723   6.950   6.820
10532SOL    HW132495   0.638   6.898   6.807
10532SOL    HW232496   0.787   6.929   6.747
10533SOL     OW32497   2.990   6.595   3.323
10533SOL    HW132498   3.063   6.657   3.294
10533SOL    HW232499   2.937   6.567   3.243
10534SOL     OW32500   6.241   5.384   2.159
10534SOL    HW132501   6.319   5.325   2.137
10534SOL    HW232502   6.157   5.330   2.160
10535SOL     OW32503   1.940   2.080   2.604
10535SOL    HW132504   1.898   2.054   2.691
10535SOL    HW232505   2.005   2.155   2.619
10536SOL     OW32506   4.653   0.481   4.300
10536SOL    HW132507   4.633   0.410   4.233
10536SOL    HW232508   4.569   0.529   4.325
10537SOL     OW32509   4.505   6.041   4.652
10537SOL    HW132510   4.550   6.111   4.596
10537SOL    HW232511   4.460   5.974   4.593
10538SOL     OW32512   6.868   3.314   0.972
10538SOL    HW132513   6.950   3.359   0.937
10538SOL    HW232514   6.839   3.358   1.057
10539SOL     OW32515   6.665   4.858   0.650
10539SOL    HW132516   6.600   4.801   0.700
10539SOL    HW232517   6.623   4.889   0.565
10540SOL     OW32518   1.472   2.974   5.186
10540SOL    HW132519   1.448   3.068   5.212
10540SOL    HW232520   1.422   2.910   5.244
10541SOL     OW32521   4.060   3.940   1.998
10541SOL    HW132522   4.120   4.017   1.976
10541SOL    HW232523   4.055   3.928   2.097
10542SOL     OW32524   6.565   1.373   5.378
10542SOL    HW132525   6.547   1.383   5.281
10542SOL    HW232526   6.573   1.463   5.421
10543SOL     OW32527   0.891   1.785   4.607
10543SOL    HW132528   0.952   1.800   4.685
10543SOL    HW232529   0.909   1.694   4.568
10544SOL     OW32530   2.577   6.618   1.838
10544SOL    HW132531   2.591   6.683   1.763
10544SOL    HW232532   2.644   6.637   1.910
10545SOL     OW32533   0.728   2.117   1.125
10545SOL    HW132534   0.783   2.054   1.180
10545SOL    HW232535   0.635   2.082   1.116
10546SOL     OW32536   2.299   6.409   0.290
10546SOL    HW132537   2.316   6.372   0.382
10546SOL    HW232538   2.272   6.335   0.229
10547SOL     OW32539   5.500   3.403   3.120
10547SOL    HW132540   5.521   3.319   3.170
10547SOL    HW232541   5.562   3.411   3.041
10548SOL     OW32542   6.643   4.202   4.245
10548SOL    HW132543   6.650   4.142   4.165
10548SOL    HW232544   6.718   4.183   4.307
10549SOL     OW32545   0.603   1.263   1.151
10549SOL    HW132546   0.581   1.166   1.142
10549SOL    HW232547   0.570   1.312   1.070
10550SOL     OW32548   4.485   6.787   3.589
10550SOL    HW132549   4.571   6.748   3.556
10550SOL    HW232550   4.494   6.811   3.686
10551SOL     OW32551   2.364   2.108   6.732
10551SOL    HW132552   2.308   2.026   6.727
10551SOL    HW232553   2.411   2.122   6.645
10552SOL     OW32554   1.871   0.665   5.645
10552SOL    HW132555   1.771   0.665   5.647
10552SOL    HW232556   1.906   0.588   5.699
10553SOL     OW32557   0.627   4.806   1.525
10553SOL    HW132558   0.629   4.710   1.554
10553SOL    HW232559   0.536   4.828   1.489
10554SOL     OW32560   4.877   4.892   0.964
10554SOL    HW132561   4.965   4.844   0.956
10554SOL    HW232562   4.803   4.825   0.961
10555SOL     OW32563   2.729   2.926   0.807
10555SOL    HW132564   2.635   2.952   0.827
10555SOL    HW232565   2.733   2.830   0.781
10556SOL     OW32566   1.214   1.471   4.114
10556SOL    HW132567   1.225   1.388   4.058
10556SOL    HW232568   1.258   1.548   4.068
10557SOL     OW32569   2.255   2.994   3.042
10557SOL    HW132570   2.283   3.076   3.093
10557SOL    HW232571   2.166   2.962   3.076
10558SOL     OW32572   3.864   6.101   5.256
10558SOL    HW132573   3.861   6.078   5.158
10558SOL    HW232574   3.958   6.095   5.288
10559SOL     OW32575   4.400   1.200   1.684
10559SOL    HW132576   4.317   1.180   1.737
10559SOL    HW232577   4.440   1.286   1.717
10560SOL     OW32578   4.841   0.206   2.725
10560SOL    HW132579   4.747   0.187   2.754
10560SOL    HW232580   4.870   0.294   2.762
10561SOL     OW32581   3.587   4.484   1.686
10561SOL    HW132582   3.514   4.450   1.627
10561SOL    HW232583   3.551   4.558   1.743
10562SOL     OW32584   4.258   5.183   6.858
10562SOL    HW132585   4.189   5.124   6.816
10562SOL    HW232586   4.237   5.194   6.956
10563SOL     OW32587   0.280   0.887   2.407
10563SOL    HW132588   0.245   0.960   2.466
10563SOL    HW232589   0.350   0.923   2.346
10564SOL     OW32590   5.518   6.326   3.417
10564SOL    HW132591   5.453   6.276   3.475
10564SOL    HW232592   5.599   6.348   3.470
10565SOL     OW32593   0.090   6.401   5.821
10565SOL    HW132594   0.040   6.355   5.748
10565SOL    HW232595   0.098   6.498   5.800
10566SOL     OW32596   3.920   1.868   6.782
10566SOL    HW132597   3.987   1.831   6.717
10566SOL    HW232598   3.838   1.811   6.781
10567SOL     OW32599   2.322   2.419   5.201
10567SOL    HW132600   2.314   2.319   5.203
10567SOL    HW232601   2.351   2.451   5.291
10568SOL     OW32602   6.877   3.101   0.599
10568SOL    HW132603   6.816   3.056   0.664
10568SOL    HW232604   6.970   3.069   0.614
10569SOL     OW32605   5.999   1.044   2.530
10569SOL    HW132606   6.098   1.040   2.518
10569SOL    HW232607   5.965   1.132   2.498
10570SOL     OW32608   1.452   4.617   3.494
10570SOL    HW132609   1.393   4.544   3.529
10570SOL    HW232610   1.544   4.582   3.480
10571SOL     OW32611   0.540   4.748   5.108
10571SOL    HW132612   0.506   4.841   5.094
10571SOL    HW232613   0.632   4.740   5.070
10572SOL     OW32614   0.028   4.464   2.580
10572SOL    HW132615   0.105   4.528   2.579
10572SOL    HW232616   0.005   4.441   2.674
10573SOL     OW32617   5.448   0.680   4.904
10573SOL    HW132618   5.437   0.734   4.987
10573SOL    HW232619   5.363   0.683   4.851
10574SOL     OW32620   0.677   1.489   4.480
10574SOL    HW132621   0.700   1.576   4.435
10574SOL    HW232622   0.757   1.428   4.477
10575SOL     OW32623   6.867   0.692   3.745
10575SOL    HW132624   6.794   0.623   3.746
10575SOL    HW232625   6.926   0.680   3.825
10576SOL     OW32626   0.644   5.909   4.729
10576SOL    HW132627   0.554   5.922   4.687
10576SOL    HW232628   0.715   5.920   4.660
10577SOL     OW32629   1.861   4.480   0.427
10577SOL    HW132630   1.813   4.416   0.367
10577SOL    HW232631   1.891   4.432   0.509
10578SOL     OW32632   4.373   1.571   3.074
10578SOL    HW132633   4.470   1.566   3.051
10578SOL    HW232634   4.360   1.637   3.148
10579SOL     OW32635   4.209   2.723   1.508
10579SOL    HW132636   4.261   2.793   1.460
10579SOL    HW232637   4.211   2.638   1.456
10580SOL     OW32638   0.068   6.987   6.297
10580SOL    HW132639   7.002   6.964   6.346
10580SOL    HW232640   0.110   6.903   6.263
10581SOL     OW32641   5.825   0.265   2.977
10581SOL    HW132642   5.866   0.265   3.068
10581SOL    HW232643   5.797   0.172   2.953
10582SOL     OW32644   4.629   4.628   5.762
10582SOL    HW132645   4.631   4.534   5.728
10582SOL    HW232646   4.708   4.679   5.727
10583SOL     OW32647   4.301   1.179   4.021
10583SOL    HW132648   4.252   1.169   4.108
10583SOL    HW232649   4.385   1.125   4.024
10584SOL     OW32650   6.898   0.581   0.660
10584SOL    HW132651   6.838   0.648   0.619
10584SOL    HW232652   6.965   0.627   0.719
10585SOL     OW32653   2.542   1.492   4.971
10585SOL    HW132654   2.498   1.532   4.891
10585SOL    HW232655   2.638   1.472   4.951
10586SOL     OW32656   5.104   4.742   5.723
10586SOL    HW132657   5.184   4.799   5.705
10586SOL    HW232658   5.129   4.670   5.787
10587SOL     OW32659   6.448   5.261   6.823
10587SOL    HW132660   6.523   5.328   6.815
10587SOL    HW232661   6.483   5.177   6.864
10588SOL     OW32662   1.395   1.826   5.324
10588SOL    HW132663   1.345   1.866   5.247
10588SOL    HW232664   1.493   1.839   5.310
10589SOL     OW32665   5.588   0.929   4.367
10589SOL    HW132666   5.563   0.838   4.400
10589SOL    HW232667   5.578   0.932   4.268
10590SOL     OW32668   0.753   0.221   0.473
10590SOL    HW132669   0.828   0.169   0.514
10590SOL    HW232670   0.726   0.180   0.386
10591SOL     OW32671   1.950   2.007   0.158
10591SOL    HW132672   1.870   2.060   0.131
10591SOL    HW232673   1.925   1.910   0.161
10592SOL     OW32674   6.028   3.712   2.952
10592SOL    HW132675   5.963   3.764   3.006
10592SOL    HW232676   6.105   3.685   3.010
10593SOL     OW32677   3.136   6.047   1.176
10593SOL    HW132678   3.072   6.052   1.099
10593SOL    HW232679   3.219   6.098   1.153
10594SOL     OW32680   5.440   1.444   2.861
10594SOL    HW132681   5.432   1.490   2.772
10594SOL    HW232682   5.423   1.510   2.934
10595SOL     OW32683   5.629   0.102   0.134
10595SOL    HW132684   5.594   0.180   0.186
10595SOL    HW232685   5.568   0.023   0.148
10596SOL     OW32686   3.982   0.960   0.160
10596SOL    HW132687   3.893   0.916   0.176
10596SOL    HW232688   3.968   1.056   0.137
10597SOL     OW32689   3.530   1.471   5.358
10597SOL    HW132690   3.578   1.551   5.394
10597SOL    HW232691   3.458   1.501   5.295
10598SOL     OW32692   3.493   2.843   0.511
10598SOL    HW132693   3.494   2.755   0.463
10598SOL    HW232694   3.401   2.862   0.543
10599SOL     OW32695   5.488   3.516   6.436
10599SOL    HW132696   5.584   3.516   6.411
10599SOL    HW232697   5.475   3.464   6.520
10600SOL     OW32698   3.473   2.760   1.681
10600SOL    HW132699   3.514   2.673   1.707
10600SOL    HW232700   3.432   2.753   1.591
10601SOL     OW32701   1.415   4.687   5.513
10601SOL    HW132702   1.453   4.630   5.440
10601SOL    HW232703   1.344   4.636   5.561
10602SOL     OW32704   1.359   1.026   1.442
10602SOL    HW132705   1.394   0.962   1.511
10602SOL    HW232706   1.304   0.976   1.375
10603SOL     OW32707   3.957   0.074   3.268
10603SOL    HW132708   4.025   0.001   3.273
10603SOL    HW232709   3.865   0.033   3.264
10604SOL     OW32710   6.410   5.582   5.382
10604SOL    HW132711   6.417   5.490   5.420
10604SOL    HW232712   6.336   5.585   5.315
10605SOL     OW32713   2.407   6.340   6.774
10605SOL    HW132714   2.449   6.362   6.685
10605SOL    HW232715   2.335   6.272   6.760
10606SOL     OW32716   0.507   0.243   0.629
10606SOL    HW132717   0.513   0.176   0.703
10606SOL    HW232718   0.599   0.260   0.593
10607SOL     OW32719   4.164   4.897   6.139
10607SOL    HW132720   4.087   4.878   6.078
10607SOL    HW232721   4.133   4.957   6.213
10608SOL     OW32722   6.661   3.781   4.436
10608SOL    HW132723   6.675   3.868   4.484
10608SOL    HW232724   6.735   3.767   4.370
10609SOL     OW32725   2.880   6.692   0.119
10609SOL    HW132726   2.953   6.652   0.063
10609SOL    HW232727   2.885   6.654   0.211
10610SOL     OW32728   0.813   2.503   4.250
10610SOL    HW132729   0.715   2.515   4.233
10610SOL    HW232730   0.841   2.412   4.219
10611SOL     OW32731   2.670   4.598   6.813
10611SOL    HW132732   2.726   4.665   6.862
10611SOL    HW232733   2.692   4.601   6.716
10612SOL     OW32734   4.120   1.865   4.655
10612SOL    HW132735   4.056   1.915   4.713
10612SOL    HW232736   4.169   1.797   4.710
10613SOL     OW32737   5.669   5.856   5.784
10613SOL    HW132738   5.759   5.882   5.818
10613SOL    HW232739   5.612   5.827   5.861
10614SOL     OW32740   4.772   1.592   4.994
10614SOL    HW132741   4.831   1.521   5.032
10614SOL    HW232742   4.686   1.595   5.046
10615SOL     OW32743   3.932   1.031   6.035
10615SOL    HW132744   4.016   1.062   5.990
10615SOL    HW232745   3.858   1.027   5.969
10616SOL     OW32746   2.324   0.020   7.006
10616SOL    HW132747   2.242   0.078   7.010
10616SOL    HW232748   2.325   6.975   0.065
10617SOL     OW32749   3.238   4.112   1.226
10617SOL    HW132750   3.189   4.024   1.224
10617SOL    HW232751   3.337   4.094   1.216
10618SOL     OW32752   1.225   4.126   6.038
10618SOL    HW132753   1.129   4.108   6.018
10618SOL    HW232754   1.276   4.040   6.037
10619SOL     OW32755   0.494   3.540   3.715
10619SOL    HW132756   0.402   3.505   3.733
10619SOL    HW232757   0.533   3.578   3.799
10620SOL     OW32758   1.014   6.747   4.980
10620SOL    HW132759   1.024   6.652   5.011
10620SOL    HW232760   1.052   6.755   4.887
10621SOL     OW32761   1.007   4.856   1.869
10621SOL    HW132762   1.095   4.903   1.863
10621SOL    HW232763   0.954   4.873   1.786
10622SOL     OW32764   5.380   1.512   2.584
10622SOL    HW132765   5.472   1.534   2.551
10622SOL    HW232766   5.314   1.531   2.512
10623SOL     OW32767   6.881   5.467   6.216
10623SOL    HW132768   6.800   5.434   6.266
10623SOL    HW232769   6.944   5.391   6.201
10624SOL     OW32770   0.765   2.163   5.204
10624SOL    HW132771   0.718   2.246   5.234
10624SOL    HW232772   0.864   2.175   5.213
10625SOL     OW32773   0.372   4.789   1.384
10625SOL    HW132774   0.283   4.801   1.339
10625SOL    HW232775   0.408   4.699   1.362
10626SOL     OW32776   3.561   2.794   1.111
10626SOL    HW132777   3.641   2.741   1.083
10626SOL    HW232778   3.508   2.820   1.030
10627SOL     OW32779   5.791   1.335   7.013
10627SOL    HW132780   5.788   1.333   6.913
10627SOL    HW232781   5.785   1.242   0.031
10628SOL     OW32782   4.769   6.213   1.201
10628SOL    HW132783   4.814   6.302   1.211
10628SOL    HW232784   4.836   6.145   1.172
10629SOL     OW32785   2.405   4.965   4.882
10629SOL    HW132786   2.390   4.875   4.841
10629SOL    HW232787   2.405   5.035   4.810
10630SOL     OW32788   6.649   1.806   3.288
10630SOL    HW132789   6.695   1.893   3.308
10630SOL    HW232790   6.551   1.822   3.278
10631SOL     OW32791   3.404   5.291   5.248
10631SOL    HW132792   3.445   5.231   5.179
10631SOL    HW232793   3.308   5.307   5.225
10632SOL     OW32794   5.235   7.013   3.758
10632SOL    HW132795   5.151   0.046   3.738
10632SOL    HW232796   5.314   0.045   3.722
10633SOL     OW32797   2.856   2.360   1.466
10633SOL    HW132798   2.796   2.403   1.399
10633SOL    HW232799   2.816   2.275   1.498
10634SOL     OW32800   2.193   4.159   0.404
10634SOL    HW132801   2.215   4.244   0.452
10634SOL    HW232802   2.257   4.088   0.432
10635SOL     OW32803   1.687   3.713   6.577
10635SOL    HW132804   1.689   3.795   6.635
10635SOL    HW232805   1.592   3.685   6.562
10636SOL     OW32806   0.306   2.182   1.123
10636SOL    HW132807   0.358   2.169   1.038
10636SOL    HW232808   0.209   2.190   1.101
10637SOL     OW32809   1.005   4.524   5.971
10637SOL    HW132810   1.037   4.440   5.928
10637SOL    HW232811   0.907   4.533   5.959
10638SOL     OW32812   5.763   5.805   2.596
10638SOL    HW132813   5.850   5.821   2.642
10638SOL    HW232814   5.692   5.863   2.636
10639SOL     OW32815   0.917   3.986   3.339
10639SOL    HW132816   0.907   3.908   3.278
10639SOL    HW232817   1.007   4.029   3.323
10640SOL     OW32818   5.018   6.898   4.140
10640SOL    HW132819   4.944   6.878   4.076
10640SOL    HW232820   5.011   6.993   4.171
10641SOL     OW32821   2.288   1.884   2.580
10641SOL    HW132822   2.254   1.943   2.506
10641SOL    HW232823   2.237   1.902   2.664
10642SOL     OW32824   5.925   2.229   0.572
10642SOL    HW132825   6.003   2.177   0.538
10642SOL    HW232826   5.910   2.206   0.669
10643SOL     OW32827   1.621   6.201   4.771
10643SOL    HW132828   1.697   6.157   4.724
10643SOL    HW232829   1.657   6.266   4.838
10644SOL     OW32830   5.915   2.557   1.869
10644SOL    HW132831   5.884   2.566   1.774
10644SOL    HW232832   5.932   2.648   1.907
10645SOL     OW32833   2.134   2.374   4.829
10645SOL    HW132834   2.146   2.467   4.792
10645SOL    HW232835   2.038   2.348   4.820
10646SOL     OW32836   0.437   6.597   5.864
10646SOL    HW132837   0.411   6.500   5.860
10646SOL    HW232838   0.358   6.654   5.839
10647SOL     OW32839   3.185   5.449   5.032
10647SOL    HW132840   3.187   5.384   4.956
10647SOL    HW232841   3.267   5.506   5.030
10648SOL     OW32842   5.801   4.093   6.354
10648SOL    HW132843   5.891   4.102   6.396
10648SOL    HW232844   5.783   4.172   6.296
10649SOL     OW32845   0.825   4.531   2.967
10649SOL    HW132846   0.752   4.561   2.905
10649SOL    HW232847   0.891   4.476   2.916
10650SOL     OW32848   0.587   0.366   3.497
10650SOL    HW132849   0.609   0.289   3.437
10650SOL    HW232850   0.602   0.452   3.449
10651SOL     OW32851   5.723   6.333   6.864
10651SOL    HW132852   5.675   6.409   6.820
10651SOL    HW232853   5.656   6.269   6.901
10652SOL     OW32854   3.587   6.707   5.629
10652SOL    HW132855   3.650   6.634   5.602
10652SOL    HW232856   3.514   6.716   5.561
10653SOL     OW32857   4.756   5.679   4.508
10653SOL    HW132858   4.807   5.622   4.443
10653SOL    HW232859   4.731   5.765   4.464
10654SOL     OW32860   5.501   0.604   0.317
10654SOL    HW132861   5.403   0.594   0.301
10654SOL    HW232862   5.544   0.644   0.236
10655SOL     OW32863   2.312   5.113   0.608
10655SOL    HW132864   2.269   5.046   0.548
10655SOL    HW232865   2.284   5.205   0.581
10656SOL     OW32866   0.437   2.082   2.982
10656SOL    HW132867   0.390   2.154   3.032
10656SOL    HW232868   0.470   2.118   2.894
10657SOL     OW32869   5.503   0.398   5.619
10657SOL    HW132870   5.432   0.408   5.549
10657SOL    HW232871   5.549   0.486   5.632
10658SOL     OW32872   6.515   4.794   4.648
10658SOL    HW132873   6.416   4.781   4.639
10658SOL    HW232874   6.539   4.884   4.612
10659SOL     OW32875   0.492   5.488   1.636
10659SOL    HW132876   0.419   5.557   1.643
10659SOL    HW232877   0.579   5.529   1.662
10660SOL     OW32878   5.006   3.608   6.012
10660SOL    HW132879   5.083   3.672   6.007
10660SOL    HW232880   4.934   3.647   6.068
10661SOL     OW32881   1.610   6.888   1.837
10661SOL    HW132882   1.552   6.893   1.918
10661SOL    HW232883   1.634   6.792   1.819
10662SOL     OW32884   5.112   0.353   2.227
10662SOL    HW132885   5.076   0.445   2.213
10662SOL    HW232886   5.195   0.357   2.282
10663SOL     OW32887   0.613   2.092   2.609
10663SOL    HW132888   0.623   2.192   2.599
10663SOL    HW232889   0.680   2.059   2.675
10664SOL     OW32890   6.371   4.086   4.916
10664SOL    HW132891   6.316   4.142   4.854
10664SOL    HW232892   6.417   4.014   4.863
10665SOL     OW32893   0.529   1.930   0.379
10665SOL    HW132894   0.473   2.000   0.335
10665SOL    HW232895   0.608   1.972   0.422
10666SOL     OW32896   4.123   3.510   2.046
10666SOL    HW132897   4.142   3.426   1.995
10666SOL    HW232898   4.143   3.589   1.989
10667SOL     OW32899   4.743   2.495   4.359
10667SOL    HW132900   4.838   2.485   4.329
10667SOL    HW232901   4.703   2.574   4.312
10668SOL     OW32902   2.537   0.311   5.027
10668SOL    HW132903   2.600   0.376   5.069
10668SOL    HW232904   2.479   0.359   4.961
10669SOL     OW32905   5.894   0.195   2.028
10669SOL    HW132906   5.799   0.170   2.048
10669SOL    HW232907   5.911   0.186   1.929
10670SOL     OW32908   5.587   4.702   5.293
10670SOL    HW132909   5.546   4.681   5.205
10670SOL    HW232910   5.592   4.620   5.349
10671SOL     OW32911   2.454   2.622   3.213
10671SOL    HW132912   2.531   2.562   3.193
10671SOL    HW232913   2.377   2.600   3.152
10672SOL     OW32914   6.471   3.236   1.382
10672SOL    HW132915   6.448   3.278   1.294
10672SOL    HW232916   6.405   3.165   1.404
10673SOL     OW32917   0.876   0.955   6.751
10673SOL    HW132918   0.917   0.923   6.666
10673SOL    HW232919   0.806   0.891   6.781
10674SOL     OW32920   3.341   3.816   2.069
10674SOL    HW132921   3.317   3.904   2.112
10674SOL    HW232922   3.261   3.781   2.020
10675SOL     OW32923   1.794   6.614   6.435
10675SOL    HW132924   1.706   6.653   6.407
10675SOL    HW232925   1.794   6.599   6.534
10676SOL     OW32926   6.546   5.800   5.574
10676SOL    HW132927   6.493   5.833   5.652
10676SOL    HW232928   6.484   5.765   5.505
10677SOL     OW32929   1.207   0.958   1.851
10677SOL    HW132930   1.190   0.866   1.815
10677SOL    HW232931   1.281   0.953   1.919
10678SOL     OW32932   4.346   4.893   3.830
10678SOL    HW132933   4.389   4.902   3.740
10678SOL    HW232934   4.409   4.848   3.893
10679SOL     OW32935   4.675   5.334   6.695
10679SOL    HW132936   4.599   5.269   6.680
10679SOL    HW232937   4.756   5.283   6.724
10680SOL     OW32938   3.751   1.729   3.800
10680SOL    HW132939   3.702   1.656   3.846
10680SOL    HW232940   3.784   1.795   3.868
10681SOL     OW32941   0.970   3.688   0.624
10681SOL    HW132942   0.906   3.611   0.619
10681SOL    HW232943   1.054   3.658   0.669
10682SOL     OW32944   0.786   1.350   5.573
10682SOL    HW132945   0.716   1.405   5.617
10682SOL    HW232946   0.810   1.389   5.484
10683SOL     OW32947   3.604   2.076   3.482
10683SOL    HW132948   3.698   2.087   3.450
10683SOL    HW232949   3.605   2.048   3.578
10684SOL     OW32950   5.233   4.299   2.572
10684SOL    HW132951   5.256   4.245   2.490
10684SOL    HW232952   5.170   4.246   2.630
10685SOL     OW32953   0.678   5.929   2.276
10685SOL    HW132954   0.763   5.978   2.298
10685SOL    HW232955   0.679   5.839   2.320
10686SOL     OW32956   0.558   4.579   6.384
10686SOL    HW132957   0.541   4.488   6.346
10686SOL    HW232958   0.541   4.648   6.314
10687SOL     OW32959   5.871   5.885   2.862
10687SOL    HW132960   5.959   5.914   2.825
10687SOL    HW232961   5.849   5.939   2.943
10688SOL     OW32962   6.755   3.939   2.168
10688SOL    HW132963   6.833   3.946   2.231
10688SOL    HW232964   6.678   3.991   2.205
10689SOL     OW32965   0.233   5.832   3.423
10689SOL    HW132966   0.241   5.774   3.504
10689SOL    HW232967   0.155   5.802   3.369
10690SOL     OW32968   6.829   6.096   3.690
10690SOL    HW132969   6.912   6.137   3.729
10690SOL    HW232970   6.767   6.070   3.764
10691SOL     OW32971   0.445   2.428   2.290
10691SOL    HW132972   0.404   2.502   2.237
10691SOL    HW232973   0.529   2.398   2.245
10692SOL     OW32974   3.194   5.702   3.690
10692SOL    HW132975   3.242   5.717   3.776
10692SOL    HW232976   3.240   5.752   3.617
10693SOL     OW32977   2.326   5.954   0.115
10693SOL    HW132978   2.418   5.925   0.142
10693SOL    HW232979   2.268   5.962   0.196
10694SOL     OW32980   5.546   6.372   1.968
10694SOL    HW132981   5.551   6.365   1.868
10694SOL    HW232982   5.459   6.414   1.994
10695SOL     OW32983   6.729   2.310   2.778
10695SOL    HW132984   6.780   2.301   2.863
10695SOL    HW232985   6.701   2.220   2.746
10696SOL     OW32986   0.401   3.907   3.568
10696SOL    HW132987   0.483   3.849   3.566
10696SOL    HW232988   0.424   3.997   3.529
10697SOL     OW32989   6.870   5.715   5.289
10697SOL    HW132990   6.818   5.784   5.238
10697SOL    HW232991   6.935   5.670   5.227
10698SOL     OW32992   4.767   5.026   5.844
10698SOL    HW132993   4.709   5.037   5.764
10698SOL    HW232994   4.711   5.022   5.927
10699SOL     OW32995   4.141   3.256   1.921
10699SOL    HW132996   4.078   3.212   1.985
10699SOL    HW232997   4.214   3.193   1.897
10700SOL     OW32998   0.216   6.711   1.265
10700SOL    HW132999   0.237   6.762   1.348
10700SOL    HW233000   0.128   6.740   1.229
10701SOL     OW33001   3.549   5.912   0.221
10701SOL    HW133002   3.464   5.909   0.272
10701SOL    HW233003   3.536   5.965   0.137
10702SOL     OW33004   5.895   2.676   1.622
10702SOL    HW133005   5.914   2.774   1.636
10702SOL    HW233006   5.894   2.657   1.524
10703SOL     OW33007   3.078   3.258   4.769
10703SOL    HW133008   3.165   3.247   4.817
10703SOL    HW233009   3.095   3.296   4.678
10704SOL     OW33010   6.391   5.784   1.675
10704SOL    HW133011   6.312   5.845   1.673
10704SOL    HW233012   6.384   5.718   1.601
10705SOL     OW33013   6.274   4.099   1.823
10705SOL    HW133014   6.244   4.194   1.811
10705SOL    HW233015   6.347   4.079   1.758
10706SOL     OW33016   4.995   6.477   1.456
10706SOL    HW133017   4.993   6.504   1.552
10706SOL    HW233018   4.963   6.553   1.399
10707SOL     OW33019   0.280   6.346   4.470
10707SOL    HW133020   0.248   6.291   4.393
10707SOL    HW233021   0.377   6.365   4.461
10708SOL     OW33022   3.841   0.239   2.166
10708SOL    HW133023   3.756   0.231   2.113
10708SOL    HW233024   3.877   0.148   2.187
10709SOL     OW33025   6.194   5.785   4.996
10709SOL    HW133026   6.217   5.797   4.899
10709SOL    HW233027   6.278   5.785   5.050
10710SOL     OW33028   0.300   6.429   4.816
10710SOL    HW133029   0.384   6.374   4.826
10710SOL    HW233030   0.223   6.368   4.800
10711SOL     OW33031   1.178   6.016   4.086
10711SOL    HW133032   1.172   5.934   4.029
10711SOL    HW233033   1.092   6.031   4.133
10712SOL     OW33034   3.000   1.204   1.237
10712SOL    HW133035   3.026   1.201   1.334
10712SOL    HW233036   3.014   1.296   1.202
10713SOL     OW33037   0.887   3.530   1.508
10713SOL    HW133038   0.986   3.534   1.493
10713SOL    HW233039   0.841   3.593   1.446
10714SOL     OW33040   6.205   4.054   4.622
10714SOL    HW133041   6.264   4.133   4.637
10714SOL    HW233042   6.156   4.032   4.707
10715SOL     OW33043   5.448   0.206   2.621
10715SOL    HW133044   5.462   0.303   2.638
10715SOL    HW233045   5.423   0.160   2.705
10716SOL     OW33046   5.820   2.394   4.499
10716SOL    HW133047   5.908   2.370   4.459
10716SOL    HW233048   5.771   2.311   4.525
10717SOL     OW33049   1.192   2.659   0.498
10717SOL    HW133050   1.291   2.653   0.485
10717SOL    HW233051   1.145   2.620   0.418
10718SOL     OW33052   0.846   2.230   6.453
10718SOL    HW133053   0.900   2.311   6.431
10718SOL    HW233054   0.857   2.162   6.380
10719SOL     OW33055   5.782   5.625   1.261
10719SOL    HW133056   5.867   5.678   1.268
10719SOL    HW233057   5.804   5.529   1.243
10720SOL     OW33058   0.014   3.901   5.267
10720SOL    HW133059   0.017   3.869   5.361
10720SOL    HW233060   0.072   3.982   5.257
10721SOL     OW33061   5.721   3.897   4.901
10721SOL    HW133062   5.626   3.881   4.928
10721SOL    HW233063   5.765   3.809   4.883
10722SOL     OW33064   0.964   4.299   0.884
10722SOL    HW133065   0.975   4.280   0.982
10722SOL    HW233066   0.880   4.257   0.851
10723SOL     OW33067   0.648   3.704   6.216
10723SOL    HW133068   0.665   3.723   6.313
10723SOL    HW233069   0.637   3.790   6.166
10724SOL     OW33070   5.012   0.912   6.803
10724SOL    HW133071   4.958   0.911   6.719
10724SOL    HW233072   5.088   0.977   6.793
10725SOL     OW33073   0.778   4.454   4.838
10725SOL    HW133074   0.858   4.412   4.881
10725SOL    HW233075   0.800   4.477   4.743
10726SOL     OW33076   5.135   0.157   5.042
10726SOL    HW133077   5.082   0.090   4.990
10726SOL    HW233078   5.170   0.115   5.126
10727SOL     OW33079   0.275   4.880   4.217
10727SOL    HW133080   0.188   4.830   4.205
10727SOL    HW233081   0.256   4.977   4.230
10728SOL     OW33082   6.763   6.363   0.284
10728SOL    HW133083   6.689   6.431   0.288
10728SOL    HW233084   6.833   6.387   0.351
10729SOL     OW33085   5.755   1.200   2.923
10729SOL    HW133086   5.750   1.270   2.852
10729SOL    HW233087   5.689   1.127   2.903
10730SOL     OW33088   2.374   6.990   2.239
10730SOL    HW133089   2.290   6.944   2.269
10730SOL    HW233090   2.403   6.953   2.150
10731SOL     OW33091   3.026   6.072   0.508
10731SOL    HW133092   3.097   6.138   0.532
10731SOL    HW233093   2.973   6.048   0.590
10732SOL     OW33094   5.035   4.975   3.052
10732SOL    HW133095   4.961   5.041   3.042
10732SOL    HW233096   5.048   4.926   2.966
10733SOL     OW33097   5.235   2.066   6.906
10733SOL    HW133098   5.157   2.018   6.866
10733SOL    HW233099   5.213   2.163   6.916
10734SOL     OW33100   1.664   6.696   0.127
10734SOL    HW133101   1.757   6.699   0.089
10734SOL    HW233102   1.631   6.789   0.142
10735SOL     OW33103   1.511   4.265   2.740
10735SOL    HW133104   1.602   4.224   2.752
10735SOL    HW233105   1.476   4.294   2.829
10736SOL     OW33106   0.050   0.214   3.561
10736SOL    HW133107   0.028   0.192   3.466
10736SOL    HW233108   0.058   0.313   3.571
10737SOL     OW33109   1.559   1.906   0.056
10737SOL    HW133110   1.477   1.962   0.067
10737SOL    HW233111   1.573   1.850   0.138
10738SOL     OW33112   2.424   0.669   3.577
10738SOL    HW133113   2.467   0.753   3.611
10738SOL    HW233114   2.431   0.665   3.478
10739SOL     OW33115   0.538   1.042   0.966
10739SOL    HW133116   0.515   1.052   0.870
10739SOL    HW233117   0.457   1.061   1.022
10740SOL     OW33118   0.678   4.724   5.796
10740SOL    HW133119   0.589   4.742   5.752
10740SOL    HW233120   0.722   4.646   5.751
10741SOL     OW33121   0.207   0.543   2.742
10741SOL    HW133122   0.256   0.475   2.687
10741SOL    HW233123   0.232   0.635   2.712
10742SOL     OW33124   6.067   0.412   1.995
10742SOL    HW133125   6.152   0.367   1.972
10742SOL    HW233126   5.996   0.343   2.013
10743SOL     OW33127   2.296   2.223   5.506
10743SOL    HW133128   2.264   2.317   5.521
10743SOL    HW233129   2.225   2.171   5.458
10744SOL     OW33130   2.876   1.664   2.450
10744SOL    HW133131   2.835   1.708   2.371
10744SOL    HW233132   2.829   1.694   2.533
10745SOL     OW33133   1.025   4.922   0.847
10745SOL    HW133134   1.055   4.829   0.868
10745SOL    HW233135   1.064   4.986   0.914
10746SOL     OW33136   1.932   3.715   1.287
10746SOL    HW133137   1.985   3.633   1.308
10746SOL    HW233138   1.836   3.699   1.312
10747SOL     OW33139   4.247   0.763   3.196
10747SOL    HW133140   4.343   0.772   3.170
10747SOL    HW233141   4.241   0.720   3.286
10748SOL     OW33142   3.600   0.780   1.609
10748SOL    HW133143   3.509   0.800   1.571
10748SOL    HW233144   3.670   0.812   1.545
10749SOL     OW33145   6.869   5.160   3.524
10749SOL    HW133146   6.774   5.131   3.532
10749SOL    HW233147   6.874   5.253   3.489
10750SOL     OW33148   4.304   6.074   4.412
10750SOL    HW133149   4.379   6.140   4.407
10750SOL    HW233150   4.218   6.123   4.422
10751SOL     OW33151   1.582   4.436   4.606
10751SOL    HW133152   1.607   4.400   4.696
10751SOL    HW233153   1.656   4.417   4.541
10752SOL     OW33154   6.006   3.747   6.039
10752SOL    HW133155   5.949   3.773   5.962
10752SOL    HW233156   5.965   3.780   6.124
10753SOL     OW33157   3.767   6.646   4.646
10753SOL    HW133158   3.692   6.581   4.638
10753SOL    HW233159   3.848   6.599   4.681
10754SOL     OW33160   1.104   1.900   3.589
10754SOL    HW133161   1.089   1.983   3.643
10754SOL    HW233162   1.028   1.886   3.527
10755SOL     OW33163   0.837   1.427   6.724
10755SOL    HW133164   0.800   1.450   6.814
10755SOL    HW233165   0.927   1.385   6.734
10756SOL     OW33166   6.633   4.171   0.006
10756SOL    HW133167   6.626   4.154   6.926
10756SOL    HW233168   6.551   4.219   0.037
10757SOL     OW33169   1.298   2.878   6.790
10757SOL    HW133170   1.396   2.857   6.784
10757SOL    HW233171   1.279   2.923   6.876
10758SOL     OW33172   0.824   6.579   5.487
10758SOL    HW133173   0.747   6.580   5.550
10758SOL    HW233174   0.803   6.636   5.407
10759SOL     OW33175   1.671   2.746   6.949
10759SOL    HW133176   1.621   2.832   6.956
10759SOL    HW233177   1.669   2.700   0.020
10760SOL     OW33178   6.188   1.280   0.918
10760SOL    HW133179   6.243   1.318   0.844
10760SOL    HW233180   6.232   1.299   1.006
10761SOL     OW33181   1.390   1.676   6.124
10761SOL    HW133182   1.347   1.617   6.056
10761SOL    HW233183   1.340   1.670   6.210
10762SOL     OW33184   3.725   1.991   5.146
10762SOL    HW133185   3.803   2.038   5.189
10762SOL    HW233186   3.705   2.035   5.058
10763SOL     OW33187   4.355   6.515   1.097
10763SOL    HW133188   4.284   6.580   1.124
10763SOL    HW233189   4.332   6.424   1.133
10764SOL     OW33190   5.554   2.077   6.022
10764SOL    HW133191   5.499   2.159   6.004
10764SOL    HW233192   5.595   2.084   6.113
10765SOL     OW33193   5.545   2.570   1.004
10765SOL    HW133194   5.461   2.545   1.053
10765SOL    HW233195   5.593   2.487   0.977
10766SOL     OW33196   3.746   2.856   1.494
10766SOL    HW133197   3.800   2.852   1.410
10766SOL    HW233198   3.650   2.836   1.473
10767SOL     OW33199   1.050   0.309   0.222
10767SOL    HW133200   1.032   0.374   0.148
10767SOL    HW233201   1.146   0.282   0.220
10768SOL     OW33202   4.282   4.966   0.898
10768SOL    HW133203   4.335   4.967   0.983
10768SOL    HW233204   4.189   4.999   0.917
10769SOL     OW33205   2.206   4.911   4.596
10769SOL    HW133206   2.263   4.845   4.645
10769SOL    HW233207   2.131   4.941   4.655
10770SOL     OW33208   5.396   0.185   5.011
10770SOL    HW133209   5.297   0.176   5.016
10770SOL    HW233210   5.429   0.143   4.927
10771SOL     OW33211   5.137   1.182   3.968
10771SOL    HW133212   5.182   1.218   3.887
10771SOL    HW233213   5.069   1.113   3.941
10772SOL     OW33214   6.995   6.588   4.753
10772SOL    HW133215   0.048   6.659   4.754
10772SOL    HW233216   0.018   6.501   4.726
10773SOL     OW33217   0.185   5.428   0.025
10773SOL    HW133218   0.142   5.475   6.966
10773SOL    HW233219   0.282   5.452   0.028
10774SOL     OW33220   2.008   1.403   6.244
10774SOL    HW133221   2.004   1.381   6.342
10774SOL    HW233222   2.066   1.483   6.231
10775SOL     OW33223   0.332   2.917   0.523
10775SOL    HW133224   0.360   2.823   0.545
10775SOL    HW233225   0.411   2.968   0.488
10776SOL     OW33226   1.396   6.399   0.109
10776SOL    HW133227   1.424   6.305   0.131
10776SOL    HW233228   1.358   6.401   0.016
10777SOL     OW33229   3.437   6.019   3.782
10777SOL    HW133230   3.395   6.101   3.821
10777SOL    HW233231   3.515   5.991   3.838
10778SOL     OW33232   5.318   6.573   5.081
10778SOL    HW133233   5.402   6.584   5.028
10778SOL    HW233234   5.239   6.601   5.025
10779SOL     OW33235   6.584   4.743   3.179
10779SOL    HW133236   6.492   4.712   3.205
10779SOL    HW233237   6.579   4.838   3.146
10780SOL     OW33238   1.471   0.508   3.819
10780SOL    HW133239   1.507   0.464   3.737
10780SOL    HW233240   1.524   0.591   3.838
10781SOL     OW33241   4.031   0.924   3.221
10781SOL    HW133242   3.985   0.870   3.291
10781SOL    HW233243   4.121   0.884   3.202
10782SOL     OW33244   6.508   2.359   3.562
10782SOL    HW133245   6.584   2.394   3.617
10782SOL    HW233246   6.424   2.407   3.586
10783SOL     OW33247   0.750   3.254   3.637
10783SOL    HW133248   0.825   3.188   3.645
10783SOL    HW233249   0.772   3.336   3.690
10784SOL     OW33250   3.322   1.065   3.824
10784SOL    HW133251   3.392   1.067   3.752
10784SOL    HW233252   3.326   0.978   3.872
10785SOL     OW33253   0.025   5.302   1.351
10785SOL    HW133254   6.964   5.276   1.407
10785SOL    HW233255   0.090   5.354   1.407
10786SOL     OW33256   4.895   5.122   2.684
10786SOL    HW133257   4.867   5.047   2.744
10786SOL    HW233258   4.837   5.201   2.701
10787SOL     OW33259   2.701   1.497   4.525
10787SOL    HW133260   2.706   1.414   4.580
10787SOL    HW233261   2.696   1.577   4.585
10788SOL     OW33262   2.461   5.188   6.315
10788SOL    HW133263   2.427   5.114   6.374
10788SOL    HW233264   2.534   5.153   6.256
10789SOL     OW33265   6.532   2.746   6.913
10789SOL    HW133266   6.537   2.790   6.823
10789SOL    HW233267   6.440   2.758   6.951
10790SOL     OW33268   1.139   1.061   2.389
10790SOL    HW133269   1.097   1.108   2.311
10790SOL    HW233270   1.098   0.970   2.399
10791SOL     OW33271   0.625   0.072   0.273
10791SOL    HW133272   0.600   0.012   0.349
10791SOL    HW233273   0.640   0.017   0.191
10792SOL     OW33274   3.522   3.602   3.165
10792SOL    HW133275   3.578   3.668   3.114
10792SOL    HW233276   3.480   3.649   3.243
10793SOL     OW33277   5.571   2.393   3.991
10793SOL    HW133278   5.545   2.315   3.934
10793SOL    HW233279   5.546   2.478   3.944
10794SOL     OW33280   2.987   3.799   3.870
10794SOL    HW133281   2.936   3.765   3.949
10794SOL    HW233282   2.997   3.726   3.802
10795SOL     OW33283   0.012   4.149   2.963
10795SOL    HW133284   6.982   4.118   3.045
10795SOL    HW233285   0.109   4.161   2.983
10796SOL     OW33286   5.713   6.900   0.765
10796SOL    HW133287   5.715   6.810   0.722
10796SOL    HW233288   5.787   6.907   0.832
10797SOL     OW33289   3.852   1.889   2.014
10797SOL    HW133290   3.871   1.967   1.955
10797SOL    HW233291   3.932   1.872   2.073
10798SOL     OW33292   2.559   6.427   0.448
10798SOL    HW133293   2.564   6.415   0.349
10798SOL    HW233294   2.649   6.408   0.488
10799SOL     OW33295   3.513   0.737   2.635
10799SOL    HW133296   3.567   0.681   2.572
10799SOL    HW233297   3.447   0.679   2.683
10800SOL     OW33298   0.438   0.083   6.981
10800SOL    HW133299   0.482   0.085   6.891
10800SOL    HW233300   0.483   0.014   0.020
10801SOL     OW33301   0.550   6.488   6.450
10801SOL    HW133302   0.577   6.582   6.431
10801SOL    HW233303   0.601   6.454   6.529
10802SOL     OW33304   0.999   2.733   3.298
10802SOL    HW133305   0.993   2.635   3.278
10802SOL    HW233306   0.917   2.761   3.349
10803SOL     OW33307   3.053   3.396   5.832
10803SOL    HW133308   3.055   3.409   5.931
10803SOL    HW233309   3.107   3.315   5.808
10804SOL     OW33310   5.669   3.881   1.801
10804SOL    HW133311   5.690   3.870   1.703
10804SOL    HW233312   5.752   3.907   1.850
10805SOL     OW33313   3.738   0.228   0.269
10805SOL    HW133314   3.817   0.280   0.302
10805SOL    HW233315   3.770   0.142   0.228
10806SOL     OW33316   4.630   3.526   6.200
10806SOL    HW133317   4.556   3.471   6.160
10806SOL    HW233318   4.713   3.471   6.206
10807SOL     OW33319   1.349   0.229   2.325
10807SOL    HW133320   1.385   0.182   2.405
10807SOL    HW233321   1.379   0.182   2.242
10808SOL     OW33322   6.169   3.091   6.309
10808SOL    HW133323   6.165   3.177   6.259
10808SOL    HW233324   6.181   3.109   6.407
10809SOL     OW33325   2.890   6.177   3.461
10809SOL    HW133326   2.958   6.218   3.399
10809SOL    HW233327   2.884   6.233   3.544
10810SOL     OW33328   2.159   0.477   5.084
10810SOL    HW133329   2.100   0.554   5.062
10810SOL    HW233330   2.112   0.391   5.062
10811SOL     OW33331   4.096   4.706   5.535
10811SOL    HW133332   4.113   4.652   5.453
10811SOL    HW233333   3.997   4.717   5.547
10812SOL     OW33334   0.897   3.207   1.387
10812SOL    HW133335   0.974   3.249   1.338
10812SOL    HW233336   0.890   3.111   1.362
10813SOL     OW33337   2.355   4.988   6.460
10813SOL    HW133338   2.331   4.892   6.443
10813SOL    HW233339   2.298   5.024   6.534
10814SOL     OW33340   1.563   6.708   6.336
10814SOL    HW133341   1.516   6.718   6.248
10814SOL    HW233342   1.495   6.705   6.410
10815SOL     OW33343   4.592   4.518   4.263
10815SOL    HW133344   4.673   4.574   4.244
10815SOL    HW233345   4.615   4.421   4.251
10816SOL     OW33346   2.371   2.591   1.374
10816SOL    HW133347   2.321   2.572   1.289
10816SOL    HW233348   2.451   2.647   1.354
10817SOL     OW33349   5.125   6.742   2.866
10817SOL    HW133350   5.090   6.753   2.773
10817SOL    HW233351   5.070   6.674   2.914
10818SOL     OW33352   4.451   4.721   5.370
10818SOL    HW133353   4.530   4.778   5.393
10818SOL    HW233354   4.439   4.653   5.442
10819SOL     OW33355   6.894   4.533   6.637
10819SOL    HW133356   6.921   4.629   6.627
10819SOL    HW233357   6.959   4.475   6.587
10820SOL     OW33358   5.705   5.704   4.195
10820SOL    HW133359   5.651   5.762   4.134
10820SOL    HW233360   5.733   5.757   4.275
10821SOL     OW33361   5.764   6.901   2.008
10821SOL    HW133362   5.677   6.865   1.974
10821SOL    HW233363   5.747   6.958   2.089
10822SOL     OW33364   0.107   3.102   2.942
10822SOL    HW133365   0.115   3.129   3.038
10822SOL    HW233366   0.148   3.012   2.930
10823SOL     OW33367   1.808   5.767   1.787
10823SOL    HW133368   1.794   5.678   1.742
10823SOL    HW233369   1.727   5.790   1.842
10824SOL     OW33370   6.410   0.702   3.798
10824SOL    HW133371   6.483   0.674   3.736
10824SOL    HW233372   6.354   0.773   3.754
10825SOL     OW33373   2.959   0.574   6.175
10825SOL    HW133374   2.900   0.654   6.165
10825SOL    HW233375   3.028   0.575   6.103
10826SOL     OW33376   0.998   3.127   3.564
10826SOL    HW133377   1.043   3.216   3.577
10826SOL    HW233378   1.067   3.058   3.542
10827SOL     OW33379   5.916   4.080   4.573
10827SOL    HW133380   5.968   3.995   4.561
10827SOL    HW233381   5.832   4.076   4.520
10828SOL     OW33382   1.138   5.967   1.877
10828SOL    HW133383   1.102   6.037   1.939
10828SOL    HW233384   1.093   5.880   1.894
10829SOL     OW33385   3.950   2.358   1.218
10829SOL    HW133386   3.919   2.282   1.276
10829SOL    HW233387   3.982   2.323   1.130
10830SOL     OW33388   5.339   1.737   3.471
10830SOL    HW133389   5.432   1.751   3.503
10830SOL    HW233390   5.325   1.785   3.385
10831SOL     OW33391   3.727   5.752   2.556
10831SOL    HW133392   3.643   5.752   2.611
10831SOL    HW233393   3.703   5.756   2.459
10832SOL     OW33394   1.388   2.520   0.209
10832SOL    HW133395   1.302   2.566   0.190
10832SOL    HW233396   1.379   2.467   0.294
10833SOL     OW33397   2.088   0.951   2.069
10833SOL    HW133398   2.176   0.952   2.022
10833SOL    HW233399   2.067   0.858   2.098
10834SOL     OW33400   0.809   1.884   6.473
10834SOL    HW133401   0.820   1.788   6.498
10834SOL    HW233402   0.877   1.909   6.404
10835SOL     OW33403   6.347   1.880   0.063
10835SOL    HW133404   6.290   1.860   7.001
10835SOL    HW233405   6.414   1.807   0.074
10836SOL     OW33406   6.706   1.966   4.740
10836SOL    HW133407   6.660   1.904   4.677
10836SOL    HW233408   6.749   1.912   4.813
10837SOL     OW33409   6.858   5.071   0.661
10837SOL    HW133410   6.837   4.975   0.642
10837SOL    HW233411   6.845   5.125   0.578
10838SOL     OW33412   5.562   6.531   4.666
10838SOL    HW133413   5.512   6.571   4.589
10838SOL    HW233414   5.602   6.444   4.638
10839SOL     OW33415   4.426   2.921   1.401
10839SOL    HW133416   4.352   2.882   1.344
10839SOL    HW233417   4.411   3.019   1.413
10840SOL     OW33418   3.207   5.424   2.221
10840SOL    HW133419   3.293   5.462   2.254
10840SOL    HW233420   3.191   5.335   2.264
10841SOL     OW33421   5.316   5.147   6.708
10841SOL    HW133422   5.305   5.243   6.732
10841SOL    HW233423   5.322   5.092   6.791
10842SOL     OW33424   4.883   2.562   1.453
10842SOL    HW133425   4.858   2.520   1.540
10842SOL    HW233426   4.804   2.563   1.392
10843SOL     OW33427   1.479   2.888   1.351
10843SOL    HW133428   1.439   2.876   1.260
10843SOL    HW233429   1.407   2.909   1.417
10844SOL     OW33430   0.201   0.064   3.777
10844SOL    HW133431   0.286   0.104   3.809
10844SOL    HW233432   0.162   0.122   3.705
10845SOL     OW33433   3.260   0.399   5.186
10845SOL    HW133434   3.342   0.352   5.151
10845SOL    HW233435   3.190   0.331   5.207
10846SOL     OW33436   4.829   1.916   0.531
10846SOL    HW133437   4.771   1.900   0.451
10846SOL    HW233438   4.772   1.942   0.609
10847SOL     OW33439   3.608   3.435   6.244
10847SOL    HW133440   3.593   3.338   6.260
10847SOL    HW233441   3.527   3.474   6.199
10848SOL     OW33442   2.953   3.533   6.598
10848SOL    HW133443   2.982   3.522   6.503
10848SOL    HW233444   2.959   3.629   6.624
10849SOL     OW33445   2.641   6.281   2.870
10849SOL    HW133446   2.669   6.324   2.784
10849SOL    HW233447   2.649   6.181   2.861
10850SOL     OW33448   3.437   5.018   6.692
10850SOL    HW133449   3.441   4.977   6.601
10850SOL    HW233450   3.341   5.034   6.717
10851SOL     OW33451   2.221   2.905   6.496
10851SOL    HW133452   2.281   2.940   6.424
10851SOL    HW233453   2.155   2.975   6.521
10852SOL     OW33454   1.119   0.079   6.926
10852SOL    HW133455   1.125   0.084   6.826
10852SOL    HW233456   1.031   0.116   6.956
10853SOL     OW33457   2.896   1.918   5.725
10853SOL    HW133458   2.814   1.969   5.752
10853SOL    HW233459   2.888   1.888   5.631
10854SOL     OW33460   4.350   5.783   5.365
10854SOL    HW133461   4.349   5.876   5.402
10854SOL    HW233462   4.425   5.731   5.407
10855SOL     OW33463   2.868   6.610   1.198
10855SOL    HW133464   2.834   6.703   1.181
10855SOL    HW233465   2.967   6.607   1.183
10856SOL     OW33466   6.103   1.595   1.428
10856SOL    HW133467   6.035   1.550   1.369
10856SOL    HW233468   6.056   1.659   1.489
10857SOL     OW33469   6.454   2.389   2.758
10857SOL    HW133470   6.414   2.391   2.850
10857SOL    HW233471   6.554   2.386   2.766
10858SOL     OW33472   0.591   1.897   6.210
10858SOL    HW133473   0.511   1.895   6.270
10858SOL    HW233474   0.662   1.838   6.247
10859SOL     OW33475   2.186   3.011   3.785
10859SOL    HW133476   2.190   2.928   3.730
10859SOL    HW233477   2.220   2.990   3.877
10860SOL     OW33478   6.390   1.515   5.780
10860SOL    HW133479   6.481   1.514   5.821
10860SOL    HW233480   6.336   1.590   5.819
10861SOL     OW33481   3.550   2.894   3.064
10861SOL    HW133482   3.490   2.877   2.986
10861SOL    HW233483   3.644   2.872   3.040
10862SOL     OW33484   2.620   1.801   5.998
10862SOL    HW133485   2.625   1.774   6.094
10862SOL    HW233486   2.559   1.739   5.948
10863SOL     OW33487   4.152   0.484   3.188
10863SOL    HW133488   4.108   0.423   3.254
10863SOL    HW233489   4.235   0.523   3.230
10864SOL     OW33490   3.087   5.284   0.583
10864SOL    HW133491   3.018   5.221   0.618
10864SOL    HW233492   3.061   5.314   0.491
10865SOL     OW33493   6.504   1.698   2.971
10865SOL    HW133494   6.436   1.693   3.044
10865SOL    HW233495   6.459   1.686   2.883
10866SOL     OW33496   5.122   5.030   0.221
10866SOL    HW133497   5.074   5.086   0.153
10866SOL    HW233498   5.203   4.989   0.179
10867SOL     OW33499   3.248   3.925   0.257
10867SOL    HW133500   3.311   3.898   0.184
10867SOL    HW233501   3.155   3.900   0.231
10868SOL     OW33502   3.158   2.205   3.604
10868SOL    HW133503   3.132   2.238   3.513
10868SOL    HW233504   3.076   2.172   3.652
10869NA      NA33505   0.589   2.112   5.847
10870NA      NA33506   4.419   4.676   5.131
10871NA      NA33507   1.845   4.002   2.575
10872NA      NA33508   4.957   4.146   3.766
10873NA      NA33509   4.218   2.359   5.302
10874NA      NA33510   3.108   4.819   1.798
10875NA      NA33511   6.857   4.533   0.535
10876NA      NA33512   3.441   3.395   3.208
10877NA      NA33513   4.889   5.110   1.030
10878NA      NA33514   3.783   6.554   5.379
10879NA      NA33515   5.980   5.279   1.320
10880NA      NA33516   2.001   1.037   4.696
10881NA      NA33517   3.959   5.128   1.695
10882NA      NA33518   3.977   3.265   1.689
   7.01806   7.01806   7.01806
