Generated by trjconv : CNT in water t= 140.00000
33518
    1C        C    1   2.837   2.763   4.747
    1C        C    2   2.895   2.714   4.866
    1C        C    3   2.839   2.771   4.982
    1C        C    4   2.841   2.763   4.257
    1C        C    5   2.894   2.719   4.381
    1C        C    6   2.841   2.763   4.505
    1C        C    7   3.010   2.637   4.625
    1C        C    8   2.890   2.712   4.627
    1C        C    9   3.071   2.592   4.745
    1C        C   10   3.009   2.631   4.866
    1C        C   11   3.185   2.493   4.978
    1C        C   12   3.059   2.555   4.973
    1C        C   13   2.846   2.766   3.770
    1C        C   14   2.895   2.715   3.892
    1C        C   15   2.840   2.762   4.014
    1C        C   16   3.012   2.636   4.139
    1C        C   17   2.896   2.717   4.135
    1C        C   18   3.076   2.605   4.261
    1C        C   19   3.012   2.643   4.381
    1C        C   20   3.205   2.554   4.503
    1C        C   21   3.073   2.605   4.503
    1C        C   22   3.275   2.525   4.623
    1C        C   23   3.202   2.537   4.743
    1C        C   24   3.410   2.482   4.865
    1C        C   25   3.268   2.495   4.862
    1C        C   26   3.486   2.478   4.983
    1C        C   27   2.843   2.759   3.281
    1C        C   28   2.893   2.713   3.404
    1C        C   29   2.845   2.763   3.527
    1C        C   30   3.014   2.635   3.649
    1C        C   31   2.900   2.718   3.649
    1C        C   32   3.072   2.599   3.773
    1C        C   33   3.010   2.632   3.895
    1C        C   34   3.203   2.543   4.017
    1C        C   35   3.074   2.599   4.017
    1C        C   36   3.273   2.528   4.139
    1C        C   37   3.206   2.551   4.261
    1C        C   38   3.414   2.503   4.380
    1C        C   39   3.276   2.535   4.383
    1C        C   40   3.486   2.497   4.502
    1C        C   41   3.413   2.500   4.623
    1C        C   42   3.626   2.487   4.744
    1C        C   43   3.484   2.481   4.744
    1C        C   44   3.701   2.490   4.864
    1C        C   45   3.625   2.482   4.982
    1C        C   46   2.832   2.745   2.793
    1C        C   47   2.888   2.701   2.915
    1C        C   48   2.839   2.755   3.036
    1C        C   49   3.012   2.633   3.161
    1C        C   50   2.895   2.713   3.158
    1C        C   51   3.074   2.602   3.283
    1C        C   52   3.012   2.636   3.405
    1C        C   53   3.208   2.551   3.527
    1C        C   54   3.075   2.600   3.527
    1C        C   55   3.273   2.529   3.650
    1C        C   56   3.203   2.547   3.772
    1C        C   57   3.410   2.501   3.896
    1C        C   58   3.271   2.527   3.894
    1C        C   59   3.483   2.496   4.017
    1C        C   60   3.412   2.505   4.138
    1C        C   61   3.626   2.502   4.258
    1C        C   62   3.485   2.492   4.259
    1C        C   63   3.699   2.510   4.379
    1C        C   64   3.627   2.505   4.501
    1C        C   65   3.835   2.539   4.620
    1C        C   66   3.697   2.509   4.623
    1C        C   67   3.904   2.561   4.741
    1C        C   68   3.837   2.525   4.861
    1C        C   69   4.043   2.591   4.975
    1C        C   70   3.920   2.525   4.974
    1C        C   71   2.818   2.726   2.306
    1C        C   72   2.878   2.685   2.427
    1C        C   73   2.832   2.741   2.548
    1C        C   74   3.003   2.620   2.672
    1C        C   75   2.885   2.698   2.671
    1C        C   76   3.069   2.588   2.793
    1C        C   77   3.006   2.624   2.915
    1C        C   78   3.201   2.544   3.035
    1C        C   79   3.069   2.594   3.037
    1C        C   80   3.270   2.529   3.158
    1C        C   81   3.204   2.545   3.282
    1C        C   82   3.413   2.508   3.402
    1C        C   83   3.273   2.529   3.404
    1C        C   84   3.481   2.500   3.525
    1C        C   85   3.412   2.504   3.649
    1C        C   86   3.620   2.500   3.766
    1C        C   87   3.479   2.493   3.773
    1C        C   88   3.689   2.512   3.889
    1C        C   89   3.624   2.505   4.014
    1C        C   90   3.832   2.550   4.134
    1C        C   91   3.696   2.513   4.136
    1C        C   92   3.902   2.571   4.256
    1C        C   93   3.836   2.544   4.378
    1C        C   94   4.030   2.629   4.496
    1C        C   95   3.904   2.566   4.500
    1C        C   96   4.090   2.669   4.617
    1C        C   97   4.029   2.628   4.737
    1C        C   98   4.189   2.765   4.861
    1C        C   99   4.098   2.655   4.859
    1C        C  100   4.217   2.841   4.975
    1C        C  101   2.818   2.726   2.068
    1C        C  102   2.985   2.586   2.189
    1C        C  103   2.868   2.669   2.186
    1C        C  104   3.058   2.563   2.309
    1C        C  105   2.998   2.610   2.428
    1C        C  106   3.195   2.530   2.549
    1C        C  107   3.064   2.583   2.550
    1C        C  108   3.267   2.513   2.669
    1C        C  109   3.199   2.532   2.791
    1C        C  110   3.408   2.497   2.912
    1C        C  111   3.268   2.516   2.914
    1C        C  112   3.478   2.498   3.034
    1C        C  113   3.409   2.507   3.157
    1C        C  114   3.623   2.508   3.278
    1C        C  115   3.481   2.502   3.279
    1C        C  116   3.692   2.514   3.402
    1C        C  117   3.622   2.500   3.524
    1C        C  118   3.830   2.544   3.643
    1C        C  119   3.693   2.509   3.646
    1C        C  120   3.893   2.571   3.767
    1C        C  121   3.826   2.549   3.890
    1C        C  122   4.022   2.636   4.012
    1C        C  123   3.893   2.579   4.010
    1C        C  124   4.087   2.677   4.131
    1C        C  125   4.025   2.640   4.252
    1C        C  126   4.193   2.768   4.374
    1C        C  127   4.087   2.674   4.375
    1C        C  128   4.242   2.816   4.497
    1C        C  129   4.193   2.766   4.619
    1C        C  130   4.326   2.935   4.740
    1C        C  131   4.239   2.823   4.740
    1C        C  132   4.359   3.002   4.860
    1C        C  133   4.292   2.958   4.975
    1C        C  134   3.168   2.458   2.084
    1C        C  135   3.039   2.511   2.080
    1C        C  136   3.258   2.478   2.189
    1C        C  137   3.191   2.514   2.307
    1C        C  138   3.401   2.473   2.428
    1C        C  139   3.262   2.499   2.428
    1C        C  140   3.477   2.479   2.547
    1C        C  141   3.406   2.490   2.668
    1C        C  142   3.619   2.496   2.789
    1C        C  143   3.478   2.491   2.790
    1C        C  144   3.689   2.510   2.912
    1C        C  145   3.619   2.503   3.034
    1C        C  146   3.829   2.541   3.154
    1C        C  147   3.692   2.509   3.155
    1C        C  148   3.897   2.564   3.276
    1C        C  149   3.829   2.545   3.399
    1C        C  150   4.023   2.630   3.522
    1C        C  151   3.896   2.568   3.521
    1C        C  152   4.083   2.668   3.645
    1C        C  153   4.019   2.634   3.766
    1C        C  154   4.191   2.759   3.885
    1C        C  155   4.079   2.673   3.888
    1C        C  156   4.251   2.808   4.004
    1C        C  157   4.199   2.763   4.127
    1C        C  158   4.335   2.922   4.251
    1C        C  159   4.247   2.811   4.251
    1C        C  160   4.376   2.981   4.372
    1C        C  161   4.334   2.924   4.494
    1C        C  162   4.436   3.112   4.612
    1C        C  163   4.368   2.988   4.616
    1C        C  164   4.461   3.185   4.730
    1C        C  165   4.429   3.124   4.853
    1C        C  166   4.525   3.316   4.969
    1C        C  167   4.482   3.184   4.969
    1C        C  168   3.474   2.438   2.072
    1C        C  169   3.398   2.458   2.188
    1C        C  170   3.615   2.465   2.305
    1C        C  171   3.473   2.465   2.307
    1C        C  172   3.688   2.487   2.424
    1C        C  173   3.618   2.490   2.546
    1C        C  174   3.827   2.539   2.667
    1C        C  175   3.689   2.507   2.667
    1C        C  176   3.894   2.564   2.789
    1C        C  177   3.827   2.540   2.911
    1C        C  178   4.024   2.623   3.032
    1C        C  179   3.897   2.561   3.032
    1C        C  180   4.087   2.659   3.153
    1C        C  181   4.026   2.622   3.275
    1C        C  182   4.194   2.749   3.397
    1C        C  183   4.083   2.662   3.398
    1C        C  184   4.244   2.803   3.517
    1C        C  185   4.193   2.756   3.641
    1C        C  186   4.338   2.911   3.762
    1C        C  187   4.244   2.806   3.763
    1C        C  188   4.381   2.972   3.882
    1C        C  189   4.339   2.919   4.006
    1C        C  190   4.446   3.101   4.127
    1C        C  191   4.376   2.978   4.128
    1C        C  192   4.475   3.169   4.247
    1C        C  193   4.442   3.106   4.369
    1C        C  194   4.514   3.309   4.486
    1C        C  195   4.465   3.176   4.490
    1C        C  196   4.526   3.383   4.606
    1C        C  197   4.507   3.319   4.730
    1C        C  198   4.554   3.531   4.846
    1C        C  199   4.536   3.389   4.850
    1C        C  200   4.580   3.616   4.958
    1C        C  201   3.613   2.421   2.069
    1C        C  202   3.826   2.506   2.181
    1C        C  203   3.689   2.463   2.183
    1C        C  204   3.895   2.537   2.301
    1C        C  205   3.825   2.522   2.423
    1C        C  206   4.019   2.615   2.543
    1C        C  207   3.895   2.547   2.543
    1C        C  208   4.080   2.659   2.662
    1C        C  209   4.020   2.627   2.786
    1C        C  210   4.196   2.745   2.908
    1C        C  211   4.081   2.663   2.909
    1C        C  212   4.252   2.792   3.029
    1C        C  213   4.198   2.746   3.151
    1C        C  214   4.333   2.907   3.271
    1C        C  215   4.248   2.794   3.274
    1C        C  216   4.370   2.970   3.392
    1C        C  217   4.335   2.911   3.515
    1C        C  218   4.435   3.096   3.636
    1C        C  219   4.375   2.968   3.639
    1C        C  220   4.463   3.163   3.757
    1C        C  221   4.443   3.100   3.881
    1C        C  222   4.504   3.302   4.003
    1C        C  223   4.470   3.165   4.004
    1C        C  224   4.523   3.377   4.121
    1C        C  225   4.514   3.305   4.242
    1C        C  226   4.524   3.519   4.363
    1C        C  227   4.521   3.378   4.363
    1C        C  228   4.521   3.593   4.483
    1C        C  229   4.532   3.524   4.605
    1C        C  230   4.497   3.738   4.723
    1C        C  231   4.536   3.601   4.724
    1C        C  232   4.487   3.815   4.841
    1C        C  233   4.548   3.752   4.951
    1C        C  234   4.012   2.610   2.061
    1C        C  235   3.891   2.542   2.063
    1C        C  236   4.083   2.644   2.177
    1C        C  237   4.020   2.605   2.298
    1C        C  238   4.193   2.732   2.420
    1C        C  239   4.080   2.646   2.419
    1C        C  240   4.248   2.784   2.540
    1C        C  241   4.193   2.743   2.663
    1C        C  242   4.332   2.904   2.781
    1C        C  243   4.247   2.791   2.785
    1C        C  244   4.373   2.963   2.902
    1C        C  245   4.341   2.902   3.026
    1C        C  246   4.443   3.087   3.149
    1C        C  247   4.380   2.960   3.149
    1C        C  248   4.459   3.159   3.269
    1C        C  249   4.436   3.095   3.393
    1C        C  250   4.497   3.300   3.512
    1C        C  251   4.462   3.163   3.515
    1C        C  252   4.508   3.368   3.635
    1C        C  253   4.498   3.300   3.759
    1C        C  254   4.518   3.512   3.875
    1C        C  255   4.515   3.371   3.880
    1C        C  256   4.517   3.586   3.996
    1C        C  257   4.522   3.518   4.120
    1C        C  258   4.487   3.729   4.239
    1C        C  259   4.515   3.590   4.241
    1C        C  260   4.463   3.799   4.359
    1C        C  261   4.482   3.729   4.481
    1C        C  262   4.420   3.935   4.600
    1C        C  263   4.469   3.803   4.601
    1C        C  264   4.398   4.008   4.719
    1C        C  265   4.430   3.944   4.841
    1C        C  266   4.317   4.130   4.957
    1C        C  267   4.392   4.013   4.957
    1C        C  268   4.259   2.773   2.064
    1C        C  269   4.198   2.725   2.180
    1C        C  270   4.345   2.885   2.297
    1C        C  271   4.252   2.777   2.300
    1C        C  272   4.383   2.949   2.417
    1C        C  273   4.338   2.892   2.538
    1C        C  274   4.446   3.080   2.660
    1C        C  275   4.372   2.960   2.657
    1C        C  276   4.470   3.149   2.780
    1C        C  277   4.442   3.086   2.904
    1C        C  278   4.505   3.287   3.022
    1C        C  279   4.469   3.151   3.026
    1C        C  280   4.513   3.361   3.142
    1C        C  281   4.494   3.296   3.266
    1C        C  282   4.508   3.508   3.387
    1C        C  283   4.507   3.367   3.388
    1C        C  284   4.510   3.579   3.509
    1C        C  285   4.516   3.509   3.631
    1C        C  286   4.491   3.722   3.751
    1C        C  287   4.512   3.582   3.752
    1C        C  288   4.475   3.791   3.873
    1C        C  289   4.495   3.725   3.997
    1C        C  290   4.422   3.929   4.112
    1C        C  291   4.473   3.797   4.116
    1C        C  292   4.391   3.994   4.234
    1C        C  293   4.419   3.933   4.358
    1C        C  294   4.323   4.123   4.476
    1C        C  295   4.395   4.002   4.479
    1C        C  296   4.280   4.182   4.598
    1C        C  297   4.327   4.131   4.721
    1C        C  298   4.198   4.312   4.839
    1C        C  299   4.283   4.198   4.839
    1C        C  300   4.169   4.402   4.947
    1C        C  301   4.350   2.879   2.062
    1C        C  302   4.472   3.064   2.176
    1C        C  303   4.396   2.942   2.178
    1C        C  304   4.487   3.138   2.296
    1C        C  305   4.452   3.072   2.417
    1C        C  306   4.509   3.279   2.532
    1C        C  307   4.480   3.141   2.537
    1C        C  308   4.517   3.352   2.652
    1C        C  309   4.502   3.287   2.776
    1C        C  310   4.526   3.497   2.896
    1C        C  311   4.516   3.356   2.899
    1C        C  312   4.512   3.568   3.017
    1C        C  313   4.511   3.502   3.142
    1C        C  314   4.485   3.714   3.262
    1C        C  315   4.506   3.575   3.263
    1C        C  316   4.471   3.785   3.384
    1C        C  317   4.486   3.719   3.508
    1C        C  318   4.416   3.920   3.627
    1C        C  319   4.472   3.790   3.629
    1C        C  320   4.384   3.983   3.750
    1C        C  321   4.417   3.920   3.872
    1C        C  322   4.312   4.110   3.988
    1C        C  323   4.388   3.991   3.990
    1C        C  324   4.271   4.168   4.110
    1C        C  325   4.318   4.116   4.232
    1C        C  326   4.184   4.282   4.352
    1C        C  327   4.279   4.177   4.353
    1C        C  328   4.132   4.335   4.472
    1C        C  329   4.185   4.287   4.594
    1C        C  330   4.023   4.428   4.712
    1C        C  331   4.141   4.347   4.714
    1C        C  332   3.967   4.485   4.827
    1C        C  333   4.049   4.475   4.940
    1C        C  334   4.549   3.263   2.060
    1C        C  335   4.539   3.123   2.064
    1C        C  336   4.536   3.349   2.170
    1C        C  337   4.516   3.277   2.289
    1C        C  338   4.520   3.491   2.410
    1C        C  339   4.522   3.350   2.410
    1C        C  340   4.518   3.565   2.531
    1C        C  341   4.518   3.494   2.653
    1C        C  342   4.490   3.706   2.771
    1C        C  343   4.516   3.567   2.773
    1C        C  344   4.472   3.775   2.893
    1C        C  345   4.487   3.708   3.016
    1C        C  346   4.421   3.911   3.136
    1C        C  347   4.467   3.778   3.137
    1C        C  348   4.394   3.979   3.257
    1C        C  349   4.425   3.918   3.381
    1C        C  350   4.310   4.098   3.500
    1C        C  351   4.388   3.980   3.503
    1C        C  352   4.270   4.162   3.620
    1C        C  353   4.313   4.105   3.741
    1C        C  354   4.174   4.266   3.865
    1C        C  355   4.270   4.162   3.863
    1C        C  356   4.119   4.315   3.986
    1C        C  357   4.174   4.270   4.108
    1C        C  358   4.008   4.401   4.231
    1C        C  359   4.124   4.320   4.230
    1C        C  360   3.948   4.443   4.352
    1C        C  361   4.015   4.413   4.472
    1C        C  362   3.827   4.519   4.590
    1C        C  363   3.956   4.460   4.592
    1C        C  364   3.760   4.546   4.711
    1C        C  365   3.835   4.536   4.831
    1C        C  366   3.625   4.589   4.949
    1C        C  367   3.763   4.573   4.945
    1C        C  368   4.505   3.564   2.048
    1C        C  369   4.520   3.490   2.166
    1C        C  370   4.493   3.701   2.286
    1C        C  371   4.515   3.561   2.288
    1C        C  372   4.477   3.773   2.407
    1C        C  373   4.493   3.704   2.529
    1C        C  374   4.425   3.908   2.650
    1C        C  375   4.476   3.776   2.649
    1C        C  376   4.397   3.975   2.772
    1C        C  377   4.432   3.911   2.893
    1C        C  378   4.319   4.094   3.011
    1C        C  379   4.393   3.974   3.013
    1C        C  380   4.271   4.150   3.131
    1C        C  381   4.313   4.094   3.254
    1C        C  382   4.172   4.254   3.378
    1C        C  383   4.267   4.150   3.376
    1C        C  384   4.118   4.306   3.498
    1C        C  385   4.175   4.266   3.621
    1C        C  386   4.003   4.391   3.743
    1C        C  387   4.122   4.315   3.743
    1C        C  388   3.945   4.433   3.864
    1C        C  389   4.004   4.396   3.987
    1C        C  390   3.816   4.493   4.104
    1C        C  391   3.943   4.433   4.110
    1C        C  392   3.750   4.519   4.226
    1C        C  393   3.819   4.500   4.348
    1C        C  394   3.615   4.553   4.472
    1C        C  395   3.755   4.534   4.470
    1C        C  396   3.543   4.562   4.593
    1C        C  397   3.620   4.563   4.712
    1C        C  398   3.409   4.550   4.841
    1C        C  399   3.548   4.574   4.833
    1C        C  400   3.337   4.517   4.956
    1C        C  401   4.502   3.703   2.050
    1C        C  402   4.447   3.912   2.168
    1C        C  403   4.488   3.777   2.168
    1C        C  404   4.405   3.976   2.287
    1C        C  405   4.430   3.906   2.407
    1C        C  406   4.324   4.093   2.525
    1C        C  407   4.397   3.972   2.528
    1C        C  408   4.281   4.152   2.646
    1C        C  409   4.320   4.093   2.768
    1C        C  410   4.168   4.244   2.889
    1C        C  411   4.271   4.148   2.889
    1C        C  412   4.111   4.288   3.011
    1C        C  413   4.169   4.247   3.134
    1C        C  414   4.001   4.379   3.251
    1C        C  415   4.117   4.298   3.255
    1C        C  416   3.937   4.407   3.373
    1C        C  417   3.999   4.382   3.498
    1C        C  418   3.808   4.473   3.617
    1C        C  419   3.938   4.417   3.620
    1C        C  420   3.745   4.504   3.739
    1C        C  421   3.816   4.491   3.861
    1C        C  422   3.609   4.543   3.985
    1C        C  423   3.747   4.516   3.982
    1C        C  424   3.538   4.548   4.107
    1C        C  425   3.611   4.540   4.227
    1C        C  426   3.402   4.539   4.355
    1C        C  427   3.543   4.552   4.351
    1C        C  428   3.332   4.538   4.477
    1C        C  429   3.402   4.555   4.599
    1C        C  430   3.193   4.522   4.724
    1C        C  431   3.333   4.545   4.722
    1C        C  432   3.120   4.495   4.843
    1C        C  433   3.201   4.489   4.957
    1C        C  434   4.388   4.121   2.053
    1C        C  435   4.451   3.996   2.056
    1C        C  436   4.300   4.160   2.159
    1C        C  437   4.330   4.097   2.282
    1C        C  438   4.175   4.243   2.402
    1C        C  439   4.280   4.149   2.404
    1C        C  440   4.124   4.296   2.523
    1C        C  441   4.177   4.248   2.645
    1C        C  442   4.005   4.376   2.762
    1C        C  443   4.120   4.294   2.766
    1C        C  444   3.941   4.412   2.883
    1C        C  445   3.998   4.373   3.006
    1C        C  446   3.809   4.466   3.129
    1C        C  447   3.940   4.412   3.129
    1C        C  448   3.741   4.488   3.251
    1C        C  449   3.808   4.465   3.374
    1C        C  450   3.603   4.527   3.494
    1C        C  451   3.741   4.495   3.495
    1C        C  452   3.537   4.540   3.618
    1C        C  453   3.608   4.539   3.740
    1C        C  454   3.397   4.540   3.862
    1C        C  455   3.538   4.546   3.862
    1C        C  456   3.328   4.529   3.985
    1C        C  457   3.397   4.537   4.108
    1C        C  458   3.193   4.500   4.236
    1C        C  459   3.330   4.534   4.233
    1C        C  460   3.129   4.478   4.360
    1C        C  461   3.195   4.503   4.482
    1C        C  462   3.000   4.424   4.603
    1C        C  463   3.126   4.489   4.604
    1C        C  464   2.930   4.396   4.722
    1C        C  465   2.987   4.441   4.844
    1C        C  466   2.799   4.333   4.962
    1C        C  467   2.905   4.425   4.960
    1C        C  468   4.122   4.285   2.040
    1C        C  469   4.186   4.248   2.159
    1C        C  470   4.003   4.366   2.278
    1C        C  471   4.124   4.291   2.279
    1C        C  472   3.935   4.395   2.398
    1C        C  473   4.003   4.369   2.519
    1C        C  474   3.811   4.464   2.641
    1C        C  475   3.941   4.406   2.641
    1C        C  476   3.740   4.482   2.762
    1C        C  477   3.810   4.464   2.883
    1C        C  478   3.604   4.511   3.006
    1C        C  479   3.743   4.485   3.006
    1C        C  480   3.533   4.526   3.127
    1C        C  481   3.603   4.518   3.250
    1C        C  482   3.392   4.537   3.376
    1C        C  483   3.534   4.534   3.371
    1C        C  484   3.322   4.533   3.499
    1C        C  485   3.396   4.539   3.619
    1C        C  486   3.188   4.498   3.744
    1C        C  487   3.325   4.533   3.741
    1C        C  488   3.123   4.476   3.868
    1C        C  489   3.191   4.496   3.990
    1C        C  490   3.000   4.412   4.115
    1C        C  491   3.126   4.477   4.114
    1C        C  492   2.941   4.378   4.239
    1C        C  493   3.000   4.420   4.361
    1C        C  494   2.826   4.297   4.483
    1C        C  495   2.939   4.382   4.483
    1C        C  496   2.770   4.255   4.605
    1C        C  497   2.816   4.310   4.727
    1C        C  498   2.661   4.163   4.842
    1C        C  499   2.749   4.273   4.845
    1C        C  500   2.586   4.117   4.951
    1C        C  501   4.002   4.355   2.037
    1C        C  502   3.815   4.461   2.154
    1C        C  503   3.943   4.402   2.155
    1C        C  504   3.744   4.482   2.274
    1C        C  505   3.807   4.455   2.398
    1C        C  506   3.604   4.509   2.517
    1C        C  507   3.743   4.485   2.519
    1C        C  508   3.532   4.516   2.638
    1C        C  509   3.602   4.510   2.761
    1C        C  510   3.392   4.525   2.886
    1C        C  511   3.533   4.519   2.884
    1C        C  512   3.319   4.520   3.007
    1C        C  513   3.391   4.528   3.129
    1C        C  514   3.187   4.493   3.254
    1C        C  515   3.324   4.526   3.253
    1C        C  516   3.121   4.467   3.376
    1C        C  517   3.187   4.492   3.498
    1C        C  518   2.995   4.410   3.622
    1C        C  519   3.121   4.473   3.622
    1C        C  520   2.940   4.373   3.747
    1C        C  521   2.998   4.411   3.869
    1C        C  522   2.834   4.282   3.994
    1C        C  523   2.940   4.375   3.993
    1C        C  524   2.784   4.234   4.117
    1C        C  525   2.832   4.289   4.238
    1C        C  526   2.693   4.131   4.362
    1C        C  527   2.779   4.243   4.361
    1C        C  528   2.646   4.077   4.484
    1C        C  529   2.683   4.145   4.603
    1C        C  530   2.579   3.960   4.728
    1C        C  531   2.632   4.092   4.724
    1C        C  532   2.540   3.899   4.850
    1C        C  533   2.516   3.996   4.954
    1C        C  534   3.617   4.549   2.037
    1C        C  535   3.754   4.517   2.041
    1C        C  536   3.534   4.527   2.152
    1C        C  537   3.604   4.508   2.274
    1C        C  538   3.391   4.514   2.398
    1C        C  539   3.532   4.518   2.395
    1C        C  540   3.319   4.510   2.520
    1C        C  541   3.391   4.516   2.642
    1C        C  542   3.183   4.480   2.762
    1C        C  543   3.321   4.510   2.765
    1C        C  544   3.116   4.466   2.886
    1C        C  545   3.183   4.484   3.009
    1C        C  546   2.992   4.401   3.132
    1C        C  547   3.118   4.465   3.133
    1C        C  548   2.936   4.365   3.256
    1C        C  549   2.996   4.401   3.379
    1C        C  550   2.828   4.274   3.503
    1C        C  551   2.936   4.365   3.502
    1C        C  552   2.779   4.228   3.628
    1C        C  553   2.832   4.281   3.748
    1C        C  554   2.696   4.122   3.875
    1C        C  555   2.783   4.233   3.871
    1C        C  556   2.653   4.065   3.997
    1C        C  557   2.693   4.126   4.118
    1C        C  558   2.593   3.942   4.243
    1C        C  559   2.654   4.069   4.241
    1C        C  560   2.565   3.878   4.366
    1C        C  561   2.583   3.951   4.486
    1C        C  562   2.523   3.750   4.613
    1C        C  563   2.560   3.886   4.609
    1C        C  564   2.519   3.680   4.735
    1C        C  565   2.522   3.757   4.855
    1C        C  566   2.530   3.545   4.977
    1C        C  567   2.516   3.683   4.973
    1C        C  568   3.322   4.479   2.038
    1C        C  569   3.393   4.511   2.154
    1C        C  570   3.181   4.474   2.278
    1C        C  571   3.320   4.507   2.276
    1C        C  572   3.111   4.460   2.400
    1C        C  573   3.181   4.483   2.520
    1C        C  574   2.983   4.404   2.645
    1C        C  575   3.111   4.463   2.642
    1C        C  576   2.932   4.357   2.768
    1C        C  577   2.994   4.396   2.889
    1C        C  578   2.823   4.270   3.014
    1C        C  579   2.933   4.358   3.011
    1C        C  580   2.774   4.222   3.138
    1C        C  581   2.829   4.273   3.258
    1C        C  582   2.687   4.117   3.385
    1C        C  583   2.778   4.224   3.381
    1C        C  584   2.651   4.059   3.509
    1C        C  585   2.693   4.116   3.630
    1C        C  586   2.593   3.934   3.751
    1C        C  587   2.656   4.060   3.755
    1C        C  588   2.566   3.872   3.875
    1C        C  589   2.597   3.935   3.998
    1C        C  590   2.532   3.737   4.124
    1C        C  591   2.573   3.872   4.122
    1C        C  592   2.519   3.670   4.248
    1C        C  593   2.529   3.742   4.370
    1C        C  594   2.516   3.533   4.494
    1C        C  595   2.516   3.675   4.493
    1C        C  596   2.522   3.464   4.617
    1C        C  597   2.516   3.538   4.737
    1C        C  598   2.534   3.328   4.861
    1C        C  599   2.524   3.468   4.860
    1C        C  600   2.535   3.248   4.976
    1C        C  601   3.191   4.435   2.042
    1C        C  602   2.979   4.389   2.158
    1C        C  603   3.114   4.437   2.158
    1C        C  604   2.918   4.357   2.283
    1C        C  605   2.983   4.400   2.401
    1C        C  606   2.813   4.276   2.527
    1C        C  607   2.922   4.365   2.524
    1C        C  608   2.765   4.222   2.648
    1C        C  609   2.822   4.268   2.769
    1C        C  610   2.688   4.106   2.894
    1C        C  611   2.776   4.217   2.892
    1C        C  612   2.648   4.052   3.018
    1C        C  613   2.688   4.111   3.140
    1C        C  614   2.589   3.927   3.263
    1C        C  615   2.645   4.057   3.264
    1C        C  616   2.568   3.863   3.387
    1C        C  617   2.590   3.931   3.509
    1C        C  618   2.528   3.729   3.637
    1C        C  619   2.566   3.865   3.631
    1C        C  620   2.518   3.660   3.760
    1C        C  621   2.532   3.735   3.880
    1C        C  622   2.511   3.525   4.008
    1C        C  623   2.519   3.666   4.003
    1C        C  624   2.518   3.455   4.130
    1C        C  625   2.516   3.529   4.251
    1C        C  626   2.546   3.321   4.378
    1C        C  627   2.519   3.459   4.373
    1C        C  628   2.562   3.252   4.500
    1C        C  629   2.545   3.325   4.619
    1C        C  630   2.590   3.117   4.743
    1C        C  631   2.553   3.255   4.742
    1C        C  632   2.614   3.046   4.864
    1C        C  633   2.564   3.111   4.981
    1C        C  634   2.775   4.301   2.050
    1C        C  635   2.888   4.384   2.048
    1C        C  636   2.742   4.229   2.165
    1C        C  637   2.805   4.271   2.284
    1C        C  638   2.671   4.111   2.408
    1C        C  639   2.756   4.224   2.408
    1C        C  640   2.637   4.050   2.530
    1C        C  641   2.679   4.109   2.651
    1C        C  642   2.579   3.922   2.774
    1C        C  643   2.643   4.048   2.773
    1C        C  644   2.560   3.855   2.897
    1C        C  645   2.585   3.926   3.017
    1C        C  646   2.532   3.723   3.146
    1C        C  647   2.564   3.861   3.141
    1C        C  648   2.520   3.656   3.269
    1C        C  649   2.535   3.726   3.392
    1C        C  650   2.513   3.518   3.516
    1C        C  651   2.514   3.659   3.515
    1C        C  652   2.516   3.449   3.639
    1C        C  653   2.510   3.519   3.762
    1C        C  654   2.539   3.315   3.886
    1C        C  655   2.512   3.453   3.887
    1C        C  656   2.559   3.248   4.009
    1C        C  657   2.547   3.317   4.132
    1C        C  658   2.613   3.119   4.257
    1C        C  659   2.565   3.252   4.256
    1C        C  660   2.639   3.052   4.379
    1C        C  661   2.604   3.117   4.500
    1C        C  662   2.703   2.932   4.622
    1C        C  663   2.631   3.054   4.624
    1C        C  664   2.747   2.874   4.743
    1C        C  665   2.697   2.929   4.864
    1C        C  666   2.739   2.867   4.982
    1C        C  667   2.673   4.025   2.048
    1C        C  668   2.677   4.104   2.164
    1C        C  669   2.591   3.911   2.291
    1C        C  670   2.644   4.043   2.287
    1C        C  671   2.556   3.847   2.412
    1C        C  672   2.581   3.920   2.530
    1C        C  673   2.521   3.719   2.656
    1C        C  674   2.553   3.856   2.652
    1C        C  675   2.517   3.647   2.778
    1C        C  676   2.536   3.716   2.899
    1C        C  677   2.511   3.510   3.027
    1C        C  678   2.524   3.651   3.024
    1C        C  679   2.511   3.442   3.151
    1C        C  680   2.504   3.516   3.271
    1C        C  681   2.534   3.307   3.399
    1C        C  682   2.508   3.446   3.394
    1C        C  683   2.556   3.240   3.521
    1C        C  684   2.537   3.310   3.643
    1C        C  685   2.600   3.108   3.768
    1C        C  686   2.554   3.242   3.766
    1C        C  687   2.633   3.046   3.890
    1C        C  688   2.608   3.115   4.011
    1C        C  689   2.710   2.932   4.138
    1C        C  690   2.642   3.056   4.134
    1C        C  691   2.754   2.874   4.259
    1C        C  692   2.712   2.931   4.382
    1C        C  693   2.753   2.873   4.504
    1C        C  694   2.623   3.894   2.051
    1C        C  695   2.529   3.705   2.174
    1C        C  696   2.580   3.837   2.172
    1C        C  697   2.506   3.637   2.295
    1C        C  698   2.523   3.709   2.416
    1C        C  699   2.497   3.501   2.540
    1C        C  700   2.505   3.642   2.538
    1C        C  701   2.505   3.432   2.663
    1C        C  702   2.505   3.507   2.783
    1C        C  703   2.527   3.298   2.910
    1C        C  704   2.505   3.438   2.906
    1C        C  705   2.544   3.229   3.032
    1C        C  706   2.534   3.303   3.152
    1C        C  707   2.606   3.107   3.276
    1C        C  708   2.558   3.240   3.277
    1C        C  709   2.635   3.044   3.399
    1C        C  710   2.607   3.109   3.521
    1C        C  711   2.709   2.927   3.648
    1C        C  712   2.632   3.046   3.645
    1C        C  713   2.754   2.874   3.771
    1C        C  714   2.709   2.927   3.894
    1C        C  715   2.752   2.872   4.017
    1C        C  716   2.455   3.498   2.058
    1C        C  717   2.494   3.633   2.059
    1C        C  718   2.469   3.422   2.178
    1C        C  719   2.488   3.496   2.298
    1C        C  720   2.524   3.288   2.419
    1C        C  721   2.495   3.426   2.420
    1C        C  722   2.540   3.221   2.542
    1C        C  723   2.527   3.292   2.664
    1C        C  724   2.597   3.097   2.786
    1C        C  725   2.545   3.229   2.789
    1C        C  726   2.628   3.034   2.908
    1C        C  727   2.601   3.100   3.030
    1C        C  728   2.711   2.923   3.157
    1C        C  729   2.633   3.040   3.154
    1C        C  730   2.753   2.868   3.281
    1C        C  731   2.709   2.924   3.403
    1C        C  732   2.753   2.870   3.526
    1C        C  733   2.492   3.196   2.070
    1C        C  734   2.494   3.281   2.181
    1C        C  735   2.589   3.082   2.301
    1C        C  736   2.536   3.214   2.299
    1C        C  737   2.617   3.018   2.424
    1C        C  738   2.594   3.091   2.543
    1C        C  739   2.694   2.904   2.667
    1C        C  740   2.625   3.028   2.666
    1C        C  741   2.738   2.850   2.790
    1C        C  742   2.701   2.914   2.911
    1C        C  743   2.744   2.861   3.035
    1C        C  744   2.535   3.063   2.070
    1C        C  745   2.681   2.893   2.184
    1C        C  746   2.603   3.010   2.181
    1C        C  747   2.725   2.834   2.304
    1C        C  748   2.683   2.894   2.425
    1C        C  749   2.730   2.840   2.547
    1C        C  750   2.733   2.836   2.066
    1C        C  751   3.656   2.304   1.989
    1C        O  752   3.717   2.200   2.025
    1C        O  753   3.683   2.329   1.853
    1C        C  754   4.665   3.062   2.016
    1C        O  755   4.677   3.022   1.897
    1C        O  756   4.785   3.106   2.074
    1C        C  757   4.466   4.219   1.974
    1C        O  758   4.559   4.292   2.020
    1C        O  759   4.483   4.225   1.836
    1C        C  760   3.598   4.660   1.941
    1C        O  761   3.594   4.779   1.984
    1C        O  762   3.643   4.656   1.809
    1C        C  763   2.883   4.486   1.941
    1C        O  764   2.886   4.461   1.817
    1C        O  765   2.837   4.614   1.969
    1C        C  766   2.387   3.454   1.934
    1C        O  767   2.438   3.434   1.821
    1C        O  768   2.248   3.456   1.914
    1C        C  769   4.680   3.581   5.062
    1C        O  770   4.645   3.574   5.183
    1C        O  771   4.817   3.607   5.060
    1C        C  772   4.269   4.482   5.021
    1C        O  773   4.353   4.436   5.103
    1C        O  774   4.317   4.596   4.956
    1C        C  775   4.127   2.553   5.090
    1C        O  776   4.187   2.442   5.088
    1C        O  777   4.096   2.594   5.220
    1C        C  778   2.868   4.549   5.033
    1C        O  779   2.770   4.618   4.997
    1C        O  780   2.911   4.580   5.163
    1C        C  781   2.461   3.044   5.063
    1C        O  782   2.363   2.985   5.010
    1C        O  783   2.433   3.065   5.198
    1C        C  784   2.380   4.016   5.009
    1C        O  785   2.285   4.067   4.943
    1C        O  786   2.354   4.007   5.146
    1C        C  787   2.954   2.431   1.989
    1C        O  788   2.923   2.467   1.873
    1C        O  789   2.873   2.328   2.037
    1C        C  790   3.190   2.391   5.085
    1C        O  791   3.213   2.271   5.054
    1C        O  792   3.244   2.414   5.212
    1C        H  793   4.325   2.994   5.070
    1C        H  794   4.151   2.830   5.060
    1C        H  795   4.506   3.118   5.050
    1C        H  796   4.506   3.372   5.058
    1C        H  797   4.609   3.813   5.014
    1C        H  798   4.420   3.968   5.050
    1C        H  799   4.330   4.192   5.044
    1C        H  800   4.021   4.531   5.027
    1C        H  801   3.818   4.597   5.034
    1C        H  802   3.582   4.647   5.028
    1C        H  803   3.391   4.463   5.031
    1C        H  804   3.155   4.464   5.050
    1C        H  805   3.898   2.458   5.054
    1C        H  806   3.678   2.497   5.074
    1C        H  807   2.983   2.515   5.037
    1C        H  808   3.448   2.443   5.077
    1C        H  809   2.873   2.741   5.079
    1C        H  810   2.689   2.884   5.075
    1C        H  811   2.505   3.296   5.068
    1C        H  812   2.592   3.518   5.060
    1C        H  813   2.485   3.736   5.061
    1C        H  814   2.589   4.171   5.043
    1C        H  815   2.756   4.312   5.057
    1C        H  816   2.724   2.887   1.973
    1C        H  817   2.811   2.656   1.987
    1C        H  818   3.207   2.412   1.995
    1C        H  819   3.434   2.458   1.975
    1C        H  820   3.865   2.499   1.968
    1C        H  821   4.067   2.592   1.972
    1C        H  822   4.240   2.730   1.967
    1C        H  823   4.392   2.906   1.968
    1C        H  824   4.586   3.310   1.972
    1C        H  825   4.452   3.517   1.969
    1C        H  826   4.519   3.753   1.957
    1C        H  827   3.815   4.555   1.961
    1C        H  828   3.966   4.392   1.944
    1C        H  829   4.165   4.264   1.945
    1C        H  830   4.524   3.973   1.982
    1C        H  831   2.670   3.835   1.975
    1C        H  832   2.728   4.047   1.959
    1C        H  833   2.701   4.306   1.972
    1C        H  834   3.357   4.528   1.950
    1C        H  835   3.140   4.412   1.950
    1C        H  836   2.473   2.997   2.014
    1C        H  837   2.484   3.233   1.970
    1C        H  838   2.550   3.657   1.972
    2V3OU   H29  839   2.794   3.549   1.636
    2V3OU   C27  840   2.779   3.502   1.736
    2V3OU   H27  841   2.717   3.568   1.802
    2V3OU   H28  842   2.726   3.403   1.734
    2V3OU   O11  843   2.908   3.477   1.794
    2V3OU   C15  844   2.919   3.396   1.905
    2V3OU   C13  845   3.050   3.371   1.952
    2V3OU   C14  846   3.078   3.263   2.036
    2V3OU   C16  847   2.976   3.177   2.074
    2V3OU    H6  848   2.988   3.105   2.156
    2V3OU   C12  849   3.214   3.230   2.084
    2V3OU    O2  850   3.236   3.122   2.144
    2V3OU   C10  851   3.326   3.311   2.034
    2V3OU    C8  852   3.457   3.269   2.058
    2V3OU   O10  853   3.485   3.154   2.125
    2V3OU   H26  854   3.400   3.113   2.149
    2V3OU    C6  855   3.564   3.348   2.007
    2V3OU    C5  856   3.537   3.466   1.938
    2V3OU    C4  857   3.701   3.291   1.995
    2V3OU    H4  858   3.717   3.224   2.084
    2V3OU    H5  859   3.712   3.220   1.908
    2V3OU    C2  860   3.814   3.395   1.989
    2V3OU    O6  861   3.807   3.468   2.112
    2V3OU   H21  862   3.766   3.550   2.080
    2V3OU    C3  863   3.783   3.499   1.882
    2V3OU    H2  864   3.863   3.576   1.876
    2V3OU    H3  865   3.786   3.441   1.786
    2V3OU   C25  866   3.948   3.323   1.967
    2V3OU    O7  867   3.998   3.289   1.860
    2V3OU   C26  868   4.026   3.288   2.093
    2V3OU   H22  869   4.065   3.381   2.141
    2V3OU   H23  870   4.116   3.227   2.064
    2V3OU    O8  871   3.966   3.205   2.190
    2V3OU   H24  872   3.932   3.268   2.256
    2V3OU    C1  873   3.646   3.563   1.904
    2V3OU    H1  874   3.625   3.620   1.808
    2V3OU    O3  875   3.649   3.649   2.017
    2V3OU   C19  876   3.620   3.788   1.999
    2V3OU    H9  877   3.525   3.801   1.940
    2V3OU    O4  878   3.718   3.840   1.912
    2V3OU   C20  879   3.848   3.869   1.964
    2V3OU   H10  880   3.890   3.765   1.976
    2V3OU   C24  881   3.609   3.852   2.138
    2V3OU   H16  882   3.544   3.789   2.203
    2V3OU   H17  883   3.560   3.952   2.127
    2V3OU   C23  884   3.749   3.870   2.198
    2V3OU   H15  885   3.791   3.766   2.216
    2V3OU    N1  886   3.731   3.953   2.316
    2V3OU   H19  887   3.805   3.929   2.379
    2V3OU   H20  888   3.646   3.932   2.365
    2V3OU   C21  889   3.844   3.943   2.098
    2V3OU   H11  890   3.947   3.927   2.141
    2V3OU    O5  891   3.824   4.083   2.091
    2V3OU   H18  892   3.778   4.108   2.173
    2V3OU   C22  893   3.914   3.948   1.852
    2V3OU   H12  894   3.865   4.049   1.845
    2V3OU   H13  895   3.903   3.892   1.755
    2V3OU   H14  896   4.024   3.959   1.868
    2V3OU   C11  897   3.158   3.469   1.932
    2V3OU    O1  898   3.134   3.585   1.895
    2V3OU    C9  899   3.298   3.425   1.954
    2V3OU    C7  900   3.403   3.502   1.904
    2V3OU    O9  901   3.377   3.611   1.824
    2V3OU   H25  902   3.282   3.628   1.832
    2V3OU   C17  903   2.816   3.310   1.947
    2V3OU    H7  904   2.712   3.342   1.943
    2V3OU   C18  905   2.847   3.204   2.031
    2V3OU    H8  906   2.761   3.148   2.071
    3SOL     OW  907   2.636   4.068   0.655
    3SOL    HW1  908   2.555   4.033   0.702
    3SOL    HW2  909   2.608   4.125   0.578
    4SOL     OW  910   6.865   5.640   2.042
    4SOL    HW1  911   6.912   5.556   2.015
    4SOL    HW2  912   6.796   5.664   1.974
    5SOL     OW  913   3.704   1.384   2.254
    5SOL    HW1  914   3.738   1.470   2.293
    5SOL    HW2  915   3.769   1.349   2.187
    6SOL     OW  916   3.793   2.112   2.262
    6SOL    HW1  917   3.717   2.100   2.326
    6SOL    HW2  918   3.758   2.148   2.175
    7SOL     OW  919   6.435   2.972   1.449
    7SOL    HW1  920   6.433   2.885   1.498
    7SOL    HW2  921   6.448   2.956   1.352
    8SOL     OW  922   2.345   6.553   4.996
    8SOL    HW1  923   2.444   6.555   5.009
    8SOL    HW2  924   2.301   6.595   5.076
    9SOL     OW  925   1.123   5.282   5.843
    9SOL    HW1  926   1.156   5.376   5.851
    9SOL    HW2  927   1.141   5.233   5.928
   10SOL     OW  928   0.729   4.368   5.643
   10SOL    HW1  929   0.775   4.282   5.667
   10SOL    HW2  930   0.788   4.445   5.667
   11SOL     OW  931   2.890   0.432   0.475
   11SOL    HW1  932   2.869   0.338   0.503
   11SOL    HW2  933   2.805   0.485   0.472
   12SOL     OW  934   4.547   6.234   3.672
   12SOL    HW1  935   4.457   6.192   3.678
   12SOL    HW2  936   4.541   6.321   3.622
   13SOL     OW  937   3.532   5.962   4.292
   13SOL    HW1  938   3.438   5.995   4.287
   13SOL    HW2  939   3.534   5.873   4.339
   14SOL     OW  940   4.323   5.712   6.277
   14SOL    HW1  941   4.234   5.672   6.257
   14SOL    HW2  942   4.318   5.765   6.362
   15SOL     OW  943   1.664   5.845   6.963
   15SOL    HW1  944   1.732   5.870   0.012
   15SOL    HW2  945   1.649   5.746   6.965
   16SOL     OW  946   6.142   1.953   5.646
   16SOL    HW1  947   6.158   1.856   5.664
   16SOL    HW2  948   6.230   2.001   5.645
   17SOL     OW  949   5.361   6.199   4.427
   17SOL    HW1  950   5.375   6.100   4.416
   17SOL    HW2  951   5.286   6.214   4.491
   18SOL     OW  952   2.819   1.822   6.800
   18SOL    HW1  953   2.862   1.764   6.730
   18SOL    HW2  954   2.723   1.836   6.776
   19SOL     OW  955   0.054   6.739   3.523
   19SOL    HW1  956   0.055   6.836   3.549
   19SOL    HW2  957   6.998   6.723   3.459
   20SOL     OW  958   3.367   0.844   4.386
   20SOL    HW1  959   3.434   0.778   4.418
   20SOL    HW2  960   3.407   0.900   4.314
   21SOL     OW  961   3.111   1.939   2.790
   21SOL    HW1  962   3.120   1.850   2.745
   21SOL    HW2  963   3.137   2.012   2.726
   22SOL     OW  964   2.029   0.311   6.993
   22SOL    HW1  965   1.979   0.355   0.049
   22SOL    HW2  966   2.070   0.226   0.007
   23SOL     OW  967   4.455   6.868   3.654
   23SOL    HW1  968   4.500   6.951   3.621
   23SOL    HW2  969   4.517   6.790   3.644
   24SOL     OW  970   5.255   0.816   4.082
   24SOL    HW1  971   5.156   0.822   4.068
   24SOL    HW2  972   5.291   0.908   4.097
   25SOL     OW  973   3.137   5.964   6.241
   25SOL    HW1  974   3.194   5.998   6.167
   25SOL    HW2  975   3.089   6.041   6.284
   26SOL     OW  976   5.912   1.229   1.072
   26SOL    HW1  977   5.990   1.238   1.134
   26SOL    HW2  978   5.941   1.254   0.979
   27SOL     OW  979   0.032   0.783   2.128
   27SOL    HW1  980   0.017   0.724   2.207
   27SOL    HW2  981   0.108   0.845   2.147
   28SOL     OW  982   4.318   1.229   6.983
   28SOL    HW1  983   4.404   1.181   6.966
   28SOL    HW2  984   4.330   1.291   0.041
   29SOL     OW  985   5.028   2.640   2.046
   29SOL    HW1  986   4.936   2.657   2.010
   29SOL    HW2  987   5.033   2.671   2.141
   30SOL     OW  988   2.720   6.830   5.439
   30SOL    HW1  989   2.664   6.912   5.441
   30SOL    HW2  990   2.811   6.850   5.474
   31SOL     OW  991   0.742   1.326   5.683
   31SOL    HW1  992   0.661   1.274   5.658
   31SOL    HW2  993   0.797   1.273   5.748
   32SOL     OW  994   0.695   2.533   2.885
   32SOL    HW1  995   0.696   2.433   2.881
   32SOL    HW2  996   0.616   2.567   2.833
   33SOL     OW  997   1.995   2.792   6.446
   33SOL    HW1  998   1.902   2.775   6.412
   33SOL    HW2  999   1.997   2.880   6.494
   34SOL     OW 1000   1.723   0.784   4.716
   34SOL    HW1 1001   1.788   0.774   4.640
   34SOL    HW2 1002   1.630   0.790   4.680
   35SOL     OW 1003   4.226   2.163   6.482
   35SOL    HW1 1004   4.259   2.257   6.492
   35SOL    HW2 1005   4.208   2.124   6.572
   36SOL     OW 1006   0.980   0.875   6.288
   36SOL    HW1 1007   0.940   0.965   6.273
   36SOL    HW2 1008   1.053   0.859   6.220
   37SOL     OW 1009   2.351   0.148   0.819
   37SOL    HW1 1010   2.287   0.192   0.755
   37SOL    HW2 1011   2.379   0.060   0.782
   38SOL     OW 1012   0.595   5.773   3.024
   38SOL    HW1 1013   0.643   5.729   3.101
   38SOL    HW2 1014   0.500   5.744   3.024
   39SOL     OW 1015   6.764   4.113   6.492
   39SOL    HW1 1016   6.830   4.164   6.437
   39SOL    HW2 1017   6.764   4.148   6.585
   40SOL     OW 1018   6.126   2.561   2.179
   40SOL    HW1 1019   6.061   2.539   2.252
   40SOL    HW2 1020   6.111   2.655   2.148
   41SOL     OW 1021   1.649   6.475   4.272
   41SOL    HW1 1022   1.580   6.409   4.302
   41SOL    HW2 1023   1.706   6.433   4.202
   42SOL     OW 1024   3.004   6.747   6.099
   42SOL    HW1 1025   3.016   6.670   6.036
   42SOL    HW2 1026   3.066   6.737   6.177
   43SOL     OW 1027   5.899   6.072   6.182
   43SOL    HW1 1028   5.808   6.042   6.153
   43SOL    HW2 1029   5.969   6.024   6.129
   44SOL     OW 1030   6.618   2.761   6.678
   44SOL    HW1 1031   6.641   2.664   6.667
   44SOL    HW2 1032   6.665   2.797   6.759
   45SOL     OW 1033   3.202   0.662   3.816
   45SOL    HW1 1034   3.161   0.599   3.750
   45SOL    HW2 1035   3.232   0.745   3.768
   46SOL     OW 1036   0.812   3.847   4.334
   46SOL    HW1 1037   0.729   3.791   4.338
   46SOL    HW2 1038   0.885   3.795   4.289
   47SOL     OW 1039   5.604   3.336   3.495
   47SOL    HW1 1040   5.567   3.278   3.422
   47SOL    HW2 1041   5.697   3.307   3.517
   48SOL     OW 1042   0.837   2.381   4.771
   48SOL    HW1 1043   0.826   2.455   4.704
   48SOL    HW2 1044   0.834   2.420   4.863
   49SOL     OW 1045   4.660   4.092   1.654
   49SOL    HW1 1046   4.603   4.158   1.703
   49SOL    HW2 1047   4.686   4.018   1.715
   50SOL     OW 1048   6.603   2.719   5.030
   50SOL    HW1 1049   6.628   2.662   5.108
   50SOL    HW2 1050   6.530   2.782   5.057
   51SOL     OW 1051   3.068   5.765   2.641
   51SOL    HW1 1052   2.988   5.705   2.646
   51SOL    HW2 1053   3.109   5.773   2.732
   52SOL     OW 1054   4.180   1.572   3.804
   52SOL    HW1 1055   4.187   1.629   3.722
   52SOL    HW2 1056   4.253   1.595   3.868
   53SOL     OW 1057   4.348   0.298   3.775
   53SOL    HW1 1058   4.261   0.331   3.813
   53SOL    HW2 1059   4.364   0.204   3.805
   54SOL     OW 1060   2.759   5.099   6.697
   54SOL    HW1 1061   2.803   5.171   6.642
   54SOL    HW2 1062   2.827   5.031   6.723
   55SOL     OW 1063   3.639   1.182   6.226
   55SOL    HW1 1064   3.709   1.248   6.196
   55SOL    HW2 1065   3.564   1.232   6.270
   56SOL     OW 1066   1.574   0.534   1.512
   56SOL    HW1 1067   1.582   0.461   1.443
   56SOL    HW2 1068   1.661   0.545   1.559
   57SOL     OW 1069   4.836   0.414   0.641
   57SOL    HW1 1070   4.807   0.358   0.718
   57SOL    HW2 1071   4.936   0.423   0.642
   58SOL     OW 1072   0.536   5.787   6.272
   58SOL    HW1 1073   0.570   5.697   6.297
   58SOL    HW2 1074   0.524   5.792   6.173
   59SOL     OW 1075   1.548   1.210   6.310
   59SOL    HW1 1076   1.585   1.118   6.319
   59SOL    HW2 1077   1.505   1.221   6.220
   60SOL     OW 1078   5.196   0.512   5.585
   60SOL    HW1 1079   5.212   0.537   5.680
   60SOL    HW2 1080   5.258   0.438   5.559
   61SOL     OW 1081   4.949   1.025   3.992
   61SOL    HW1 1082   4.903   0.980   3.915
   61SOL    HW2 1083   4.982   1.115   3.963
   62SOL     OW 1084   0.636   1.545   3.643
   62SOL    HW1 1085   0.727   1.517   3.613
   62SOL    HW2 1086   0.592   1.600   3.572
   63SOL     OW 1087   6.110   1.850   3.862
   63SOL    HW1 1088   6.186   1.875   3.802
   63SOL    HW2 1089   6.144   1.836   3.955
   64SOL     OW 1090   0.413   4.086   6.769
   64SOL    HW1 1091   0.377   4.163   6.821
   64SOL    HW2 1092   0.341   4.017   6.757
   65SOL     OW 1093   6.399   4.353   5.103
   65SOL    HW1 1094   6.367   4.439   5.142
   65SOL    HW2 1095   6.321   4.298   5.073
   66SOL     OW 1096   3.164   0.740   6.976
   66SOL    HW1 1097   3.125   0.754   0.048
   66SOL    HW2 1098   3.090   0.733   6.909
   67SOL     OW 1099   5.666   5.633   5.463
   67SOL    HW1 1100   5.746   5.673   5.419
   67SOL    HW2 1101   5.599   5.607   5.393
   68SOL     OW 1102   6.782   1.441   6.893
   68SOL    HW1 1103   6.872   1.475   6.922
   68SOL    HW2 1104   6.723   1.518   6.869
   69SOL     OW 1105   1.626   4.008   6.335
   69SOL    HW1 1106   1.690   3.934   6.315
   69SOL    HW2 1107   1.663   4.095   6.303
   70SOL     OW 1108   6.279   5.658   2.787
   70SOL    HW1 1109   6.226   5.583   2.747
   70SOL    HW2 1110   6.217   5.730   2.818
   71SOL     OW 1111   2.745   2.085   3.110
   71SOL    HW1 1112   2.795   2.118   3.030
   71SOL    HW2 1113   2.809   2.051   3.178
   72SOL     OW 1114   2.870   6.314   4.587
   72SOL    HW1 1115   2.836   6.236   4.638
   72SOL    HW2 1116   2.820   6.396   4.613
   73SOL     OW 1117   3.084   1.827   0.332
   73SOL    HW1 1118   3.001   1.822   0.277
   73SOL    HW2 1119   3.071   1.894   0.406
   74SOL     OW 1120   5.322   6.487   0.260
   74SOL    HW1 1121   5.250   6.461   0.196
   74SOL    HW2 1122   5.303   6.448   0.350
   75SOL     OW 1123   3.664   5.578   5.649
   75SOL    HW1 1124   3.731   5.602   5.579
   75SOL    HW2 1125   3.711   5.564   5.737
   76SOL     OW 1126   1.752   2.697   1.403
   76SOL    HW1 1127   1.709   2.775   1.448
   76SOL    HW2 1128   1.758   2.714   1.304
   77SOL     OW 1129   4.779   5.460   4.086
   77SOL    HW1 1130   4.785   5.361   4.075
   77SOL    HW2 1131   4.867   5.501   4.063
   78SOL     OW 1132   6.353   6.577   5.861
   78SOL    HW1 1133   6.356   6.575   5.961
   78SOL    HW2 1134   6.258   6.589   5.831
   79SOL     OW 1135   2.829   6.891   0.587
   79SOL    HW1 1136   2.783   6.868   0.501
   79SOL    HW2 1137   2.809   6.821   0.655
   80SOL     OW 1138   5.743   0.842   4.403
   80SOL    HW1 1139   5.678   0.779   4.360
   80SOL    HW2 1140   5.707   0.935   4.398
   81SOL     OW 1141   2.325   0.175   2.777
   81SOL    HW1 1142   2.411   0.220   2.802
   81SOL    HW2 1143   2.297   0.204   2.686
   82SOL     OW 1144   6.792   5.016   0.316
   82SOL    HW1 1145   6.806   4.921   0.286
   82SOL    HW2 1146   6.874   5.049   0.362
   83SOL     OW 1147   6.423   0.262   0.723
   83SOL    HW1 1148   6.334   0.307   0.717
   83SOL    HW2 1149   6.491   0.327   0.755
   84SOL     OW 1150   4.913   3.491   3.316
   84SOL    HW1 1151   5.001   3.486   3.362
   84SOL    HW2 1152   4.896   3.407   3.265
   85SOL     OW 1153   1.105   1.688   5.120
   85SOL    HW1 1154   1.178   1.754   5.107
   85SOL    HW2 1155   1.033   1.727   5.176
   86SOL     OW 1156   1.002   0.494   5.760
   86SOL    HW1 1157   1.071   0.444   5.812
   86SOL    HW2 1158   0.948   0.430   5.706
   87SOL     OW 1159   4.844   2.641   0.673
   87SOL    HW1 1160   4.862   2.577   0.598
   87SOL    HW2 1161   4.861   2.734   0.642
   88SOL     OW 1162   4.299   1.708   0.163
   88SOL    HW1 1163   4.240   1.703   0.082
   88SOL    HW2 1164   4.389   1.741   0.136
   89SOL     OW 1165   1.779   2.995   6.584
   89SOL    HW1 1166   1.846   3.058   6.625
   89SOL    HW2 1167   1.743   3.035   6.500
   90SOL     OW 1168   4.742   6.943   3.819
   90SOL    HW1 1169   4.665   6.887   3.847
   90SOL    HW2 1170   4.713   0.019   3.810
   91SOL     OW 1171   4.485   4.540   4.245
   91SOL    HW1 1172   4.408   4.604   4.239
   91SOL    HW2 1173   4.516   4.515   4.154
   92SOL     OW 1174   3.206   4.355   0.248
   92SOL    HW1 1175   3.250   4.404   0.173
   92SOL    HW2 1176   3.108   4.348   0.230
   93SOL     OW 1177   2.517   4.481   6.226
   93SOL    HW1 1178   2.488   4.446   6.137
   93SOL    HW2 1179   2.482   4.574   6.238
   94SOL     OW 1180   2.486   5.818   6.066
   94SOL    HW1 1181   2.410   5.761   6.095
   94SOL    HW2 1182   2.487   5.826   5.966
   95SOL     OW 1183   0.650   2.208   3.514
   95SOL    HW1 1184   0.670   2.169   3.424
   95SOL    HW2 1185   0.628   2.135   3.578
   96SOL     OW 1186   2.977   6.870   5.838
   96SOL    HW1 1187   2.960   6.840   5.932
   96SOL    HW2 1188   2.953   6.797   5.775
   97SOL     OW 1189   0.401   4.071   5.680
   97SOL    HW1 1190   0.367   4.099   5.770
   97SOL    HW2 1191   0.498   4.045   5.688
   98SOL     OW 1192   6.470   3.782   7.017
   98SOL    HW1 1193   6.417   3.738   0.070
   98SOL    HW2 1194   6.558   3.737   7.007
   99SOL     OW 1195   4.515   3.913   1.227
   99SOL    HW1 1196   4.567   3.891   1.310
   99SOL    HW2 1197   4.417   3.904   1.246
  100SOL     OW 1198   0.586   6.722   6.044
  100SOL    HW1 1199   0.497   6.748   6.081
  100SOL    HW2 1200   0.603   6.625   6.062
  101SOL     OW 1201   0.956   6.162   2.642
  101SOL    HW1 1202   0.892   6.238   2.654
  101SOL    HW2 1203   1.042   6.197   2.604
  102SOL     OW 1204   4.877   0.956   2.153
  102SOL    HW1 1205   4.886   0.866   2.110
  102SOL    HW2 1206   4.830   1.018   2.090
  103SOL     OW 1207   4.297   1.139   1.936
  103SOL    HW1 1208   4.236   1.216   1.919
  103SOL    HW2 1209   4.248   1.054   1.918
  104SOL     OW 1210   0.367   5.714   2.480
  104SOL    HW1 1211   0.274   5.702   2.446
  104SOL    HW2 1212   0.421   5.633   2.459
  105SOL     OW 1213   6.764   1.807   6.698
  105SOL    HW1 1214   6.677   1.757   6.709
  105SOL    HW2 1215   6.835   1.744   6.668
  106SOL     OW 1216   3.320   6.811   5.863
  106SOL    HW1 1217   3.302   6.784   5.768
  106SOL    HW2 1218   3.298   6.908   5.874
  107SOL     OW 1219   1.804   2.314   1.924
  107SOL    HW1 1220   1.848   2.234   1.882
  107SOL    HW2 1221   1.874   2.378   1.955
  108SOL     OW 1222   4.476   4.832   6.620
  108SOL    HW1 1223   4.390   4.785   6.600
  108SOL    HW2 1224   4.548   4.765   6.640
  109SOL     OW 1225   0.620   0.645   1.429
  109SOL    HW1 1226   0.668   0.721   1.474
  109SOL    HW2 1227   0.679   0.605   1.359
  110SOL     OW 1228   4.163   6.324   5.816
  110SOL    HW1 1229   4.148   6.262   5.739
  110SOL    HW2 1230   4.120   6.412   5.797
  111SOL     OW 1231   3.808   0.893   4.866
  111SOL    HW1 1232   3.758   0.809   4.847
  111SOL    HW2 1233   3.894   0.870   4.912
  112SOL     OW 1234   6.500   6.335   6.194
  112SOL    HW1 1235   6.455   6.420   6.167
  112SOL    HW2 1236   6.459   6.301   6.279
  113SOL     OW 1237   6.780   5.256   3.644
  113SOL    HW1 1238   6.796   5.354   3.654
  113SOL    HW2 1239   6.707   5.240   3.578
  114SOL     OW 1240   1.131   0.028   0.906
  114SOL    HW1 1241   1.156   0.047   0.811
  114SOL    HW2 1242   1.117   6.949   0.918
  115SOL     OW 1243   4.599   0.908   4.295
  115SOL    HW1 1244   4.614   0.865   4.384
  115SOL    HW2 1245   4.641   0.999   4.295
  116SOL     OW 1246   6.190   5.385   2.184
  116SOL    HW1 1247   6.247   5.342   2.253
  116SOL    HW2 1248   6.165   5.318   2.114
  117SOL     OW 1249   0.649   1.395   6.376
  117SOL    HW1 1250   0.567   1.391   6.319
  117SOL    HW2 1251   0.728   1.365   6.324
  118SOL     OW 1252   0.306   1.805   2.296
  118SOL    HW1 1253   0.382   1.858   2.334
  118SOL    HW2 1254   0.244   1.777   2.370
  119SOL     OW 1255   0.915   2.079   6.566
  119SOL    HW1 1256   0.964   2.059   6.650
  119SOL    HW2 1257   0.951   2.164   6.526
  120SOL     OW 1258   6.752   6.490   0.477
  120SOL    HW1 1259   6.831   6.550   0.487
  120SOL    HW2 1260   6.766   6.431   0.397
  121SOL     OW 1261   2.682   3.200   0.083
  121SOL    HW1 1262   2.753   3.193   0.153
  121SOL    HW2 1263   2.659   3.297   0.069
  122SOL     OW 1264   1.783   4.671   5.927
  122SOL    HW1 1265   1.736   4.585   5.946
  122SOL    HW2 1266   1.799   4.720   6.013
  123SOL     OW 1267   0.601   1.856   1.593
  123SOL    HW1 1268   0.614   1.791   1.518
  123SOL    HW2 1269   0.601   1.807   1.680
  124SOL     OW 1270   5.347   3.112   0.104
  124SOL    HW1 1271   5.405   3.171   0.160
  124SOL    HW2 1272   5.288   3.057   0.163
  125SOL     OW 1273   2.461   1.680   2.206
  125SOL    HW1 1274   2.492   1.597   2.253
  125SOL    HW2 1275   2.493   1.761   2.256
  126SOL     OW 1276   2.973   4.541   0.566
  126SOL    HW1 1277   2.937   4.450   0.549
  126SOL    HW2 1278   2.911   4.591   0.626
  127SOL     OW 1279   0.220   4.850   6.107
  127SOL    HW1 1280   0.273   4.799   6.175
  127SOL    HW2 1281   0.282   4.885   6.037
  128SOL     OW 1282   4.276   2.748   1.353
  128SOL    HW1 1283   4.264   2.808   1.274
  128SOL    HW2 1284   4.319   2.662   1.324
  129SOL     OW 1285   4.831   3.957   5.935
  129SOL    HW1 1286   4.748   3.971   5.881
  129SOL    HW2 1287   4.911   3.966   5.875
  130SOL     OW 1288   0.688   1.165   4.381
  130SOL    HW1 1289   0.698   1.265   4.378
  130SOL    HW2 1290   0.695   1.134   4.476
  131SOL     OW 1291   5.375   1.187   2.320
  131SOL    HW1 1292   5.382   1.283   2.294
  131SOL    HW2 1293   5.279   1.161   2.327
  132SOL     OW 1294   2.134   3.165   1.009
  132SOL    HW1 1295   2.097   3.149   0.918
  132SOL    HW2 1296   2.060   3.175   1.075
  133SOL     OW 1297   5.283   6.785   3.334
  133SOL    HW1 1298   5.367   6.749   3.292
  133SOL    HW2 1299   5.301   6.875   3.373
  134SOL     OW 1300   5.872   2.246   3.241
  134SOL    HW1 1301   5.971   2.246   3.251
  134SOL    HW2 1302   5.829   2.222   3.328
  135SOL     OW 1303   5.268   2.841   2.248
  135SOL    HW1 1304   5.338   2.815   2.182
  135SOL    HW2 1305   5.200   2.900   2.204
  136SOL     OW 1306   4.113   3.405   6.974
  136SOL    HW1 1307   4.206   3.425   7.004
  136SOL    HW2 1308   4.067   3.490   6.947
  137SOL     OW 1309   4.280   0.268   5.199
  137SOL    HW1 1310   4.269   0.367   5.202
  137SOL    HW2 1311   4.269   0.230   5.290
  138SOL     OW 1312   0.194   4.886   4.089
  138SOL    HW1 1313   0.258   4.810   4.103
  138SOL    HW2 1314   0.131   4.891   4.167
  139SOL     OW 1315   2.382   6.274   5.061
  139SOL    HW1 1316   2.468   6.223   5.067
  139SOL    HW2 1317   2.365   6.300   4.966
  140SOL     OW 1318   0.149   6.007   3.493
  140SOL    HW1 1319   0.059   5.992   3.534
  140SOL    HW2 1320   0.143   6.085   3.430
  141SOL     OW 1321   6.986   2.692   5.285
  141SOL    HW1 1322   6.924   2.689   5.207
  141SOL    HW2 1323   6.962   2.618   5.349
  142SOL     OW 1324   1.711   5.690   0.774
  142SOL    HW1 1325   1.768   5.612   0.799
  142SOL    HW2 1326   1.764   5.753   0.717
  143SOL     OW 1327   5.630   4.502   1.904
  143SOL    HW1 1328   5.561   4.573   1.920
  143SOL    HW2 1329   5.611   4.423   1.963
  144SOL     OW 1330   1.407   6.999   6.300
  144SOL    HW1 1331   1.491   6.981   6.350
  144SOL    HW2 1332   1.331   6.949   6.342
  145SOL     OW 1333   0.601   4.692   0.524
  145SOL    HW1 1334   0.635   4.618   0.581
  145SOL    HW2 1335   0.517   4.730   0.564
  146SOL     OW 1336   4.904   7.009   5.831
  146SOL    HW1 1337   4.956   6.949   5.771
  146SOL    HW2 1338   4.967   0.042   5.889
  147SOL     OW 1339   6.503   2.935   0.099
  147SOL    HW1 1340   6.541   3.007   0.040
  147SOL    HW2 1341   6.542   2.847   0.073
  148SOL     OW 1342   0.669   5.317   6.046
  148SOL    HW1 1343   0.686   5.227   6.088
  148SOL    HW2 1344   0.585   5.356   6.084
  149SOL     OW 1345   2.640   1.346   4.196
  149SOL    HW1 1346   2.712   1.284   4.226
  149SOL    HW2 1347   2.655   1.437   4.235
  150SOL     OW 1348   5.954   4.667   6.405
  150SOL    HW1 1349   6.022   4.676   6.332
  150SOL    HW2 1350   5.947   4.753   6.455
  151SOL     OW 1351   3.403   1.932   1.451
  151SOL    HW1 1352   3.442   1.978   1.371
  151SOL    HW2 1353   3.310   1.901   1.430
  152SOL     OW 1354   1.955   1.312   4.417
  152SOL    HW1 1355   1.897   1.393   4.407
  152SOL    HW2 1356   1.940   1.270   4.506
  153SOL     OW 1357   2.627   0.060   1.961
  153SOL    HW1 1358   2.661   0.118   1.887
  153SOL    HW2 1359   2.701   0.002   1.995
  154SOL     OW 1360   0.341   3.246   2.712
  154SOL    HW1 1361   0.359   3.277   2.805
  154SOL    HW2 1362   0.334   3.325   2.651
  155SOL     OW 1363   0.471   1.675   3.431
  155SOL    HW1 1364   0.433   1.588   3.464
  155SOL    HW2 1365   0.399   1.726   3.384
  156SOL     OW 1366   6.630   1.872   1.576
  156SOL    HW1 1367   6.606   1.945   1.512
  156SOL    HW2 1368   6.700   1.906   1.639
  157SOL     OW 1369   5.674   3.802   2.134
  157SOL    HW1 1370   5.600   3.746   2.096
  157SOL    HW2 1371   5.673   3.892   2.090
  158SOL     OW 1372   2.590   6.925   2.378
  158SOL    HW1 1373   2.540   6.912   2.292
  158SOL    HW2 1374   2.685   6.898   2.366
  159SOL     OW 1375   4.430   4.513   1.092
  159SOL    HW1 1376   4.505   4.528   1.028
  159SOL    HW2 1377   4.464   4.457   1.169
  160SOL     OW 1378   0.331   4.662   6.264
  160SOL    HW1 1379   0.266   4.586   6.269
  160SOL    HW2 1380   0.326   4.716   6.348
  161SOL     OW 1381   1.467   4.849   4.517
  161SOL    HW1 1382   1.391   4.820   4.575
  161SOL    HW2 1383   1.548   4.864   4.574
  162SOL     OW 1384   4.194   6.317   7.001
  162SOL    HW1 1385   4.187   6.218   6.987
  162SOL    HW2 1386   4.278   6.337   0.033
  163SOL     OW 1387   5.112   5.636   1.595
  163SOL    HW1 1388   5.017   5.662   1.609
  163SOL    HW2 1389   5.156   5.700   1.532
  164SOL     OW 1390   6.994   4.069   1.527
  164SOL    HW1 1391   6.902   4.036   1.548
  164SOL    HW2 1392   7.016   4.145   1.588
  165SOL     OW 1393   5.302   2.889   0.906
  165SOL    HW1 1394   5.225   2.847   0.953
  165SOL    HW2 1395   5.290   2.988   0.902
  166SOL     OW 1396   0.117   5.084   3.350
  166SOL    HW1 1397   0.121   5.017   3.424
  166SOL    HW2 1398   0.117   5.177   3.389
  167SOL     OW 1399   6.090   1.939   0.437
  167SOL    HW1 1400   5.997   1.918   0.467
  167SOL    HW2 1401   6.097   2.035   0.412
  168SOL     OW 1402   3.129   3.311   0.906
  168SOL    HW1 1403   3.227   3.324   0.923
  168SOL    HW2 1404   3.081   3.297   0.993
  169SOL     OW 1405   3.477   0.222   2.239
  169SOL    HW1 1406   3.566   0.178   2.230
  169SOL    HW2 1407   3.483   0.300   2.302
  170SOL     OW 1408   0.288   2.034   3.389
  170SOL    HW1 1409   0.278   1.951   3.336
  170SOL    HW2 1410   0.307   2.011   3.484
  171SOL     OW 1411   3.870   4.324   0.216
  171SOL    HW1 1412   3.879   4.271   0.132
  171SOL    HW2 1413   3.949   4.306   0.275
  172SOL     OW 1414   6.126   1.518   4.641
  172SOL    HW1 1415   6.212   1.544   4.685
  172SOL    HW2 1416   6.069   1.467   4.706
  173SOL     OW 1417   6.222   0.929   4.643
  173SOL    HW1 1418   6.133   0.898   4.675
  173SOL    HW2 1419   6.214   1.023   4.608
  174SOL     OW 1420   2.689   5.371   4.123
  174SOL    HW1 1421   2.742   5.295   4.085
  174SOL    HW2 1422   2.595   5.367   4.090
  175SOL     OW 1423   1.811   6.726   1.962
  175SOL    HW1 1424   1.766   6.672   2.034
  175SOL    HW2 1425   1.765   6.709   1.875
  176SOL     OW 1426   1.629   3.977   0.335
  176SOL    HW1 1427   1.654   4.052   0.396
  176SOL    HW2 1428   1.580   3.906   0.386
  177SOL     OW 1429   5.814   3.038   2.799
  177SOL    HW1 1430   5.766   2.951   2.808
  177SOL    HW2 1431   5.890   3.028   2.735
  178SOL     OW 1432   4.944   3.639   5.660
  178SOL    HW1 1433   4.952   3.564   5.594
  178SOL    HW2 1434   5.030   3.648   5.710
  179SOL     OW 1435   3.042   2.007   6.283
  179SOL    HW1 1436   3.049   2.076   6.210
  179SOL    HW2 1437   3.132   1.968   6.301
  180SOL     OW 1438   1.272   0.585   6.629
  180SOL    HW1 1439   1.241   0.565   6.536
  180SOL    HW2 1440   1.251   0.680   6.652
  181SOL     OW 1441   3.460   1.348   6.972
  181SOL    HW1 1442   3.364   1.365   6.995
  181SOL    HW2 1443   3.467   1.331   6.874
  182SOL     OW 1444   3.962   2.165   4.782
  182SOL    HW1 1445   3.872   2.164   4.826
  182SOL    HW2 1446   4.024   2.222   4.836
  183SOL     OW 1447   3.171   1.286   3.792
  183SOL    HW1 1448   3.266   1.257   3.777
  183SOL    HW2 1449   3.170   1.381   3.824
  184SOL     OW 1450   1.288   5.580   3.713
  184SOL    HW1 1451   1.233   5.540   3.787
  184SOL    HW2 1452   1.234   5.580   3.629
  185SOL     OW 1453   1.381   2.832   6.604
  185SOL    HW1 1454   1.439   2.819   6.523
  185SOL    HW2 1455   1.285   2.826   6.577
  186SOL     OW 1456   6.579   0.969   3.583
  186SOL    HW1 1457   6.514   1.008   3.648
  186SOL    HW2 1458   6.642   1.040   3.553
  187SOL     OW 1459   4.753   1.116   3.157
  187SOL    HW1 1460   4.762   1.109   3.257
  187SOL    HW2 1461   4.843   1.127   3.116
  188SOL     OW 1462   6.146   1.910   3.434
  188SOL    HW1 1463   6.175   1.992   3.483
  188SOL    HW2 1464   6.226   1.853   3.414
  189SOL     OW 1465   1.871   5.490   3.063
  189SOL    HW1 1466   1.791   5.547   3.047
  189SOL    HW2 1467   1.941   5.544   3.110
  190SOL     OW 1468   3.822   1.508   4.996
  190SOL    HW1 1469   3.764   1.448   5.051
  190SOL    HW2 1470   3.803   1.493   4.899
  191SOL     OW 1471   5.728   5.552   6.326
  191SOL    HW1 1472   5.793   5.602   6.382
  191SOL    HW2 1473   5.635   5.575   6.354
  192SOL     OW 1474   0.015   5.878   2.021
  192SOL    HW1 1475   6.991   5.943   2.084
  192SOL    HW2 1476   0.023   5.789   2.067
  193SOL     OW 1477   4.873   2.811   5.640
  193SOL    HW1 1478   4.849   2.756   5.720
  193SOL    HW2 1479   4.832   2.901   5.648
  194SOL     OW 1480   3.358   0.891   3.156
  194SOL    HW1 1481   3.394   0.798   3.158
  194SOL    HW2 1482   3.276   0.893   3.098
  195SOL     OW 1483   1.949   5.813   3.826
  195SOL    HW1 1484   2.041   5.795   3.793
  195SOL    HW2 1485   1.935   5.912   3.835
  196SOL     OW 1486   2.291   2.525   6.889
  196SOL    HW1 1487   2.196   2.510   6.860
  196SOL    HW2 1488   2.315   2.458   6.959
  197SOL     OW 1489   2.600   1.342   0.826
  197SOL    HW1 1490   2.601   1.357   0.924
  197SOL    HW2 1491   2.535   1.269   0.803
  198SOL     OW 1492   4.194   1.589   3.116
  198SOL    HW1 1493   4.265   1.603   3.185
  198SOL    HW2 1494   4.155   1.678   3.090
  199SOL     OW 1495   1.201   2.603   3.958
  199SOL    HW1 1496   1.122   2.606   3.896
  199SOL    HW2 1497   1.249   2.690   3.954
  200SOL     OW 1498   0.826   3.084   1.106
  200SOL    HW1 1499   0.756   3.153   1.125
  200SOL    HW2 1500   0.818   3.055   1.011
  201SOL     OW 1501   0.601   6.970   5.586
  201SOL    HW1 1502   0.664   6.971   5.663
  201SOL    HW2 1503   0.652   6.986   5.501
  202SOL     OW 1504   4.147   1.445   6.815
  202SOL    HW1 1505   4.103   1.360   6.784
  202SOL    HW2 1506   4.109   1.522   6.765
  203SOL     OW 1507   5.904   2.043   5.785
  203SOL    HW1 1508   5.929   2.002   5.873
  203SOL    HW2 1509   5.984   2.042   5.724
  204SOL     OW 1510   0.531   0.074   5.208
  204SOL    HW1 1511   0.469   0.068   5.131
  204SOL    HW2 1512   0.622   0.102   5.177
  205SOL     OW 1513   1.579   2.524   2.898
  205SOL    HW1 1514   1.521   2.455   2.855
  205SOL    HW2 1515   1.646   2.480   2.957
  206SOL     OW 1516   0.801   3.249   1.571
  206SOL    HW1 1517   0.775   3.326   1.513
  206SOL    HW2 1518   0.774   3.163   1.526
  207SOL     OW 1519   5.157   0.948   3.153
  207SOL    HW1 1520   5.223   0.961   3.228
  207SOL    HW2 1521   5.109   1.034   3.136
  208SOL     OW 1522   0.059   4.565   5.458
  208SOL    HW1 1523   0.105   4.611   5.535
  208SOL    HW2 1524   0.056   4.467   5.476
  209SOL     OW 1525   6.721   4.349   3.048
  209SOL    HW1 1526   6.775   4.417   2.998
  209SOL    HW2 1527   6.753   4.257   3.025
  210SOL     OW 1528   4.372   1.587   0.958
  210SOL    HW1 1529   4.309   1.626   0.891
  210SOL    HW2 1530   4.430   1.660   0.995
  211SOL     OW 1531   0.859   0.081   2.469
  211SOL    HW1 1532   0.803   0.011   2.424
  211SOL    HW2 1533   0.815   0.110   2.554
  212SOL     OW 1534   1.478   3.784   2.534
  212SOL    HW1 1535   1.478   3.794   2.434
  212SOL    HW2 1536   1.503   3.690   2.558
  213SOL     OW 1537   2.087   5.727   1.063
  213SOL    HW1 1538   2.065   5.636   1.029
  213SOL    HW2 1539   2.161   5.766   1.009
  214SOL     OW 1540   3.582   4.875   2.479
  214SOL    HW1 1541   3.487   4.889   2.509
  214SOL    HW2 1542   3.586   4.874   2.379
  215SOL     OW 1543   2.269   4.240   1.211
  215SOL    HW1 1544   2.203   4.315   1.204
  215SOL    HW2 1545   2.319   4.249   1.297
  216SOL     OW 1546   0.889   6.652   2.796
  216SOL    HW1 1547   0.850   6.614   2.879
  216SOL    HW2 1548   0.816   6.673   2.731
  217SOL     OW 1549   1.238   2.386   5.263
  217SOL    HW1 1550   1.298   2.465   5.271
  217SOL    HW2 1551   1.198   2.383   5.171
  218SOL     OW 1552   0.735   2.128   4.773
  218SOL    HW1 1553   0.717   2.080   4.687
  218SOL    HW2 1554   0.769   2.220   4.753
  219SOL     OW 1555   4.287   0.387   0.331
  219SOL    HW1 1556   4.212   0.435   0.286
  219SOL    HW2 1557   4.356   0.454   0.361
  220SOL     OW 1558   2.553   6.928   0.881
  220SOL    HW1 1559   2.620   6.855   0.899
  220SOL    HW2 1560   2.575   7.007   0.938
  221SOL     OW 1561   6.188   4.366   1.638
  221SOL    HW1 1562   6.178   4.418   1.553
  221SOL    HW2 1563   6.140   4.279   1.630
  222SOL     OW 1564   1.435   4.301   6.291
  222SOL    HW1 1565   1.431   4.304   6.391
  222SOL    HW2 1566   1.347   4.328   6.252
  223SOL     OW 1567   6.880   2.793   5.009
  223SOL    HW1 1568   6.783   2.780   5.031
  223SOL    HW2 1569   6.909   2.722   4.945
  224SOL     OW 1570   3.409   1.577   6.709
  224SOL    HW1 1571   3.414   1.607   6.804
  224SOL    HW2 1572   3.414   1.477   6.705
  225SOL     OW 1573   4.352   3.787   6.323
  225SOL    HW1 1574   4.254   3.792   6.343
  225SOL    HW2 1575   4.385   3.878   6.298
  226SOL     OW 1576   0.674   1.708   6.049
  226SOL    HW1 1577   0.743   1.739   6.114
  226SOL    HW2 1578   0.656   1.780   5.981
  227SOL     OW 1579   2.385   4.319   2.734
  227SOL    HW1 1580   2.444   4.281   2.663
  227SOL    HW2 1581   2.292   4.328   2.699
  228SOL     OW 1582   1.885   0.630   3.019
  228SOL    HW1 1583   1.903   0.634   2.921
  228SOL    HW2 1584   1.805   0.685   3.041
  229SOL     OW 1585   5.289   5.175   6.394
  229SOL    HW1 1586   5.251   5.178   6.486
  229SOL    HW2 1587   5.388   5.191   6.397
  230SOL     OW 1588   4.392   6.013   4.204
  230SOL    HW1 1589   4.391   5.936   4.139
  230SOL    HW2 1590   4.321   5.999   4.273
  231SOL     OW 1591   5.892   1.003   6.847
  231SOL    HW1 1592   5.806   1.039   6.811
  231SOL    HW2 1593   5.914   1.049   6.934
  232SOL     OW 1594   6.932   2.990   6.728
  232SOL    HW1 1595   6.863   2.966   6.796
  232SOL    HW2 1596   7.010   3.033   6.773
  233SOL     OW 1597   3.668   1.693   3.644
  233SOL    HW1 1598   3.587   1.751   3.653
  233SOL    HW2 1599   3.669   1.627   3.719
  234SOL     OW 1600   6.703   0.619   6.135
  234SOL    HW1 1601   6.620   0.584   6.178
  234SOL    HW2 1602   6.746   0.546   6.081
  235SOL     OW 1603   5.269   3.413   2.405
  235SOL    HW1 1604   5.253   3.318   2.380
  235SOL    HW2 1605   5.357   3.443   2.369
  236SOL     OW 1606   5.363   3.126   6.819
  236SOL    HW1 1607   5.264   3.118   6.814
  236SOL    HW2 1608   5.393   3.118   6.914
  237SOL     OW 1609   0.268   4.385   2.182
  237SOL    HW1 1610   0.249   4.459   2.246
  237SOL    HW2 1611   0.202   4.311   2.198
  238SOL     OW 1612   6.615   1.340   0.501
  238SOL    HW1 1613   6.623   1.434   0.469
  238SOL    HW2 1614   6.570   1.338   0.590
  239SOL     OW 1615   1.089   3.857   6.980
  239SOL    HW1 1616   1.183   3.885   6.999
  239SOL    HW2 1617   1.036   3.935   6.947
  240SOL     OW 1618   6.986   3.042   3.316
  240SOL    HW1 1619   6.906   3.026   3.373
  240SOL    HW2 1620   0.048   3.005   3.361
  241SOL     OW 1621   2.685   2.428   4.506
  241SOL    HW1 1622   2.617   2.502   4.508
  241SOL    HW2 1623   2.712   2.406   4.600
  242SOL     OW 1624   3.794   3.734   3.433
  242SOL    HW1 1625   3.793   3.833   3.448
  242SOL    HW2 1626   3.759   3.714   3.341
  243SOL     OW 1627   4.714   1.710   0.304
  243SOL    HW1 1628   4.670   1.787   0.351
  243SOL    HW2 1629   4.788   1.674   0.362
  244SOL     OW 1630   6.006   3.634   5.729
  244SOL    HW1 1631   6.051   3.713   5.689
  244SOL    HW2 1632   5.909   3.654   5.745
  245SOL     OW 1633   4.311   1.720   4.116
  245SOL    HW1 1634   4.214   1.697   4.122
  245SOL    HW2 1635   4.330   1.802   4.170
  246SOL     OW 1636   5.087   1.688   3.247
  246SOL    HW1 1637   5.051   1.779   3.271
  246SOL    HW2 1638   5.177   1.698   3.206
  247SOL     OW 1639   2.544   1.615   1.375
  247SOL    HW1 1640   2.457   1.629   1.327
  247SOL    HW2 1641   2.562   1.693   1.435
  248SOL     OW 1642   2.131   1.174   2.874
  248SOL    HW1 1643   2.220   1.134   2.852
  248SOL    HW2 1644   2.116   1.170   2.973
  249SOL     OW 1645   5.579   6.653   5.466
  249SOL    HW1 1646   5.634   6.575   5.434
  249SOL    HW2 1647   5.525   6.689   5.389
  250SOL     OW 1648   3.719   3.792   0.784
  250SOL    HW1 1649   3.718   3.798   0.684
  250SOL    HW2 1650   3.779   3.717   0.813
  251SOL     OW 1651   4.548   3.402   5.360
  251SOL    HW1 1652   4.542   3.433   5.455
  251SOL    HW2 1653   4.597   3.470   5.306
  252SOL     OW 1654   6.474   6.663   5.204
  252SOL    HW1 1655   6.502   6.759   5.211
  252SOL    HW2 1656   6.488   6.618   5.293
  253SOL     OW 1657   3.753   4.883   6.210
  253SOL    HW1 1658   3.704   4.863   6.126
  253SOL    HW2 1659   3.844   4.841   6.206
  254SOL     OW 1660   6.807   2.315   3.477
  254SOL    HW1 1661   6.837   2.227   3.441
  254SOL    HW2 1662   6.746   2.359   3.412
  255SOL     OW 1663   2.050   4.596   5.857
  255SOL    HW1 1664   2.065   4.579   5.759
  255SOL    HW2 1665   1.954   4.617   5.873
  256SOL     OW 1666   5.803   3.225   6.444
  256SOL    HW1 1667   5.766   3.279   6.520
  256SOL    HW2 1668   5.767   3.261   6.357
  257SOL     OW 1669   5.387   6.944   2.991
  257SOL    HW1 1670   5.418   0.017   3.010
  257SOL    HW2 1671   5.289   6.945   2.973
  258SOL     OW 1672   2.302   3.862   5.369
  258SOL    HW1 1673   2.256   3.775   5.352
  258SOL    HW2 1674   2.310   3.913   5.284
  259SOL     OW 1675   6.024   0.832   1.925
  259SOL    HW1 1676   5.928   0.832   1.952
  259SOL    HW2 1677   6.069   0.913   1.963
  260SOL     OW 1678   4.042   5.819   3.377
  260SOL    HW1 1679   4.072   5.725   3.394
  260SOL    HW2 1680   4.057   5.843   3.281
  261SOL     OW 1681   5.090   3.894   1.528
  261SOL    HW1 1682   5.178   3.851   1.509
  261SOL    HW2 1683   5.022   3.824   1.549
  262SOL     OW 1684   1.004   4.017   0.345
  262SOL    HW1 1685   0.955   4.081   0.287
  262SOL    HW2 1686   1.102   4.039   0.344
  263SOL     OW 1687   1.500   0.870   4.576
  263SOL    HW1 1688   1.550   0.946   4.616
  263SOL    HW2 1689   1.453   0.900   4.493
  264SOL     OW 1690   6.814   2.859   0.262
  264SOL    HW1 1691   6.813   2.761   0.284
  264SOL    HW2 1692   6.725   2.886   0.226
  265SOL     OW 1693   6.093   6.666   2.559
  265SOL    HW1 1694   6.010   6.613   2.576
  265SOL    HW2 1695   6.173   6.613   2.587
  266SOL     OW 1696   4.735   3.022   5.746
  266SOL    HW1 1697   4.697   3.002   5.836
  266SOL    HW2 1698   4.754   3.120   5.739
  267SOL     OW 1699   0.887   1.773   5.818
  267SOL    HW1 1700   0.917   1.728   5.902
  267SOL    HW2 1701   0.795   1.740   5.794
  268SOL     OW 1702   2.760   1.149   6.466
  268SOL    HW1 1703   2.713   1.172   6.551
  268SOL    HW2 1704   2.695   1.111   6.401
  269SOL     OW 1705   2.229   3.567   0.714
  269SOL    HW1 1706   2.233   3.526   0.805
  269SOL    HW2 1707   2.159   3.520   0.660
  270SOL     OW 1708   0.716   6.118   0.330
  270SOL    HW1 1709   0.660   6.097   0.250
  270SOL    HW2 1710   0.735   6.033   0.380
  271SOL     OW 1711   0.472   1.716   6.278
  271SOL    HW1 1712   0.564   1.692   6.245
  271SOL    HW2 1713   0.418   1.633   6.289
  272SOL     OW 1714   3.593   6.938   3.784
  272SOL    HW1 1715   3.604   6.980   3.694
  272SOL    HW2 1716   3.586   7.010   3.853
  273SOL     OW 1717   2.045   4.505   4.997
  273SOL    HW1 1718   2.030   4.506   5.096
  273SOL    HW2 1719   2.129   4.455   4.977
  274SOL     OW 1720   3.428   1.260   3.285
  274SOL    HW1 1721   3.416   1.348   3.240
  274SOL    HW2 1722   3.477   1.198   3.224
  275SOL     OW 1723   6.335   6.016   2.593
  275SOL    HW1 1724   6.380   6.085   2.537
  275SOL    HW2 1725   6.298   5.944   2.533
  276SOL     OW 1726   0.072   6.704   3.897
  276SOL    HW1 1727   0.012   6.628   3.920
  276SOL    HW2 1728   0.167   6.675   3.902
  277SOL     OW 1729   2.063   3.995   7.009
  277SOL    HW1 1730   2.056   4.054   0.070
  277SOL    HW2 1731   2.112   4.043   6.936
  278SOL     OW 1732   0.156   3.483   2.579
  278SOL    HW1 1733   0.247   3.472   2.540
  278SOL    HW2 1734   0.124   3.576   2.561
  279SOL     OW 1735   5.842   2.958   4.683
  279SOL    HW1 1736   5.765   2.941   4.621
  279SOL    HW2 1737   5.871   2.871   4.724
  280SOL     OW 1738   3.246   5.695   1.390
  280SOL    HW1 1739   3.243   5.650   1.301
  280SOL    HW2 1740   3.158   5.684   1.436
  281SOL     OW 1741   2.030   4.550   1.843
  281SOL    HW1 1742   2.002   4.576   1.935
  281SOL    HW2 1743   2.089   4.470   1.847
  282SOL     OW 1744   3.074   1.332   5.599
  282SOL    HW1 1745   3.098   1.420   5.559
  282SOL    HW2 1746   3.088   1.259   5.533
  283SOL     OW 1747   6.204   2.419   6.519
  283SOL    HW1 1748   6.279   2.442   6.580
  283SOL    HW2 1749   6.136   2.492   6.521
  284SOL     OW 1750   1.534   3.523   4.253
  284SOL    HW1 1751   1.522   3.455   4.326
  284SOL    HW2 1752   1.624   3.565   4.261
  285SOL     OW 1753   5.348   5.114   4.322
  285SOL    HW1 1754   5.291   5.119   4.404
  285SOL    HW2 1755   5.290   5.111   4.241
  286SOL     OW 1756   3.219   4.206   6.875
  286SOL    HW1 1757   3.171   4.120   6.858
  286SOL    HW2 1758   3.272   4.198   6.960
  287SOL     OW 1759   1.328   2.611   1.167
  287SOL    HW1 1760   1.349   2.661   1.251
  287SOL    HW2 1761   1.378   2.524   1.165
  288SOL     OW 1762   3.443   1.302   6.685
  288SOL    HW1 1763   3.431   1.206   6.708
  288SOL    HW2 1764   3.464   1.311   6.588
  289SOL     OW 1765   1.743   4.081   5.292
  289SOL    HW1 1766   1.651   4.072   5.253
  289SOL    HW2 1767   1.778   3.991   5.316
  290SOL     OW 1768   6.389   1.788   4.946
  290SOL    HW1 1769   6.489   1.784   4.946
  290SOL    HW2 1770   6.357   1.815   5.037
  291SOL     OW 1771   0.757   1.839   4.081
  291SOL    HW1 1772   0.670   1.887   4.076
  291SOL    HW2 1773   0.801   1.859   4.169
  292SOL     OW 1774   1.415   1.014   3.051
  292SOL    HW1 1775   1.425   1.105   3.091
  292SOL    HW2 1776   1.467   1.009   2.965
  293SOL     OW 1777   4.336   6.212   3.340
  293SOL    HW1 1778   4.252   6.260   3.365
  293SOL    HW2 1779   4.347   6.132   3.398
  294SOL     OW 1780   5.979   6.157   0.146
  294SOL    HW1 1781   5.933   6.230   0.095
  294SOL    HW2 1782   5.944   6.154   0.239
  295SOL     OW 1783   3.601   0.499   2.911
  295SOL    HW1 1784   3.520   0.493   2.853
  295SOL    HW2 1785   3.643   0.409   2.919
  296SOL     OW 1786   3.375   1.278   2.991
  296SOL    HW1 1787   3.439   1.341   2.947
  296SOL    HW2 1788   3.416   1.188   2.998
  297SOL     OW 1789   2.365   4.665   3.534
  297SOL    HW1 1790   2.374   4.667   3.634
  297SOL    HW2 1791   2.329   4.577   3.506
  298SOL     OW 1792   5.245   5.985   1.148
  298SOL    HW1 1793   5.188   5.939   1.080
  298SOL    HW2 1794   5.297   6.058   1.105
  299SOL     OW 1795   6.110   3.046   5.224
  299SOL    HW1 1796   6.044   2.987   5.176
  299SOL    HW2 1797   6.200   3.002   5.225
  300SOL     OW 1798   6.511   0.657   2.995
  300SOL    HW1 1799   6.427   0.615   2.959
  300SOL    HW2 1800   6.497   0.683   3.090
  301SOL     OW 1801   5.408   3.792   6.805
  301SOL    HW1 1802   5.377   3.757   6.893
  301SOL    HW2 1803   5.432   3.889   6.814
  302SOL     OW 1804   1.066   0.462   3.588
  302SOL    HW1 1805   1.143   0.524   3.598
  302SOL    HW2 1806   0.982   0.514   3.574
  303SOL     OW 1807   5.226   0.930   2.219
  303SOL    HW1 1808   5.159   1.003   2.229
  303SOL    HW2 1809   5.309   0.954   2.269
  304SOL     OW 1810   1.888   0.195   3.235
  304SOL    HW1 1811   1.801   0.171   3.279
  304SOL    HW2 1812   1.872   0.266   3.167
  305SOL     OW 1813   0.949   3.662   0.104
  305SOL    HW1 1814   1.001   3.592   0.056
  305SOL    HW2 1815   0.977   3.753   0.072
  306SOL     OW 1816   1.650   1.224   4.064
  306SOL    HW1 1817   1.717   1.201   3.994
  306SOL    HW2 1818   1.617   1.141   4.108
  307SOL     OW 1819   4.896   0.429   1.048
  307SOL    HW1 1820   4.939   0.353   1.097
  307SOL    HW2 1821   4.850   0.394   0.966
  308SOL     OW 1822   0.324   5.621   3.577
  308SOL    HW1 1823   0.229   5.590   3.572
  308SOL    HW2 1824   0.367   5.585   3.659
  309SOL     OW 1825   3.803   4.334   5.243
  309SOL    HW1 1826   3.875   4.393   5.207
  309SOL    HW2 1827   3.827   4.238   5.227
  310SOL     OW 1828   6.782   6.447   5.811
  310SOL    HW1 1829   6.870   6.412   5.780
  310SOL    HW2 1830   6.761   6.409   5.901
  311SOL     OW 1831   6.413   5.310   1.702
  311SOL    HW1 1832   6.386   5.228   1.752
  311SOL    HW2 1833   6.360   5.316   1.618
  312SOL     OW 1834   4.941   1.589   4.708
  312SOL    HW1 1835   4.876   1.633   4.770
  312SOL    HW2 1836   5.032   1.590   4.749
  313SOL     OW 1837   2.527   4.025   1.714
  313SOL    HW1 1838   2.469   3.975   1.778
  313SOL    HW2 1839   2.616   3.981   1.707
  314SOL     OW 1840   3.518   5.194   0.259
  314SOL    HW1 1841   3.615   5.178   0.237
  314SOL    HW2 1842   3.511   5.263   0.331
  315SOL     OW 1843   0.300   2.584   3.461
  315SOL    HW1 1844   0.232   2.584   3.535
  315SOL    HW2 1845   0.338   2.492   3.452
  316SOL     OW 1846   2.309   2.833   4.016
  316SOL    HW1 1847   2.385   2.877   3.968
  316SOL    HW2 1848   2.340   2.803   4.106
  317SOL     OW 1849   0.717   1.122   0.073
  317SOL    HW1 1850   0.803   1.072   0.078
  317SOL    HW2 1851   0.728   1.213   0.112
  318SOL     OW 1852   1.527   4.886   1.018
  318SOL    HW1 1853   1.524   4.985   1.006
  318SOL    HW2 1854   1.475   4.860   1.099
  319SOL     OW 1855   1.008   6.433   1.821
  319SOL    HW1 1856   0.938   6.479   1.875
  319SOL    HW2 1857   1.024   6.341   1.858
  320SOL     OW 1858   6.419   3.113   0.329
  320SOL    HW1 1859   6.409   3.088   0.233
  320SOL    HW2 1860   6.492   3.059   0.371
  321SOL     OW 1861   1.603   1.860   1.958
  321SOL    HW1 1862   1.506   1.837   1.957
  321SOL    HW2 1863   1.623   1.929   1.888
  322SOL     OW 1864   3.902   2.974   4.515
  322SOL    HW1 1865   3.961   2.895   4.498
  322SOL    HW2 1866   3.941   3.030   4.588
  323SOL     OW 1867   0.483   4.203   0.740
  323SOL    HW1 1868   0.450   4.268   0.672
  323SOL    HW2 1869   0.525   4.253   0.816
  324SOL     OW 1870   0.896   2.908   4.404
  324SOL    HW1 1871   0.925   2.966   4.481
  324SOL    HW2 1872   0.975   2.885   4.348
  325SOL     OW 1873   1.898   3.318   1.121
  325SOL    HW1 1874   1.893   3.339   1.023
  325SOL    HW2 1875   1.827   3.251   1.143
  326SOL     OW 1876   1.607   6.495   6.796
  326SOL    HW1 1877   1.696   6.527   6.829
  326SOL    HW2 1878   1.598   6.397   6.816
  327SOL     OW 1879   0.284   4.574   4.435
  327SOL    HW1 1880   0.310   4.478   4.426
  327SOL    HW2 1881   0.334   4.628   4.367
  328SOL     OW 1882   3.907   5.092   2.438
  328SOL    HW1 1883   3.817   5.130   2.413
  328SOL    HW2 1884   3.896   5.023   2.508
  329SOL     OW 1885   2.976   3.885   3.365
  329SOL    HW1 1886   2.910   3.956   3.387
  329SOL    HW2 1887   2.958   3.851   3.273
  330SOL     OW 1888   3.340   6.677   1.567
  330SOL    HW1 1889   3.261   6.738   1.572
  330SOL    HW2 1890   3.423   6.728   1.590
  331SOL     OW 1891   4.276   5.330   6.110
  331SOL    HW1 1892   4.296   5.390   6.033
  331SOL    HW2 1893   4.359   5.317   6.164
  332SOL     OW 1894   3.414   1.533   3.529
  332SOL    HW1 1895   3.314   1.539   3.533
  332SOL    HW2 1896   3.453   1.624   3.542
  333SOL     OW 1897   4.131   6.934   5.991
  333SOL    HW1 1898   4.187   6.976   5.919
  333SOL    HW2 1899   4.187   6.920   6.072
  334SOL     OW 1900   3.204   6.864   2.081
  334SOL    HW1 1901   3.111   6.830   2.092
  334SOL    HW2 1902   3.215   6.904   1.990
  335SOL     OW 1903   3.748   5.748   3.409
  335SOL    HW1 1904   3.847   5.750   3.421
  335SOL    HW2 1905   3.714   5.655   3.421
  336SOL     OW 1906   1.903   1.017   3.206
  336SOL    HW1 1907   1.931   1.079   3.279
  336SOL    HW2 1908   1.885   0.926   3.244
  337SOL     OW 1909   0.374   3.131   1.899
  337SOL    HW1 1910   0.469   3.153   1.878
  337SOL    HW2 1911   0.313   3.193   1.848
  338SOL     OW 1912   3.263   3.085   1.744
  338SOL    HW1 1913   3.254   3.050   1.651
  338SOL    HW2 1914   3.227   3.017   1.808
  339SOL     OW 1915   3.780   0.267   2.924
  339SOL    HW1 1916   3.780   0.263   3.024
  339SOL    HW2 1917   3.836   0.345   2.894
  340SOL     OW 1918   5.370   4.698   4.642
  340SOL    HW1 1919   5.466   4.719   4.664
  340SOL    HW2 1920   5.367   4.636   4.563
  341SOL     OW 1921   5.180   6.233   4.118
  341SOL    HW1 1922   5.170   6.300   4.045
  341SOL    HW2 1923   5.274   6.199   4.118
  342SOL     OW 1924   5.665   4.475   0.017
  342SOL    HW1 1925   5.697   4.396   0.068
  342SOL    HW2 1926   5.602   4.445   6.965
  343SOL     OW 1927   3.401   6.501   1.966
  343SOL    HW1 1928   3.429   6.488   2.061
  343SOL    HW2 1929   3.482   6.516   1.909
  344SOL     OW 1930   1.949   5.211   0.589
  344SOL    HW1 1931   1.987   5.201   0.681
  344SOL    HW2 1932   1.919   5.122   0.556
  345SOL     OW 1933   0.991   0.366   5.285
  345SOL    HW1 1934   1.001   0.318   5.198
  345SOL    HW2 1935   0.944   0.453   5.269
  346SOL     OW 1936   1.335   0.140   3.187
  346SOL    HW1 1937   1.273   0.112   3.114
  346SOL    HW2 1938   1.303   0.103   3.274
  347SOL     OW 1939   5.678   6.506   6.609
  347SOL    HW1 1940   5.712   6.585   6.558
  347SOL    HW2 1941   5.595   6.531   6.659
  348SOL     OW 1942   3.982   5.223   1.127
  348SOL    HW1 1943   3.919   5.151   1.155
  348SOL    HW2 1944   4.076   5.189   1.130
  349SOL     OW 1945   0.289   4.253   2.659
  349SOL    HW1 1946   0.274   4.223   2.565
  349SOL    HW2 1947   0.222   4.210   2.719
  350SOL     OW 1948   4.006   3.607   1.525
  350SOL    HW1 1949   3.908   3.618   1.510
  350SOL    HW2 1950   4.039   3.681   1.583
  351SOL     OW 1951   2.705   1.723   0.443
  351SOL    HW1 1952   2.738   1.809   0.482
  351SOL    HW2 1953   2.680   1.661   0.517
  352SOL     OW 1954   3.505   0.500   5.718
  352SOL    HW1 1955   3.486   0.404   5.702
  352SOL    HW2 1956   3.475   0.554   5.640
  353SOL     OW 1957   1.989   6.334   0.754
  353SOL    HW1 1958   1.949   6.308   0.666
  353SOL    HW2 1959   1.956   6.424   0.781
  354SOL     OW 1960   4.338   2.419   0.233
  354SOL    HW1 1961   4.288   2.362   0.299
  354SOL    HW2 1962   4.330   2.515   0.260
  355SOL     OW 1963   0.080   3.069   2.961
  355SOL    HW1 1964   0.088   3.028   2.870
  355SOL    HW2 1965   0.049   3.000   3.027
  356SOL     OW 1966   4.843   5.146   4.692
  356SOL    HW1 1967   4.826   5.048   4.697
  356SOL    HW2 1968   4.885   5.178   4.777
  357SOL     OW 1969   0.410   5.611   5.193
  357SOL    HW1 1970   0.410   5.539   5.263
  357SOL    HW2 1971   0.503   5.646   5.182
  358SOL     OW 1972   6.640   0.090   1.362
  358SOL    HW1 1973   6.654   7.011   1.365
  358SOL    HW2 1974   6.647   0.128   1.454
  359SOL     OW 1975   1.392   2.566   2.487
  359SOL    HW1 1976   1.490   2.562   2.510
  359SOL    HW2 1977   1.339   2.572   2.571
  360SOL     OW 1978   4.504   6.901   6.592
  360SOL    HW1 1979   4.478   6.817   6.543
  360SOL    HW2 1980   4.478   6.893   6.688
  361SOL     OW 1981   5.186   5.955   3.002
  361SOL    HW1 1982   5.116   5.902   3.050
  361SOL    HW2 1983   5.144   6.005   2.926
  362SOL     OW 1984   2.836   4.320   0.456
  362SOL    HW1 1985   2.839   4.328   0.357
  362SOL    HW2 1986   2.848   4.224   0.482
  363SOL     OW 1987   3.679   5.152   4.419
  363SOL    HW1 1988   3.589   5.123   4.385
  363SOL    HW2 1989   3.712   5.087   4.487
  364SOL     OW 1990   1.054   5.626   5.707
  364SOL    HW1 1991   0.957   5.620   5.730
  364SOL    HW2 1992   1.076   5.562   5.633
  365SOL     OW 1993   5.102   5.702   2.390
  365SOL    HW1 1994   5.195   5.667   2.403
  365SOL    HW2 1995   5.044   5.672   2.466
  366SOL     OW 1996   6.248   1.331   7.001
  366SOL    HW1 1997   6.340   1.325   6.961
  366SOL    HW2 1998   6.208   1.420   6.981
  367SOL     OW 1999   5.255   3.158   0.846
  367SOL    HW1 2000   5.170   3.159   0.794
  367SOL    HW2 2001   5.242   3.207   0.933
  368SOL     OW 2002   1.544   4.333   5.220
  368SOL    HW1 2003   1.462   4.367   5.174
  368SOL    HW2 2004   1.614   4.311   5.152
  369SOL     OW 2005   6.765   4.251   1.711
  369SOL    HW1 2006   6.860   4.261   1.742
  369SOL    HW2 2007   6.704   4.246   1.790
  370SOL     OW 2008   2.648   0.556   6.034
  370SOL    HW1 2009   2.607   0.620   5.969
  370SOL    HW2 2010   2.686   0.478   5.984
  371SOL     OW 2011   2.924   2.940   0.244
  371SOL    HW1 2012   2.859   2.878   0.288
  371SOL    HW2 2013   2.904   3.034   0.269
  372SOL     OW 2014   0.052   6.968   5.498
  372SOL    HW1 2015   7.019   0.015   5.552
  372SOL    HW2 2016   0.145   7.003   5.484
  373SOL     OW 2017   0.061   5.908   0.439
  373SOL    HW1 2018   0.155   5.916   0.471
  373SOL    HW2 2019   0.000   5.894   0.518
  374SOL     OW 2020   3.393   0.478   2.740
  374SOL    HW1 2021   3.295   0.497   2.750
  374SOL    HW2 2022   3.405   0.385   2.706
  375SOL     OW 2023   6.097   4.786   3.120
  375SOL    HW1 2024   6.075   4.854   3.050
  375SOL    HW2 2025   6.183   4.811   3.165
  376SOL     OW 2026   1.617   2.332   3.934
  376SOL    HW1 2027   1.593   2.387   3.854
  376SOL    HW2 2028   1.702   2.366   3.973
  377SOL     OW 2029   4.913   2.240   2.591
  377SOL    HW1 2030   4.825   2.226   2.546
  377SOL    HW2 2031   4.980   2.175   2.555
  378SOL     OW 2032   4.107   3.678   5.683
  378SOL    HW1 2033   4.032   3.614   5.697
  378SOL    HW2 2034   4.149   3.662   5.594
  379SOL     OW 2035   5.808   3.589   1.407
  379SOL    HW1 2036   5.901   3.622   1.390
  379SOL    HW2 2037   5.812   3.495   1.442
  380SOL     OW 2038   1.262   1.498   1.315
  380SOL    HW1 2039   1.255   1.406   1.352
  380SOL    HW2 2040   1.295   1.560   1.386
  381SOL     OW 2041   3.220   4.534   1.235
  381SOL    HW1 2042   3.133   4.543   1.188
  381SOL    HW2 2043   3.287   4.597   1.195
  382SOL     OW 2044   3.218   5.885   0.249
  382SOL    HW1 2045   3.120   5.893   0.231
  382SOL    HW2 2046   3.233   5.839   0.336
  383SOL     OW 2047   6.642   3.130   6.942
  383SOL    HW1 2048   6.587   3.136   6.859
  383SOL    HW2 2049   6.657   3.223   6.978
  384SOL     OW 2050   0.634   5.547   5.441
  384SOL    HW1 2051   0.542   5.514   5.421
  384SOL    HW2 2052   0.682   5.479   5.497
  385SOL     OW 2053   4.667   6.206   0.527
  385SOL    HW1 2054   4.713   6.117   0.521
  385SOL    HW2 2055   4.577   6.200   0.484
  386SOL     OW 2056   3.962   6.434   5.190
  386SOL    HW1 2057   3.919   6.380   5.117
  386SOL    HW2 2058   3.991   6.522   5.154
  387SOL     OW 2059   6.935   0.785   4.628
  387SOL    HW1 2060   6.892   0.769   4.539
  387SOL    HW2 2061   6.983   0.703   4.658
  388SOL     OW 2062   6.929   2.759   5.596
  388SOL    HW1 2063   0.005   2.774   5.622
  388SOL    HW2 2064   6.923   2.683   5.532
  389SOL     OW 2065   4.356   4.369   1.581
  389SOL    HW1 2066   4.410   4.428   1.641
  389SOL    HW2 2067   4.356   4.276   1.617
  390SOL     OW 2068   3.825   1.360   0.516
  390SOL    HW1 2069   3.883   1.354   0.435
  390SOL    HW2 2070   3.768   1.278   0.523
  391SOL     OW 2071   3.019   3.472   6.419
  391SOL    HW1 2072   3.006   3.479   6.518
  391SOL    HW2 2073   3.063   3.556   6.386
  392SOL     OW 2074   1.379   4.228   2.097
  392SOL    HW1 2075   1.373   4.147   2.155
  392SOL    HW2 2076   1.324   4.302   2.137
  393SOL     OW 2077   0.815   4.304   0.677
  393SOL    HW1 2078   0.852   4.320   0.768
  393SOL    HW2 2079   0.769   4.215   0.675
  394SOL     OW 2080   6.566   2.134   6.604
  394SOL    HW1 2081   6.542   2.183   6.520
  394SOL    HW2 2082   6.666   2.137   6.617
  395SOL     OW 2083   4.800   4.243   1.941
  395SOL    HW1 2084   4.709   4.276   1.963
  395SOL    HW2 2085   4.835   4.188   2.017
  396SOL     OW 2086   2.990   1.704   2.734
  396SOL    HW1 2087   2.965   1.738   2.825
  396SOL    HW2 2088   2.916   1.647   2.699
  397SOL     OW 2089   4.529   1.630   5.156
  397SOL    HW1 2090   4.615   1.636   5.205
  397SOL    HW2 2091   4.536   1.679   5.069
  398SOL     OW 2092   1.953   0.518   4.793
  398SOL    HW1 2093   1.868   0.505   4.845
  398SOL    HW2 2094   1.961   0.446   4.724
  399SOL     OW 2095   5.121   6.018   3.662
  399SOL    HW1 2096   5.170   6.033   3.577
  399SOL    HW2 2097   5.065   6.099   3.683
  400SOL     OW 2098   6.173   0.659   4.541
  400SOL    HW1 2099   6.195   0.585   4.478
  400SOL    HW2 2100   6.173   0.746   4.491
  401SOL     OW 2101   6.669   6.322   5.566
  401SOL    HW1 2102   6.737   6.271   5.513
  401SOL    HW2 2103   6.707   6.344   5.656
  402SOL     OW 2104   6.797   0.463   2.760
  402SOL    HW1 2105   6.722   0.403   2.788
  402SOL    HW2 2106   6.873   0.407   2.725
  403SOL     OW 2107   2.858   0.752   6.363
  403SOL    HW1 2108   2.810   0.772   6.278
  403SOL    HW2 2109   2.809   0.682   6.414
  404SOL     OW 2110   4.037   5.143   4.846
  404SOL    HW1 2111   4.073   5.158   4.938
  404SOL    HW2 2112   3.973   5.066   4.848
  405SOL     OW 2113   2.281   4.249   3.684
  405SOL    HW1 2114   2.323   4.259   3.774
  405SOL    HW2 2115   2.248   4.156   3.673
  406SOL     OW 2116   0.394   4.984   5.936
  406SOL    HW1 2117   0.416   5.060   5.875
  406SOL    HW2 2118   0.476   4.928   5.950
  407SOL     OW 2119   1.555   2.954   4.099
  407SOL    HW1 2120   1.603   2.996   4.022
  407SOL    HW2 2121   1.563   2.855   4.094
  408SOL     OW 2122   2.949   1.593   3.613
  408SOL    HW1 2123   2.913   1.525   3.549
  408SOL    HW2 2124   2.935   1.562   3.707
  409SOL     OW 2125   1.103   3.942   2.534
  409SOL    HW1 2126   1.020   3.984   2.568
  409SOL    HW2 2127   1.080   3.871   2.467
  410SOL     OW 2128   1.594   1.908   1.473
  410SOL    HW1 2129   1.646   1.922   1.389
  410SOL    HW2 2130   1.649   1.857   1.539
  411SOL     OW 2131   0.485   2.294   1.515
  411SOL    HW1 2132   0.565   2.299   1.574
  411SOL    HW2 2133   0.459   2.386   1.486
  412SOL     OW 2134   1.965   4.976   2.197
  412SOL    HW1 2135   1.919   4.892   2.225
  412SOL    HW2 2136   2.062   4.958   2.184
  413SOL     OW 2137   4.228   5.101   2.732
  413SOL    HW1 2138   4.229   5.197   2.705
  413SOL    HW2 2139   4.135   5.075   2.759
  414SOL     OW 2140   2.949   6.453   3.789
  414SOL    HW1 2141   2.895   6.378   3.750
  414SOL    HW2 2142   2.946   6.531   3.727
  415SOL     OW 2143   6.685   0.817   0.278
  415SOL    HW1 2144   6.714   0.786   0.369
  415SOL    HW2 2145   6.664   0.915   0.282
  416SOL     OW 2146   4.879   3.237   4.760
  416SOL    HW1 2147   4.863   3.211   4.855
  416SOL    HW2 2148   4.882   3.336   4.753
  417SOL     OW 2149   3.375   2.162   6.720
  417SOL    HW1 2150   3.419   2.227   6.658
  417SOL    HW2 2151   3.315   2.211   6.783
  418SOL     OW 2152   3.928   6.350   4.349
  418SOL    HW1 2153   3.881   6.263   4.365
  418SOL    HW2 2154   3.877   6.405   4.283
  419SOL     OW 2155   0.978   0.111   1.795
  419SOL    HW1 2156   1.051   0.119   1.864
  419SOL    HW2 2157   0.994   0.029   1.740
  420SOL     OW 2158   6.406   0.623   6.158
  420SOL    HW1 2159   6.431   0.606   6.253
  420SOL    HW2 2160   6.433   0.716   6.133
  421SOL     OW 2161   5.315   3.967   3.288
  421SOL    HW1 2162   5.230   3.920   3.266
  421SOL    HW2 2163   5.299   4.033   3.361
  422SOL     OW 2164   5.198   3.141   1.614
  422SOL    HW1 2165   5.144   3.074   1.563
  422SOL    HW2 2166   5.291   3.107   1.626
  423SOL     OW 2167   3.629   1.617   6.430
  423SOL    HW1 2168   3.562   1.680   6.392
  423SOL    HW2 2169   3.639   1.634   6.528
  424SOL     OW 2170   1.235   4.176   3.062
  424SOL    HW1 2171   1.157   4.238   3.050
  424SOL    HW2 2172   1.207   4.098   3.118
  425SOL     OW 2173   2.587   0.043   5.423
  425SOL    HW1 2174   2.556   0.072   5.332
  425SOL    HW2 2175   2.514   0.057   5.489
  426SOL     OW 2176   2.292   2.710   4.297
  426SOL    HW1 2177   2.197   2.723   4.270
  426SOL    HW2 2178   2.318   2.782   4.362
  427SOL     OW 2179   4.069   1.960   3.514
  427SOL    HW1 2180   4.015   1.965   3.597
  427SOL    HW2 2181   4.025   2.013   3.442
  428SOL     OW 2182   2.587   1.391   5.179
  428SOL    HW1 2183   2.570   1.355   5.088
  428SOL    HW2 2184   2.522   1.351   5.244
  429SOL     OW 2185   1.167   5.782   3.920
  429SOL    HW1 2186   1.230   5.787   3.842
  429SOL    HW2 2187   1.073   5.779   3.887
  430SOL     OW 2188   1.326   7.014   3.454
  430SOL    HW1 2189   1.387   0.027   3.526
  430SOL    HW2 2190   1.366   6.934   3.409
  431SOL     OW 2191   2.932   1.685   2.135
  431SOL    HW1 2192   2.984   1.770   2.144
  431SOL    HW2 2193   2.853   1.701   2.077
  432SOL     OW 2194   4.155   2.062   1.438
  432SOL    HW1 2195   4.181   2.011   1.519
  432SOL    HW2 2196   4.076   2.120   1.459
  433SOL     OW 2197   1.968   6.522   0.435
  433SOL    HW1 2198   1.942   6.443   0.490
  433SOL    HW2 2199   2.066   6.521   0.419
  434SOL     OW 2200   3.935   6.174   3.672
  434SOL    HW1 2201   3.935   6.217   3.763
  434SOL    HW2 2202   3.850   6.196   3.624
  435SOL     OW 2203   2.717   1.828   5.986
  435SOL    HW1 2204   2.702   1.817   6.084
  435SOL    HW2 2205   2.797   1.774   5.958
  436SOL     OW 2206   4.664   0.189   2.939
  436SOL    HW1 2207   4.641   0.284   2.919
  436SOL    HW2 2208   4.584   0.144   2.981
  437SOL     OW 2209   6.557   0.222   4.438
  437SOL    HW1 2210   6.604   0.135   4.418
  437SOL    HW2 2211   6.507   0.213   4.524
  438SOL     OW 2212   0.529   4.169   2.795
  438SOL    HW1 2213   0.446   4.213   2.762
  438SOL    HW2 2214   0.506   4.094   2.856
  439SOL     OW 2215   5.687   0.456   2.985
  439SOL    HW1 2216   5.597   0.462   2.943
  439SOL    HW2 2217   5.678   0.469   3.084
  440SOL     OW 2218   4.390   1.012   0.388
  440SOL    HW1 2219   4.442   1.009   0.473
  440SOL    HW2 2220   4.330   1.092   0.389
  441SOL     OW 2221   0.270   4.431   2.983
  441SOL    HW1 2222   0.322   4.452   2.900
  441SOL    HW2 2223   0.327   4.376   3.044
  442SOL     OW 2224   5.982   3.216   5.992
  442SOL    HW1 2225   6.071   3.225   5.947
  442SOL    HW2 2226   5.909   3.232   5.925
  443SOL     OW 2227   4.937   3.581   2.613
  443SOL    HW1 2228   4.935   3.523   2.531
  443SOL    HW2 2229   5.030   3.584   2.649
  444SOL     OW 2230   4.369   0.835   1.303
  444SOL    HW1 2231   4.367   0.809   1.206
  444SOL    HW2 2232   4.294   0.789   1.350
  445SOL     OW 2233   1.510   5.574   2.608
  445SOL    HW1 2234   1.415   5.545   2.604
  445SOL    HW2 2235   1.514   5.671   2.632
  446SOL     OW 2236   5.376   6.977   1.773
  446SOL    HW1 2237   5.461   7.012   1.734
  446SOL    HW2 2238   5.309   6.962   1.700
  447SOL     OW 2239   6.239   4.340   0.465
  447SOL    HW1 2240   6.281   4.249   0.453
  447SOL    HW2 2241   6.159   4.333   0.524
  448SOL     OW 2242   2.693   6.685   3.429
  448SOL    HW1 2243   2.766   6.709   3.364
  448SOL    HW2 2244   2.662   6.592   3.411
  449SOL     OW 2245   2.122   3.211   4.610
  449SOL    HW1 2246   2.116   3.311   4.609
  449SOL    HW2 2247   2.140   3.180   4.703
  450SOL     OW 2248   0.702   4.882   3.391
  450SOL    HW1 2249   0.662   4.792   3.409
  450SOL    HW2 2250   0.692   4.940   3.472
  451SOL     OW 2251   0.719   2.056   2.461
  451SOL    HW1 2252   0.655   2.010   2.400
  451SOL    HW2 2253   0.813   2.027   2.439
  452SOL     OW 2254   4.608   6.009   2.809
  452SOL    HW1 2255   4.669   6.088   2.803
  452SOL    HW2 2256   4.541   6.024   2.883
  453SOL     OW 2257   3.596   0.522   6.951
  453SOL    HW1 2258   3.570   0.447   6.890
  453SOL    HW2 2259   3.528   0.595   6.944
  454SOL     OW 2260   0.069   4.068   6.800
  454SOL    HW1 2261   0.117   3.981   6.791
  454SOL    HW2 2262   7.014   4.059   6.866
  455SOL     OW 2263   6.289   4.434   6.144
  455SOL    HW1 2264   6.301   4.351   6.090
  455SOL    HW2 2265   6.302   4.414   6.241
  456SOL     OW 2266   2.734   0.771   2.377
  456SOL    HW1 2267   2.697   0.761   2.285
  456SOL    HW2 2268   2.659   0.773   2.443
  457SOL     OW 2269   2.328   0.187   6.471
  457SOL    HW1 2270   2.419   0.173   6.511
  457SOL    HW2 2271   2.283   0.262   6.518
  458SOL     OW 2272   2.417   1.216   3.277
  458SOL    HW1 2273   2.440   1.152   3.350
  458SOL    HW2 2274   2.483   1.291   3.276
  459SOL     OW 2275   2.708   0.338   4.260
  459SOL    HW1 2276   2.685   0.435   4.254
  459SOL    HW2 2277   2.625   0.283   4.255
  460SOL     OW 2278   1.256   1.931   5.148
  460SOL    HW1 2279   1.163   1.967   5.147
  460SOL    HW2 2280   1.321   2.007   5.141
  461SOL     OW 2281   0.857   5.372   5.865
  461SOL    HW1 2282   0.940   5.316   5.860
  461SOL    HW2 2283   0.793   5.332   5.930
  462SOL     OW 2284   2.979   3.888   4.239
  462SOL    HW1 2285   3.013   3.954   4.306
  462SOL    HW2 2286   2.911   3.829   4.283
  463SOL     OW 2287   5.648   6.988   2.320
  463SOL    HW1 2288   5.587   0.043   2.348
  463SOL    HW2 2289   5.731   6.990   2.377
  464SOL     OW 2290   4.063   5.726   6.212
  464SOL    HW1 2291   4.049   5.824   6.205
  464SOL    HW2 2292   3.985   5.678   6.171
  465SOL     OW 2293   1.512   3.225   0.075
  465SOL    HW1 2294   1.427   3.182   0.105
  465SOL    HW2 2295   1.520   3.218   6.995
  466SOL     OW 2296   4.092   5.582   4.891
  466SOL    HW1 2297   4.134   5.671   4.873
  466SOL    HW2 2298   3.998   5.582   4.857
  467SOL     OW 2299   6.212   0.272   1.404
  467SOL    HW1 2300   6.239   0.361   1.441
  467SOL    HW2 2301   6.288   0.233   1.352
  468SOL     OW 2302   3.872   6.994   6.489
  468SOL    HW1 2303   3.815   0.002   6.411
  468SOL    HW2 2304   3.969   7.003   6.465
  469SOL     OW 2305   2.881   5.257   5.911
  469SOL    HW1 2306   2.963   5.209   5.879
  469SOL    HW2 2307   2.840   5.307   5.835
  470SOL     OW 2308   2.248   5.090   2.869
  470SOL    HW1 2309   2.258   4.992   2.851
  470SOL    HW2 2310   2.251   5.140   2.782
  471SOL     OW 2311   2.486   2.631   4.584
  471SOL    HW1 2312   2.453   2.719   4.551
  471SOL    HW2 2313   2.495   2.635   4.684
  472SOL     OW 2314   5.898   4.020   6.205
  472SOL    HW1 2315   5.959   3.944   6.223
  472SOL    HW2 2316   5.936   4.077   6.132
  473SOL     OW 2317   7.010   3.264   2.577
  473SOL    HW1 2318   6.927   3.304   2.617
  473SOL    HW2 2319   0.067   3.327   2.591
  474SOL     OW 2320   4.812   6.098   4.063
  474SOL    HW1 2321   4.804   6.193   4.031
  474SOL    HW2 2322   4.774   6.091   4.155
  475SOL     OW 2323   6.118   1.686   1.098
  475SOL    HW1 2324   6.085   1.616   1.161
  475SOL    HW2 2325   6.206   1.721   1.130
  476SOL     OW 2326   0.726   4.853   1.168
  476SOL    HW1 2327   0.630   4.875   1.183
  476SOL    HW2 2328   0.774   4.854   1.256
  477SOL     OW 2329   1.182   4.551   3.824
  477SOL    HW1 2330   1.103   4.520   3.772
  477SOL    HW2 2331   1.231   4.473   3.861
  478SOL     OW 2332   4.909   5.921   1.803
  478SOL    HW1 2333   4.863   5.843   1.847
  478SOL    HW2 2334   4.983   5.953   1.862
  479SOL     OW 2335   3.912   4.008   3.765
  479SOL    HW1 2336   3.861   4.054   3.838
  479SOL    HW2 2337   3.979   3.946   3.805
  480SOL     OW 2338   1.620   0.134   3.266
  480SOL    HW1 2339   1.527   0.132   3.230
  480SOL    HW2 2340   1.646   0.041   3.295
  481SOL     OW 2341   0.341   6.689   0.949
  481SOL    HW1 2342   0.316   6.783   0.925
  481SOL    HW2 2343   0.434   6.687   0.987
  482SOL     OW 2344   4.653   5.358   1.800
  482SOL    HW1 2345   4.575   5.336   1.859
  482SOL    HW2 2346   4.707   5.275   1.784
  483SOL     OW 2347   5.335   1.912   3.505
  483SOL    HW1 2348   5.327   1.936   3.408
  483SOL    HW2 2349   5.314   1.815   3.517
  484SOL     OW 2350   2.221   4.069   4.410
  484SOL    HW1 2351   2.210   4.049   4.508
  484SOL    HW2 2352   2.265   4.157   4.398
  485SOL     OW 2353   5.007   3.309   1.594
  485SOL    HW1 2354   4.956   3.289   1.678
  485SOL    HW2 2355   5.099   3.270   1.601
  486SOL     OW 2356   6.370   6.578   6.146
  486SOL    HW1 2357   6.297   6.557   6.212
  486SOL    HW2 2358   6.414   6.664   6.171
  487SOL     OW 2359   6.720   0.002   5.309
  487SOL    HW1 2360   6.815   0.032   5.306
  487SOL    HW2 2361   6.711   6.945   5.373
  488SOL     OW 2362   1.619   5.767   3.345
  488SOL    HW1 2363   1.563   5.719   3.277
  488SOL    HW2 2364   1.651   5.702   3.413
  489SOL     OW 2365   0.922   5.824   5.897
  489SOL    HW1 2366   0.892   5.919   5.887
  489SOL    HW2 2367   1.006   5.809   5.845
  490SOL     OW 2368   1.473   4.282   5.742
  490SOL    HW1 2369   1.518   4.284   5.652
  490SOL    HW2 2370   1.375   4.266   5.729
  491SOL     OW 2371   0.641   2.342   0.771
  491SOL    HW1 2372   0.550   2.352   0.811
  491SOL    HW2 2373   0.701   2.414   0.806
  492SOL     OW 2374   1.213   1.908   5.873
  492SOL    HW1 2375   1.169   1.995   5.895
  492SOL    HW2 2376   1.180   1.837   5.935
  493SOL     OW 2377   2.063   5.952   4.490
  493SOL    HW1 2378   2.128   5.880   4.516
  493SOL    HW2 2379   1.972   5.912   4.479
  494SOL     OW 2380   2.632   6.182   5.090
  494SOL    HW1 2381   2.620   6.201   4.993
  494SOL    HW2 2382   2.710   6.235   5.125
  495SOL     OW 2383   3.614   4.740   5.796
  495SOL    HW1 2384   3.685   4.804   5.766
  495SOL    HW2 2385   3.643   4.647   5.775
  496SOL     OW 2386   5.047   1.820   2.697
  496SOL    HW1 2387   4.953   1.788   2.688
  496SOL    HW2 2388   5.106   1.743   2.721
  497SOL     OW 2389   3.134   1.031   0.222
  497SOL    HW1 2390   3.096   0.939   0.220
  497SOL    HW2 2391   3.168   1.052   0.314
  498SOL     OW 2392   0.569   6.178   1.557
  498SOL    HW1 2393   0.659   6.135   1.545
  498SOL    HW2 2394   0.498   6.119   1.518
  499SOL     OW 2395   3.165   6.135   6.599
  499SOL    HW1 2396   3.142   6.086   6.683
  499SOL    HW2 2397   3.260   6.165   6.602
  500SOL     OW 2398   6.369   1.934   0.115
  500SOL    HW1 2399   6.453   1.967   0.071
  500SOL    HW2 2400   6.296   2.000   0.102
  501SOL     OW 2401   0.861   0.627   3.421
  501SOL    HW1 2402   0.810   0.571   3.356
  501SOL    HW2 2403   0.802   0.699   3.457
  502SOL     OW 2404   1.986   5.076   6.552
  502SOL    HW1 2405   2.063   5.022   6.587
  502SOL    HW2 2406   1.919   5.015   6.511
  503SOL     OW 2407   3.574   4.588   6.646
  503SOL    HW1 2408   3.648   4.599   6.580
  503SOL    HW2 2409   3.556   4.676   6.691
  504SOL     OW 2410   6.132   6.692   2.007
  504SOL    HW1 2411   6.210   6.703   1.946
  504SOL    HW2 2412   6.054   6.744   1.972
  505SOL     OW 2413   5.091   6.793   4.938
  505SOL    HW1 2414   5.113   6.883   4.899
  505SOL    HW2 2415   4.993   6.786   4.951
  506SOL     OW 2416   4.223   5.415   3.115
  506SOL    HW1 2417   4.212   5.505   3.159
  506SOL    HW2 2418   4.267   5.426   3.026
  507SOL     OW 2419   3.403   0.686   0.762
  507SOL    HW1 2420   3.384   0.654   0.669
  507SOL    HW2 2421   3.319   0.684   0.817
  508SOL     OW 2422   6.934   5.041   3.721
  508SOL    HW1 2423   6.884   5.125   3.699
  508SOL    HW2 2424   6.869   4.968   3.742
  509SOL     OW 2425   4.680   6.739   5.675
  509SOL    HW1 2426   4.683   6.639   5.662
  509SOL    HW2 2427   4.644   6.760   5.765
  510SOL     OW 2428   0.152   3.736   0.171
  510SOL    HW1 2429   0.204   3.814   0.137
  510SOL    HW2 2430   0.151   3.664   0.101
  511SOL     OW 2431   0.973   1.771   0.875
  511SOL    HW1 2432   0.966   1.675   0.849
  511SOL    HW2 2433   0.887   1.817   0.852
  512SOL     OW 2434   6.624   2.481   6.341
  512SOL    HW1 2435   6.684   2.490   6.262
  512SOL    HW2 2436   6.575   2.567   6.356
  513SOL     OW 2437   5.425   0.975   2.549
  513SOL    HW1 2438   5.460   0.998   2.640
  513SOL    HW2 2439   5.501   0.946   2.491
  514SOL     OW 2440   6.700   6.651   4.165
  514SOL    HW1 2441   6.698   6.652   4.065
  514SOL    HW2 2442   6.787   6.690   4.197
  515SOL     OW 2443   3.727   0.097   6.299
  515SOL    HW1 2444   3.761   0.136   6.214
  515SOL    HW2 2445   3.659   0.026   6.278
  516SOL     OW 2446   2.505   5.715   1.571
  516SOL    HW1 2447   2.416   5.670   1.584
  516SOL    HW2 2448   2.490   5.812   1.551
  517SOL     OW 2449   3.408   5.408   1.891
  517SOL    HW1 2450   3.484   5.463   1.858
  517SOL    HW2 2451   3.440   5.345   1.962
  518SOL     OW 2452   2.083   3.462   3.552
  518SOL    HW1 2453   2.102   3.369   3.520
  518SOL    HW2 2454   2.039   3.457   3.642
  519SOL     OW 2455   0.346   6.903   3.175
  519SOL    HW1 2456   0.296   6.842   3.237
  519SOL    HW2 2457   0.423   6.944   3.225
  520SOL     OW 2458   1.311   3.138   0.252
  520SOL    HW1 2459   1.305   3.042   0.226
  520SOL    HW2 2460   1.226   3.166   0.296
  521SOL     OW 2461   5.584   5.616   4.990
  521SOL    HW1 2462   5.622   5.618   4.898
  521SOL    HW2 2463   5.589   5.708   5.030
  522SOL     OW 2464   3.953   3.885   1.380
  522SOL    HW1 2465   3.911   3.809   1.429
  522SOL    HW2 2466   3.882   3.939   1.336
  523SOL     OW 2467   0.254   6.554   1.961
  523SOL    HW1 2468   0.294   6.549   1.869
  523SOL    HW2 2469   0.164   6.511   1.959
  524SOL     OW 2470   0.173   2.190   1.907
  524SOL    HW1 2471   0.073   2.189   1.908
  524SOL    HW2 2472   0.207   2.103   1.871
  525SOL     OW 2473   1.993   3.487   6.054
  525SOL    HW1 2474   1.904   3.530   6.061
  525SOL    HW2 2475   2.044   3.527   5.978
  526SOL     OW 2476   2.946   6.925   4.497
  526SOL    HW1 2477   3.003   6.963   4.424
  526SOL    HW2 2478   2.966   6.828   4.507
  527SOL     OW 2479   0.878   1.564   0.347
  527SOL    HW1 2480   0.946   1.513   0.400
  527SOL    HW2 2481   0.871   1.657   0.383
  528SOL     OW 2482   6.578   3.347   4.412
  528SOL    HW1 2483   6.556   3.438   4.377
  528SOL    HW2 2484   6.535   3.334   4.501
  529SOL     OW 2485   2.090   0.448   6.357
  529SOL    HW1 2486   2.045   0.452   6.446
  529SOL    HW2 2487   2.180   0.492   6.363
  530SOL     OW 2488   3.941   3.331   0.768
  530SOL    HW1 2489   4.003   3.261   0.733
  530SOL    HW2 2490   3.968   3.357   0.860
  531SOL     OW 2491   1.816   0.508   1.835
  531SOL    HW1 2492   1.806   0.422   1.784
  531SOL    HW2 2493   1.788   0.494   1.930
  532SOL     OW 2494   2.972   2.232   0.752
  532SOL    HW1 2495   2.877   2.254   0.730
  532SOL    HW2 2496   3.020   2.316   0.778
  533SOL     OW 2497   3.652   0.426   4.220
  533SOL    HW1 2498   3.709   0.350   4.189
  533SOL    HW2 2499   3.573   0.391   4.269
  534SOL     OW 2500   1.147   5.134   1.482
  534SOL    HW1 2501   1.060   5.145   1.434
  534SOL    HW2 2502   1.174   5.220   1.525
  535SOL     OW 2503   5.172   3.506   3.784
  535SOL    HW1 2504   5.171   3.424   3.727
  535SOL    HW2 2505   5.197   3.585   3.729
  536SOL     OW 2506   6.035   6.146   2.517
  536SOL    HW1 2507   6.128   6.148   2.480
  536SOL    HW2 2508   5.983   6.224   2.482
  537SOL     OW 2509   3.133   0.801   4.529
  537SOL    HW1 2510   3.223   0.831   4.497
  537SOL    HW2 2511   3.125   0.702   4.515
  538SOL     OW 2512   2.811   4.577   5.597
  538SOL    HW1 2513   2.774   4.584   5.505
  538SOL    HW2 2514   2.808   4.482   5.628
  539SOL     OW 2515   1.105   6.425   0.067
  539SOL    HW1 2516   1.146   6.464   0.149
  539SOL    HW2 2517   1.034   6.359   0.094
  540SOL     OW 2518   0.920   0.727   4.009
  540SOL    HW1 2519   0.914   0.628   3.996
  540SOL    HW2 2520   0.949   0.770   3.923
  541SOL     OW 2521   4.492   6.434   4.239
  541SOL    HW1 2522   4.462   6.365   4.173
  541SOL    HW2 2523   4.419   6.451   4.305
  542SOL     OW 2524   3.319   0.208   6.590
  542SOL    HW1 2525   3.309   0.111   6.611
  542SOL    HW2 2526   3.229   0.251   6.589
  543SOL     OW 2527   5.578   2.179   4.193
  543SOL    HW1 2528   5.577   2.168   4.292
  543SOL    HW2 2529   5.671   2.200   4.163
  544SOL     OW 2530   1.274   3.937   1.002
  544SOL    HW1 2531   1.225   4.020   0.974
  544SOL    HW2 2532   1.208   3.865   1.023
  545SOL     OW 2533   5.830   1.412   1.755
  545SOL    HW1 2534   5.895   1.488   1.758
  545SOL    HW2 2535   5.736   1.448   1.751
  546SOL     OW 2536   0.508   4.068   2.533
  546SOL    HW1 2537   0.500   4.081   2.632
  546SOL    HW2 2538   0.420   4.089   2.490
  547SOL     OW 2539   4.337   1.866   6.771
  547SOL    HW1 2540   4.424   1.879   6.724
  547SOL    HW2 2541   4.280   1.803   6.718
  548SOL     OW 2542   3.072   2.848   6.942
  548SOL    HW1 2543   3.029   2.869   6.854
  548SOL    HW2 2544   3.093   2.751   6.947
  549SOL     OW 2545   6.051   2.415   0.926
  549SOL    HW1 2546   6.059   2.456   1.017
  549SOL    HW2 2547   5.961   2.436   0.888
  550SOL     OW 2548   0.361   5.422   2.996
  550SOL    HW1 2549   0.282   5.477   2.968
  550SOL    HW2 2550   0.354   5.401   3.094
  551SOL     OW 2551   6.772   1.470   0.203
  551SOL    HW1 2552   6.676   1.491   0.187
  551SOL    HW2 2553   6.817   1.451   0.115
  552SOL     OW 2554   6.104   5.132   5.751
  552SOL    HW1 2555   6.031   5.182   5.704
  552SOL    HW2 2556   6.183   5.192   5.762
  553SOL     OW 2557   3.156   0.762   5.524
  553SOL    HW1 2558   3.125   0.783   5.617
  553SOL    HW2 2559   3.141   0.841   5.465
  554SOL     OW 2560   5.769   5.808   0.888
  554SOL    HW1 2561   5.758   5.766   0.799
  554SOL    HW2 2562   5.752   5.907   0.881
  555SOL     OW 2563   1.887   4.982   5.806
  555SOL    HW1 2564   1.954   4.917   5.770
  555SOL    HW2 2565   1.796   4.954   5.778
  556SOL     OW 2566   4.924   1.401   3.662
  556SOL    HW1 2567   4.914   1.327   3.595
  556SOL    HW2 2568   4.841   1.409   3.716
  557SOL     OW 2569   6.595   4.520   5.968
  557SOL    HW1 2570   6.559   4.609   5.937
  557SOL    HW2 2571   6.557   4.447   5.910
  558SOL     OW 2572   3.371   3.809   2.426
  558SOL    HW1 2573   3.308   3.826   2.502
  558SOL    HW2 2574   3.464   3.802   2.461
  559SOL     OW 2575   6.223   6.308   5.551
  559SOL    HW1 2576   6.289   6.240   5.517
  559SOL    HW2 2577   6.225   6.308   5.651
  560SOL     OW 2578   6.460   3.186   2.893
  560SOL    HW1 2579   6.537   3.121   2.896
  560SOL    HW2 2580   6.440   3.216   2.986
  561SOL     OW 2581   0.577   2.996   6.239
  561SOL    HW1 2582   0.505   2.998   6.170
  561SOL    HW2 2583   0.638   2.919   6.222
  562SOL     OW 2584   3.911   0.501   5.970
  562SOL    HW1 2585   3.854   0.535   5.895
  562SOL    HW2 2586   3.862   0.428   6.019
  563SOL     OW 2587   1.769   2.007   4.380
  563SOL    HW1 2588   1.714   1.956   4.314
  563SOL    HW2 2589   1.721   2.091   4.404
  564SOL     OW 2590   0.328   2.296   5.020
  564SOL    HW1 2591   0.269   2.315   5.098
  564SOL    HW2 2592   0.391   2.222   5.042
  565SOL     OW 2593   3.735   3.471   3.553
  565SOL    HW1 2594   3.640   3.475   3.583
  565SOL    HW2 2595   3.759   3.557   3.508
  566SOL     OW 2596   3.445   6.191   2.887
  566SOL    HW1 2597   3.514   6.138   2.837
  566SOL    HW2 2598   3.473   6.287   2.890
  567SOL     OW 2599   2.090   3.062   6.586
  567SOL    HW1 2600   2.130   3.073   6.677
  567SOL    HW2 2601   2.069   3.151   6.548
  568SOL     OW 2602   6.790   0.640   0.810
  568SOL    HW1 2603   6.876   0.671   0.850
  568SOL    HW2 2604   6.799   0.544   0.783
  569SOL     OW 2605   0.225   1.840   0.454
  569SOL    HW1 2606   0.140   1.796   0.424
  569SOL    HW2 2607   0.297   1.771   0.460
  570SOL     OW 2608   2.784   0.110   5.858
  570SOL    HW1 2609   2.813   0.015   5.845
  570SOL    HW2 2610   2.684   0.114   5.857
  571SOL     OW 2611   2.640   4.937   3.000
  571SOL    HW1 2612   2.574   4.871   3.036
  571SOL    HW2 2613   2.659   5.005   3.071
  572SOL     OW 2614   2.470   6.678   4.041
  572SOL    HW1 2615   2.467   6.773   4.011
  572SOL    HW2 2616   2.548   6.664   4.101
  573SOL     OW 2617   6.718   1.895   5.816
  573SOL    HW1 2618   6.703   1.816   5.756
  573SOL    HW2 2619   6.814   1.899   5.843
  574SOL     OW 2620   2.780   1.702   5.553
  574SOL    HW1 2621   2.695   1.751   5.574
  574SOL    HW2 2622   2.792   1.695   5.454
  575SOL     OW 2623   3.031   3.552   0.551
  575SOL    HW1 2624   3.095   3.614   0.506
  575SOL    HW2 2625   2.948   3.602   0.574
  576SOL     OW 2626   1.717   2.814   3.028
  576SOL    HW1 2627   1.620   2.839   3.034
  576SOL    HW2 2628   1.746   2.816   2.932
  577SOL     OW 2629   1.173   1.575   1.830
  577SOL    HW1 2630   1.134   1.612   1.746
  577SOL    HW2 2631   1.102   1.527   1.882
  578SOL     OW 2632   1.959   5.468   6.567
  578SOL    HW1 2633   1.950   5.458   6.667
  578SOL    HW2 2634   1.990   5.561   6.546
  579SOL     OW 2635   2.440   4.440   2.328
  579SOL    HW1 2636   2.503   4.482   2.262
  579SOL    HW2 2637   2.438   4.495   2.411
  580SOL     OW 2638   4.131   5.226   5.114
  580SOL    HW1 2639   4.229   5.208   5.119
  580SOL    HW2 2640   4.111   5.313   5.160
  581SOL     OW 2641   1.186   3.034   3.883
  581SOL    HW1 2642   1.128   3.115   3.897
  581SOL    HW2 2643   1.136   2.967   3.829
  582SOL     OW 2644   5.462   5.422   3.492
  582SOL    HW1 2645   5.451   5.399   3.396
  582SOL    HW2 2646   5.502   5.343   3.541
  583SOL     OW 2647   3.437   4.960   5.738
  583SOL    HW1 2648   3.369   4.923   5.801
  583SOL    HW2 2649   3.500   4.888   5.710
  584SOL     OW 2650   4.035   0.760   6.846
  584SOL    HW1 2651   3.997   0.670   6.824
  584SOL    HW2 2652   4.024   0.820   6.767
  585SOL     OW 2653   2.671   6.486   1.997
  585SOL    HW1 2654   2.638   6.425   1.925
  585SOL    HW2 2655   2.717   6.432   2.067
  586SOL     OW 2656   4.476   0.166   0.795
  586SOL    HW1 2657   4.470   0.247   0.737
  586SOL    HW2 2658   4.477   0.084   0.737
  587SOL     OW 2659   5.281   2.147   1.890
  587SOL    HW1 2660   5.308   2.135   1.795
  587SOL    HW2 2661   5.250   2.241   1.905
  588SOL     OW 2662   0.777   5.123   2.063
  588SOL    HW1 2663   0.875   5.133   2.042
  588SOL    HW2 2664   0.742   5.040   2.018
  589SOL     OW 2665   3.373   5.846   1.075
  589SOL    HW1 2666   3.274   5.830   1.065
  589SOL    HW2 2667   3.408   5.795   1.153
  590SOL     OW 2668   5.399   1.456   0.541
  590SOL    HW1 2669   5.307   1.448   0.579
  590SOL    HW2 2670   5.406   1.540   0.487
  591SOL     OW 2671   4.093   5.775   4.184
  591SOL    HW1 2672   4.112   5.772   4.282
  591SOL    HW2 2673   3.998   5.750   4.167
  592SOL     OW 2674   4.453   2.093   4.679
  592SOL    HW1 2675   4.413   2.067   4.766
  592SOL    HW2 2676   4.426   2.187   4.656
  593SOL     OW 2677   3.704   1.882   5.695
  593SOL    HW1 2678   3.802   1.887   5.714
  593SOL    HW2 2679   3.689   1.875   5.597
  594SOL     OW 2680   6.153   1.382   1.531
  594SOL    HW1 2681   6.057   1.376   1.556
  594SOL    HW2 2682   6.197   1.454   1.584
  595SOL     OW 2683   5.109   6.341   2.627
  595SOL    HW1 2684   5.072   6.254   2.658
  595SOL    HW2 2685   5.066   6.416   2.678
  596SOL     OW 2686   6.750   3.937   3.902
  596SOL    HW1 2687   6.799   3.959   3.986
  596SOL    HW2 2688   6.751   4.016   3.840
  597SOL     OW 2689   2.842   0.148   6.744
  597SOL    HW1 2690   2.941   0.132   6.743
  597SOL    HW2 2691   2.799   0.083   6.808
  598SOL     OW 2692   2.921   3.440   5.036
  598SOL    HW1 2693   3.007   3.390   5.032
  598SOL    HW2 2694   2.851   3.384   5.078
  599SOL     OW 2695   0.901   5.967   2.150
  599SOL    HW1 2696   0.965   5.931   2.082
  599SOL    HW2 2697   0.945   5.974   2.239
  600SOL     OW 2698   6.838   4.181   4.849
  600SOL    HW1 2699   6.828   4.256   4.914
  600SOL    HW2 2700   6.791   4.100   4.884
  601SOL     OW 2701   1.542   0.681   5.350
  601SOL    HW1 2702   1.449   0.709   5.375
  601SOL    HW2 2703   1.539   0.617   5.274
  602SOL     OW 2704   3.185   6.431   4.506
  602SOL    HW1 2705   3.196   6.333   4.525
  602SOL    HW2 2706   3.188   6.446   4.407
  603SOL     OW 2707   1.614   0.989   5.381
  603SOL    HW1 2708   1.550   1.065   5.376
  603SOL    HW2 2709   1.564   0.905   5.403
  604SOL     OW 2710   6.621   2.199   1.996
  604SOL    HW1 2711   6.551   2.197   1.924
  604SOL    HW2 2712   6.590   2.145   2.074
  605SOL     OW 2713   0.504   4.546   2.139
  605SOL    HW1 2714   0.493   4.646   2.145
  605SOL    HW2 2715   0.415   4.502   2.135
  606SOL     OW 2716   3.618   0.176   5.067
  606SOL    HW1 2717   3.567   0.256   5.100
  606SOL    HW2 2718   3.589   0.154   4.974
  607SOL     OW 2719   1.006   4.986   5.865
  607SOL    HW1 2720   1.061   4.932   5.929
  607SOL    HW2 2721   1.015   5.083   5.888
  608SOL     OW 2722   3.129   0.436   5.668
  608SOL    HW1 2723   3.181   0.511   5.629
  608SOL    HW2 2724   3.166   0.349   5.635
  609SOL     OW 2725   4.130   2.615   1.569
  609SOL    HW1 2726   4.197   2.643   1.499
  609SOL    HW2 2727   4.079   2.695   1.599
  610SOL     OW 2728   4.692   3.424   0.302
  610SOL    HW1 2729   4.763   3.371   0.349
  610SOL    HW2 2730   4.684   3.393   0.207
  611SOL     OW 2731   3.746   0.104   2.204
  611SOL    HW1 2732   3.807   0.140   2.275
  611SOL    HW2 2733   3.795   0.102   2.117
  612SOL     OW 2734   3.755   4.459   6.048
  612SOL    HW1 2735   3.697   4.377   6.049
  612SOL    HW2 2736   3.779   4.481   5.953
  613SOL     OW 2737   4.646   5.385   5.430
  613SOL    HW1 2738   4.585   5.406   5.506
  613SOL    HW2 2739   4.739   5.411   5.454
  614SOL     OW 2740   5.203   5.679   5.732
  614SOL    HW1 2741   5.107   5.692   5.756
  614SOL    HW2 2742   5.209   5.653   5.636
  615SOL     OW 2743   0.248   4.957   1.084
  615SOL    HW1 2744   0.226   4.890   1.155
  615SOL    HW2 2745   0.170   5.019   1.071
  616SOL     OW 2746   6.041   2.899   3.075
  616SOL    HW1 2747   6.047   2.874   3.172
  616SOL    HW2 2748   5.946   2.887   3.043
  617SOL     OW 2749   2.364   5.064   5.835
  617SOL    HW1 2750   2.457   5.098   5.852
  617SOL    HW2 2751   2.316   5.053   5.921
  618SOL     OW 2752   1.363   1.160   1.854
  618SOL    HW1 2753   1.325   1.069   1.836
  618SOL    HW2 2754   1.371   1.173   1.953
  619SOL     OW 2755   1.065   1.517   6.447
  619SOL    HW1 2756   1.095   1.593   6.389
  619SOL    HW2 2757   1.141   1.453   6.460
  620SOL     OW 2758   4.699   3.152   0.165
  620SOL    HW1 2759   4.688   3.065   0.214
  620SOL    HW2 2760   4.778   3.201   0.202
  621SOL     OW 2761   0.517   4.856   0.260
  621SOL    HW1 2762   0.451   4.923   0.226
  621SOL    HW2 2763   0.546   4.883   0.353
  622SOL     OW 2764   1.970   1.593   0.426
  622SOL    HW1 2765   2.051   1.635   0.385
  622SOL    HW2 2766   1.992   1.500   0.455
  623SOL     OW 2767   1.099   4.675   6.492
  623SOL    HW1 2768   1.007   4.678   6.530
  623SOL    HW2 2769   1.165   4.660   6.566
  624SOL     OW 2770   0.827   3.273   2.704
  624SOL    HW1 2771   0.771   3.338   2.756
  624SOL    HW2 2772   0.809   3.180   2.736
  625SOL     OW 2773   2.607   1.212   2.687
  625SOL    HW1 2774   2.645   1.280   2.749
  625SOL    HW2 2775   2.629   1.237   2.593
  626SOL     OW 2776   2.011   6.469   4.110
  626SOL    HW1 2777   1.957   6.551   4.088
  626SOL    HW2 2778   2.102   6.478   4.070
  627SOL     OW 2779   5.540   0.796   0.011
  627SOL    HW1 2780   5.509   0.885   0.044
  627SOL    HW2 2781   5.640   0.793   0.011
  628SOL     OW 2782   5.000   4.372   4.232
  628SOL    HW1 2783   5.062   4.370   4.311
  628SOL    HW2 2784   4.921   4.314   4.250
  629SOL     OW 2785   0.446   0.093   0.932
  629SOL    HW1 2786   0.486   0.003   0.913
  629SOL    HW2 2787   0.516   0.154   0.969
  630SOL     OW 2788   4.289   1.382   1.182
  630SOL    HW1 2789   4.338   1.440   1.247
  630SOL    HW2 2790   4.353   1.343   1.116
  631SOL     OW 2791   2.139   0.047   5.673
  631SOL    HW1 2792   2.071   0.112   5.708
  631SOL    HW2 2793   2.131   0.039   5.574
  632SOL     OW 2794   2.403   0.828   1.009
  632SOL    HW1 2795   2.479   0.893   1.001
  632SOL    HW2 2796   2.364   0.813   0.918
  633SOL     OW 2797   3.377   6.594   6.895
  633SOL    HW1 2798   3.416   6.507   6.864
  633SOL    HW2 2799   3.418   6.620   6.982
  634SOL     OW 2800   4.283   5.774   0.944
  634SOL    HW1 2801   4.260   5.753   1.040
  634SOL    HW2 2802   4.347   5.851   0.942
  635SOL     OW 2803   2.924   6.983   3.019
  635SOL    HW1 2804   2.971   0.017   2.948
  635SOL    HW2 2805   2.881   6.903   2.978
  636SOL     OW 2806   4.893   5.286   6.752
  636SOL    HW1 2807   4.966   5.226   6.718
  636SOL    HW2 2808   4.887   5.367   6.694
  637SOL     OW 2809   4.827   4.773   1.413
  637SOL    HW1 2810   4.788   4.706   1.349
  637SOL    HW2 2811   4.777   4.770   1.499
  638SOL     OW 2812   4.705   1.085   1.944
  638SOL    HW1 2813   4.616   1.124   1.967
  638SOL    HW2 2814   4.694   0.988   1.923
  639SOL     OW 2815   4.184   4.662   1.935
  639SOL    HW1 2816   4.255   4.621   1.992
  639SOL    HW2 2817   4.154   4.595   1.866
  640SOL     OW 2818   3.212   4.049   5.336
  640SOL    HW1 2819   3.195   4.126   5.274
  640SOL    HW2 2820   3.305   4.016   5.324
  641SOL     OW 2821   6.985   5.553   4.946
  641SOL    HW1 2822   6.962   5.492   4.870
  641SOL    HW2 2823   6.942   5.642   4.931
  642SOL     OW 2824   0.210   4.614   4.916
  642SOL    HW1 2825   0.188   4.660   4.830
  642SOL    HW2 2826   0.216   4.682   4.989
  643SOL     OW 2827   6.107   5.498   6.249
  643SOL    HW1 2828   6.129   5.593   6.226
  643SOL    HW2 2829   6.059   5.456   6.172
  644SOL     OW 2830   1.010   6.382   2.877
  644SOL    HW1 2831   0.934   6.433   2.837
  644SOL    HW2 2832   0.975   6.318   2.946
  645SOL     OW 2833   5.021   2.519   3.790
  645SOL    HW1 2834   5.094   2.465   3.832
  645SOL    HW2 2835   4.947   2.459   3.760
  646SOL     OW 2836   1.060   1.198   4.617
  646SOL    HW1 2837   1.013   1.117   4.583
  646SOL    HW2 2838   1.008   1.238   4.692
  647SOL     OW 2839   6.232   2.776   0.216
  647SOL    HW1 2840   6.236   2.807   0.311
  647SOL    HW2 2841   6.272   2.847   0.157
  648SOL     OW 2842   5.742   4.075   2.059
  648SOL    HW1 2843   5.714   4.040   1.970
  648SOL    HW2 2844   5.836   4.107   2.054
  649SOL     OW 2845   4.085   4.521   1.289
  649SOL    HW1 2846   4.124   4.481   1.206
  649SOL    HW2 2847   3.999   4.475   1.311
  650SOL     OW 2848   4.808   4.057   0.602
  650SOL    HW1 2849   4.735   4.033   0.665
  650SOL    HW2 2850   4.858   3.975   0.575
  651SOL     OW 2851   0.721   6.190   0.702
  651SOL    HW1 2852   0.698   6.169   0.797
  651SOL    HW2 2853   0.721   6.106   0.648
  652SOL     OW 2854   4.382   1.165   2.879
  652SOL    HW1 2855   4.425   1.107   2.948
  652SOL    HW2 2856   4.323   1.232   2.924
  653SOL     OW 2857   3.475   4.980   4.240
  653SOL    HW1 2858   3.483   4.940   4.148
  653SOL    HW2 2859   3.382   4.965   4.274
  654SOL     OW 2860   0.322   4.642   6.670
  654SOL    HW1 2861   0.409   4.620   6.715
  654SOL    HW2 2862   0.247   4.608   6.725
  655SOL     OW 2863   0.928   0.178   1.037
  655SOL    HW1 2864   0.971   0.142   0.954
  655SOL    HW2 2865   0.985   0.154   1.117
  656SOL     OW 2866   2.358   6.536   2.401
  656SOL    HW1 2867   2.285   6.482   2.359
  656SOL    HW2 2868   2.318   6.608   2.458
  657SOL     OW 2869   3.312   1.258   0.623
  657SOL    HW1 2870   3.367   1.327   0.670
  657SOL    HW2 2871   3.253   1.212   0.689
  658SOL     OW 2872   3.125   3.783   0.146
  658SOL    HW1 2873   3.143   3.748   0.238
  658SOL    HW2 2874   3.034   3.754   0.116
  659SOL     OW 2875   3.096   0.125   6.854
  659SOL    HW1 2876   3.144   0.042   6.823
  659SOL    HW2 2877   3.057   0.109   6.944
  660SOL     OW 2878   3.716   5.510   2.694
  660SOL    HW1 2879   3.752   5.435   2.749
  660SOL    HW2 2880   3.758   5.509   2.603
  661SOL     OW 2881   4.125   6.041   2.994
  661SOL    HW1 2882   4.126   6.009   2.899
  661SOL    HW2 2883   4.168   5.973   3.052
  662SOL     OW 2884   3.389   1.502   6.163
  662SOL    HW1 2885   3.348   1.411   6.162
  662SOL    HW2 2886   3.317   1.571   6.164
  663SOL     OW 2887   2.277   5.259   5.180
  663SOL    HW1 2888   2.187   5.279   5.140
  663SOL    HW2 2889   2.325   5.194   5.122
  664SOL     OW 2890   0.024   0.221   6.706
  664SOL    HW1 2891   0.084   0.141   6.713
  664SOL    HW2 2892   6.999   0.237   6.794
  665SOL     OW 2893   2.878   5.385   3.548
  665SOL    HW1 2894   2.933   5.358   3.627
  665SOL    HW2 2895   2.917   5.343   3.465
  666SOL     OW 2896   3.895   0.429   2.010
  666SOL    HW1 2897   3.972   0.460   2.065
  666SOL    HW2 2898   3.865   0.503   1.949
  667SOL     OW 2899   0.484   6.069   1.981
  667SOL    HW1 2900   0.498   6.094   2.077
  667SOL    HW2 2901   0.497   6.149   1.923
  668SOL     OW 2902   5.518   4.412   6.411
  668SOL    HW1 2903   5.537   4.350   6.335
  668SOL    HW2 2904   5.569   4.496   6.399
  669SOL     OW 2905   5.729   1.532   2.554
  669SOL    HW1 2906   5.780   1.471   2.616
  669SOL    HW2 2907   5.655   1.576   2.605
  670SOL     OW 2908   1.460   2.075   3.837
  670SOL    HW1 2909   1.442   2.147   3.904
  670SOL    HW2 2910   1.419   2.101   3.749
  671SOL     OW 2911   2.359   6.479   1.592
  671SOL    HW1 2912   2.341   6.512   1.684
  671SOL    HW2 2913   2.280   6.429   1.558
  672SOL     OW 2914   0.135   6.262   1.801
  672SOL    HW1 2915   0.217   6.205   1.810
  672SOL    HW2 2916   0.056   6.203   1.785
  673SOL     OW 2917   5.456   6.443   1.015
  673SOL    HW1 2918   5.513   6.524   1.033
  673SOL    HW2 2919   5.380   6.469   0.955
  674SOL     OW 2920   6.913   1.578   5.134
  674SOL    HW1 2921   6.887   1.528   5.052
  674SOL    HW2 2922   6.950   1.515   5.203
  675SOL     OW 2923   5.449   2.209   2.376
  675SOL    HW1 2924   5.420   2.258   2.458
  675SOL    HW2 2925   5.404   2.250   2.296
  676SOL     OW 2926   2.440   4.652   5.416
  676SOL    HW1 2927   2.413   4.673   5.510
  676SOL    HW2 2928   2.499   4.571   5.416
  677SOL     OW 2929   4.543   1.078   1.187
  677SOL    HW1 2930   4.572   1.115   1.098
  677SOL    HW2 2931   4.464   1.019   1.174
  678SOL     OW 2932   2.349   4.093   5.505
  678SOL    HW1 2933   2.354   4.155   5.427
  678SOL    HW2 2934   2.329   4.001   5.472
  679SOL     OW 2935   4.964   1.222   5.231
  679SOL    HW1 2936   4.890   1.206   5.296
  679SOL    HW2 2937   4.931   1.281   5.156
  680SOL     OW 2938   5.397   6.797   4.066
  680SOL    HW1 2939   5.391   6.860   3.989
  680SOL    HW2 2940   5.379   6.846   4.151
  681SOL     OW 2941   5.398   6.257   2.133
  681SOL    HW1 2942   5.329   6.295   2.194
  681SOL    HW2 2943   5.383   6.159   2.123
  682SOL     OW 2944   0.906   0.852   2.676
  682SOL    HW1 2945   0.968   0.779   2.703
  682SOL    HW2 2946   0.843   0.818   2.605
  683SOL     OW 2947   4.326   3.635   1.088
  683SOL    HW1 2948   4.327   3.681   1.000
  683SOL    HW2 2949   4.290   3.542   1.076
  684SOL     OW 2950   6.132   0.321   6.325
  684SOL    HW1 2951   6.105   0.413   6.355
  684SOL    HW2 2952   6.231   0.310   6.336
  685SOL     OW 2953   3.564   1.282   3.527
  685SOL    HW1 2954   3.504   1.251   3.453
  685SOL    HW2 2955   3.537   1.374   3.555
  686SOL     OW 2956   4.257   1.115   4.199
  686SOL    HW1 2957   4.223   1.038   4.252
  686SOL    HW2 2958   4.334   1.157   4.247
  687SOL     OW 2959   1.037   1.867   4.385
  687SOL    HW1 2960   0.944   1.843   4.413
  687SOL    HW2 2961   1.090   1.784   4.370
  688SOL     OW 2962   7.006   1.709   6.566
  688SOL    HW1 2963   7.013   1.619   6.522
  688SOL    HW2 2964   0.051   1.715   6.641
  689SOL     OW 2965   1.227   5.189   5.577
  689SOL    HW1 2966   1.223   5.207   5.675
  689SOL    HW2 2967   1.160   5.118   5.553
  690SOL     OW 2968   5.932   3.720   2.835
  690SOL    HW1 2969   6.020   3.673   2.837
  690SOL    HW2 2970   5.859   3.653   2.822
  691SOL     OW 2971   3.930   1.656   6.880
  691SOL    HW1 2972   3.874   1.642   6.799
  691SOL    HW2 2973   3.876   1.634   6.962
  692SOL     OW 2974   2.994   1.698   5.147
  692SOL    HW1 2975   2.992   1.786   5.195
  692SOL    HW2 2976   2.990   1.715   5.048
  693SOL     OW 2977   4.980   6.081   3.207
  693SOL    HW1 2978   4.908   6.148   3.224
  693SOL    HW2 2979   5.055   6.125   3.157
  694SOL     OW 2980   4.275   5.798   4.819
  694SOL    HW1 2981   4.310   5.756   4.903
  694SOL    HW2 2982   4.344   5.793   4.747
  695SOL     OW 2983   2.969   6.281   4.021
  695SOL    HW1 2984   2.935   6.301   4.113
  695SOL    HW2 2985   2.922   6.339   3.955
  696SOL     OW 2986   4.809   4.029   3.214
  696SOL    HW1 2987   4.868   4.042   3.293
  696SOL    HW2 2988   4.804   3.932   3.192
  697SOL     OW 2989   0.976   4.446   1.838
  697SOL    HW1 2990   0.999   4.444   1.741
  697SOL    HW2 2991   0.890   4.495   1.851
  698SOL     OW 2992   4.921   6.879   1.274
  698SOL    HW1 2993   4.956   6.787   1.290
  698SOL    HW2 2994   4.873   6.911   1.357
  699SOL     OW 2995   2.717   2.339   0.628
  699SOL    HW1 2996   2.785   2.332   0.555
  699SOL    HW2 2997   2.651   2.265   0.620
  700SOL     OW 2998   3.401   0.179   2.676
  700SOL    HW1 2999   3.365   0.144   2.763
  700SOL    HW2 3000   3.357   0.131   2.600
  701SOL     OW 3001   6.375   4.692   1.348
  701SOL    HW1 3002   6.351   4.769   1.288
  701SOL    HW2 3003   6.347   4.712   1.442
  702SOL     OW 3004   2.911   1.204   4.298
  702SOL    HW1 3005   2.981   1.219   4.368
  702SOL    HW2 3006   2.884   1.107   4.298
  703SOL     OW 3007   2.745   2.963   5.754
  703SOL    HW1 3008   2.844   2.968   5.763
  703SOL    HW2 3009   2.718   2.872   5.722
  704SOL     OW 3010   1.555   2.858   6.369
  704SOL    HW1 3011   1.530   2.817   6.281
  704SOL    HW2 3012   1.590   2.951   6.354
  705SOL     OW 3013   0.133   5.963   4.147
  705SOL    HW1 3014   0.071   6.010   4.083
  705SOL    HW2 3015   0.096   5.873   4.169
  706SOL     OW 3016   4.194   0.785   5.573
  706SOL    HW1 3017   4.124   0.713   5.568
  706SOL    HW2 3018   4.229   0.791   5.666
  707SOL     OW 3019   3.334   5.073   3.718
  707SOL    HW1 3020   3.339   5.168   3.746
  707SOL    HW2 3021   3.395   5.057   3.641
  708SOL     OW 3022   2.752   0.760   3.215
  708SOL    HW1 3023   2.701   0.769   3.130
  708SOL    HW2 3024   2.694   0.788   3.292
  709SOL     OW 3025   2.172   0.199   1.760
  709SOL    HW1 3026   2.074   0.217   1.755
  709SOL    HW2 3027   2.204   0.215   1.853
  710SOL     OW 3028   5.001   2.835   1.707
  710SOL    HW1 3029   4.921   2.846   1.649
  710SOL    HW2 3030   5.073   2.787   1.656
  711SOL     OW 3031   0.397   2.395   5.552
  711SOL    HW1 3032   0.431   2.485   5.579
  711SOL    HW2 3033   0.472   2.343   5.510
  712SOL     OW 3034   4.468   2.498   0.793
  712SOL    HW1 3035   4.523   2.440   0.733
  712SOL    HW2 3036   4.528   2.565   0.837
  713SOL     OW 3037   3.949   2.814   5.312
  713SOL    HW1 3038   4.009   2.740   5.280
  713SOL    HW2 3039   3.873   2.824   5.249
  714SOL     OW 3040   6.015   4.542   3.454
  714SOL    HW1 3041   6.089   4.588   3.503
  714SOL    HW2 3042   5.969   4.607   3.394
  715SOL     OW 3043   6.180   4.915   6.032
  715SOL    HW1 3044   6.233   4.985   6.079
  715SOL    HW2 3045   6.170   4.940   5.936
  716SOL     OW 3046   1.971   0.978   2.715
  716SOL    HW1 3047   2.058   0.983   2.665
  716SOL    HW2 3048   1.948   1.068   2.751
  717SOL     OW 3049   5.531   4.973   3.776
  717SOL    HW1 3050   5.434   4.957   3.797
  717SOL    HW2 3051   5.581   4.989   3.861
  718SOL     OW 3052   5.162   1.708   4.284
  718SOL    HW1 3053   5.087   1.652   4.248
  718SOL    HW2 3054   5.145   1.804   4.264
  719SOL     OW 3055   6.469   0.707   2.657
  719SOL    HW1 3056   6.418   0.788   2.629
  719SOL    HW2 3057   6.567   0.728   2.660
  720SOL     OW 3058   1.759   1.165   6.739
  720SOL    HW1 3059   1.773   1.066   6.734
  720SOL    HW2 3060   1.676   1.188   6.687
  721SOL     OW 3061   0.092   2.493   2.440
  721SOL    HW1 3062   0.066   2.589   2.441
  721SOL    HW2 3063   0.113   2.464   2.347
  722SOL     OW 3064   4.338   0.099   6.776
  722SOL    HW1 3065   4.405   0.081   6.848
  722SOL    HW2 3066   4.382   0.147   6.701
  723SOL     OW 3067   2.296   6.307   3.772
  723SOL    HW1 3068   2.209   6.311   3.723
  723SOL    HW2 3069   2.347   6.392   3.756
  724SOL     OW 3070   0.873   1.452   3.557
  724SOL    HW1 3071   0.908   1.481   3.468
  724SOL    HW2 3072   0.910   1.512   3.629
  725SOL     OW 3073   2.181   4.581   2.149
  725SOL    HW1 3074   2.237   4.544   2.075
  725SOL    HW2 3075   2.225   4.663   2.186
  726SOL     OW 3076   2.290   5.038   0.436
  726SOL    HW1 3077   2.217   5.007   0.498
  726SOL    HW2 3078   2.358   5.089   0.489
  727SOL     OW 3079   4.220   5.076   6.061
  727SOL    HW1 3080   4.186   5.163   6.095
  727SOL    HW2 3081   4.148   5.029   6.011
  728SOL     OW 3082   7.006   3.496   4.821
  728SOL    HW1 3083   0.033   3.453   4.899
  728SOL    HW2 3084   6.938   3.432   4.783
  729SOL     OW 3085   0.267   3.277   1.312
  729SOL    HW1 3086   0.206   3.352   1.288
  729SOL    HW2 3087   0.352   3.313   1.352
  730SOL     OW 3088   4.778   0.670   3.069
  730SOL    HW1 3089   4.854   0.704   3.014
  730SOL    HW2 3090   4.759   0.734   3.143
  731SOL     OW 3091   4.514   4.487   6.894
  731SOL    HW1 3092   4.459   4.406   6.917
  731SOL    HW2 3093   4.560   4.471   6.807
  732SOL     OW 3094   4.632   1.630   2.960
  732SOL    HW1 3095   4.684   1.690   3.020
  732SOL    HW2 3096   4.657   1.535   2.977
  733SOL     OW 3097   6.083   6.524   3.254
  733SOL    HW1 3098   6.014   6.504   3.324
  733SOL    HW2 3099   6.070   6.617   3.221
  734SOL     OW 3100   6.127   5.062   2.768
  734SOL    HW1 3101   6.054   5.007   2.727
  734SOL    HW2 3102   6.106   5.076   2.865
  735SOL     OW 3103   5.848   0.662   1.736
  735SOL    HW1 3104   5.876   0.675   1.642
  735SOL    HW2 3105   5.920   0.614   1.786
  736SOL     OW 3106   1.602   1.286   4.415
  736SOL    HW1 3107   1.570   1.380   4.425
  736SOL    HW2 3108   1.616   1.246   4.506
  737SOL     OW 3109   6.171   1.022   6.364
  737SOL    HW1 3110   6.125   1.030   6.453
  737SOL    HW2 3111   6.107   0.987   6.296
  738SOL     OW 3112   2.612   4.193   1.182
  738SOL    HW1 3113   2.631   4.095   1.186
  738SOL    HW2 3114   2.535   4.214   1.242
  739SOL     OW 3115   2.997   6.905   5.103
  739SOL    HW1 3116   2.900   6.921   5.121
  739SOL    HW2 3117   3.028   6.966   5.030
  740SOL     OW 3118   5.716   2.260   2.991
  740SOL    HW1 3119   5.772   2.244   3.073
  740SOL    HW2 3120   5.658   2.340   3.007
  741SOL     OW 3121   2.600   0.598   4.296
  741SOL    HW1 3122   2.665   0.665   4.261
  741SOL    HW2 3123   2.507   0.627   4.275
  742SOL     OW 3124   1.650   6.333   0.813
  742SOL    HW1 3125   1.698   6.412   0.775
  742SOL    HW2 3126   1.686   6.312   0.904
  743SOL     OW 3127   1.161   6.608   3.654
  743SOL    HW1 3128   1.143   6.583   3.749
  743SOL    HW2 3129   1.103   6.554   3.594
  744SOL     OW 3130   5.731   1.179   0.434
  744SOL    HW1 3131   5.734   1.081   0.417
  744SOL    HW2 3132   5.755   1.197   0.529
  745SOL     OW 3133   2.352   5.547   4.918
  745SOL    HW1 3134   2.445   5.534   4.954
  745SOL    HW2 3135   2.285   5.514   4.985
  746SOL     OW 3136   5.537   4.618   5.064
  746SOL    HW1 3137   5.504   4.525   5.051
  746SOL    HW2 3138   5.637   4.618   5.063
  747SOL     OW 3139   5.315   5.444   3.036
  747SOL    HW1 3140   5.364   5.373   3.086
  747SOL    HW2 3141   5.352   5.534   3.060
  748SOL     OW 3142   5.335   5.703   2.524
  748SOL    HW1 3143   5.252   5.696   2.581
  748SOL    HW2 3144   5.415   5.678   2.579
  749SOL     OW 3145   5.075   4.310   3.576
  749SOL    HW1 3146   5.086   4.345   3.483
  749SOL    HW2 3147   5.030   4.379   3.633
  750SOL     OW 3148   2.213   2.007   1.745
  750SOL    HW1 3149   2.181   1.946   1.818
  750SOL    HW2 3150   2.207   1.960   1.657
  751SOL     OW 3151   4.652   1.447   0.297
  751SOL    HW1 3152   4.678   1.382   0.226
  751SOL    HW2 3153   4.666   1.540   0.264
  752SOL     OW 3154   3.393   2.525   5.380
  752SOL    HW1 3155   3.347   2.609   5.408
  752SOL    HW2 3156   3.336   2.474   5.316
  753SOL     OW 3157   3.850   3.657   5.246
  753SOL    HW1 3158   3.858   3.606   5.331
  753SOL    HW2 3159   3.927   3.721   5.238
  754SOL     OW 3160   5.567   0.567   6.541
  754SOL    HW1 3161   5.631   0.596   6.470
  754SOL    HW2 3162   5.605   0.489   6.591
  755SOL     OW 3163   2.943   4.167   5.269
  755SOL    HW1 3164   2.901   4.104   5.335
  755SOL    HW2 3165   2.970   4.116   5.187
  756SOL     OW 3166   2.648   5.486   6.523
  756SOL    HW1 3167   2.581   5.414   6.505
  756SOL    HW2 3168   2.602   5.575   6.525
  757SOL     OW 3169   1.895   6.717   2.392
  757SOL    HW1 3170   1.919   6.672   2.307
  757SOL    HW2 3171   1.866   6.649   2.460
  758SOL     OW 3172   3.715   1.208   4.454
  758SOL    HW1 3173   3.775   1.273   4.408
  758SOL    HW2 3174   3.627   1.251   4.472
  759SOL     OW 3175   0.272   3.338   4.113
  759SOL    HW1 3176   0.281   3.270   4.186
  759SOL    HW2 3177   0.345   3.406   4.122
  760SOL     OW 3178   0.182   6.927   3.807
  760SOL    HW1 3179   0.157   6.856   3.874
  760SOL    HW2 3180   0.119   6.924   3.730
  761SOL     OW 3181   4.996   3.928   5.315
  761SOL    HW1 3182   4.978   4.018   5.276
  761SOL    HW2 3183   4.945   3.918   5.401
  762SOL     OW 3184   2.843   5.954   5.458
  762SOL    HW1 3185   2.768   6.016   5.436
  762SOL    HW2 3186   2.929   5.992   5.424
  763SOL     OW 3187   5.961   0.381   0.052
  763SOL    HW1 3188   5.954   0.315   6.996
  763SOL    HW2 3189   5.872   0.390   0.096
  764SOL     OW 3190   5.232   0.007   5.229
  764SOL    HW1 3191   5.152   6.972   5.202
  764SOL    HW2 3192   5.261   0.063   5.151
  765SOL     OW 3193   0.817   6.545   0.929
  765SOL    HW1 3194   0.749   6.547   1.002
  765SOL    HW2 3195   0.772   6.568   0.842
  766SOL     OW 3196   1.791   2.383   5.080
  766SOL    HW1 3197   1.876   2.364   5.032
  766SOL    HW2 3198   1.807   2.451   5.151
  767SOL     OW 3199   0.150   6.942   4.222
  767SOL    HW1 3200   0.145   0.022   4.210
  767SOL    HW2 3201   0.230   6.906   4.174
  768SOL     OW 3202   2.394   6.165   2.365
  768SOL    HW1 3203   2.432   6.258   2.362
  768SOL    HW2 3204   2.325   6.160   2.437
  769SOL     OW 3205   2.947   1.772   4.891
  769SOL    HW1 3206   2.854   1.801   4.870
  769SOL    HW2 3207   3.012   1.840   4.856
  770SOL     OW 3208   2.303   4.728   4.444
  770SOL    HW1 3209   2.399   4.715   4.467
  770SOL    HW2 3210   2.286   4.696   4.351
  771SOL     OW 3211   1.110   5.248   2.641
  771SOL    HW1 3212   1.172   5.196   2.581
  771SOL    HW2 3213   1.019   5.208   2.636
  772SOL     OW 3214   4.834   5.099   6.411
  772SOL    HW1 3215   4.823   5.162   6.334
  772SOL    HW2 3216   4.754   5.105   6.471
  773SOL     OW 3217   0.601   3.478   3.787
  773SOL    HW1 3218   0.584   3.449   3.693
  773SOL    HW2 3219   0.610   3.398   3.846
  774SOL     OW 3220   2.054   1.492   3.277
  774SOL    HW1 3221   2.070   1.403   3.320
  774SOL    HW2 3222   1.970   1.532   3.312
  775SOL     OW 3223   2.181   3.994   3.964
  775SOL    HW1 3224   2.156   3.972   3.870
  775SOL    HW2 3225   2.215   4.088   3.969
  776SOL     OW 3226   1.531   6.735   6.434
  776SOL    HW1 3227   1.496   6.788   6.511
  776SOL    HW2 3228   1.596   6.791   6.382
  777SOL     OW 3229   2.076   3.532   6.874
  777SOL    HW1 3230   2.074   3.539   6.974
  777SOL    HW2 3231   2.114   3.444   6.848
  778SOL     OW 3232   3.539   6.871   1.585
  778SOL    HW1 3233   3.569   6.859   1.680
  778SOL    HW2 3234   3.615   6.906   1.530
  779SOL     OW 3235   0.175   2.426   2.192
  779SOL    HW1 3236   0.181   2.327   2.203
  779SOL    HW2 3237   0.203   2.452   2.099
  780SOL     OW 3238   1.529   1.862   5.108
  780SOL    HW1 3239   1.496   1.953   5.130
  780SOL    HW2 3240   1.616   1.846   5.154
  781SOL     OW 3241   0.703   4.017   0.707
  781SOL    HW1 3242   0.702   3.969   0.619
  781SOL    HW2 3243   0.611   4.051   0.727
  782SOL     OW 3244   1.762   3.780   6.227
  782SOL    HW1 3245   1.802   3.739   6.309
  782SOL    HW2 3246   1.819   3.856   6.197
  783SOL     OW 3247   5.492   4.359   6.862
  783SOL    HW1 3248   5.401   4.400   6.857
  783SOL    HW2 3249   5.516   4.321   6.773
  784SOL     OW 3250   3.386   6.222   1.122
  784SOL    HW1 3251   3.451   6.166   1.071
  784SOL    HW2 3252   3.426   6.312   1.140
  785SOL     OW 3253   0.649   0.354   4.357
  785SOL    HW1 3254   0.666   0.364   4.260
  785SOL    HW2 3255   0.611   0.263   4.375
  786SOL     OW 3256   6.726   1.220   3.593
  786SOL    HW1 3257   6.647   1.235   3.534
  786SOL    HW2 3258   6.748   1.304   3.642
  787SOL     OW 3259   2.664   0.076   0.133
  787SOL    HW1 3260   2.638   0.160   0.086
  787SOL    HW2 3261   2.604   0.063   0.213
  788SOL     OW 3262   4.039   3.266   1.060
  788SOL    HW1 3263   4.010   3.191   1.002
  788SOL    HW2 3264   3.970   3.283   1.131
  789SOL     OW 3265   4.280   5.473   1.560
  789SOL    HW1 3266   4.325   5.562   1.564
  789SOL    HW2 3267   4.257   5.452   1.465
  790SOL     OW 3268   0.470   3.002   2.144
  790SOL    HW1 3269   0.493   2.913   2.103
  790SOL    HW2 3270   0.428   3.060   2.075
  791SOL     OW 3271   3.145   5.081   5.355
  791SOL    HW1 3272   3.148   5.174   5.319
  791SOL    HW2 3273   3.062   5.035   5.323
  792SOL     OW 3274   1.154   1.155   1.035
  792SOL    HW1 3275   1.103   1.094   0.975
  792SOL    HW2 3276   1.252   1.143   1.020
  793SOL     OW 3277   3.876   5.434   3.694
  793SOL    HW1 3278   3.813   5.357   3.684
  793SOL    HW2 3279   3.826   5.514   3.726
  794SOL     OW 3280   3.077   3.189   3.785
  794SOL    HW1 3281   3.161   3.216   3.737
  794SOL    HW2 3282   3.003   3.251   3.760
  795SOL     OW 3283   3.801   1.008   6.467
  795SOL    HW1 3284   3.740   0.994   6.389
  795SOL    HW2 3285   3.839   1.100   6.463
  796SOL     OW 3286   1.825   3.343   6.500
  796SOL    HW1 3287   1.853   3.301   6.587
  796SOL    HW2 3288   1.888   3.314   6.428
  797SOL     OW 3289   4.856   0.114   0.039
  797SOL    HW1 3290   4.878   0.109   6.960
  797SOL    HW2 3291   4.862   0.023   0.079
  798SOL     OW 3292   4.001   6.675   0.784
  798SOL    HW1 3293   3.914   6.724   0.790
  798SOL    HW2 3294   4.077   6.739   0.800
  799SOL     OW 3295   1.248   1.682   6.702
  799SOL    HW1 3296   1.291   1.595   6.679
  799SOL    HW2 3297   1.177   1.668   6.772
  800SOL     OW 3298   6.415   1.808   1.781
  800SOL    HW1 3299   6.442   1.891   1.732
  800SOL    HW2 3300   6.493   1.746   1.788
  801SOL     OW 3301   1.818   5.177   5.459
  801SOL    HW1 3302   1.848   5.263   5.500
  801SOL    HW2 3303   1.850   5.173   5.364
  802SOL     OW 3304   5.150   2.218   6.927
  802SOL    HW1 3305   5.247   2.230   6.905
  802SOL    HW2 3306   5.110   2.307   6.949
  803SOL     OW 3307   2.853   0.910   5.503
  803SOL    HW1 3308   2.834   0.868   5.591
  803SOL    HW2 3309   2.823   0.848   5.430
  804SOL     OW 3310   6.724   0.392   1.373
  804SOL    HW1 3311   6.722   0.342   1.460
  804SOL    HW2 3312   6.657   0.465   1.375
  805SOL     OW 3313   3.042   1.052   3.795
  805SOL    HW1 3314   3.053   1.022   3.889
  805SOL    HW2 3315   3.088   1.140   3.782
  806SOL     OW 3316   1.245   6.512   5.191
  806SOL    HW1 3317   1.306   6.531   5.268
  806SOL    HW2 3318   1.256   6.582   5.121
  807SOL     OW 3319   0.403   6.367   5.181
  807SOL    HW1 3320   0.411   6.428   5.260
  807SOL    HW2 3321   0.480   6.382   5.119
  808SOL     OW 3322   5.526   2.863   0.390
  808SOL    HW1 3323   5.438   2.815   0.386
  808SOL    HW2 3324   5.550   2.898   0.299
  809SOL     OW 3325   1.303   5.479   0.272
  809SOL    HW1 3326   1.205   5.456   0.274
  809SOL    HW2 3327   1.314   5.574   0.241
  810SOL     OW 3328   2.870   3.239   0.258
  810SOL    HW1 3329   2.893   3.249   0.355
  810SOL    HW2 3330   2.952   3.252   0.202
  811SOL     OW 3331   5.619   5.288   4.548
  811SOL    HW1 3332   5.692   5.298   4.480
  811SOL    HW2 3333   5.538   5.338   4.518
  812SOL     OW 3334   0.813   2.657   2.388
  812SOL    HW1 3335   0.813   2.626   2.293
  812SOL    HW2 3336   0.789   2.754   2.392
  813SOL     OW 3337   1.307   1.384   4.359
  813SOL    HW1 3338   1.310   1.306   4.296
  813SOL    HW2 3339   1.300   1.351   4.453
  814SOL     OW 3340   0.999   5.722   2.944
  814SOL    HW1 3341   0.951   5.795   2.897
  814SOL    HW2 3342   1.011   5.644   2.882
  815SOL     OW 3343   5.011   1.929   4.250
  815SOL    HW1 3344   4.924   1.935   4.201
  815SOL    HW2 3345   5.014   1.998   4.322
  816SOL     OW 3346   5.246   3.088   0.552
  816SOL    HW1 3347   5.269   3.043   0.466
  816SOL    HW2 3348   5.148   3.107   0.554
  817SOL     OW 3349   1.335   5.201   0.461
  817SOL    HW1 3350   1.265   5.265   0.492
  817SOL    HW2 3351   1.405   5.191   0.533
  818SOL     OW 3352   5.775   2.968   3.648
  818SOL    HW1 3353   5.699   3.019   3.686
  818SOL    HW2 3354   5.743   2.908   3.575
  819SOL     OW 3355   5.141   2.387   1.950
  819SOL    HW1 3356   5.118   2.443   2.029
  819SOL    HW2 3357   5.134   2.442   1.867
  820SOL     OW 3358   2.266   1.939   4.770
  820SOL    HW1 3359   2.257   1.914   4.866
  820SOL    HW2 3360   2.321   2.021   4.761
  821SOL     OW 3361   5.546   4.039   5.054
  821SOL    HW1 3362   5.529   4.131   5.017
  821SOL    HW2 3363   5.567   3.977   4.979
  822SOL     OW 3364   0.914   4.431   3.782
  822SOL    HW1 3365   0.921   4.366   3.706
  822SOL    HW2 3366   0.850   4.395   3.850
  823SOL     OW 3367   0.840   3.569   6.139
  823SOL    HW1 3368   0.782   3.489   6.126
  823SOL    HW2 3369   0.890   3.561   6.226
  824SOL     OW 3370   5.505   1.237   5.538
  824SOL    HW1 3371   5.470   1.149   5.571
  824SOL    HW2 3372   5.603   1.242   5.555
  825SOL     OW 3373   6.496   6.119   0.845
  825SOL    HW1 3374   6.566   6.054   0.815
  825SOL    HW2 3375   6.424   6.070   0.894
  826SOL     OW 3376   3.739   1.414   5.597
  826SOL    HW1 3377   3.644   1.389   5.580
  826SOL    HW2 3378   3.793   1.330   5.608
  827SOL     OW 3379   3.312   3.736   4.263
  827SOL    HW1 3380   3.312   3.638   4.242
  827SOL    HW2 3381   3.219   3.766   4.284
  828SOL     OW 3382   6.095   5.894   4.981
  828SOL    HW1 3383   6.028   5.820   4.980
  828SOL    HW2 3384   6.132   5.908   4.889
  829SOL     OW 3385   3.444   2.935   3.182
  829SOL    HW1 3386   3.529   2.982   3.160
  829SOL    HW2 3387   3.428   2.938   3.280
  830SOL     OW 3388   6.688   4.691   6.825
  830SOL    HW1 3389   6.767   4.645   6.866
  830SOL    HW2 3390   6.710   4.787   6.808
  831SOL     OW 3391   5.749   6.248   1.244
  831SOL    HW1 3392   5.774   6.230   1.339
  831SOL    HW2 3393   5.773   6.169   1.187
  832SOL     OW 3394   3.438   1.851   5.032
  832SOL    HW1 3395   3.401   1.829   5.122
  832SOL    HW2 3396   3.416   1.778   4.968
  833SOL     OW 3397   1.789   3.320   6.202
  833SOL    HW1 3398   1.740   3.355   6.123
  833SOL    HW2 3399   1.880   3.289   6.174
  834SOL     OW 3400   4.690   3.605   6.952
  834SOL    HW1 3401   4.749   3.659   6.891
  834SOL    HW2 3402   4.735   3.520   6.976
  835SOL     OW 3403   1.309   0.494   3.906
  835SOL    HW1 3404   1.362   0.491   3.991
  835SOL    HW2 3405   1.212   0.508   3.927
  836SOL     OW 3406   3.331   1.262   5.445
  836SOL    HW1 3407   3.295   1.201   5.516
  836SOL    HW2 3408   3.272   1.258   5.365
  837SOL     OW 3409   1.534   0.326   0.848
  837SOL    HW1 3410   1.629   0.356   0.850
  837SOL    HW2 3411   1.530   0.226   0.843
  838SOL     OW 3412   2.087   5.507   3.723
  838SOL    HW1 3413   2.110   5.444   3.649
  838SOL    HW2 3414   2.143   5.589   3.716
  839SOL     OW 3415   1.648   1.390   1.334
  839SOL    HW1 3416   1.599   1.464   1.380
  839SOL    HW2 3417   1.737   1.424   1.303
  840SOL     OW 3418   5.398   5.401   0.182
  840SOL    HW1 3419   5.396   5.494   0.220
  840SOL    HW2 3420   5.305   5.373   0.158
  841SOL     OW 3421   3.782   4.693   5.421
  841SOL    HW1 3422   3.742   4.750   5.493
  841SOL    HW2 3423   3.721   4.691   5.342
  842SOL     OW 3424   3.075   0.298   0.297
  842SOL    HW1 3425   3.012   0.358   0.346
  842SOL    HW2 3426   3.136   0.253   0.363
  843SOL     OW 3427   1.329   1.842   1.925
  843SOL    HW1 3428   1.250   1.828   1.984
  843SOL    HW2 3429   1.300   1.876   1.836
  844SOL     OW 3430   6.821   6.955   1.042
  844SOL    HW1 3431   6.824   0.035   1.034
  844SOL    HW2 3432   6.839   6.914   0.952
  845SOL     OW 3433   3.405   1.840   2.727
  845SOL    HW1 3434   3.408   1.860   2.630
  845SOL    HW2 3435   3.413   1.925   2.779
  846SOL     OW 3436   2.329   1.956   0.282
  846SOL    HW1 3437   2.416   1.972   0.235
  846SOL    HW2 3438   2.279   2.042   0.290
  847SOL     OW 3439   2.617   3.742   1.578
  847SOL    HW1 3440   2.524   3.713   1.602
  847SOL    HW2 3441   2.639   3.711   1.485
  848SOL     OW 3442   6.742   6.435   6.081
  848SOL    HW1 3443   6.697   6.524   6.087
  848SOL    HW2 3444   6.718   6.380   6.161
  849SOL     OW 3445   5.878   3.909   0.146
  849SOL    HW1 3446   5.972   3.876   0.139
  849SOL    HW2 3447   5.868   3.991   0.091
  850SOL     OW 3448   0.250   0.629   5.350
  850SOL    HW1 3449   0.167   0.683   5.362
  850SOL    HW2 3450   0.240   0.570   5.270
  851SOL     OW 3451   6.685   2.985   6.216
  851SOL    HW1 3452   6.734   3.031   6.290
  851SOL    HW2 3453   6.594   3.024   6.206
  852SOL     OW 3454   6.974   3.474   1.915
  852SOL    HW1 3455   6.990   3.566   1.880
  852SOL    HW2 3456   0.038   3.419   1.906
  853SOL     OW 3457   2.001   4.107   0.256
  853SOL    HW1 3458   1.937   4.075   0.327
  853SOL    HW2 3459   2.093   4.109   0.294
  854SOL     OW 3460   6.309   6.131   6.859
  854SOL    HW1 3461   6.350   6.040   6.854
  854SOL    HW2 3462   6.378   6.200   6.841
  855SOL     OW 3463   6.999   1.131   0.295
  855SOL    HW1 3464   7.012   1.191   0.215
  855SOL    HW2 3465   6.902   1.108   0.303
  856SOL     OW 3466   2.226   6.649   6.824
  856SOL    HW1 3467   2.128   6.633   6.814
  856SOL    HW2 3468   2.244   6.747   6.824
  857SOL     OW 3469   6.761   4.910   4.149
  857SOL    HW1 3470   6.797   4.881   4.061
  857SOL    HW2 3471   6.703   4.991   4.136
  858SOL     OW 3472   3.773   3.816   0.499
  858SOL    HW1 3473   3.844   3.767   0.449
  858SOL    HW2 3474   3.689   3.761   0.499
  859SOL     OW 3475   4.026   6.913   5.330
  859SOL    HW1 3476   4.010   6.993   5.272
  859SOL    HW2 3477   4.123   6.906   5.353
  860SOL     OW 3478   4.956   2.664   5.430
  860SOL    HW1 3479   5.001   2.589   5.478
  860SOL    HW2 3480   4.909   2.722   5.497
  861SOL     OW 3481   1.956   5.782   2.669
  861SOL    HW1 3482   2.056   5.791   2.673
  861SOL    HW2 3483   1.928   5.771   2.574
  862SOL     OW 3484   1.753   4.545   3.587
  862SOL    HW1 3485   1.780   4.607   3.661
  862SOL    HW2 3486   1.655   4.552   3.572
  863SOL     OW 3487   0.149   0.327   5.989
  863SOL    HW1 3488   0.108   0.368   6.071
  863SOL    HW2 3489   0.083   0.330   5.914
  864SOL     OW 3490   4.826   6.954   5.352
  864SOL    HW1 3491   4.901   7.010   5.318
  864SOL    HW2 3492   4.800   6.986   5.443
  865SOL     OW 3493   1.863   5.821   4.190
  865SOL    HW1 3494   1.765   5.801   4.193
  865SOL    HW2 3495   1.891   5.839   4.096
  866SOL     OW 3496   2.368   6.559   2.046
  866SOL    HW1 3497   2.319   6.484   2.091
  866SOL    HW2 3498   2.466   6.545   2.054
  867SOL     OW 3499   5.820   1.924   0.533
  867SOL    HW1 3500   5.773   1.845   0.572
  867SOL    HW2 3501   5.804   2.004   0.591
  868SOL     OW 3502   6.796   2.423   2.023
  868SOL    HW1 3503   6.842   2.431   2.111
  868SOL    HW2 3504   6.727   2.350   2.028
  869SOL     OW 3505   0.157   4.051   4.026
  869SOL    HW1 3506   0.087   4.119   4.047
  869SOL    HW2 3507   0.139   3.968   4.080
  870SOL     OW 3508   3.137   4.991   1.404
  870SOL    HW1 3509   3.193   4.961   1.480
  870SOL    HW2 3510   3.078   4.916   1.373
  871SOL     OW 3511   4.714   1.701   3.457
  871SOL    HW1 3512   4.705   1.707   3.556
  871SOL    HW2 3513   4.723   1.605   3.430
  872SOL     OW 3514   6.550   2.679   4.246
  872SOL    HW1 3515   6.612   2.629   4.186
  872SOL    HW2 3516   6.547   2.775   4.219
  873SOL     OW 3517   4.163   6.333   5.350
  873SOL    HW1 3518   4.071   6.358   5.318
  873SOL    HW2 3519   4.193   6.250   5.304
  874SOL     OW 3520   5.481   3.992   0.182
  874SOL    HW1 3521   5.474   3.936   0.264
  874SOL    HW2 3522   5.564   4.049   0.187
  875SOL     OW 3523   5.036   5.244   0.996
  875SOL    HW1 3524   5.074   5.266   1.086
  875SOL    HW2 3525   5.012   5.146   0.993
  876SOL     OW 3526   0.267   5.283   2.166
  876SOL    HW1 3527   0.178   5.310   2.203
  876SOL    HW2 3528   0.294   5.349   2.096
  877SOL     OW 3529   2.918   4.303   0.051
  877SOL    HW1 3530   2.896   4.383   0.106
  877SOL    HW2 3531   2.901   4.323   6.974
  878SOL     OW 3532   4.030   6.910   3.958
  878SOL    HW1 3533   4.118   6.875   3.926
  878SOL    HW2 3534   3.985   6.960   3.884
  879SOL     OW 3535   4.495   0.589   0.360
  879SOL    HW1 3536   4.568   0.555   0.301
  879SOL    HW2 3537   4.440   0.656   0.311
  880SOL     OW 3538   2.928   3.674   3.579
  880SOL    HW1 3539   2.874   3.735   3.521
  880SOL    HW2 3540   2.967   3.727   3.655
  881SOL     OW 3541   4.514   2.750   5.206
  881SOL    HW1 3542   4.459   2.825   5.244
  881SOL    HW2 3543   4.497   2.666   5.258
  882SOL     OW 3544   0.840   3.200   4.796
  882SOL    HW1 3545   0.834   3.290   4.839
  882SOL    HW2 3546   0.766   3.189   4.730
  883SOL     OW 3547   3.169   0.046   2.526
  883SOL    HW1 3548   3.151   0.073   2.621
  883SOL    HW2 3549   3.112   0.101   2.465
  884SOL     OW 3550   4.929   3.124   5.022
  884SOL    HW1 3551   4.921   3.209   5.074
  884SOL    HW2 3552   4.956   3.050   5.084
  885SOL     OW 3553   2.857   1.475   5.731
  885SOL    HW1 3554   2.935   1.414   5.715
  885SOL    HW2 3555   2.836   1.524   5.646
  886SOL     OW 3556   3.473   0.581   0.241
  886SOL    HW1 3557   3.467   0.681   0.237
  886SOL    HW2 3558   3.402   0.542   0.182
  887SOL     OW 3559   3.623   0.108   3.960
  887SOL    HW1 3560   3.699   0.149   4.009
  887SOL    HW2 3561   3.537   0.131   4.006
  888SOL     OW 3562   0.638   0.826   3.067
  888SOL    HW1 3563   0.584   0.759   3.117
  888SOL    HW2 3564   0.730   0.790   3.051
  889SOL     OW 3565   0.667   3.647   0.168
  889SOL    HW1 3566   0.766   3.644   0.152
  889SOL    HW2 3567   0.623   3.695   0.092
  890SOL     OW 3568   1.812   5.380   3.751
  890SOL    HW1 3569   1.893   5.331   3.719
  890SOL    HW2 3570   1.841   5.460   3.805
  891SOL     OW 3571   5.075   5.225   1.287
  891SOL    HW1 3572   5.123   5.312   1.277
  891SOL    HW2 3573   5.127   5.165   1.348
  892SOL     OW 3574   2.559   3.889   5.554
  892SOL    HW1 3575   2.467   3.853   5.539
  892SOL    HW2 3576   2.597   3.852   5.638
  893SOL     OW 3577   2.491   6.447   2.637
  893SOL    HW1 3578   2.440   6.459   2.552
  893SOL    HW2 3579   2.428   6.433   2.713
  894SOL     OW 3580   0.876   3.578   1.605
  894SOL    HW1 3581   0.870   3.605   1.701
  894SOL    HW2 3582   0.968   3.543   1.586
  895SOL     OW 3583   0.347   5.322   3.254
  895SOL    HW1 3584   0.293   5.333   3.337
  895SOL    HW2 3585   0.411   5.246   3.266
  896SOL     OW 3586   6.143   5.238   0.580
  896SOL    HW1 3587   6.104   5.201   0.664
  896SOL    HW2 3588   6.170   5.164   0.519
  897SOL     OW 3589   5.111   1.244   0.437
  897SOL    HW1 3590   5.123   1.180   0.512
  897SOL    HW2 3591   5.038   1.212   0.377
  898SOL     OW 3592   3.465   5.593   2.750
  898SOL    HW1 3593   3.404   5.553   2.819
  898SOL    HW2 3594   3.550   5.541   2.747
  899SOL     OW 3595   0.446   5.417   6.159
  899SOL    HW1 3596   0.393   5.502   6.151
  899SOL    HW2 3597   0.482   5.409   6.252
  900SOL     OW 3598   5.827   6.741   0.001
  900SOL    HW1 3599   5.901   6.719   0.065
  900SOL    HW2 3600   5.865   6.755   6.929
  901SOL     OW 3601   2.001   0.420   2.628
  901SOL    HW1 3602   1.973   0.500   2.681
  901SOL    HW2 3603   1.977   0.434   2.532
  902SOL     OW 3604   7.007   3.503   0.540
  902SOL    HW1 3605   6.916   3.544   0.552
  902SOL    HW2 3606   0.032   3.493   0.629
  903SOL     OW 3607   0.150   2.142   6.354
  903SOL    HW1 3608   0.105   2.053   6.366
  903SOL    HW2 3609   0.209   2.139   6.274
  904SOL     OW 3610   2.940   2.208   3.755
  904SOL    HW1 3611   2.959   2.119   3.714
  904SOL    HW2 3612   2.891   2.265   3.689
  905SOL     OW 3613   5.353   2.332   0.166
  905SOL    HW1 3614   5.447   2.333   0.200
  905SOL    HW2 3615   5.347   2.385   0.082
  906SOL     OW 3616   0.479   2.240   6.034
  906SOL    HW1 3617   0.463   2.338   6.020
  906SOL    HW2 3618   0.511   2.224   6.127
  907SOL     OW 3619   5.231   3.377   0.325
  907SOL    HW1 3620   5.236   3.423   0.414
  907SOL    HW2 3621   5.323   3.353   0.295
  908SOL     OW 3622   2.595   4.862   2.511
  908SOL    HW1 3623   2.674   4.835   2.457
  908SOL    HW2 3624   2.626   4.901   2.598
  909SOL     OW 3625   4.155   5.391   6.379
  909SOL    HW1 3626   4.241   5.356   6.417
  909SOL    HW2 3627   4.150   5.371   6.281
  910SOL     OW 3628   2.691   3.089   1.395
  910SOL    HW1 3629   2.758   3.038   1.341
  910SOL    HW2 3630   2.725   3.181   1.413
  911SOL     OW 3631   1.895   5.782   6.045
  911SOL    HW1 3632   1.890   5.813   5.950
  911SOL    HW2 3633   1.912   5.860   6.105
  912SOL     OW 3634   5.378   2.850   3.558
  912SOL    HW1 3635   5.349   2.774   3.617
  912SOL    HW2 3636   5.327   2.845   3.471
  913SOL     OW 3637   5.233   6.503   3.283
  913SOL    HW1 3638   5.155   6.485   3.343
  913SOL    HW2 3639   5.203   6.502   3.188
  914SOL     OW 3640   2.786   0.372   6.631
  914SOL    HW1 3641   2.793   0.288   6.685
  914SOL    HW2 3642   2.800   0.350   6.534
  915SOL     OW 3643   5.958   4.662   0.482
  915SOL    HW1 3644   5.884   4.662   0.549
  915SOL    HW2 3645   5.941   4.593   0.412
  916SOL     OW 3646   1.314   2.532   2.096
  916SOL    HW1 3647   1.374   2.460   2.060
  916SOL    HW2 3648   1.355   2.570   2.179
  917SOL     OW 3649   7.010   6.548   0.606
  917SOL    HW1 3650   0.015   6.452   0.624
  917SOL    HW2 3651   7.004   6.598   0.693
  918SOL     OW 3652   2.374   6.734   0.981
  918SOL    HW1 3653   2.425   6.795   0.920
  918SOL    HW2 3654   2.432   6.656   1.004
  919SOL     OW 3655   5.771   1.364   3.781
  919SOL    HW1 3656   5.685   1.333   3.742
  919SOL    HW2 3657   5.781   1.463   3.767
  920SOL     OW 3658   2.389   4.582   1.482
  920SOL    HW1 3659   2.299   4.622   1.498
  920SOL    HW2 3660   2.444   4.589   1.565
  921SOL     OW 3661   5.459   5.674   4.537
  921SOL    HW1 3662   5.425   5.618   4.612
  921SOL    HW2 3663   5.391   5.674   4.463
  922SOL     OW 3664   3.763   3.546   4.227
  922SOL    HW1 3665   3.834   3.494   4.274
  922SOL    HW2 3666   3.772   3.533   4.128
  923SOL     OW 3667   2.262   3.023   5.719
  923SOL    HW1 3668   2.338   3.049   5.779
  923SOL    HW2 3669   2.287   2.941   5.667
  924SOL     OW 3670   6.542   3.782   2.470
  924SOL    HW1 3671   6.508   3.709   2.411
  924SOL    HW2 3672   6.474   3.802   2.541
  925SOL     OW 3673   6.819   1.847   0.390
  925SOL    HW1 3674   6.809   1.769   0.452
  925SOL    HW2 3675   6.830   1.930   0.444
  926SOL     OW 3676   0.214   1.515   1.585
  926SOL    HW1 3677   0.294   1.527   1.526
  926SOL    HW2 3678   0.157   1.597   1.580
  927SOL     OW 3679   5.707   3.658   4.171
  927SOL    HW1 3680   5.695   3.562   4.197
  927SOL    HW2 3681   5.770   3.702   4.235
  928SOL     OW 3682   3.144   5.930   6.802
  928SOL    HW1 3683   3.209   5.856   6.821
  928SOL    HW2 3684   3.056   5.909   6.843
  929SOL     OW 3685   6.533   1.313   6.538
  929SOL    HW1 3686   6.583   1.387   6.493
  929SOL    HW2 3687   6.581   1.227   6.524
  930SOL     OW 3688   3.951   4.772   5.999
  930SOL    HW1 3689   3.928   4.746   5.905
  930SOL    HW2 3690   3.969   4.690   6.053
  931SOL     OW 3691   6.063   2.633   3.752
  931SOL    HW1 3692   6.052   2.726   3.716
  931SOL    HW2 3693   6.152   2.625   3.797
  932SOL     OW 3694   3.595   0.626   3.563
  932SOL    HW1 3695   3.672   0.688   3.550
  932SOL    HW2 3696   3.533   0.664   3.631
  933SOL     OW 3697   1.480   5.097   2.853
  933SOL    HW1 3698   1.486   5.143   2.942
  933SOL    HW2 3699   1.536   5.147   2.787
  934SOL     OW 3700   2.364   5.470   6.183
  934SOL    HW1 3701   2.300   5.465   6.107
  934SOL    HW2 3702   2.313   5.466   6.270
  935SOL     OW 3703   5.314   4.136   3.517
  935SOL    HW1 3704   5.391   4.200   3.512
  935SOL    HW2 3705   5.237   4.180   3.563
  936SOL     OW 3706   1.261   0.546   6.105
  936SOL    HW1 3707   1.221   0.469   6.054
  936SOL    HW2 3708   1.213   0.630   6.082
  937SOL     OW 3709   4.040   1.160   5.429
  937SOL    HW1 3710   4.080   1.248   5.455
  937SOL    HW2 3711   3.981   1.128   5.503
  938SOL     OW 3712   6.669   5.623   3.815
  938SOL    HW1 3713   6.603   5.681   3.862
  938SOL    HW2 3714   6.705   5.555   3.878
  939SOL     OW 3715   6.790   6.687   4.966
  939SOL    HW1 3716   6.791   6.736   4.878
  939SOL    HW2 3717   6.883   6.660   4.990
  940SOL     OW 3718   1.088   4.917   0.750
  940SOL    HW1 3719   1.186   4.922   0.767
  940SOL    HW2 3720   1.038   4.926   0.836
  941SOL     OW 3721   4.085   0.589   6.414
  941SOL    HW1 3722   4.040   0.504   6.387
  941SOL    HW2 3723   4.018   0.651   6.455
  942SOL     OW 3724   6.836   5.754   1.005
  942SOL    HW1 3725   6.758   5.698   1.033
  942SOL    HW2 3726   6.803   5.839   0.964
  943SOL     OW 3727   3.030   4.795   2.640
  943SOL    HW1 3728   2.948   4.742   2.662
  943SOL    HW2 3729   3.018   4.839   2.551
  944SOL     OW 3730   0.202   6.258   4.280
  944SOL    HW1 3731   0.125   6.196   4.293
  944SOL    HW2 3732   0.250   6.234   4.196
  945SOL     OW 3733   0.507   5.812   5.760
  945SOL    HW1 3734   0.567   5.774   5.831
  945SOL    HW2 3735   0.553   5.807   5.671
  946SOL     OW 3736   4.898   4.991   4.133
  946SOL    HW1 3737   4.908   5.003   4.232
  946SOL    HW2 3738   4.892   4.894   4.111
  947SOL     OW 3739   3.873   3.652   3.694
  947SOL    HW1 3740   3.860   3.710   3.614
  947SOL    HW2 3741   3.830   3.563   3.678
  948SOL     OW 3742   4.693   1.378   2.317
  948SOL    HW1 3743   4.696   1.450   2.386
  948SOL    HW2 3744   4.624   1.310   2.343
  949SOL     OW 3745   3.108   6.414   0.068
  949SOL    HW1 3746   3.205   6.439   0.067
  949SOL    HW2 3747   3.098   6.323   0.109
  950SOL     OW 3748   6.472   5.852   2.094
  950SOL    HW1 3749   6.428   5.765   2.116
  950SOL    HW2 3750   6.405   5.926   2.101
  951SOL     OW 3751   1.485   0.304   3.515
  951SOL    HW1 3752   1.544   0.226   3.538
  951SOL    HW2 3753   1.401   0.299   3.570
  952SOL     OW 3754   4.204   2.217   2.411
  952SOL    HW1 3755   4.261   2.285   2.458
  952SOL    HW2 3756   4.189   2.246   2.317
  953SOL     OW 3757   0.198   5.310   4.941
  953SOL    HW1 3758   0.202   5.260   5.028
  953SOL    HW2 3759   0.212   5.407   4.958
  954SOL     OW 3760   5.173   5.335   2.315
  954SOL    HW1 3761   5.133   5.378   2.234
  954SOL    HW2 3762   5.187   5.238   2.297
  955SOL     OW 3763   1.415   4.333   6.579
  955SOL    HW1 3764   1.319   4.305   6.581
  955SOL    HW2 3765   1.462   4.297   6.660
  956SOL     OW 3766   0.392   0.432   0.942
  956SOL    HW1 3767   0.442   0.493   1.003
  956SOL    HW2 3768   0.358   0.484   0.863
  957SOL     OW 3769   6.456   2.340   3.595
  957SOL    HW1 3770   6.530   2.339   3.662
  957SOL    HW2 3771   6.488   2.299   3.509
  958SOL     OW 3772   5.315   6.845   2.390
  958SOL    HW1 3773   5.273   6.757   2.412
  958SOL    HW2 3774   5.265   6.918   2.437
  959SOL     OW 3775   3.368   0.122   4.027
  959SOL    HW1 3776   3.300   0.155   3.962
  959SOL    HW2 3777   3.368   0.022   4.028
  960SOL     OW 3778   1.179   0.440   0.092
  960SOL    HW1 3779   1.189   0.452   7.012
  960SOL    HW2 3780   1.202   0.526   0.138
  961SOL     OW 3781   3.223   6.396   3.292
  961SOL    HW1 3782   3.218   6.489   3.328
  961SOL    HW2 3783   3.319   6.372   3.276
  962SOL     OW 3784   6.621   6.952   5.010
  962SOL    HW1 3785   6.661   6.950   5.102
  962SOL    HW2 3786   6.689   6.921   4.944
  963SOL     OW 3787   4.618   2.285   1.217
  963SOL    HW1 3788   4.611   2.270   1.316
  963SOL    HW2 3789   4.581   2.206   1.168
  964SOL     OW 3790   4.922   4.428   4.842
  964SOL    HW1 3791   5.004   4.384   4.805
  964SOL    HW2 3792   4.934   4.527   4.840
  965SOL     OW 3793   5.537   2.008   2.901
  965SOL    HW1 3794   5.576   2.095   2.931
  965SOL    HW2 3795   5.437   2.012   2.908
  966SOL     OW 3796   5.317   1.868   3.799
  966SOL    HW1 3797   5.333   1.941   3.865
  966SOL    HW2 3798   5.331   1.903   3.706
  967SOL     OW 3799   4.688   4.140   6.210
  967SOL    HW1 3800   4.723   4.046   6.198
  967SOL    HW2 3801   4.748   4.203   6.161
  968SOL     OW 3802   3.899   0.161   1.948
  968SOL    HW1 3803   3.937   0.153   1.856
  968SOL    HW2 3804   3.907   0.256   1.979
  969SOL     OW 3805   3.415   4.553   5.355
  969SOL    HW1 3806   3.483   4.616   5.317
  969SOL    HW2 3807   3.323   4.582   5.330
  970SOL     OW 3808   6.157   0.067   5.476
  970SOL    HW1 3809   6.180   0.016   5.559
  970SOL    HW2 3810   6.239   0.109   5.439
  971SOL     OW 3811   6.978   4.354   3.244
  971SOL    HW1 3812   6.925   4.409   3.308
  971SOL    HW2 3813   6.966   4.257   3.264
  972SOL     OW 3814   6.939   2.329   1.169
  972SOL    HW1 3815   6.846   2.354   1.192
  972SOL    HW2 3816   6.986   2.294   1.250
  973SOL     OW 3817   0.486   4.239   6.324
  973SOL    HW1 3818   0.455   4.148   6.295
  973SOL    HW2 3819   0.436   4.267   6.405
  974SOL     OW 3820   0.130   4.718   4.684
  974SOL    HW1 3821   0.175   4.655   4.622
  974SOL    HW2 3822   0.134   4.811   4.646
  975SOL     OW 3823   2.043   6.630   2.153
  975SOL    HW1 3824   1.979   6.620   2.077
  975SOL    HW2 3825   2.100   6.711   2.139
  976SOL     OW 3826   6.316   4.494   2.302
  976SOL    HW1 3827   6.387   4.469   2.236
  976SOL    HW2 3828   6.250   4.419   2.309
  977SOL     OW 3829   0.209   1.512   2.444
  977SOL    HW1 3830   0.291   1.562   2.471
  977SOL    HW2 3831   0.189   1.442   2.512
  978SOL     OW 3832   5.063   2.410   2.228
  978SOL    HW1 3833   5.030   2.502   2.210
  978SOL    HW2 3834   5.154   2.414   2.271
  979SOL     OW 3835   0.384   3.262   0.145
  979SOL    HW1 3836   0.316   3.295   0.211
  979SOL    HW2 3837   0.346   3.267   0.053
  980SOL     OW 3838   3.973   1.681   5.379
  980SOL    HW1 3839   3.882   1.642   5.366
  980SOL    HW2 3840   3.965   1.778   5.403
  981SOL     OW 3841   6.879   0.130   4.835
  981SOL    HW1 3842   6.905   0.182   4.753
  981SOL    HW2 3843   6.853   0.037   4.809
  982SOL     OW 3844   0.655   1.538   5.313
  982SOL    HW1 3845   0.709   1.456   5.334
  982SOL    HW2 3846   0.660   1.601   5.390
  983SOL     OW 3847   0.527   3.868   3.690
  983SOL    HW1 3848   0.478   3.870   3.777
  983SOL    HW2 3849   0.481   3.805   3.627
  984SOL     OW 3850   1.663   2.020   2.743
  984SOL    HW1 3851   1.694   2.083   2.814
  984SOL    HW2 3852   1.640   2.071   2.660
  985SOL     OW 3853   6.324   3.629   4.512
  985SOL    HW1 3854   6.346   3.627   4.414
  985SOL    HW2 3855   6.227   3.608   4.524
  986SOL     OW 3856   5.393   4.283   1.122
  986SOL    HW1 3857   5.454   4.224   1.176
  986SOL    HW2 3858   5.323   4.322   1.181
  987SOL     OW 3859   5.821   5.273   3.691
  987SOL    HW1 3860   5.817   5.187   3.640
  987SOL    HW2 3861   5.761   5.267   3.770
  988SOL     OW 3862   3.437   3.727   1.591
  988SOL    HW1 3863   3.347   3.753   1.557
  988SOL    HW2 3864   3.435   3.722   1.691
  989SOL     OW 3865   0.067   2.267   0.750
  989SOL    HW1 3866   0.076   2.178   0.706
  989SOL    HW2 3867   0.080   2.339   0.683
  990SOL     OW 3868   3.447   0.633   3.094
  990SOL    HW1 3869   3.480   0.609   3.185
  990SOL    HW2 3870   3.498   0.581   3.025
  991SOL     OW 3871   6.875   3.920   4.154
  991SOL    HW1 3872   6.958   3.866   4.138
  991SOL    HW2 3873   6.864   3.937   4.252
  992SOL     OW 3874   0.515   2.604   1.433
  992SOL    HW1 3875   0.598   2.660   1.432
  992SOL    HW2 3876   0.438   2.660   1.402
  993SOL     OW 3877   1.878   4.875   1.150
  993SOL    HW1 3878   1.930   4.864   1.235
  993SOL    HW2 3879   1.851   4.971   1.139
  994SOL     OW 3880   3.519   6.436   1.142
  994SOL    HW1 3881   3.606   6.484   1.155
  994SOL    HW2 3882   3.445   6.491   1.179
  995SOL     OW 3883   5.254   3.898   5.383
  995SOL    HW1 3884   5.292   3.989   5.398
  995SOL    HW2 3885   5.160   3.907   5.349
  996SOL     OW 3886   3.834   6.252   5.415
  996SOL    HW1 3887   3.853   6.313   5.338
  996SOL    HW2 3888   3.821   6.306   5.498
  997SOL     OW 3889   1.363   6.412   4.047
  997SOL    HW1 3890   1.412   6.324   4.042
  997SOL    HW2 3891   1.407   6.478   3.987
  998SOL     OW 3892   6.150   0.255   6.032
  998SOL    HW1 3893   6.172   0.256   6.129
  998SOL    HW2 3894   6.192   0.334   5.988
  999SOL     OW 3895   4.775   3.438   1.531
  999SOL    HW1 3896   4.851   3.374   1.541
  999SOL    HW2 3897   4.701   3.411   1.593
 1000SOL     OW 3898   3.677   1.453   1.635
 1000SOL    HW1 3899   3.656   1.403   1.719
 1000SOL    HW2 3900   3.687   1.550   1.655
 1001SOL     OW 3901   3.084   6.558   2.373
 1001SOL    HW1 3902   3.063   6.542   2.277
 1001SOL    HW2 3903   3.121   6.649   2.385
 1002SOL     OW 3904   5.169   2.782   1.508
 1002SOL    HW1 3905   5.248   2.740   1.463
 1002SOL    HW2 3906   5.135   2.858   1.453
 1003SOL     OW 3907   1.490   6.171   2.235
 1003SOL    HW1 3908   1.452   6.256   2.198
 1003SOL    HW2 3909   1.418   6.103   2.241
 1004SOL     OW 3910   5.782   1.625   3.703
 1004SOL    HW1 3911   5.695   1.671   3.685
 1004SOL    HW2 3912   5.857   1.681   3.670
 1005SOL     OW 3913   1.807   4.712   4.967
 1005SOL    HW1 3914   1.885   4.696   5.026
 1005SOL    HW2 3915   1.837   4.713   4.871
 1006SOL     OW 3916   2.274   4.024   0.462
 1006SOL    HW1 3917   2.331   3.942   0.468
 1006SOL    HW2 3918   2.303   4.078   0.383
 1007SOL     OW 3919   4.536   1.892   6.448
 1007SOL    HW1 3920   4.634   1.911   6.443
 1007SOL    HW2 3921   4.485   1.964   6.400
 1008SOL     OW 3922   0.488   4.542   5.175
 1008SOL    HW1 3923   0.513   4.472   5.242
 1008SOL    HW2 3924   0.532   4.521   5.088
 1009SOL     OW 3925   5.860   5.139   5.169
 1009SOL    HW1 3926   5.952   5.118   5.201
 1009SOL    HW2 3927   5.857   5.134   5.069
 1010SOL     OW 3928   2.183   3.181   1.505
 1010SOL    HW1 3929   2.170   3.272   1.545
 1010SOL    HW2 3930   2.190   3.113   1.578
 1011SOL     OW 3931   0.654   5.096   2.349
 1011SOL    HW1 3932   0.669   4.999   2.332
 1011SOL    HW2 3933   0.725   5.149   2.304
 1012SOL     OW 3934   5.999   0.478   2.498
 1012SOL    HW1 3935   5.985   0.576   2.480
 1012SOL    HW2 3936   6.025   0.432   2.413
 1013SOL     OW 3937   7.017   0.635   5.917
 1013SOL    HW1 3938   6.943   0.571   5.897
 1013SOL    HW2 3939   6.993   0.690   5.998
 1014SOL     OW 3940   1.674   4.956   4.095
 1014SOL    HW1 3941   1.713   5.004   4.016
 1014SOL    HW2 3942   1.615   4.882   4.064
 1015SOL     OW 3943   3.279   0.382   5.956
 1015SOL    HW1 3944   3.229   0.303   5.989
 1015SOL    HW2 3945   3.269   0.388   5.856
 1016SOL     OW 3946   5.192   4.137   1.649
 1016SOL    HW1 3947   5.140   4.053   1.634
 1016SOL    HW2 3948   5.128   4.213   1.666
 1017SOL     OW 3949   1.774   1.400   1.953
 1017SOL    HW1 3950   1.704   1.343   1.996
 1017SOL    HW2 3951   1.802   1.473   2.015
 1018SOL     OW 3952   0.214   5.335   3.768
 1018SOL    HW1 3953   0.208   5.367   3.863
 1018SOL    HW2 3954   0.266   5.249   3.765
 1019SOL     OW 3955   6.970   4.817   0.621
 1019SOL    HW1 3956   6.921   4.772   0.695
 1019SOL    HW2 3957   6.941   4.778   0.533
 1020SOL     OW 3958   0.096   0.322   1.199
 1020SOL    HW1 3959   0.156   0.282   1.130
 1020SOL    HW2 3960   0.138   0.313   1.290
 1021SOL     OW 3961   6.067   5.911   1.801
 1021SOL    HW1 3962   5.987   5.955   1.843
 1021SOL    HW2 3963   6.040   5.866   1.716
 1022SOL     OW 3964   2.469   6.509   6.392
 1022SOL    HW1 3965   2.484   6.410   6.390
 1022SOL    HW2 3966   2.416   6.536   6.311
 1023SOL     OW 3967   0.000   1.697   3.164
 1023SOL    HW1 3968   7.008   1.621   3.228
 1023SOL    HW2 3969   0.037   1.663   3.078
 1024SOL     OW 3970   1.339   1.689   4.683
 1024SOL    HW1 3971   1.313   1.595   4.662
 1024SOL    HW2 3972   1.409   1.690   4.755
 1025SOL     OW 3973   4.983   3.892   7.000
 1025SOL    HW1 3974   4.989   3.854   0.073
 1025SOL    HW2 3975   5.007   3.989   7.002
 1026SOL     OW 3976   3.000   2.485   1.310
 1026SOL    HW1 3977   3.057   2.563   1.287
 1026SOL    HW2 3978   2.914   2.517   1.351
 1027SOL     OW 3979   1.349   6.061   1.467
 1027SOL    HW1 3980   1.363   6.104   1.557
 1027SOL    HW2 3981   1.274   5.996   1.473
 1028SOL     OW 3982   0.885   6.227   3.066
 1028SOL    HW1 3983   0.809   6.178   3.109
 1028SOL    HW2 3984   0.945   6.265   3.136
 1029SOL     OW 3985   1.454   1.945   5.749
 1029SOL    HW1 3986   1.361   1.950   5.785
 1029SOL    HW2 3987   1.460   1.870   5.683
 1030SOL     OW 3988   3.027   3.326   1.478
 1030SOL    HW1 3989   2.941   3.333   1.428
 1030SOL    HW2 3990   3.102   3.359   1.421
 1031SOL     OW 3991   3.605   3.389   1.333
 1031SOL    HW1 3992   3.575   3.418   1.424
 1031SOL    HW2 3993   3.702   3.363   1.336
 1032SOL     OW 3994   2.388   1.480   6.123
 1032SOL    HW1 3995   2.322   1.487   6.048
 1032SOL    HW2 3996   2.434   1.568   6.135
 1033SOL     OW 3997   0.575   6.231   2.512
 1033SOL    HW1 3998   0.553   6.134   2.523
 1033SOL    HW2 3999   0.491   6.282   2.491
 1034SOL     OW 4000   3.594   6.859   4.688
 1034SOL    HW1 4001   3.637   6.917   4.619
 1034SOL    HW2 4002   3.534   6.793   4.645
 1035SOL     OW 4003   0.779   1.447   6.003
 1035SOL    HW1 4004   0.714   1.523   6.006
 1035SOL    HW2 4005   0.810   1.426   6.096
 1036SOL     OW 4006   5.452   1.406   1.280
 1036SOL    HW1 4007   5.463   1.492   1.229
 1036SOL    HW2 4008   5.359   1.401   1.317
 1037SOL     OW 4009   2.132   2.304   2.662
 1037SOL    HW1 4010   2.081   2.222   2.688
 1037SOL    HW2 4011   2.087   2.385   2.701
 1038SOL     OW 4012   2.824   0.480   0.090
 1038SOL    HW1 4013   2.905   0.423   0.078
 1038SOL    HW2 4014   2.820   0.548   0.017
 1039SOL     OW 4015   3.476   3.296   3.591
 1039SOL    HW1 4016   3.414   3.217   3.590
 1039SOL    HW2 4017   3.481   3.335   3.499
 1040SOL     OW 4018   4.177   1.032   2.701
 1040SOL    HW1 4019   4.258   1.020   2.759
 1040SOL    HW2 4020   4.123   0.947   2.701
 1041SOL     OW 4021   6.459   6.113   4.809
 1041SOL    HW1 4022   6.510   6.197   4.830
 1041SOL    HW2 4023   6.382   6.135   4.750
 1042SOL     OW 4024   4.843   4.658   2.165
 1042SOL    HW1 4025   4.771   4.589   2.167
 1042SOL    HW2 4026   4.920   4.628   2.221
 1043SOL     OW 4027   3.405   0.939   3.430
 1043SOL    HW1 4028   3.371   0.954   3.337
 1043SOL    HW2 4029   3.504   0.925   3.427
 1044SOL     OW 4030   5.761   4.355   1.224
 1044SOL    HW1 4031   5.846   4.313   1.191
 1044SOL    HW2 4032   5.747   4.442   1.178
 1045SOL     OW 4033   2.019   0.953   3.821
 1045SOL    HW1 4034   2.104   0.973   3.772
 1045SOL    HW2 4035   2.022   0.993   3.912
 1046SOL     OW 4036   3.148   1.204   1.157
 1046SOL    HW1 4037   3.128   1.107   1.168
 1046SOL    HW2 4038   3.223   1.230   1.218
 1047SOL     OW 4039   2.905   0.075   3.446
 1047SOL    HW1 4040   2.896   0.048   3.542
 1047SOL    HW2 4041   2.937   0.170   3.440
 1048SOL     OW 4042   2.126   6.084   2.095
 1048SOL    HW1 4043   2.109   5.987   2.113
 1048SOL    HW2 4044   2.220   6.095   2.062
 1049SOL     OW 4045   3.764   6.884   5.004
 1049SOL    HW1 4046   3.822   6.817   5.051
 1049SOL    HW2 4047   3.687   6.838   4.961
 1050SOL     OW 4048   3.713   4.882   3.879
 1050SOL    HW1 4049   3.770   4.934   3.943
 1050SOL    HW2 4050   3.709   4.787   3.908
 1051SOL     OW 4051   0.141   6.774   0.500
 1051SOL    HW1 4052   0.077   6.721   0.556
 1051SOL    HW2 4053   0.227   6.723   0.491
 1052SOL     OW 4054   3.868   0.739   6.524
 1052SOL    HW1 4055   3.830   0.705   6.610
 1052SOL    HW2 4056   3.869   0.839   6.525
 1053SOL     OW 4057   5.808   3.565   2.183
 1053SOL    HW1 4058   5.832   3.559   2.280
 1053SOL    HW2 4059   5.765   3.653   2.164
 1054SOL     OW 4060   3.665   4.349   0.420
 1054SOL    HW1 4061   3.730   4.354   0.344
 1054SOL    HW2 4062   3.713   4.325   0.504
 1055SOL     OW 4063   4.327   5.638   6.876
 1055SOL    HW1 4064   4.311   5.641   6.975
 1055SOL    HW2 4065   4.251   5.684   6.830
 1056SOL     OW 4066   2.291   4.417   0.170
 1056SOL    HW1 4067   2.373   4.474   0.161
 1056SOL    HW2 4068   2.248   4.434   0.258
 1057SOL     OW 4069   3.507   1.956   1.695
 1057SOL    HW1 4070   3.484   1.941   1.599
 1057SOL    HW2 4071   3.513   2.054   1.713
 1058SOL     OW 4072   3.637   2.075   2.770
 1058SOL    HW1 4073   3.548   2.117   2.785
 1058SOL    HW2 4074   3.675   2.045   2.857
 1059SOL     OW 4075   2.372   6.011   1.998
 1059SOL    HW1 4076   2.422   6.094   2.023
 1059SOL    HW2 4077   2.355   6.010   1.899
 1060SOL     OW 4078   0.245   5.582   4.979
 1060SOL    HW1 4079   0.296   5.620   5.055
 1060SOL    HW2 4080   0.147   5.586   4.999
 1061SOL     OW 4081   6.625   3.985   0.410
 1061SOL    HW1 4082   6.677   3.919   0.465
 1061SOL    HW2 4083   6.586   3.939   0.331
 1062SOL     OW 4084   3.853   6.372   4.794
 1062SOL    HW1 4085   3.953   6.373   4.795
 1062SOL    HW2 4086   3.819   6.460   4.760
 1063SOL     OW 4087   1.216   6.906   5.480
 1063SOL    HW1 4088   1.295   6.928   5.423
 1063SOL    HW2 4089   1.187   6.989   5.529
 1064SOL     OW 4090   0.488   4.355   1.002
 1064SOL    HW1 4091   0.570   4.410   0.992
 1064SOL    HW2 4092   0.410   4.414   1.023
 1065SOL     OW 4093   3.637   0.569   4.726
 1065SOL    HW1 4094   3.688   0.505   4.669
 1065SOL    HW2 4095   3.688   0.588   4.810
 1066SOL     OW 4096   4.436   0.803   2.075
 1066SOL    HW1 4097   4.350   0.770   2.113
 1066SOL    HW2 4098   4.478   0.731   2.019
 1067SOL     OW 4099   2.911   1.137   0.560
 1067SOL    HW1 4100   2.936   1.188   0.477
 1067SOL    HW2 4101   2.971   1.057   0.568
 1068SOL     OW 4102   6.015   3.408   0.969
 1068SOL    HW1 4103   5.952   3.379   0.897
 1068SOL    HW2 4104   5.972   3.397   1.058
 1069SOL     OW 4105   6.099   4.553   0.941
 1069SOL    HW1 4106   6.148   4.466   0.949
 1069SOL    HW2 4107   6.113   4.591   0.850
 1070SOL     OW 4108   2.243   0.581   2.343
 1070SOL    HW1 4109   2.308   0.522   2.295
 1070SOL    HW2 4110   2.184   0.526   2.402
 1071SOL     OW 4111   6.703   2.529   4.802
 1071SOL    HW1 4112   6.640   2.590   4.850
 1071SOL    HW2 4113   6.758   2.581   4.737
 1072SOL     OW 4114   3.398   1.016   1.978
 1072SOL    HW1 4115   3.343   1.083   1.928
 1072SOL    HW2 4116   3.339   0.945   2.016
 1073SOL     OW 4117   5.380   1.736   3.105
 1073SOL    HW1 4118   5.357   1.833   3.114
 1073SOL    HW2 4119   5.367   1.708   3.010
 1074SOL     OW 4120   3.288   4.980   1.631
 1074SOL    HW1 4121   3.277   5.079   1.623
 1074SOL    HW2 4122   3.316   4.957   1.724
 1075SOL     OW 4123   5.907   2.093   5.083
 1075SOL    HW1 4124   5.909   1.999   5.115
 1075SOL    HW2 4125   5.835   2.143   5.132
 1076SOL     OW 4126   2.106   3.845   4.905
 1076SOL    HW1 4127   2.159   3.929   4.894
 1076SOL    HW2 4128   2.057   3.825   4.820
 1077SOL     OW 4129   6.746   0.403   0.042
 1077SOL    HW1 4130   6.686   0.406   6.982
 1077SOL    HW2 4131   6.709   0.340   0.110
 1078SOL     OW 4132   6.864   6.477   3.822
 1078SOL    HW1 4133   6.796   6.412   3.787
 1078SOL    HW2 4134   6.904   6.441   3.906
 1079SOL     OW 4135   1.298   5.991   2.259
 1079SOL    HW1 4136   1.269   6.015   2.351
 1079SOL    HW2 4137   1.312   5.892   2.253
 1080SOL     OW 4138   2.009   5.335   5.057
 1080SOL    HW1 4139   1.998   5.434   5.055
 1080SOL    HW2 4140   1.971   5.295   4.973
 1081SOL     OW 4141   6.304   5.704   4.463
 1081SOL    HW1 4142   6.248   5.647   4.403
 1081SOL    HW2 4143   6.327   5.789   4.416
 1082SOL     OW 4144   5.533   6.990   5.927
 1082SOL    HW1 4145   5.552   6.964   5.832
 1082SOL    HW2 4146   5.542   6.910   5.986
 1083SOL     OW 4147   5.049   3.882   0.937
 1083SOL    HW1 4148   5.143   3.880   0.970
 1083SOL    HW2 4149   5.009   3.972   0.954
 1084SOL     OW 4150   6.985   6.943   6.551
 1084SOL    HW1 4151   0.041   6.998   6.586
 1084SOL    HW2 4152   6.919   6.926   6.624
 1085SOL     OW 4153   1.729   3.768   4.041
 1085SOL    HW1 4154   1.768   3.745   4.131
 1085SOL    HW2 4155   1.666   3.845   4.052
 1086SOL     OW 4156   6.596   4.451   6.221
 1086SOL    HW1 4157   6.690   4.448   6.255
 1086SOL    HW2 4158   6.597   4.444   6.121
 1087SOL     OW 4159   1.790   0.308   5.843
 1087SOL    HW1 4160   1.800   0.396   5.796
 1087SOL    HW2 4161   1.740   0.322   5.928
 1088SOL     OW 4162   0.104   4.902   3.550
 1088SOL    HW1 4163   0.062   4.815   3.525
 1088SOL    HW2 4164   0.040   4.955   3.606
 1089SOL     OW 4165   6.829   4.936   4.595
 1089SOL    HW1 4166   6.845   4.857   4.654
 1089SOL    HW2 4167   6.890   4.931   4.516
 1090SOL     OW 4168   5.826   1.638   4.434
 1090SOL    HW1 4169   5.810   1.662   4.530
 1090SOL    HW2 4170   5.738   1.627   4.388
 1091SOL     OW 4171   2.054   3.420   3.820
 1091SOL    HW1 4172   2.114   3.341   3.808
 1091SOL    HW2 4173   2.092   3.480   3.890
 1092SOL     OW 4174   0.953   4.896   1.003
 1092SOL    HW1 4175   0.997   4.977   1.039
 1092SOL    HW2 4176   0.878   4.869   1.063
 1093SOL     OW 4177   2.579   6.595   1.436
 1093SOL    HW1 4178   2.536   6.517   1.482
 1093SOL    HW2 4179   2.509   6.652   1.394
 1094SOL     OW 4180   0.752   0.161   2.720
 1094SOL    HW1 4181   0.703   0.094   2.774
 1094SOL    HW2 4182   0.711   0.252   2.733
 1095SOL     OW 4183   0.011   2.825   0.015
 1095SOL    HW1 4184   7.001   2.875   0.096
 1095SOL    HW2 4185   6.969   2.845   6.958
 1096SOL     OW 4186   2.901   5.520   0.908
 1096SOL    HW1 4187   2.892   5.605   0.959
 1096SOL    HW2 4188   2.899   5.539   0.810
 1097SOL     OW 4189   2.420   5.132   3.629
 1097SOL    HW1 4190   2.408   5.131   3.728
 1097SOL    HW2 4191   2.348   5.076   3.587
 1098SOL     OW 4192   5.940   4.468   0.276
 1098SOL    HW1 4193   5.928   4.369   0.262
 1098SOL    HW2 4194   6.005   4.503   0.209
 1099SOL     OW 4195   4.579   1.542   6.336
 1099SOL    HW1 4196   4.601   1.564   6.431
 1099SOL    HW2 4197   4.610   1.616   6.276
 1100SOL     OW 4198   4.179   1.033   3.820
 1100SOL    HW1 4199   4.155   1.127   3.845
 1100SOL    HW2 4200   4.117   0.970   3.866
 1101SOL     OW 4201   6.024   3.262   5.653
 1101SOL    HW1 4202   6.004   3.184   5.594
 1101SOL    HW2 4203   5.943   3.284   5.708
 1102SOL     OW 4204   2.462   0.759   4.501
 1102SOL    HW1 4205   2.403   0.727   4.576
 1102SOL    HW2 4206   2.416   0.743   4.414
 1103SOL     OW 4207   2.884   0.925   6.556
 1103SOL    HW1 4208   2.845   1.009   6.518
 1103SOL    HW2 4209   2.885   0.854   6.485
 1104SOL     OW 4210   0.821   4.549   3.074
 1104SOL    HW1 4211   0.879   4.474   3.042
 1104SOL    HW2 4212   0.876   4.632   3.085
 1105SOL     OW 4213   5.652   1.631   5.202
 1105SOL    HW1 4214   5.691   1.605   5.289
 1105SOL    HW2 4215   5.604   1.553   5.161
 1106SOL     OW 4216   0.714   0.988   0.385
 1106SOL    HW1 4217   0.751   0.902   0.351
 1106SOL    HW2 4218   0.615   0.991   0.367
 1107SOL     OW 4219   1.184   1.068   6.556
 1107SOL    HW1 4220   1.094   1.060   6.514
 1107SOL    HW2 4221   1.195   1.160   6.594
 1108SOL     OW 4222   3.241   6.222   4.025
 1108SOL    HW1 4223   3.313   6.289   4.006
 1108SOL    HW2 4224   3.153   6.259   3.997
 1109SOL     OW 4225   5.119   1.305   4.168
 1109SOL    HW1 4226   5.122   1.284   4.070
 1109SOL    HW2 4227   5.152   1.398   4.183
 1110SOL     OW 4228   3.212   1.072   2.873
 1110SOL    HW1 4229   3.159   1.046   2.954
 1110SOL    HW2 4230   3.186   1.164   2.843
 1111SOL     OW 4231   5.017   3.879   6.133
 1111SOL    HW1 4232   4.956   3.939   6.081
 1111SOL    HW2 4233   4.974   3.789   6.141
 1112SOL     OW 4234   6.426   0.492   2.468
 1112SOL    HW1 4235   6.507   0.435   2.453
 1112SOL    HW2 4236   6.444   0.558   2.540
 1113SOL     OW 4237   6.374   4.028   2.870
 1113SOL    HW1 4238   6.376   4.128   2.881
 1113SOL    HW2 4239   6.404   3.984   2.954
 1114SOL     OW 4240   4.410   2.661   6.186
 1114SOL    HW1 4241   4.412   2.747   6.135
 1114SOL    HW2 4242   4.350   2.670   6.265
 1115SOL     OW 4243   3.275   3.971   5.897
 1115SOL    HW1 4244   3.196   4.000   5.842
 1115SOL    HW2 4245   3.346   4.042   5.894
 1116SOL     OW 4246   5.152   0.961   6.841
 1116SOL    HW1 4247   5.195   1.044   6.876
 1116SOL    HW2 4248   5.223   0.897   6.811
 1117SOL     OW 4249   1.076   2.558   1.767
 1117SOL    HW1 4250   1.171   2.533   1.781
 1117SOL    HW2 4251   1.024   2.542   1.850
 1118SOL     OW 4252   2.963   5.382   6.887
 1118SOL    HW1 4253   3.025   5.305   6.893
 1118SOL    HW2 4254   2.972   5.426   6.797
 1119SOL     OW 4255   4.180   4.767   3.476
 1119SOL    HW1 4256   4.251   4.835   3.494
 1119SOL    HW2 4257   4.219   4.675   3.480
 1120SOL     OW 4258   6.481   5.137   1.095
 1120SOL    HW1 4259   6.455   5.145   0.999
 1120SOL    HW2 4260   6.562   5.192   1.113
 1121SOL     OW 4261   0.817   5.311   4.105
 1121SOL    HW1 4262   0.848   5.341   4.195
 1121SOL    HW2 4263   0.738   5.366   4.077
 1122SOL     OW 4264   5.501   2.601   2.325
 1122SOL    HW1 4265   5.556   2.535   2.376
 1122SOL    HW2 4266   5.431   2.640   2.385
 1123SOL     OW 4267   4.132   2.123   3.171
 1123SOL    HW1 4268   4.043   2.157   3.202
 1123SOL    HW2 4269   4.201   2.142   3.241
 1124SOL     OW 4270   1.927   2.945   4.886
 1124SOL    HW1 4271   1.856   3.013   4.869
 1124SOL    HW2 4272   1.888   2.867   4.934
 1125SOL     OW 4273   1.753   3.667   4.350
 1125SOL    HW1 4274   1.827   3.608   4.382
 1125SOL    HW2 4275   1.690   3.684   4.426
 1126SOL     OW 4276   4.197   6.052   5.702
 1126SOL    HW1 4277   4.168   6.053   5.798
 1126SOL    HW2 4278   4.284   6.100   5.694
 1127SOL     OW 4279   5.419   5.763   3.978
 1127SOL    HW1 4280   5.454   5.704   3.904
 1127SOL    HW2 4281   5.367   5.838   3.938
 1128SOL     OW 4282   6.091   1.529   3.840
 1128SOL    HW1 4283   6.018   1.476   3.884
 1128SOL    HW2 4284   6.085   1.624   3.869
 1129SOL     OW 4285   1.982   0.069   1.306
 1129SOL    HW1 4286   1.968   0.085   1.208
 1129SOL    HW2 4287   2.035   7.004   1.319
 1130SOL     OW 4288   1.942   5.254   3.197
 1130SOL    HW1 4289   1.965   5.325   3.130
 1130SOL    HW2 4290   1.923   5.297   3.285
 1131SOL     OW 4291   1.050   6.869   3.665
 1131SOL    HW1 4292   1.086   6.778   3.641
 1131SOL    HW2 4293   1.126   6.931   3.685
 1132SOL     OW 4294   3.850   1.057   3.205
 1132SOL    HW1 4295   3.850   1.008   3.118
 1132SOL    HW2 4296   3.863   1.155   3.189
 1133SOL     OW 4297   1.292   6.765   5.060
 1133SOL    HW1 4298   1.262   6.859   5.079
 1133SOL    HW2 4299   1.376   6.767   5.006
 1134SOL     OW 4300   4.791   6.912   1.495
 1134SOL    HW1 4301   4.725   6.941   1.564
 1134SOL    HW2 4302   4.872   6.874   1.540
 1135SOL     OW 4303   2.170   6.591   3.734
 1135SOL    HW1 4304   2.124   6.502   3.727
 1135SOL    HW2 4305   2.105   6.658   3.769
 1136SOL     OW 4306   2.859   6.065   2.739
 1136SOL    HW1 4307   2.829   6.154   2.705
 1136SOL    HW2 4308   2.821   5.993   2.681
 1137SOL     OW 4309   0.319   5.920   6.412
 1137SOL    HW1 4310   0.253   5.877   6.350
 1137SOL    HW2 4311   0.411   5.908   6.376
 1138SOL     OW 4312   2.239   2.899   5.292
 1138SOL    HW1 4313   2.314   2.951   5.251
 1138SOL    HW2 4314   2.270   2.806   5.311
 1139SOL     OW 4315   2.649   4.601   3.978
 1139SOL    HW1 4316   2.709   4.650   3.915
 1139SOL    HW2 4317   2.576   4.662   4.009
 1140SOL     OW 4318   2.100   1.264   1.847
 1140SOL    HW1 4319   2.106   1.338   1.781
 1140SOL    HW2 4320   2.177   1.270   1.911
 1141SOL     OW 4321   5.595   4.940   6.261
 1141SOL    HW1 4322   5.628   4.922   6.169
 1141SOL    HW2 4323   5.497   4.920   6.266
 1142SOL     OW 4324   2.448   6.978   3.120
 1142SOL    HW1 4325   2.502   0.033   3.161
 1142SOL    HW2 4326   2.447   6.900   3.182
 1143SOL     OW 4327   0.964   3.813   1.529
 1143SOL    HW1 4328   0.906   3.882   1.486
 1143SOL    HW2 4329   0.911   3.730   1.545
 1144SOL     OW 4330   5.428   4.370   2.472
 1144SOL    HW1 4331   5.494   4.430   2.426
 1144SOL    HW2 4332   5.457   4.275   2.464
 1145SOL     OW 4333   1.193   1.937   0.774
 1145SOL    HW1 4334   1.107   1.895   0.806
 1145SOL    HW2 4335   1.251   1.866   0.734
 1146SOL     OW 4336   0.708   1.218   1.698
 1146SOL    HW1 4337   0.689   1.306   1.742
 1146SOL    HW2 4338   0.802   1.191   1.717
 1147SOL     OW 4339   3.172   6.123   0.978
 1147SOL    HW1 4340   3.130   6.054   1.037
 1147SOL    HW2 4341   3.263   6.146   1.013
 1148SOL     OW 4342   3.854   6.246   1.985
 1148SOL    HW1 4343   3.902   6.215   2.067
 1148SOL    HW2 4344   3.884   6.339   1.962
 1149SOL     OW 4345   5.949   2.494   1.586
 1149SOL    HW1 4346   6.007   2.441   1.524
 1149SOL    HW2 4347   5.993   2.499   1.675
 1150SOL     OW 4348   1.508   4.172   6.796
 1150SOL    HW1 4349   1.599   4.141   6.769
 1150SOL    HW2 4350   1.440   4.105   6.768
 1151SOL     OW 4351   6.549   5.208   3.492
 1151SOL    HW1 4352   6.541   5.220   3.394
 1151SOL    HW2 4353   6.525   5.114   3.517
 1152SOL     OW 4354   4.783   0.631   6.895
 1152SOL    HW1 4355   4.881   0.636   6.913
 1152SOL    HW2 4356   4.755   0.712   6.842
 1153SOL     OW 4357   6.928   6.782   1.430
 1153SOL    HW1 4358   7.006   6.726   1.457
 1153SOL    HW2 4359   6.956   6.846   1.359
 1154SOL     OW 4360   1.255   3.638   2.407
 1154SOL    HW1 4361   1.203   3.553   2.406
 1154SOL    HW2 4362   1.353   3.617   2.406
 1155SOL     OW 4363   2.004   6.880   4.920
 1155SOL    HW1 4364   2.092   6.841   4.890
 1155SOL    HW2 4365   2.017   6.976   4.944
 1156SOL     OW 4366   3.830   1.666   4.687
 1156SOL    HW1 4367   3.799   1.572   4.693
 1156SOL    HW2 4368   3.930   1.668   4.679
 1157SOL     OW 4369   4.168   0.461   5.549
 1157SOL    HW1 4370   4.226   0.386   5.519
 1157SOL    HW2 4371   4.106   0.488   5.475
 1158SOL     OW 4372   5.507   5.663   3.385
 1158SOL    HW1 4373   5.428   5.702   3.337
 1158SOL    HW2 4374   5.479   5.582   3.436
 1159SOL     OW 4375   6.573   6.113   3.065
 1159SOL    HW1 4376   6.600   6.079   2.975
 1159SOL    HW2 4377   6.614   6.203   3.081
 1160SOL     OW 4378   4.230   6.841   0.864
 1160SOL    HW1 4379   4.232   6.884   0.954
 1160SOL    HW2 4380   4.211   6.911   0.794
 1161SOL     OW 4381   6.786   5.456   6.529
 1161SOL    HW1 4382   6.843   5.386   6.570
 1161SOL    HW2 4383   6.690   5.429   6.535
 1162SOL     OW 4384   2.117   3.101   5.468
 1162SOL    HW1 4385   2.170   3.058   5.540
 1162SOL    HW2 4386   2.161   3.087   5.379
 1163SOL     OW 4387   5.969   4.149   1.911
 1163SOL    HW1 4388   6.065   4.170   1.896
 1163SOL    HW2 4389   5.914   4.191   1.839
 1164SOL     OW 4390   5.628   2.087   4.458
 1164SOL    HW1 4391   5.583   2.044   4.536
 1164SOL    HW2 4392   5.727   2.085   4.471
 1165SOL     OW 4393   4.573   6.351   3.413
 1165SOL    HW1 4394   4.562   6.451   3.412
 1165SOL    HW2 4395   4.497   6.309   3.363
 1166SOL     OW 4396   2.136   6.537   6.317
 1166SOL    HW1 4397   2.178   6.490   6.395
 1166SOL    HW2 4398   2.175   6.628   6.308
 1167SOL     OW 4399   4.989   3.918   1.930
 1167SOL    HW1 4400   5.063   3.878   1.984
 1167SOL    HW2 4401   5.018   4.008   1.895
 1168SOL     OW 4402   5.780   2.660   2.747
 1168SOL    HW1 4403   5.845   2.680   2.674
 1168SOL    HW2 4404   5.687   2.659   2.710
 1169SOL     OW 4405   5.730   1.045   5.727
 1169SOL    HW1 4406   5.681   0.978   5.782
 1169SOL    HW2 4407   5.687   1.135   5.738
 1170SOL     OW 4408   5.295   0.221   3.254
 1170SOL    HW1 4409   5.333   0.172   3.176
 1170SOL    HW2 4410   5.224   0.284   3.223
 1171SOL     OW 4411   1.585   0.052   0.792
 1171SOL    HW1 4412   1.683   0.062   0.774
 1171SOL    HW2 4413   1.571   0.016   0.884
 1172SOL     OW 4414   6.164   3.842   0.629
 1172SOL    HW1 4415   6.068   3.858   0.606
 1172SOL    HW2 4416   6.171   3.763   0.690
 1173SOL     OW 4417   2.909   1.105   1.413
 1173SOL    HW1 4418   2.932   1.184   1.469
 1173SOL    HW2 4419   2.993   1.057   1.387
 1174SOL     OW 4420   3.738   3.727   1.451
 1174SOL    HW1 4421   3.680   3.706   1.372
 1174SOL    HW2 4422   3.690   3.791   1.511
 1175SOL     OW 4423   4.146   3.076   5.635
 1175SOL    HW1 4424   4.219   3.144   5.635
 1175SOL    HW2 4425   4.060   3.120   5.662
 1176SOL     OW 4426   5.129   3.643   5.879
 1176SOL    HW1 4427   5.212   3.698   5.872
 1176SOL    HW2 4428   5.072   3.677   5.953
 1177SOL     OW 4429   5.949   2.286   4.665
 1177SOL    HW1 4430   5.961   2.358   4.733
 1177SOL    HW2 4431   6.035   2.273   4.616
 1178SOL     OW 4432   3.222   4.060   0.786
 1178SOL    HW1 4433   3.166   4.141   0.800
 1178SOL    HW2 4434   3.311   4.086   0.748
 1179SOL     OW 4435   2.411   6.006   0.574
 1179SOL    HW1 4436   2.340   5.983   0.641
 1179SOL    HW2 4437   2.368   6.028   0.487
 1180SOL     OW 4438   3.517   5.576   1.544
 1180SOL    HW1 4439   3.435   5.633   1.545
 1180SOL    HW2 4440   3.556   5.572   1.635
 1181SOL     OW 4441   0.300   5.227   6.783
 1181SOL    HW1 4442   0.283   5.269   6.693
 1181SOL    HW2 4443   0.347   5.140   6.771
 1182SOL     OW 4444   3.275   5.502   2.929
 1182SOL    HW1 4445   3.193   5.447   2.915
 1182SOL    HW2 4446   3.346   5.446   2.972
 1183SOL     OW 4447   1.808   4.474   6.970
 1183SOL    HW1 4448   1.901   4.436   6.973
 1183SOL    HW2 4449   1.750   4.424   0.015
 1184SOL     OW 4450   0.961   0.704   4.319
 1184SOL    HW1 4451   0.914   0.650   4.389
 1184SOL    HW2 4452   0.911   0.699   4.233
 1185SOL     OW 4453   6.890   1.085   6.239
 1185SOL    HW1 4454   6.900   1.044   6.329
 1185SOL    HW2 4455   6.803   1.132   6.232
 1186SOL     OW 4456   4.903   5.593   4.542
 1186SOL    HW1 4457   4.991   5.573   4.498
 1186SOL    HW2 4458   4.841   5.515   4.530
 1187SOL     OW 4459   6.841   6.875   6.820
 1187SOL    HW1 4460   6.930   6.864   6.864
 1187SOL    HW2 4461   6.779   6.803   6.852
 1188SOL     OW 4462   2.824   6.124   4.795
 1188SOL    HW1 4463   2.917   6.094   4.814
 1188SOL    HW2 4464   2.766   6.043   4.780
 1189SOL     OW 4465   6.597   3.427   2.558
 1189SOL    HW1 4466   6.600   3.392   2.464
 1189SOL    HW2 4467   6.501   3.432   2.588
 1190SOL     OW 4468   2.187   5.750   3.708
 1190SOL    HW1 4469   2.280   5.720   3.686
 1190SOL    HW2 4470   2.141   5.778   3.625
 1191SOL     OW 4471   4.197   5.182   3.239
 1191SOL    HW1 4472   4.202   5.263   3.180
 1191SOL    HW2 4473   4.270   5.118   3.214
 1192SOL     OW 4474   3.674   5.964   3.285
 1192SOL    HW1 4475   3.683   5.875   3.329
 1192SOL    HW2 4476   3.608   5.958   3.210
 1193SOL     OW 4477   5.943   4.658   4.338
 1193SOL    HW1 4478   5.843   4.662   4.335
 1193SOL    HW2 4479   5.981   4.738   4.291
 1194SOL     OW 4480   5.475   0.424   1.695
 1194SOL    HW1 4481   5.535   0.493   1.733
 1194SOL    HW2 4482   5.463   0.440   1.597
 1195SOL     OW 4483   5.774   4.703   1.789
 1195SOL    HW1 4484   5.822   4.759   1.856
 1195SOL    HW2 4485   5.735   4.623   1.835
 1196SOL     OW 4486   0.524   6.209   3.197
 1196SOL    HW1 4487   0.491   6.223   3.104
 1196SOL    HW2 4488   0.536   6.111   3.214
 1197SOL     OW 4489   3.442   0.765   6.988
 1197SOL    HW1 4490   3.342   0.757   6.985
 1197SOL    HW2 4491   3.467   0.856   0.002
 1198SOL     OW 4492   1.092   2.781   1.468
 1198SOL    HW1 4493   0.997   2.753   1.483
 1198SOL    HW2 4494   1.132   2.813   1.554
 1199SOL     OW 4495   4.778   5.066   1.796
 1199SOL    HW1 4496   4.702   5.036   1.740
 1199SOL    HW2 4497   4.861   5.015   1.770
 1200SOL     OW 4498   3.566   3.188   2.562
 1200SOL    HW1 4499   3.546   3.100   2.518
 1200SOL    HW2 4500   3.645   3.178   2.621
 1201SOL     OW 4501   0.910   0.917   4.824
 1201SOL    HW1 4502   0.868   0.876   4.905
 1201SOL    HW2 4503   0.987   0.861   4.794
 1202SOL     OW 4504   1.089   6.088   6.431
 1202SOL    HW1 4505   1.012   6.063   6.490
 1202SOL    HW2 4506   1.083   6.037   6.346
 1203SOL     OW 4507   5.143   5.996   6.497
 1203SOL    HW1 4508   5.051   5.957   6.487
 1203SOL    HW2 4509   5.203   5.929   6.540
 1204SOL     OW 4510   2.557   0.315   1.473
 1204SOL    HW1 4511   2.598   0.394   1.517
 1204SOL    HW2 4512   2.462   0.304   1.505
 1205SOL     OW 4513   4.929   4.275   1.572
 1205SOL    HW1 4514   4.879   4.189   1.580
 1205SOL    HW2 4515   4.924   4.325   1.658
 1206SOL     OW 4516   3.310   3.014   4.887
 1206SOL    HW1 4517   3.399   3.025   4.842
 1206SOL    HW2 4518   3.314   2.938   4.952
 1207SOL     OW 4519   2.581   0.037   1.509
 1207SOL    HW1 4520   2.582   0.132   1.478
 1207SOL    HW2 4521   2.612   6.997   1.435
 1208SOL     OW 4522   3.572   4.083   0.194
 1208SOL    HW1 4523   3.521   4.155   0.147
 1208SOL    HW2 4524   3.612   4.021   0.127
 1209SOL     OW 4525   3.796   0.544   5.733
 1209SOL    HW1 4526   3.812   0.613   5.661
 1209SOL    HW2 4527   3.698   0.524   5.739
 1210SOL     OW 4528   2.520   0.050   3.457
 1210SOL    HW1 4529   2.589   0.066   3.387
 1210SOL    HW2 4530   2.499   6.971   3.461
 1211SOL     OW 4531   1.484   3.697   1.162
 1211SOL    HW1 4532   1.548   3.620   1.164
 1211SOL    HW2 4533   1.486   3.740   1.071
 1212SOL     OW 4534   0.565   0.632   6.120
 1212SOL    HW1 4535   0.471   0.643   6.152
 1212SOL    HW2 4536   0.593   0.536   6.129
 1213SOL     OW 4537   5.652   2.633   0.401
 1213SOL    HW1 4538   5.594   2.565   0.357
 1213SOL    HW2 4539   5.600   2.718   0.412
 1214SOL     OW 4540   6.837   2.195   0.941
 1214SOL    HW1 4541   6.912   2.152   0.890
 1214SOL    HW2 4542   6.874   2.238   1.024
 1215SOL     OW 4543   1.881   4.602   4.363
 1215SOL    HW1 4544   1.914   4.693   4.334
 1215SOL    HW2 4545   1.799   4.579   4.310
 1216SOL     OW 4546   4.157   0.463   0.079
 1216SOL    HW1 4547   4.079   0.480   0.139
 1216SOL    HW2 4548   4.130   0.401   0.006
 1217SOL     OW 4549   1.583   4.704   0.385
 1217SOL    HW1 4550   1.594   4.744   0.476
 1217SOL    HW2 4551   1.512   4.633   0.388
 1218SOL     OW 4552   1.504   4.595   4.362
 1218SOL    HW1 4553   1.568   4.583   4.286
 1218SOL    HW2 4554   1.496   4.693   4.383
 1219SOL     OW 4555   5.369   5.991   2.079
 1219SOL    HW1 4556   5.423   5.978   1.995
 1219SOL    HW2 4557   5.387   5.915   2.141
 1220SOL     OW 4558   1.132   5.150   2.937
 1220SOL    HW1 4559   1.101   5.181   2.847
 1220SOL    HW2 4560   1.054   5.150   3.001
 1221SOL     OW 4561   5.358   2.955   5.481
 1221SOL    HW1 4562   5.445   2.967   5.529
 1221SOL    HW2 4563   5.349   3.026   5.412
 1222SOL     OW 4564   5.959   6.727   6.773
 1222SOL    HW1 4565   6.042   6.756   6.724
 1222SOL    HW2 4566   5.946   6.629   6.762
 1223SOL     OW 4567   4.118   0.494   0.640
 1223SOL    HW1 4568   4.076   0.580   0.667
 1223SOL    HW2 4569   4.076   0.418   0.690
 1224SOL     OW 4570   2.343   6.715   1.342
 1224SOL    HW1 4571   2.339   6.782   1.267
 1224SOL    HW2 4572   2.273   6.737   1.410
 1225SOL     OW 4573   3.195   4.320   6.220
 1225SOL    HW1 4574   3.206   4.364   6.131
 1225SOL    HW2 4575   3.132   4.243   6.211
 1226SOL     OW 4576   2.430   4.317   1.410
 1226SOL    HW1 4577   2.426   4.417   1.422
 1226SOL    HW2 4578   2.448   4.274   1.498
 1227SOL     OW 4579   6.483   3.157   6.708
 1227SOL    HW1 4580   6.478   3.082   6.643
 1227SOL    HW2 4581   6.418   3.229   6.682
 1228SOL     OW 4582   3.908   2.879   6.624
 1228SOL    HW1 4583   3.893   2.929   6.539
 1228SOL    HW2 4584   3.865   2.929   6.700
 1229SOL     OW 4585   4.765   4.710   6.200
 1229SOL    HW1 4586   4.820   4.793   6.193
 1229SOL    HW2 4587   4.723   4.690   6.112
 1230SOL     OW 4588   4.238   0.289   4.412
 1230SOL    HW1 4589   4.177   0.211   4.426
 1230SOL    HW2 4590   4.328   0.256   4.382
 1231SOL     OW 4591   1.706   3.776   4.929
 1231SOL    HW1 4592   1.634   3.710   4.948
 1231SOL    HW2 4593   1.719   3.835   5.009
 1232SOL     OW 4594   0.950   2.458   5.391
 1232SOL    HW1 4595   1.038   2.436   5.348
 1232SOL    HW2 4596   0.966   2.505   5.478
 1233SOL     OW 4597   1.644   2.932   5.588
 1233SOL    HW1 4598   1.606   3.024   5.577
 1233SOL    HW2 4599   1.743   2.935   5.575
 1234SOL     OW 4600   6.662   4.270   4.169
 1234SOL    HW1 4601   6.612   4.184   4.183
 1234SOL    HW2 4602   6.664   4.322   4.254
 1235SOL     OW 4603   6.854   5.579   2.709
 1235SOL    HW1 4604   6.757   5.594   2.731
 1235SOL    HW2 4605   6.862   5.560   2.611
 1236SOL     OW 4606   5.248   0.835   6.182
 1236SOL    HW1 4607   5.164   0.830   6.128
 1236SOL    HW2 4608   5.224   0.845   6.279
 1237SOL     OW 4609   2.463   4.801   5.958
 1237SOL    HW1 4610   2.445   4.709   5.923
 1237SOL    HW2 4611   2.473   4.864   5.881
 1238SOL     OW 4612   1.951   0.956   1.185
 1238SOL    HW1 4613   1.960   0.957   1.085
 1238SOL    HW2 4614   1.858   0.931   1.210
 1239SOL     OW 4615   0.119   6.207   6.651
 1239SOL    HW1 4616   0.098   6.242   6.742
 1239SOL    HW2 4617   0.206   6.157   6.653
 1240SOL     OW 4618   5.665   6.540   1.674
 1240SOL    HW1 4619   5.712   6.540   1.762
 1240SOL    HW2 4620   5.695   6.619   1.620
 1241SOL     OW 4621   6.520   3.586   4.293
 1241SOL    HW1 4622   6.535   3.613   4.198
 1241SOL    HW2 4623   6.579   3.640   4.352
 1242SOL     OW 4624   1.816   3.423   6.904
 1242SOL    HW1 4625   1.873   3.490   6.952
 1242SOL    HW2 4626   1.743   3.471   6.855
 1243SOL     OW 4627   1.876   5.142   5.196
 1243SOL    HW1 4628   1.919   5.220   5.150
 1243SOL    HW2 4629   1.927   5.059   5.177
 1244SOL     OW 4630   0.184   0.669   2.958
 1244SOL    HW1 4631   0.238   0.593   2.993
 1244SOL    HW2 4632   0.225   0.704   2.875
 1245SOL     OW 4633   2.992   3.205   6.627
 1245SOL    HW1 4634   3.040   3.119   6.645
 1245SOL    HW2 4635   2.916   3.215   6.691
 1246SOL     OW 4636   2.131   6.406   2.295
 1246SOL    HW1 4637   2.084   6.319   2.280
 1246SOL    HW2 4638   2.075   6.480   2.259
 1247SOL     OW 4639   2.766   0.125   6.358
 1247SOL    HW1 4640   2.715   0.120   6.272
 1247SOL    HW2 4641   2.815   0.039   6.372
 1248SOL     OW 4642   1.435   6.153   3.748
 1248SOL    HW1 4643   1.498   6.202   3.689
 1248SOL    HW2 4644   1.344   6.196   3.744
 1249SOL     OW 4645   5.664   3.281   2.821
 1249SOL    HW1 4646   5.568   3.269   2.798
 1249SOL    HW2 4647   5.717   3.206   2.783
 1250SOL     OW 4648   1.242   4.754   4.699
 1250SOL    HW1 4649   1.242   4.667   4.650
 1250SOL    HW2 4650   1.293   4.745   4.784
 1251SOL     OW 4651   4.072   0.724   4.672
 1251SOL    HW1 4652   4.099   0.631   4.697
 1251SOL    HW2 4653   3.972   0.729   4.665
 1252SOL     OW 4654   3.496   3.796   6.028
 1252SOL    HW1 4655   3.457   3.771   5.940
 1252SOL    HW2 4656   3.428   3.844   6.083
 1253SOL     OW 4657   3.661   5.151   2.326
 1253SOL    HW1 4658   3.626   5.072   2.276
 1253SOL    HW2 4659   3.595   5.178   2.396
 1254SOL     OW 4660   6.135   2.283   3.338
 1254SOL    HW1 4661   6.090   2.369   3.363
 1254SOL    HW2 4662   6.198   2.256   3.410
 1255SOL     OW 4663   0.356   0.293   5.318
 1255SOL    HW1 4664   0.389   0.210   5.271
 1255SOL    HW2 4665   0.299   0.346   5.256
 1256SOL     OW 4666   6.814   0.347   2.206
 1256SOL    HW1 4667   6.876   0.274   2.180
 1256SOL    HW2 4668   6.769   0.383   2.124
 1257SOL     OW 4669   6.917   0.846   3.254
 1257SOL    HW1 4670   6.933   0.756   3.214
 1257SOL    HW2 4671   6.926   0.841   3.353
 1258SOL     OW 4672   1.126   5.801   3.199
 1258SOL    HW1 4673   1.091   5.783   3.107
 1258SOL    HW2 4674   1.066   5.865   3.247
 1259SOL     OW 4675   4.265   2.023   5.210
 1259SOL    HW1 4676   4.216   1.936   5.204
 1259SOL    HW2 4677   4.350   2.009   5.261
 1260SOL     OW 4678   0.976   1.318   6.968
 1260SOL    HW1 4679   0.977   1.218   6.966
 1260SOL    HW2 4680   0.957   1.350   0.041
 1261SOL     OW 4681   0.296   5.014   0.219
 1261SOL    HW1 4682   0.288   5.016   0.119
 1261SOL    HW2 4683   0.214   4.972   0.258
 1262SOL     OW 4684   5.702   5.673   1.870
 1262SOL    HW1 4685   5.653   5.588   1.853
 1262SOL    HW2 4686   5.797   5.653   1.893
 1263SOL     OW 4687   0.900   1.846   2.386
 1263SOL    HW1 4688   0.986   1.831   2.434
 1263SOL    HW2 4689   0.918   1.857   2.288
 1264SOL     OW 4690   1.162   3.775   5.383
 1264SOL    HW1 4691   1.233   3.841   5.359
 1264SOL    HW2 4692   1.183   3.687   5.338
 1265SOL     OW 4693   6.154   5.700   5.472
 1265SOL    HW1 4694   6.097   5.635   5.522
 1265SOL    HW2 4695   6.238   5.716   5.523
 1266SOL     OW 4696   1.324   0.876   4.962
 1266SOL    HW1 4697   1.401   0.904   5.020
 1266SOL    HW2 4698   1.245   0.855   5.020
 1267SOL     OW 4699   4.981   0.693   1.781
 1267SOL    HW1 4700   5.079   0.686   1.762
 1267SOL    HW2 4701   4.930   0.682   1.696
 1268SOL     OW 4702   4.195   2.401   5.364
 1268SOL    HW1 4703   4.188   2.308   5.326
 1268SOL    HW2 4704   4.151   2.465   5.301
 1269SOL     OW 4705   5.430   2.525   4.036
 1269SOL    HW1 4706   5.436   2.614   3.991
 1269SOL    HW2 4707   5.522   2.491   4.056
 1270SOL     OW 4708   1.481   4.789   2.379
 1270SOL    HW1 4709   1.405   4.780   2.443
 1270SOL    HW2 4710   1.466   4.731   2.299
 1271SOL     OW 4711   1.750   1.181   1.520
 1271SOL    HW1 4712   1.694   1.223   1.449
 1271SOL    HW2 4713   1.691   1.146   1.593
 1272SOL     OW 4714   6.545   4.026   0.080
 1272SOL    HW1 4715   6.644   4.037   0.080
 1272SOL    HW2 4716   6.520   3.945   0.027
 1273SOL     OW 4717   1.312   4.423   5.009
 1273SOL    HW1 4718   1.262   4.509   5.001
 1273SOL    HW2 4719   1.399   4.430   4.961
 1274SOL     OW 4720   0.323   4.788   2.080
 1274SOL    HW1 4721   0.358   4.877   2.108
 1274SOL    HW2 4722   0.262   4.800   2.001
 1275SOL     OW 4723   2.926   0.938   3.434
 1275SOL    HW1 4724   2.896   0.909   3.343
 1275SOL    HW2 4725   3.001   1.003   3.425
 1276SOL     OW 4726   5.703   4.807   4.418
 1276SOL    HW1 4727   5.672   4.829   4.326
 1276SOL    HW2 4728   5.683   4.883   4.479
 1277SOL     OW 4729   0.470   5.456   6.781
 1277SOL    HW1 4730   0.410   5.383   6.812
 1277SOL    HW2 4731   0.516   5.497   6.860
 1278SOL     OW 4732   1.092   6.666   3.294
 1278SOL    HW1 4733   1.059   6.736   3.357
 1278SOL    HW2 4734   1.080   6.698   3.200
 1279SOL     OW 4735   3.031   2.551   6.423
 1279SOL    HW1 4736   2.987   2.543   6.333
 1279SOL    HW2 4737   2.961   2.549   6.494
 1280SOL     OW 4738   3.046   1.495   3.285
 1280SOL    HW1 4739   2.971   1.474   3.348
 1280SOL    HW2 4740   3.077   1.410   3.241
 1281SOL     OW 4741   3.519   6.433   3.740
 1281SOL    HW1 4742   3.536   6.335   3.735
 1281SOL    HW2 4743   3.440   6.456   3.682
 1282SOL     OW 4744   6.887   3.097   0.844
 1282SOL    HW1 4745   6.981   3.126   0.865
 1282SOL    HW2 4746   6.827   3.120   0.920
 1283SOL     OW 4747   5.930   3.728   5.295
 1283SOL    HW1 4748   5.858   3.786   5.258
 1283SOL    HW2 4749   5.913   3.633   5.270
 1284SOL     OW 4750   3.574   1.386   1.396
 1284SOL    HW1 4751   3.612   1.435   1.475
 1284SOL    HW2 4752   3.620   1.416   1.313
 1285SOL     OW 4753   3.394   1.839   4.518
 1285SOL    HW1 4754   3.473   1.848   4.458
 1285SOL    HW2 4755   3.358   1.930   4.540
 1286SOL     OW 4756   4.960   2.300   1.532
 1286SOL    HW1 4757   4.988   2.286   1.437
 1286SOL    HW2 4758   5.035   2.343   1.583
 1287SOL     OW 4759   6.631   4.652   4.650
 1287SOL    HW1 4760   6.610   4.681   4.557
 1287SOL    HW2 4761   6.728   4.671   4.669
 1288SOL     OW 4762   4.440   4.035   6.256
 1288SOL    HW1 4763   4.528   4.083   6.254
 1288SOL    HW2 4764   4.390   4.053   6.172
 1289SOL     OW 4765   6.209   0.478   1.083
 1289SOL    HW1 4766   6.168   0.403   1.136
 1289SOL    HW2 4767   6.139   0.521   1.027
 1290SOL     OW 4768   1.484   0.453   6.953
 1290SOL    HW1 4769   1.447   0.525   7.011
 1290SOL    HW2 4770   1.476   0.365   6.999
 1291SOL     OW 4771   6.720   4.780   3.361
 1291SOL    HW1 4772   6.790   4.838   3.320
 1291SOL    HW2 4773   6.732   4.686   3.329
 1292SOL     OW 4774   0.626   6.095   2.221
 1292SOL    HW1 4775   0.642   5.997   2.232
 1292SOL    HW2 4776   0.691   6.146   2.278
 1293SOL     OW 4777   2.469   1.352   0.062
 1293SOL    HW1 4778   2.458   1.440   0.016
 1293SOL    HW2 4779   2.471   1.367   0.161
 1294SOL     OW 4780   2.073   4.042   5.782
 1294SOL    HW1 4781   2.092   4.060   5.685
 1294SOL    HW2 4782   2.083   4.127   5.834
 1295SOL     OW 4783   0.037   3.636   1.406
 1295SOL    HW1 4784   0.023   3.709   1.340
 1295SOL    HW2 4785   0.016   3.548   1.363
 1296SOL     OW 4786   5.457   6.708   5.982
 1296SOL    HW1 4787   5.369   6.756   5.984
 1296SOL    HW2 4788   5.457   6.641   5.908
 1297SOL     OW 4789   0.516   0.653   2.760
 1297SOL    HW1 4790   0.495   0.734   2.815
 1297SOL    HW2 4791   0.501   0.673   2.664
 1298SOL     OW 4792   5.856   5.402   2.715
 1298SOL    HW1 4793   5.801   5.389   2.632
 1298SOL    HW2 4794   5.802   5.375   2.795
 1299SOL     OW 4795   2.099   3.343   4.261
 1299SOL    HW1 4796   2.005   3.335   4.228
 1299SOL    HW2 4797   2.149   3.259   4.240
 1300SOL     OW 4798   2.103   4.156   1.015
 1300SOL    HW1 4799   2.106   4.248   0.977
 1300SOL    HW2 4800   2.169   4.148   1.090
 1301SOL     OW 4801   1.057   0.926   1.630
 1301SOL    HW1 4802   1.070   0.935   1.531
 1301SOL    HW2 4803   1.041   0.830   1.653
 1302SOL     OW 4804   5.594   6.314   6.259
 1302SOL    HW1 4805   5.653   6.304   6.339
 1302SOL    HW2 4806   5.583   6.411   6.237
 1303SOL     OW 4807   4.405   0.064   1.959
 1303SOL    HW1 4808   4.391   7.008   2.024
 1303SOL    HW2 4809   4.503   0.075   1.942
 1304SOL     OW 4810   0.955   1.357   1.517
 1304SOL    HW1 4811   0.946   1.269   1.470
 1304SOL    HW2 4812   1.036   1.355   1.576
 1305SOL     OW 4813   4.931   4.849   6.629
 1305SOL    HW1 4814   4.855   4.784   6.630
 1305SOL    HW2 4815   4.897   4.940   6.606
 1306SOL     OW 4816   1.383   5.392   5.161
 1306SOL    HW1 4817   1.450   5.365   5.230
 1306SOL    HW2 4818   1.362   5.314   5.103
 1307SOL     OW 4819   1.869   3.120   3.695
 1307SOL    HW1 4820   1.834   3.174   3.619
 1307SOL    HW2 4821   1.885   3.026   3.665
 1308SOL     OW 4822   6.465   5.376   6.716
 1308SOL    HW1 4823   6.506   5.310   6.653
 1308SOL    HW2 4824   6.464   5.338   6.809
 1309SOL     OW 4825   5.455   4.617   6.126
 1309SOL    HW1 4826   5.515   4.600   6.203
 1309SOL    HW2 4827   5.362   4.632   6.158
 1310SOL     OW 4828   1.321   3.658   4.156
 1310SOL    HW1 4829   1.384   3.603   4.212
 1310SOL    HW2 4830   1.367   3.688   4.073
 1311SOL     OW 4831   6.592   5.500   0.520
 1311SOL    HW1 4832   6.651   5.558   0.463
 1311SOL    HW2 4833   6.556   5.425   0.465
 1312SOL     OW 4834   1.273   0.733   5.377
 1312SOL    HW1 4835   1.238   0.823   5.349
 1312SOL    HW2 4836   1.199   0.680   5.418
 1313SOL     OW 4837   6.563   5.243   3.213
 1313SOL    HW1 4838   6.581   5.340   3.195
 1313SOL    HW2 4839   6.634   5.188   3.169
 1314SOL     OW 4840   2.350   1.674   5.092
 1314SOL    HW1 4841   2.421   1.719   5.147
 1314SOL    HW2 4842   2.391   1.599   5.040
 1315SOL     OW 4843   6.204   0.393   3.978
 1315SOL    HW1 4844   6.235   0.480   4.015
 1315SOL    HW2 4845   6.116   0.405   3.931
 1316SOL     OW 4846   4.001   0.787   5.029
 1316SOL    HW1 4847   4.083   0.766   4.976
 1316SOL    HW2 4848   4.015   0.764   5.125
 1317SOL     OW 4849   2.903   3.645   5.722
 1317SOL    HW1 4850   2.957   3.613   5.644
 1317SOL    HW2 4851   2.897   3.572   5.790
 1318SOL     OW 4852   2.128   2.642   0.254
 1318SOL    HW1 4853   2.182   2.571   0.300
 1318SOL    HW2 4854   2.181   2.680   0.178
 1319SOL     OW 4855   6.880   6.083   0.283
 1319SOL    HW1 4856   6.922   6.018   0.346
 1319SOL    HW2 4857   6.898   6.055   0.189
 1320SOL     OW 4858   3.579   2.914   6.359
 1320SOL    HW1 4859   3.624   2.969   6.430
 1320SOL    HW2 4860   3.481   2.934   6.359
 1321SOL     OW 4861   5.782   2.036   6.696
 1321SOL    HW1 4862   5.821   1.962   6.751
 1321SOL    HW2 4863   5.755   2.000   6.606
 1322SOL     OW 4864   2.963   1.316   6.356
 1322SOL    HW1 4865   2.896   1.256   6.401
 1322SOL    HW2 4866   2.941   1.411   6.377
 1323SOL     OW 4867   3.516   0.335   0.489
 1323SOL    HW1 4868   3.583   0.350   0.561
 1323SOL    HW2 4869   3.563   0.327   0.401
 1324SOL     OW 4870   1.317   3.766   0.315
 1324SOL    HW1 4871   1.358   3.720   0.236
 1324SOL    HW2 4872   1.239   3.713   0.348
 1325SOL     OW 4873   2.223   5.747   6.040
 1325SOL    HW1 4874   2.247   5.712   5.949
 1325SOL    HW2 4875   2.129   5.722   6.062
 1326SOL     OW 4876   4.862   4.035   4.488
 1326SOL    HW1 4877   4.961   4.042   4.479
 1326SOL    HW2 4878   4.838   3.948   4.532
 1327SOL     OW 4879   0.289   6.433   0.787
 1327SOL    HW1 4880   0.303   6.514   0.844
 1327SOL    HW2 4881   0.371   6.417   0.732
 1328SOL     OW 4882   1.013   3.391   5.558
 1328SOL    HW1 4883   0.946   3.317   5.551
 1328SOL    HW2 4884   0.985   3.467   5.500
 1329SOL     OW 4885   0.452   2.776   3.245
 1329SOL    HW1 4886   0.376   2.757   3.182
 1329SOL    HW2 4887   0.462   2.700   3.308
 1330SOL     OW 4888   6.564   2.244   0.906
 1330SOL    HW1 4889   6.538   2.272   0.998
 1330SOL    HW2 4890   6.659   2.211   0.906
 1331SOL     OW 4891   4.302   2.359   2.643
 1331SOL    HW1 4892   4.209   2.396   2.644
 1331SOL    HW2 4893   4.344   2.372   2.732
 1332SOL     OW 4894   1.654   0.443   1.248
 1332SOL    HW1 4895   1.598   0.372   1.205
 1332SOL    HW2 4896   1.719   0.479   1.181
 1333SOL     OW 4897   3.881   3.839   3.022
 1333SOL    HW1 4898   3.856   3.903   3.095
 1333SOL    HW2 4899   3.892   3.747   3.060
 1334SOL     OW 4900   6.803   1.442   2.610
 1334SOL    HW1 4901   6.816   1.411   2.515
 1334SOL    HW2 4902   6.751   1.373   2.660
 1335SOL     OW 4903   1.962   3.842   1.513
 1335SOL    HW1 4904   2.036   3.774   1.513
 1335SOL    HW2 4905   1.879   3.801   1.473
 1336SOL     OW 4906   3.451   0.867   5.612
 1336SOL    HW1 4907   3.429   0.777   5.574
 1336SOL    HW2 4908   3.543   0.865   5.650
 1337SOL     OW 4909   5.986   1.778   3.608
 1337SOL    HW1 4910   6.017   1.818   3.694
 1337SOL    HW2 4911   6.047   1.806   3.534
 1338SOL     OW 4912   6.101   3.975   4.234
 1338SOL    HW1 4913   6.151   4.048   4.281
 1338SOL    HW2 4914   6.161   3.931   4.167
 1339SOL     OW 4915   6.959   0.259   6.951
 1339SOL    HW1 4916   6.992   0.177   6.997
 1339SOL    HW2 4917   6.889   0.303   7.007
 1340SOL     OW 4918   5.110   0.932   1.897
 1340SOL    HW1 4919   5.097   0.916   1.995
 1340SOL    HW2 4920   5.088   0.848   1.847
 1341SOL     OW 4921   4.502   6.910   6.885
 1341SOL    HW1 4922   4.512   6.957   6.973
 1341SOL    HW2 4923   4.474   6.815   6.902
 1342SOL     OW 4924   3.274   5.478   0.329
 1342SOL    HW1 4925   3.211   5.463   0.253
 1342SOL    HW2 4926   3.250   5.563   0.376
 1343SOL     OW 4927   5.070   5.108   3.182
 1343SOL    HW1 4928   5.149   5.129   3.240
 1343SOL    HW2 4929   5.101   5.061   3.099
 1344SOL     OW 4930   7.017   0.053   4.531
 1344SOL    HW1 4931   6.923   0.057   4.499
 1344SOL    HW2 4932   0.049   7.004   4.479
 1345SOL     OW 4933   0.515   5.390   1.739
 1345SOL    HW1 4934   0.514   5.297   1.775
 1345SOL    HW2 4935   0.533   5.455   1.814
 1346SOL     OW 4936   2.333   5.302   5.645
 1346SOL    HW1 4937   2.277   5.261   5.573
 1346SOL    HW2 4938   2.343   5.237   5.720
 1347SOL     OW 4939   1.909   0.460   6.551
 1347SOL    HW1 4940   1.866   0.388   6.606
 1347SOL    HW2 4941   1.840   0.507   6.497
 1348SOL     OW 4942   6.857   5.817   4.995
 1348SOL    HW1 4943   6.800   5.898   5.009
 1348SOL    HW2 4944   6.820   5.740   5.046
 1349SOL     OW 4945   5.564   3.400   4.005
 1349SOL    HW1 4946   5.532   3.426   3.914
 1349SOL    HW2 4947   5.527   3.464   4.073
 1350SOL     OW 4948   3.564   3.628   0.466
 1350SOL    HW1 4949   3.561   3.545   0.410
 1350SOL    HW2 4950   3.528   3.705   0.414
 1351SOL     OW 4951   6.134   2.139   4.016
 1351SOL    HW1 4952   6.210   2.139   3.952
 1351SOL    HW2 4953   6.098   2.232   4.026
 1352SOL     OW 4954   6.604   0.048   2.317
 1352SOL    HW1 4955   6.690   7.017   2.326
 1352SOL    HW2 4956   6.529   7.009   2.349
 1353SOL     OW 4957   0.225   1.742   1.062
 1353SOL    HW1 4958   0.187   1.816   1.006
 1353SOL    HW2 4959   0.166   1.662   1.056
 1354SOL     OW 4960   6.285   4.151   2.551
 1354SOL    HW1 4961   6.253   4.240   2.517
 1354SOL    HW2 4962   6.363   4.165   2.611
 1355SOL     OW 4963   5.789   3.509   4.451
 1355SOL    HW1 4964   5.733   3.431   4.478
 1355SOL    HW2 4965   5.729   3.588   4.435
 1356SOL     OW 4966   3.757   2.875   2.243
 1356SOL    HW1 4967   3.795   2.785   2.263
 1356SOL    HW2 4968   3.787   2.905   2.152
 1357SOL     OW 4969   6.518   3.666   5.587
 1357SOL    HW1 4970   6.583   3.617   5.528
 1357SOL    HW2 4971   6.472   3.737   5.534
 1358SOL     OW 4972   0.989   6.603   6.870
 1358SOL    HW1 4973   1.076   6.575   6.909
 1358SOL    HW2 4974   0.987   6.578   6.773
 1359SOL     OW 4975   6.508   4.076   1.586
 1359SOL    HW1 4976   6.498   4.136   1.665
 1359SOL    HW2 4977   6.513   4.131   1.503
 1360SOL     OW 4978   3.326   3.007   6.450
 1360SOL    HW1 4979   3.227   3.017   6.437
 1360SOL    HW2 4980   3.371   3.093   6.426
 1361SOL     OW 4981   0.456   4.122   4.873
 1361SOL    HW1 4982   0.408   4.035   4.878
 1361SOL    HW2 4983   0.393   4.193   4.841
 1362SOL     OW 4984   3.649   2.869   2.709
 1362SOL    HW1 4985   3.711   2.804   2.753
 1362SOL    HW2 4986   3.567   2.879   2.766
 1363SOL     OW 4987   6.831   5.612   5.210
 1363SOL    HW1 4988   6.769   5.550   5.162
 1363SOL    HW2 4989   6.925   5.595   5.181
 1364SOL     OW 4990   4.425   4.276   0.309
 1364SOL    HW1 4991   4.468   4.346   0.253
 1364SOL    HW2 4992   4.358   4.225   0.255
 1365SOL     OW 4993   0.665   3.691   6.537
 1365SOL    HW1 4994   0.653   3.593   6.517
 1365SOL    HW2 4995   0.720   3.701   6.620
 1366SOL     OW 4996   1.717   0.402   4.924
 1366SOL    HW1 4997   1.711   0.355   4.836
 1366SOL    HW2 4998   1.631   0.449   4.942
 1367SOL     OW 4999   1.825   1.173   2.512
 1367SOL    HW1 5000   1.819   1.268   2.482
 1367SOL    HW2 5001   1.842   1.170   2.610
 1368SOL     OW 5002   5.904   0.196   4.051
 1368SOL    HW1 5003   5.959   0.117   4.024
 1368SOL    HW2 5004   5.902   0.203   4.151
 1369SOL     OW 5005   0.476   0.692   3.255
 1369SOL    HW1 5006   0.405   0.744   3.302
 1369SOL    HW2 5007   0.506   0.617   3.314
 1370SOL     OW 5008   3.136   0.396   1.808
 1370SOL    HW1 5009   3.102   0.468   1.748
 1370SOL    HW2 5010   3.191   0.437   1.881
 1371SOL     OW 5011   3.316   0.236   5.709
 1371SOL    HW1 5012   3.254   0.158   5.713
 1371SOL    HW2 5013   3.347   0.259   5.801
 1372SOL     OW 5014   2.492   1.979   2.188
 1372SOL    HW1 5015   2.394   1.984   2.207
 1372SOL    HW2 5016   2.508   1.990   2.090
 1373SOL     OW 5017   0.653   5.232   1.219
 1373SOL    HW1 5018   0.610   5.260   1.305
 1373SOL    HW2 5019   0.587   5.240   1.145
 1374SOL     OW 5020   4.484   2.202   0.955
 1374SOL    HW1 5021   4.465   2.124   0.896
 1374SOL    HW2 5022   4.401   2.257   0.966
 1375SOL     OW 5023   0.417   4.448   6.111
 1375SOL    HW1 5024   0.424   4.531   6.166
 1375SOL    HW2 5025   0.437   4.368   6.168
 1376SOL     OW 5026   4.794   3.045   3.235
 1376SOL    HW1 5027   4.750   3.082   3.317
 1376SOL    HW2 5028   4.814   2.948   3.249
 1377SOL     OW 5029   6.702   5.100   5.324
 1377SOL    HW1 5030   6.671   5.190   5.293
 1377SOL    HW2 5031   6.719   5.103   5.423
 1378SOL     OW 5032   1.294   2.379   0.142
 1378SOL    HW1 5033   1.345   2.393   0.227
 1378SOL    HW2 5034   1.316   2.289   0.104
 1379SOL     OW 5035   3.905   6.963   2.555
 1379SOL    HW1 5036   3.811   6.959   2.521
 1379SOL    HW2 5037   3.904   6.960   2.655
 1380SOL     OW 5038   6.629   0.321   2.419
 1380SOL    HW1 5039   6.686   0.330   2.338
 1380SOL    HW2 5040   6.623   0.224   2.445
 1381SOL     OW 5041   6.464   2.232   0.427
 1381SOL    HW1 5042   6.500   2.291   0.499
 1381SOL    HW2 5043   6.527   2.156   0.412
 1382SOL     OW 5044   5.337   4.902   6.352
 1382SOL    HW1 5045   5.288   4.978   6.395
 1382SOL    HW2 5046   5.326   4.820   6.408
 1383SOL     OW 5047   2.265   0.245   0.583
 1383SOL    HW1 5048   2.187   0.280   0.530
 1383SOL    HW2 5049   2.286   0.152   0.554
 1384SOL     OW 5050   3.175   2.119   2.608
 1384SOL    HW1 5051   3.104   2.167   2.556
 1384SOL    HW2 5052   3.249   2.092   2.547
 1385SOL     OW 5053   6.818   3.273   3.208
 1385SOL    HW1 5054   6.889   3.206   3.186
 1385SOL    HW2 5055   6.759   3.237   3.280
 1386SOL     OW 5056   2.038   2.757   4.255
 1386SOL    HW1 5057   2.012   2.841   4.302
 1386SOL    HW2 5058   1.956   2.712   4.219
 1387SOL     OW 5059   2.523   0.109   5.168
 1387SOL    HW1 5060   2.449   0.153   5.118
 1387SOL    HW2 5061   2.594   0.177   5.189
 1388SOL     OW 5062   6.329   0.927   3.986
 1388SOL    HW1 5063   6.389   0.848   3.970
 1388SOL    HW2 5064   6.240   0.894   4.016
 1389SOL     OW 5065   5.884   0.078   4.439
 1389SOL    HW1 5066   5.847   0.046   4.526
 1389SOL    HW2 5067   5.856   0.016   4.366
 1390SOL     OW 5068   4.787   2.354   2.226
 1390SOL    HW1 5069   4.797   2.449   2.196
 1390SOL    HW2 5070   4.875   2.307   2.218
 1391SOL     OW 5071   5.129   0.844   4.554
 1391SOL    HW1 5072   5.120   0.831   4.653
 1391SOL    HW2 5073   5.129   0.754   4.510
 1392SOL     OW 5074   5.266   5.786   6.708
 1392SOL    HW1 5075   5.293   5.796   6.803
 1392SOL    HW2 5076   5.346   5.799   6.649
 1393SOL     OW 5077   6.595   1.018   6.498
 1393SOL    HW1 5078   6.514   0.960   6.501
 1393SOL    HW2 5079   6.677   0.963   6.515
 1394SOL     OW 5080   4.572   6.809   4.014
 1394SOL    HW1 5081   4.608   6.719   3.988
 1394SOL    HW2 5082   4.516   6.800   4.096
 1395SOL     OW 5083   1.415   5.059   2.088
 1395SOL    HW1 5084   1.513   5.078   2.085
 1395SOL    HW2 5085   1.395   4.979   2.031
 1396SOL     OW 5086   1.857   1.235   3.883
 1396SOL    HW1 5087   1.889   1.241   3.977
 1396SOL    HW2 5088   1.934   1.247   3.820
 1397SOL     OW 5089   0.393   5.478   4.151
 1397SOL    HW1 5090   0.448   5.409   4.197
 1397SOL    HW2 5091   0.453   5.546   4.108
 1398SOL     OW 5092   0.842   0.728   1.076
 1398SOL    HW1 5093   0.917   0.703   1.013
 1398SOL    HW2 5094   0.852   0.824   1.102
 1399SOL     OW 5095   3.929   0.043   0.006
 1399SOL    HW1 5096   3.924   6.965   0.030
 1399SOL    HW2 5097   4.024   0.069   7.008
 1400SOL     OW 5098   6.044   0.218   4.918
 1400SOL    HW1 5099   6.097   0.302   4.908
 1400SOL    HW2 5100   6.084   0.162   4.990
 1401SOL     OW 5101   5.432   0.422   3.389
 1401SOL    HW1 5102   5.513   0.475   3.362
 1401SOL    HW2 5103   5.430   0.336   3.339
 1402SOL     OW 5104   6.485   4.632   1.989
 1402SOL    HW1 5105   6.386   4.630   1.977
 1402SOL    HW2 5106   6.520   4.539   1.990
 1403SOL     OW 5107   2.985   2.939   6.686
 1403SOL    HW1 5108   3.001   2.914   6.591
 1403SOL    HW2 5109   2.888   2.926   6.708
 1404SOL     OW 5110   4.470   6.727   0.342
 1404SOL    HW1 5111   4.401   6.742   0.413
 1404SOL    HW2 5112   4.474   6.630   0.319
 1405SOL     OW 5113   1.557   3.090   0.633
 1405SOL    HW1 5114   1.495   3.124   0.704
 1405SOL    HW2 5115   1.544   3.143   0.549
 1406SOL     OW 5116   2.422   3.015   1.400
 1406SOL    HW1 5117   2.516   3.043   1.382
 1406SOL    HW2 5118   2.381   3.076   1.467
 1407SOL     OW 5119   0.471   3.083   0.862
 1407SOL    HW1 5120   0.392   3.102   0.920
 1407SOL    HW2 5121   0.538   3.156   0.874
 1408SOL     OW 5122   5.991   6.013   0.469
 1408SOL    HW1 5123   6.010   5.916   0.455
 1408SOL    HW2 5124   5.910   6.024   0.526
 1409SOL     OW 5125   6.986   1.948   5.878
 1409SOL    HW1 5126   6.973   2.047   5.877
 1409SOL    HW2 5127   0.032   1.922   5.806
 1410SOL     OW 5128   3.661   1.919   6.012
 1410SOL    HW1 5129   3.737   1.952   6.068
 1410SOL    HW2 5130   3.679   1.936   5.916
 1411SOL     OW 5131   4.076   5.114   7.004
 1411SOL    HW1 5132   4.066   5.045   6.933
 1411SOL    HW2 5133   4.033   5.200   6.974
 1412SOL     OW 5134   1.784   2.429   0.316
 1412SOL    HW1 5135   1.795   2.510   0.373
 1412SOL    HW2 5136   1.769   2.456   0.221
 1413SOL     OW 5137   1.858   1.826   5.502
 1413SOL    HW1 5138   1.791   1.751   5.496
 1413SOL    HW2 5139   1.828   1.893   5.569
 1414SOL     OW 5140   1.231   4.420   2.215
 1414SOL    HW1 5141   1.250   4.498   2.275
 1414SOL    HW2 5142   1.175   4.353   2.263
 1415SOL     OW 5143   1.895   1.956   4.619
 1415SOL    HW1 5144   1.844   1.986   4.538
 1415SOL    HW2 5145   1.951   1.877   4.596
 1416SOL     OW 5146   3.839   0.171   5.361
 1416SOL    HW1 5147   3.774   0.096   5.351
 1416SOL    HW2 5148   3.911   0.163   5.291
 1417SOL     OW 5149   3.764   3.313   6.101
 1417SOL    HW1 5150   3.698   3.237   6.106
 1417SOL    HW2 5151   3.719   3.393   6.063
 1418SOL     OW 5152   3.056   4.042   6.657
 1418SOL    HW1 5153   3.066   4.141   6.658
 1418SOL    HW2 5154   3.147   4.000   6.649
 1419SOL     OW 5155   1.802   4.641   2.450
 1419SOL    HW1 5156   1.893   4.619   2.414
 1419SOL    HW2 5157   1.734   4.583   2.405
 1420SOL     OW 5158   2.908   6.429   3.242
 1420SOL    HW1 5159   2.967   6.401   3.167
 1420SOL    HW2 5160   2.813   6.410   3.219
 1421SOL     OW 5161   1.297   4.862   5.895
 1421SOL    HW1 5162   1.302   4.764   5.916
 1421SOL    HW2 5163   1.324   4.877   5.800
 1422SOL     OW 5164   2.128   4.295   5.860
 1422SOL    HW1 5165   2.095   4.389   5.852
 1422SOL    HW2 5166   2.222   4.289   5.828
 1423SOL     OW 5167   4.085   0.765   5.311
 1423SOL    HW1 5168   4.013   0.705   5.347
 1423SOL    HW2 5169   4.158   0.772   5.378
 1424SOL     OW 5170   6.165   3.235   6.498
 1424SOL    HW1 5171   6.127   3.143   6.509
 1424SOL    HW2 5172   6.127   3.295   6.568
 1425SOL     OW 5173   4.996   6.396   3.504
 1425SOL    HW1 5174   5.035   6.474   3.553
 1425SOL    HW2 5175   4.929   6.350   3.563
 1426SOL     OW 5176   3.187   2.277   6.905
 1426SOL    HW1 5177   3.104   2.317   6.865
 1426SOL    HW2 5178   3.162   2.196   6.957
 1427SOL     OW 5179   1.601   1.329   3.778
 1427SOL    HW1 5180   1.533   1.293   3.843
 1427SOL    HW2 5181   1.692   1.323   3.818
 1428SOL     OW 5182   0.692   3.973   3.932
 1428SOL    HW1 5183   0.755   3.903   3.898
 1428SOL    HW2 5184   0.603   3.931   3.950
 1429SOL     OW 5185   5.977   0.918   0.714
 1429SOL    HW1 5186   5.993   0.953   0.807
 1429SOL    HW2 5187   6.008   0.985   0.647
 1430SOL     OW 5188   1.656   4.268   3.468
 1430SOL    HW1 5189   1.643   4.342   3.534
 1430SOL    HW2 5190   1.727   4.206   3.501
 1431SOL     OW 5191   2.412   0.983   5.904
 1431SOL    HW1 5192   2.461   1.064   5.935
 1431SOL    HW2 5193   2.378   0.998   5.811
 1432SOL     OW 5194   2.504   1.468   2.367
 1432SOL    HW1 5195   2.441   1.392   2.352
 1432SOL    HW2 5196   2.486   1.509   2.456
 1433SOL     OW 5197   2.735   0.084   3.937
 1433SOL    HW1 5198   2.715   0.179   3.958
 1433SOL    HW2 5199   2.782   0.079   3.848
 1434SOL     OW 5200   0.193   3.180   0.634
 1434SOL    HW1 5201   0.127   3.118   0.591
 1434SOL    HW2 5202   0.285   3.159   0.601
 1435SOL     OW 5203   1.206   6.850   4.181
 1435SOL    HW1 5204   1.270   6.774   4.185
 1435SOL    HW2 5205   1.157   6.857   4.268
 1436SOL     OW 5206   5.468   1.972   0.032
 1436SOL    HW1 5207   5.424   2.029   6.981
 1436SOL    HW2 5208   5.470   2.022   0.118
 1437SOL     OW 5209   4.010   0.348   6.252
 1437SOL    HW1 5210   3.933   0.329   6.190
 1437SOL    HW2 5211   4.090   0.376   6.198
 1438SOL     OW 5212   2.533   0.156   2.212
 1438SOL    HW1 5213   2.621   0.196   2.240
 1438SOL    HW2 5214   2.543   0.114   2.122
 1439SOL     OW 5215   0.593   5.122   0.033
 1439SOL    HW1 5216   0.612   5.150   0.127
 1439SOL    HW2 5217   0.621   5.027   0.021
 1440SOL     OW 5218   3.298   3.065   3.534
 1440SOL    HW1 5219   3.226   3.081   3.467
 1440SOL    HW2 5220   3.365   3.002   3.496
 1441SOL     OW 5221   6.023   2.881   3.640
 1441SOL    HW1 5222   6.085   2.951   3.676
 1441SOL    HW2 5223   5.929   2.915   3.643
 1442SOL     OW 5224   5.007   4.509   0.237
 1442SOL    HW1 5225   4.984   4.605   0.252
 1442SOL    HW2 5226   5.106   4.500   0.228
 1443SOL     OW 5227   0.460   2.596   2.772
 1443SOL    HW1 5228   0.402   2.553   2.703
 1443SOL    HW2 5229   0.408   2.667   2.819
 1444SOL     OW 5230   4.615   1.195   3.680
 1444SOL    HW1 5231   4.609   1.289   3.711
 1444SOL    HW2 5232   4.547   1.179   3.608
 1445SOL     OW 5233   6.197   1.878   1.474
 1445SOL    HW1 5234   6.112   1.864   1.423
 1445SOL    HW2 5235   6.274   1.844   1.420
 1446SOL     OW 5236   4.614   0.775   1.439
 1446SOL    HW1 5237   4.518   0.787   1.413
 1446SOL    HW2 5238   4.662   0.726   1.367
 1447SOL     OW 5239   6.708   0.688   5.174
 1447SOL    HW1 5240   6.704   0.784   5.201
 1447SOL    HW2 5241   6.623   0.663   5.127
 1448SOL     OW 5242   5.342   0.706   6.557
 1448SOL    HW1 5243   5.352   0.731   6.654
 1448SOL    HW2 5244   5.423   0.656   6.527
 1449SOL     OW 5245   4.844   5.847   1.159
 1449SOL    HW1 5246   4.851   5.920   1.227
 1449SOL    HW2 5247   4.919   5.856   1.094
 1450SOL     OW 5248   5.541   3.042   3.253
 1450SOL    HW1 5249   5.625   3.055   3.200
 1450SOL    HW2 5250   5.467   3.014   3.192
 1451SOL     OW 5251   1.447   6.120   3.119
 1451SOL    HW1 5252   1.407   6.051   3.058
 1451SOL    HW2 5253   1.468   6.078   3.207
 1452SOL     OW 5254   4.418   1.163   5.228
 1452SOL    HW1 5255   4.341   1.099   5.219
 1452SOL    HW2 5256   4.384   1.256   5.234
 1453SOL     OW 5257   5.346   4.974   5.577
 1453SOL    HW1 5258   5.421   4.997   5.639
 1453SOL    HW2 5259   5.260   4.971   5.628
 1454SOL     OW 5260   4.236   3.946   1.032
 1454SOL    HW1 5261   4.192   3.963   0.944
 1454SOL    HW2 5262   4.316   3.887   1.018
 1455SOL     OW 5263   1.814   2.412   1.446
 1455SOL    HW1 5264   1.784   2.506   1.431
 1455SOL    HW2 5265   1.734   2.354   1.463
 1456SOL     OW 5266   6.096   6.206   3.484
 1456SOL    HW1 5267   6.058   6.296   3.466
 1456SOL    HW2 5268   6.079   6.181   3.580
 1457SOL     OW 5269   1.117   0.563   3.112
 1457SOL    HW1 5270   1.146   0.529   3.201
 1457SOL    HW2 5271   1.158   0.653   3.096
 1458SOL     OW 5272   5.571   5.371   6.694
 1458SOL    HW1 5273   5.548   5.289   6.746
 1458SOL    HW2 5274   5.639   5.347   6.624
 1459SOL     OW 5275   2.140   6.915   6.884
 1459SOL    HW1 5276   2.127   6.900   6.982
 1459SOL    HW2 5277   2.141   7.013   6.864
 1460SOL     OW 5278   1.422   0.202   0.032
 1460SOL    HW1 5279   1.355   0.192   6.978
 1460SOL    HW2 5280   1.375   0.214   0.119
 1461SOL     OW 5281   5.425   4.528   1.449
 1461SOL    HW1 5282   5.413   4.579   1.534
 1461SOL    HW2 5283   5.434   4.592   1.373
 1462SOL     OW 5284   5.972   0.921   6.221
 1462SOL    HW1 5285   5.895   0.882   6.272
 1462SOL    HW2 5286   6.004   0.855   6.153
 1463SOL     OW 5287   0.640   1.516   4.811
 1463SOL    HW1 5288   0.708   1.445   4.826
 1463SOL    HW2 5289   0.685   1.603   4.792
 1464SOL     OW 5290   0.367   6.130   0.789
 1464SOL    HW1 5291   0.450   6.086   0.824
 1464SOL    HW2 5292   0.368   6.227   0.813
 1465SOL     OW 5293   6.923   6.705   4.573
 1465SOL    HW1 5294   7.015   6.709   4.612
 1465SOL    HW2 5295   6.884   6.614   4.589
 1466SOL     OW 5296   5.519   5.173   3.574
 1466SOL    HW1 5297   5.504   5.144   3.669
 1466SOL    HW2 5298   5.617   5.167   3.554
 1467SOL     OW 5299   0.657   2.567   3.284
 1467SOL    HW1 5300   0.580   2.538   3.226
 1467SOL    HW2 5301   0.724   2.493   3.288
 1468SOL     OW 5302   5.599   5.806   3.626
 1468SOL    HW1 5303   5.596   5.748   3.544
 1468SOL    HW2 5304   5.677   5.868   3.619
 1469SOL     OW 5305   0.574   1.577   3.083
 1469SOL    HW1 5306   0.595   1.497   3.027
 1469SOL    HW2 5307   0.655   1.603   3.135
 1470SOL     OW 5308   0.314   1.680   3.056
 1470SOL    HW1 5309   0.253   1.611   3.016
 1470SOL    HW2 5310   0.408   1.647   3.053
 1471SOL     OW 5311   0.369   6.942   6.889
 1471SOL    HW1 5312   0.436   6.986   6.949
 1471SOL    HW2 5313   0.339   6.856   6.929
 1472SOL     OW 5314   3.974   0.881   5.809
 1472SOL    HW1 5315   4.067   0.913   5.791
 1472SOL    HW2 5316   3.956   0.880   5.907
 1473SOL     OW 5317   6.505   4.070   3.629
 1473SOL    HW1 5318   6.475   3.978   3.652
 1473SOL    HW2 5319   6.427   4.122   3.591
 1474SOL     OW 5320   4.476   5.445   3.828
 1474SOL    HW1 5321   4.464   5.539   3.859
 1474SOL    HW2 5322   4.573   5.419   3.835
 1475SOL     OW 5323   0.674   0.976   2.258
 1475SOL    HW1 5324   0.623   1.033   2.323
 1475SOL    HW2 5325   0.618   0.961   2.176
 1476SOL     OW 5326   6.589   2.043   2.228
 1476SOL    HW1 5327   6.625   1.967   2.174
 1476SOL    HW2 5328   6.629   2.040   2.320
 1477SOL     OW 5329   2.495   5.677   3.969
 1477SOL    HW1 5330   2.432   5.754   3.968
 1477SOL    HW2 5331   2.582   5.703   3.928
 1478SOL     OW 5332   6.429   4.262   1.259
 1478SOL    HW1 5333   6.364   4.199   1.300
 1478SOL    HW2 5334   6.486   4.302   1.331
 1479SOL     OW 5335   1.739   4.788   0.924
 1479SOL    HW1 5336   1.649   4.827   0.943
 1479SOL    HW2 5337   1.799   4.801   1.003
 1480SOL     OW 5338   2.829   1.142   0.107
 1480SOL    HW1 5339   2.746   1.115   0.156
 1480SOL    HW2 5340   2.843   1.241   0.117
 1481SOL     OW 5341   6.011   2.610   6.297
 1481SOL    HW1 5342   5.966   2.570   6.377
 1481SOL    HW2 5343   6.100   2.646   6.324
 1482SOL     OW 5344   6.519   0.561   6.408
 1482SOL    HW1 5345   6.586   0.489   6.429
 1482SOL    HW2 5346   6.446   0.559   6.476
 1483SOL     OW 5347   5.950   1.848   0.119
 1483SOL    HW1 5348   5.897   1.848   0.034
 1483SOL    HW2 5349   6.020   1.920   0.114
 1484SOL     OW 5350   6.397   5.201   2.409
 1484SOL    HW1 5351   6.481   5.255   2.412
 1484SOL    HW2 5352   6.340   5.223   2.488
 1485SOL     OW 5353   5.122   2.677   4.153
 1485SOL    HW1 5354   5.068   2.600   4.120
 1485SOL    HW2 5355   5.198   2.693   4.090
 1486SOL     OW 5356   4.852   1.765   2.343
 1486SOL    HW1 5357   4.776   1.827   2.362
 1486SOL    HW2 5358   4.887   1.782   2.251
 1487SOL     OW 5359   6.449   1.233   5.510
 1487SOL    HW1 5360   6.507   1.153   5.521
 1487SOL    HW2 5361   6.461   1.272   5.419
 1488SOL     OW 5362   4.372   1.884   3.078
 1488SOL    HW1 5363   4.351   1.873   2.981
 1488SOL    HW2 5364   4.289   1.871   3.132
 1489SOL     OW 5365   3.980   5.821   5.139
 1489SOL    HW1 5366   4.039   5.783   5.210
 1489SOL    HW2 5367   3.970   5.920   5.153
 1490SOL     OW 5368   1.910   2.760   0.062
 1490SOL    HW1 5369   1.910   2.729   0.157
 1490SOL    HW2 5370   1.816   2.760   0.027
 1491SOL     OW 5371   0.298   3.159   4.312
 1491SOL    HW1 5372   0.291   3.060   4.303
 1491SOL    HW2 5373   0.354   3.182   4.392
 1492SOL     OW 5374   5.021   2.086   1.963
 1492SOL    HW1 5375   5.106   2.103   1.914
 1492SOL    HW2 5376   5.038   2.093   2.062
 1493SOL     OW 5377   4.970   1.015   5.062
 1493SOL    HW1 5378   4.999   0.934   5.113
 1493SOL    HW2 5379   4.960   1.092   5.126
 1494SOL     OW 5380   4.761   2.843   5.990
 1494SOL    HW1 5381   4.853   2.880   6.002
 1494SOL    HW2 5382   4.738   2.785   6.068
 1495SOL     OW 5383   1.728   3.093   2.339
 1495SOL    HW1 5384   1.653   3.160   2.336
 1495SOL    HW2 5385   1.801   3.129   2.397
 1496SOL     OW 5386   0.561   0.243   2.381
 1496SOL    HW1 5387   0.568   0.242   2.281
 1496SOL    HW2 5388   0.601   0.159   2.418
 1497SOL     OW 5389   6.287   5.457   4.749
 1497SOL    HW1 5390   6.262   5.425   4.840
 1497SOL    HW2 5391   6.209   5.507   4.709
 1498SOL     OW 5392   2.553   6.177   0.252
 1498SOL    HW1 5393   2.517   6.164   0.160
 1498SOL    HW2 5394   2.543   6.092   0.304
 1499SOL     OW 5395   0.856   4.111   5.728
 1499SOL    HW1 5396   0.942   4.061   5.715
 1499SOL    HW2 5397   0.781   4.058   5.688
 1500SOL     OW 5398   5.007   0.372   6.172
 1500SOL    HW1 5399   5.072   0.439   6.207
 1500SOL    HW2 5400   5.010   0.289   6.229
 1501SOL     OW 5401   3.971   6.709   6.085
 1501SOL    HW1 5402   3.996   6.788   6.031
 1501SOL    HW2 5403   4.007   6.719   6.178
 1502SOL     OW 5404   6.316   6.211   0.326
 1502SOL    HW1 5405   6.407   6.237   0.294
 1502SOL    HW2 5406   6.275   6.145   0.263
 1503SOL     OW 5407   3.858   3.010   6.029
 1503SOL    HW1 5408   3.762   3.037   6.031
 1503SOL    HW2 5409   3.870   2.935   5.964
 1504SOL     OW 5410   3.127   5.935   5.060
 1504SOL    HW1 5411   3.073   5.852   5.044
 1504SOL    HW2 5412   3.205   5.913   5.119
 1505SOL     OW 5413   5.195   5.601   0.270
 1505SOL    HW1 5414   5.105   5.593   0.227
 1505SOL    HW2 5415   5.201   5.690   0.317
 1506SOL     OW 5416   0.904   6.250   4.394
 1506SOL    HW1 5417   0.848   6.326   4.361
 1506SOL    HW2 5418   0.942   6.200   4.316
 1507SOL     OW 5419   1.823   1.861   6.104
 1507SOL    HW1 5420   1.909   1.911   6.116
 1507SOL    HW2 5421   1.762   1.913   6.045
 1508SOL     OW 5422   5.138   0.034   0.244
 1508SOL    HW1 5423   5.106   0.128   0.253
 1508SOL    HW2 5424   5.235   0.030   0.269
 1509SOL     OW 5425   4.933   1.920   0.421
 1509SOL    HW1 5426   4.985   1.962   0.496
 1509SOL    HW2 5427   4.837   1.949   0.428
 1510SOL     OW 5428   6.624   1.938   3.995
 1510SOL    HW1 5429   6.569   1.873   4.046
 1510SOL    HW2 5430   6.697   1.890   3.946
 1511SOL     OW 5431   1.677   2.604   0.660
 1511SOL    HW1 5432   1.673   2.689   0.608
 1511SOL    HW2 5433   1.771   2.586   0.687
 1512SOL     OW 5434   6.961   0.715   1.857
 1512SOL    HW1 5435   6.994   0.763   1.938
 1512SOL    HW2 5436   6.936   0.782   1.787
 1513SOL     OW 5437   3.427   0.760   2.700
 1513SOL    HW1 5438   3.424   0.662   2.685
 1513SOL    HW2 5439   3.522   0.789   2.712
 1514SOL     OW 5440   5.101   1.514   5.001
 1514SOL    HW1 5441   5.113   1.450   4.924
 1514SOL    HW2 5442   5.182   1.509   5.060
 1515SOL     OW 5443   0.130   4.548   4.138
 1515SOL    HW1 5444   0.112   4.519   4.232
 1515SOL    HW2 5445   0.081   4.489   4.075
 1516SOL     OW 5446   0.778   1.177   0.582
 1516SOL    HW1 5447   0.876   1.197   0.591
 1516SOL    HW2 5448   0.764   1.108   0.511
 1517SOL     OW 5449   4.315   5.972   3.502
 1517SOL    HW1 5450   4.320   5.902   3.573
 1517SOL    HW2 5451   4.269   5.935   3.422
 1518SOL     OW 5452   0.714   4.521   0.965
 1518SOL    HW1 5453   0.732   4.619   0.964
 1518SOL    HW2 5454   0.791   4.473   1.006
 1519SOL     OW 5455   6.334   4.579   0.521
 1519SOL    HW1 5456   6.288   4.496   0.488
 1519SOL    HW2 5457   6.272   4.630   0.580
 1520SOL     OW 5458   1.421   3.767   3.097
 1520SOL    HW1 5459   1.501   3.710   3.078
 1520SOL    HW2 5460   1.431   3.854   3.049
 1521SOL     OW 5461   2.778   3.767   6.856
 1521SOL    HW1 5462   2.681   3.744   6.857
 1521SOL    HW2 5463   2.813   3.769   6.950
 1522SOL     OW 5464   6.380   2.379   0.115
 1522SOL    HW1 5465   6.405   2.473   0.092
 1522SOL    HW2 5466   6.420   2.354   0.203
 1523SOL     OW 5467   0.512   2.084   1.299
 1523SOL    HW1 5468   0.474   2.157   1.356
 1523SOL    HW2 5469   0.508   1.997   1.349
 1524SOL     OW 5470   0.083   0.558   2.337
 1524SOL    HW1 5471   0.140   0.561   2.419
 1524SOL    HW2 5472   7.010   0.531   2.361
 1525SOL     OW 5473   4.399   2.057   6.293
 1525SOL    HW1 5474   4.336   2.108   6.352
 1525SOL    HW2 5475   4.364   2.058   6.199
 1526SOL     OW 5476   6.908   2.163   1.891
 1526SOL    HW1 5477   6.926   2.252   1.848
 1526SOL    HW2 5478   6.816   2.163   1.930
 1527SOL     OW 5479   3.307   1.845   5.925
 1527SOL    HW1 5480   3.373   1.869   5.854
 1527SOL    HW2 5481   3.354   1.835   6.013
 1528SOL     OW 5482   4.819   6.287   3.293
 1528SOL    HW1 5483   4.734   6.298   3.346
 1528SOL    HW2 5484   4.892   6.341   3.336
 1529SOL     OW 5485   3.101   0.467   6.184
 1529SOL    HW1 5486   3.056   0.396   6.130
 1529SOL    HW2 5487   3.185   0.431   6.223
 1530SOL     OW 5488   3.682   6.460   1.912
 1530SOL    HW1 5489   3.702   6.522   1.987
 1530SOL    HW2 5490   3.687   6.366   1.944
 1531SOL     OW 5491   6.770   6.898   4.714
 1531SOL    HW1 5492   6.821   6.829   4.663
 1531SOL    HW2 5493   6.674   6.897   4.684
 1532SOL     OW 5494   3.168   2.007   5.340
 1532SOL    HW1 5495   3.144   2.040   5.431
 1532SOL    HW2 5496   3.084   1.986   5.289
 1533SOL     OW 5497   5.986   2.679   6.915
 1533SOL    HW1 5498   6.058   2.609   6.914
 1533SOL    HW2 5499   5.937   2.676   6.828
 1534SOL     OW 5500   7.005   5.980   1.244
 1534SOL    HW1 5501   6.982   6.045   1.316
 1534SOL    HW2 5502   6.980   5.888   1.274
 1535SOL     OW 5503   3.981   5.553   3.982
 1535SOL    HW1 5504   4.003   5.498   4.063
 1535SOL    HW2 5505   4.058   5.553   3.920
 1536SOL     OW 5506   2.825   6.347   5.194
 1536SOL    HW1 5507   2.918   6.310   5.188
 1536SOL    HW2 5508   2.823   6.423   5.259
 1537SOL     OW 5509   1.683   5.597   4.450
 1537SOL    HW1 5510   1.683   5.497   4.451
 1537SOL    HW2 5511   1.649   5.629   4.361
 1538SOL     OW 5512   2.008   5.753   6.585
 1538SOL    HW1 5513   2.064   5.834   6.565
 1538SOL    HW2 5514   1.932   5.779   6.645
 1539SOL     OW 5515   3.581   4.867   1.606
 1539SOL    HW1 5516   3.485   4.892   1.620
 1539SOL    HW2 5517   3.594   4.772   1.633
 1540SOL     OW 5518   0.411   6.616   4.928
 1540SOL    HW1 5519   0.395   6.544   4.860
 1540SOL    HW2 5520   0.506   6.612   4.959
 1541SOL     OW 5521   5.161   2.396   0.942
 1541SOL    HW1 5522   5.169   2.424   0.846
 1541SOL    HW2 5523   5.168   2.297   0.948
 1542SOL     OW 5524   1.034   6.550   1.127
 1542SOL    HW1 5525   0.999   6.586   1.213
 1542SOL    HW2 5526   0.971   6.575   1.052
 1543SOL     OW 5527   3.127   3.977   4.022
 1543SOL    HW1 5528   3.067   3.956   4.100
 1543SOL    HW2 5529   3.201   4.037   4.052
 1544SOL     OW 5530   3.457   4.028   2.796
 1544SOL    HW1 5531   3.381   4.090   2.773
 1544SOL    HW2 5532   3.536   4.051   2.740
 1545SOL     OW 5533   5.767   0.186   4.983
 1545SOL    HW1 5534   5.856   0.219   4.951
 1545SOL    HW2 5535   5.781   0.126   5.062
 1546SOL     OW 5536   0.624   6.453   6.027
 1546SOL    HW1 5537   0.685   6.416   6.098
 1546SOL    HW2 5538   0.632   6.397   5.945
 1547SOL     OW 5539   3.558   6.111   0.715
 1547SOL    HW1 5540   3.466   6.145   0.697
 1547SOL    HW2 5541   3.565   6.083   0.810
 1548SOL     OW 5542   5.495   4.311   4.486
 1548SOL    HW1 5543   5.509   4.410   4.480
 1548SOL    HW2 5544   5.472   4.275   4.395
 1549SOL     OW 5545   6.770   1.795   1.155
 1549SOL    HW1 5546   6.814   1.712   1.121
 1549SOL    HW2 5547   6.841   1.862   1.179
 1550SOL     OW 5548   2.423   5.982   4.498
 1550SOL    HW1 5549   2.513   5.963   4.537
 1550SOL    HW2 5550   2.403   6.080   4.507
 1551SOL     OW 5551   1.887   2.041   0.822
 1551SOL    HW1 5552   1.891   2.100   0.902
 1551SOL    HW2 5553   1.842   2.089   0.747
 1552SOL     OW 5554   1.089   0.405   0.556
 1552SOL    HW1 5555   1.159   0.365   0.615
 1552SOL    HW2 5556   1.057   0.337   0.490
 1553SOL     OW 5557   6.020   1.305   6.296
 1553SOL    HW1 5558   6.065   1.340   6.214
 1553SOL    HW2 5559   6.084   1.246   6.346
 1554SOL     OW 5560   3.368   1.731   1.817
 1554SOL    HW1 5561   3.424   1.796   1.766
 1554SOL    HW2 5562   3.405   1.639   1.804
 1555SOL     OW 5563   4.142   1.581   5.779
 1555SOL    HW1 5564   4.112   1.610   5.869
 1555SOL    HW2 5565   4.113   1.486   5.763
 1556SOL     OW 5566   3.451   1.443   1.147
 1556SOL    HW1 5567   3.385   1.488   1.087
 1556SOL    HW2 5568   3.445   1.344   1.136
 1557SOL     OW 5569   2.070   1.839   0.829
 1557SOL    HW1 5570   2.021   1.926   0.822
 1557SOL    HW2 5571   2.051   1.784   0.747
 1558SOL     OW 5572   6.673   3.420   6.413
 1558SOL    HW1 5573   6.674   3.331   6.458
 1558SOL    HW2 5574   6.591   3.428   6.357
 1559SOL     OW 5575   1.770   4.782   3.197
 1559SOL    HW1 5576   1.674   4.768   3.220
 1559SOL    HW2 5577   1.822   4.700   3.220
 1560SOL     OW 5578   4.005   1.479   1.522
 1560SOL    HW1 5579   4.071   1.404   1.528
 1560SOL    HW2 5580   3.967   1.498   1.612
 1561SOL     OW 5581   6.456   5.895   1.230
 1561SOL    HW1 5582   6.479   5.981   1.186
 1561SOL    HW2 5583   6.452   5.908   1.329
 1562SOL     OW 5584   3.720   6.601   2.132
 1562SOL    HW1 5585   3.745   6.572   2.224
 1562SOL    HW2 5586   3.742   6.698   2.120
 1563SOL     OW 5587   3.947   2.209   4.418
 1563SOL    HW1 5588   4.006   2.288   4.431
 1563SOL    HW2 5589   3.860   2.224   4.465
 1564SOL     OW 5590   1.391   2.259   2.601
 1564SOL    HW1 5591   1.377   2.323   2.676
 1564SOL    HW2 5592   1.329   2.281   2.526
 1565SOL     OW 5593   3.871   1.150   5.199
 1565SOL    HW1 5594   3.924   1.169   5.282
 1565SOL    HW2 5595   3.933   1.123   5.125
 1566SOL     OW 5596   4.609   4.961   3.129
 1566SOL    HW1 5597   4.588   4.953   3.031
 1566SOL    HW2 5598   4.524   4.953   3.181
 1567SOL     OW 5599   5.062   6.606   4.725
 1567SOL    HW1 5600   4.972   6.622   4.685
 1567SOL    HW2 5601   5.068   6.653   4.813
 1568SOL     OW 5602   2.859   5.492   2.337
 1568SOL    HW1 5603   2.770   5.447   2.340
 1568SOL    HW2 5604   2.865   5.548   2.254
 1569SOL     OW 5605   2.961   0.466   3.110
 1569SOL    HW1 5606   3.058   0.447   3.123
 1569SOL    HW2 5607   2.928   0.525   3.183
 1570SOL     OW 5608   3.460   6.876   6.962
 1570SOL    HW1 5609   3.439   6.800   0.004
 1570SOL    HW2 5610   3.542   6.924   6.995
 1571SOL     OW 5611   0.620   2.334   4.291
 1571SOL    HW1 5612   0.589   2.386   4.370
 1571SOL    HW2 5613   0.585   2.376   4.207
 1572SOL     OW 5614   1.701   5.342   1.775
 1572SOL    HW1 5615   1.682   5.334   1.873
 1572SOL    HW2 5616   1.667   5.261   1.727
 1573SOL     OW 5617   4.882   5.101   0.126
 1573SOL    HW1 5618   4.901   5.003   0.130
 1573SOL    HW2 5619   4.899   5.141   0.216
 1574SOL     OW 5620   6.692   3.535   2.798
 1574SOL    HW1 5621   6.671   3.479   2.718
 1574SOL    HW2 5622   6.664   3.486   2.881
 1575SOL     OW 5623   0.298   0.886   0.553
 1575SOL    HW1 5624   0.221   0.852   0.500
 1575SOL    HW2 5625   0.369   0.921   0.491
 1576SOL     OW 5626   0.138   0.266   2.329
 1576SOL    HW1 5627   0.161   0.336   2.396
 1576SOL    HW2 5628   0.180   0.288   2.241
 1577SOL     OW 5629   4.656   6.266   5.250
 1577SOL    HW1 5630   4.596   6.249   5.171
 1577SOL    HW2 5631   4.735   6.319   5.220
 1578SOL     OW 5632   4.877   0.747   0.182
 1578SOL    HW1 5633   4.872   0.655   0.144
 1578SOL    HW2 5634   4.967   0.786   0.162
 1579SOL     OW 5635   1.581   2.233   1.425
 1579SOL    HW1 5636   1.550   2.270   1.337
 1579SOL    HW2 5637   1.560   2.135   1.429
 1580SOL     OW 5638   3.268   3.540   2.541
 1580SOL    HW1 5639   3.180   3.585   2.529
 1580SOL    HW2 5640   3.342   3.607   2.533
 1581SOL     OW 5641   6.712   4.394   5.529
 1581SOL    HW1 5642   6.612   4.391   5.532
 1581SOL    HW2 5643   6.749   4.310   5.569
 1582SOL     OW 5644   4.511   6.593   5.280
 1582SOL    HW1 5645   4.552   6.683   5.264
 1582SOL    HW2 5646   4.581   6.530   5.315
 1583SOL     OW 5647   1.073   5.894   5.047
 1583SOL    HW1 5648   1.097   5.804   5.011
 1583SOL    HW2 5649   1.072   5.890   5.147
 1584SOL     OW 5650   0.239   4.949   6.948
 1584SOL    HW1 5651   0.301   4.975   6.874
 1584SOL    HW2 5652   0.255   4.853   6.972
 1585SOL     OW 5653   4.027   0.184   3.166
 1585SOL    HW1 5654   4.053   0.171   3.070
 1585SOL    HW2 5655   3.936   0.226   3.170
 1586SOL     OW 5656   2.550   4.499   3.712
 1586SOL    HW1 5657   2.514   4.407   3.725
 1586SOL    HW2 5658   2.640   4.507   3.754
 1587SOL     OW 5659   1.973   6.133   5.531
 1587SOL    HW1 5660   2.041   6.075   5.577
 1587SOL    HW2 5661   1.952   6.094   5.441
 1588SOL     OW 5662   6.144   0.919   2.572
 1588SOL    HW1 5663   6.121   0.851   2.641
 1588SOL    HW2 5664   6.065   0.935   2.513
 1589SOL     OW 5665   6.185   4.821   4.227
 1589SOL    HW1 5666   6.186   4.847   4.324
 1589SOL    HW2 5667   6.245   4.882   4.176
 1590SOL     OW 5668   6.336   2.686   3.909
 1590SOL    HW1 5669   6.320   2.779   3.943
 1590SOL    HW2 5670   6.431   2.678   3.879
 1591SOL     OW 5671   0.657   6.480   1.977
 1591SOL    HW1 5672   0.695   6.388   1.986
 1591SOL    HW2 5673   0.592   6.481   1.901
 1592SOL     OW 5674   0.678   3.920   6.789
 1592SOL    HW1 5675   0.736   3.998   6.765
 1592SOL    HW2 5676   0.591   3.953   6.826
 1593SOL     OW 5677   2.281   0.473   0.007
 1593SOL    HW1 5678   2.216   0.403   6.995
 1593SOL    HW2 5679   2.250   0.563   6.995
 1594SOL     OW 5680   6.279   0.417   1.959
 1594SOL    HW1 5681   6.331   0.350   2.012
 1594SOL    HW2 5682   6.209   0.459   2.017
 1595SOL     OW 5683   1.011   4.384   6.345
 1595SOL    HW1 5684   0.913   4.379   6.327
 1595SOL    HW2 5685   1.032   4.470   6.391
 1596SOL     OW 5686   5.082   4.621   2.316
 1596SOL    HW1 5687   5.113   4.561   2.390
 1596SOL    HW2 5688   5.115   4.714   2.332
 1597SOL     OW 5689   3.823   6.519   6.789
 1597SOL    HW1 5690   3.823   6.619   6.802
 1597SOL    HW2 5691   3.917   6.485   6.794
 1598SOL     OW 5692   2.077   5.604   0.126
 1598SOL    HW1 5693   2.076   5.632   0.222
 1598SOL    HW2 5694   2.042   5.511   0.119
 1599SOL     OW 5695   4.293   4.976   4.194
 1599SOL    HW1 5696   4.329   5.017   4.110
 1599SOL    HW2 5697   4.241   5.045   4.245
 1600SOL     OW 5698   4.198   0.629   2.626
 1600SOL    HW1 5699   4.127   0.561   2.611
 1600SOL    HW2 5700   4.173   0.687   2.704
 1601SOL     OW 5701   6.160   6.625   4.239
 1601SOL    HW1 5702   6.166   6.723   4.220
 1601SOL    HW2 5703   6.069   6.592   4.213
 1602SOL     OW 5704   3.909   5.075   3.958
 1602SOL    HW1 5705   3.966   5.104   3.882
 1602SOL    HW2 5706   3.934   5.125   4.041
 1603SOL     OW 5707   2.891   5.529   3.297
 1603SOL    HW1 5708   2.792   5.534   3.311
 1603SOL    HW2 5709   2.910   5.490   3.207
 1604SOL     OW 5710   3.990   5.121   2.176
 1604SOL    HW1 5711   3.989   5.097   2.273
 1604SOL    HW2 5712   3.897   5.125   2.141
 1605SOL     OW 5713   4.774   5.465   1.367
 1605SOL    HW1 5714   4.844   5.516   1.318
 1605SOL    HW2 5715   4.809   5.375   1.392
 1606SOL     OW 5716   4.116   6.323   4.711
 1606SOL    HW1 5717   4.183   6.287   4.647
 1606SOL    HW2 5718   4.139   6.417   4.736
 1607SOL     OW 5719   4.158   5.934   2.729
 1607SOL    HW1 5720   4.228   5.916   2.661
 1607SOL    HW2 5721   4.067   5.927   2.688
 1608SOL     OW 5722   6.381   0.917   3.061
 1608SOL    HW1 5723   6.384   0.913   3.161
 1608SOL    HW2 5724   6.475   0.926   3.026
 1609SOL     OW 5725   3.683   6.430   0.605
 1609SOL    HW1 5726   3.659   6.451   0.700
 1609SOL    HW2 5727   3.781   6.410   0.599
 1610SOL     OW 5728   4.680   0.204   0.219
 1610SOL    HW1 5729   4.708   0.216   0.314
 1610SOL    HW2 5730   4.760   0.207   0.160
 1611SOL     OW 5731   1.350   4.174   1.220
 1611SOL    HW1 5732   1.339   4.154   1.123
 1611SOL    HW2 5733   1.400   4.260   1.231
 1612SOL     OW 5734   3.945   6.885   1.987
 1612SOL    HW1 5735   3.864   6.836   2.020
 1612SOL    HW2 5736   3.917   6.972   1.947
 1613SOL     OW 5737   6.886   5.533   2.459
 1613SOL    HW1 5738   6.950   5.482   2.402
 1613SOL    HW2 5739   6.798   5.541   2.413
 1614SOL     OW 5740   6.452   2.049   6.108
 1614SOL    HW1 5741   6.369   2.014   6.064
 1614SOL    HW2 5742   6.473   1.993   6.189
 1615SOL     OW 5743   1.375   5.173   6.247
 1615SOL    HW1 5744   1.343   5.238   6.316
 1615SOL    HW2 5745   1.390   5.084   6.290
 1616SOL     OW 5746   1.960   1.402   4.877
 1616SOL    HW1 5747   1.964   1.423   4.975
 1616SOL    HW2 5748   1.930   1.484   4.827
 1617SOL     OW 5749   5.446   6.142   3.209
 1617SOL    HW1 5750   5.428   6.205   3.284
 1617SOL    HW2 5751   5.370   6.077   3.201
 1618SOL     OW 5752   3.073   5.297   2.930
 1618SOL    HW1 5753   3.005   5.333   2.994
 1618SOL    HW2 5754   3.028   5.241   2.861
 1619SOL     OW 5755   1.332   5.340   0.032
 1619SOL    HW1 5756   1.234   5.329   0.016
 1619SOL    HW2 5757   1.347   5.409   0.103
 1620SOL     OW 5758   3.769   5.355   6.411
 1620SOL    HW1 5759   3.812   5.443   6.390
 1620SOL    HW2 5760   3.831   5.281   6.386
 1621SOL     OW 5761   5.277   6.152   0.488
 1621SOL    HW1 5762   5.360   6.188   0.531
 1621SOL    HW2 5763   5.302   6.083   0.421
 1622SOL     OW 5764   0.784   4.202   4.478
 1622SOL    HW1 5765   0.745   4.162   4.561
 1622SOL    HW2 5766   0.713   4.207   4.407
 1623SOL     OW 5767   0.745   1.940   4.357
 1623SOL    HW1 5768   0.795   2.026   4.345
 1623SOL    HW2 5769   0.647   1.958   4.354
 1624SOL     OW 5770   4.108   1.158   0.959
 1624SOL    HW1 5771   4.070   1.249   0.976
 1624SOL    HW2 5772   4.171   1.133   1.033
 1625SOL     OW 5773   1.692   5.501   1.218
 1625SOL    HW1 5774   1.715   5.578   1.277
 1625SOL    HW2 5775   1.720   5.416   1.263
 1626SOL     OW 5776   3.239   1.412   1.613
 1626SOL    HW1 5777   3.171   1.478   1.644
 1626SOL    HW2 5778   3.324   1.425   1.663
 1627SOL     OW 5779   4.573   1.597   4.515
 1627SOL    HW1 5780   4.479   1.598   4.480
 1627SOL    HW2 5781   4.571   1.587   4.614
 1628SOL     OW 5782   5.426   6.469   6.888
 1628SOL    HW1 5783   5.509   6.497   6.937
 1628SOL    HW2 5784   5.415   6.525   6.806
 1629SOL     OW 5785   1.882   0.779   3.341
 1629SOL    HW1 5786   1.941   0.705   3.308
 1629SOL    HW2 5787   1.788   0.763   3.311
 1630SOL     OW 5788   0.621   3.543   6.862
 1630SOL    HW1 5789   0.626   3.462   6.920
 1630SOL    HW2 5790   0.712   3.563   6.825
 1631SOL     OW 5791   0.077   3.229   1.025
 1631SOL    HW1 5792   7.017   3.195   1.077
 1631SOL    HW2 5793   0.149   3.159   1.025
 1632SOL     OW 5794   6.733   4.783   2.930
 1632SOL    HW1 5795   6.674   4.850   2.885
 1632SOL    HW2 5796   6.684   4.741   3.006
 1633SOL     OW 5797   5.143   3.006   3.886
 1633SOL    HW1 5798   5.080   2.978   3.814
 1633SOL    HW2 5799   5.109   2.976   3.975
 1634SOL     OW 5800   5.156   0.571   4.481
 1634SOL    HW1 5801   5.158   0.604   4.387
 1634SOL    HW2 5802   5.099   0.489   4.487
 1635SOL     OW 5803   3.247   5.693   4.376
 1635SOL    HW1 5804   3.220   5.624   4.443
 1635SOL    HW2 5805   3.324   5.658   4.323
 1636SOL     OW 5806   5.695   6.840   1.517
 1636SOL    HW1 5807   5.632   6.912   1.544
 1636SOL    HW2 5808   5.787   6.860   1.552
 1637SOL     OW 5809   6.862   0.100   2.022
 1637SOL    HW1 5810   6.916   0.060   2.096
 1637SOL    HW2 5811   6.794   0.035   1.991
 1638SOL     OW 5812   0.282   2.874   1.958
 1638SOL    HW1 5813   0.337   2.791   1.970
 1638SOL    HW2 5814   0.339   2.946   1.918
 1639SOL     OW 5815   4.878   3.045   2.619
 1639SOL    HW1 5816   4.811   3.004   2.557
 1639SOL    HW2 5817   4.877   2.995   2.706
 1640SOL     OW 5818   6.278   0.008   0.070
 1640SOL    HW1 5819   6.354   0.047   0.019
 1640SOL    HW2 5820   6.282   6.927   0.067
 1641SOL     OW 5821   6.334   2.303   3.183
 1641SOL    HW1 5822   6.299   2.305   3.090
 1641SOL    HW2 5823   6.258   2.283   3.246
 1642SOL     OW 5824   5.687   1.867   5.694
 1642SOL    HW1 5825   5.737   1.814   5.626
 1642SOL    HW2 5826   5.748   1.933   5.737
 1643SOL     OW 5827   2.744   5.569   4.293
 1643SOL    HW1 5828   2.711   5.488   4.243
 1643SOL    HW2 5829   2.844   5.572   4.289
 1644SOL     OW 5830   5.987   2.989   0.727
 1644SOL    HW1 5831   5.906   2.960   0.777
 1644SOL    HW2 5832   6.063   2.928   0.748
 1645SOL     OW 5833   2.157   0.715   5.537
 1645SOL    HW1 5834   2.102   0.788   5.575
 1645SOL    HW2 5835   2.179   0.735   5.441
 1646SOL     OW 5836   0.775   5.558   0.985
 1646SOL    HW1 5837   0.833   5.639   0.996
 1646SOL    HW2 5838   0.713   5.571   0.908
 1647SOL     OW 5839   6.538   2.859   4.697
 1647SOL    HW1 5840   6.500   2.816   4.616
 1647SOL    HW2 5841   6.464   2.892   4.755
 1648SOL     OW 5842   5.360   6.191   0.986
 1648SOL    HW1 5843   5.421   6.270   0.983
 1648SOL    HW2 5844   5.268   6.220   0.959
 1649SOL     OW 5845   2.853   0.441   3.385
 1649SOL    HW1 5846   2.765   0.407   3.418
 1649SOL    HW2 5847   2.927   0.382   3.419
 1650SOL     OW 5848   2.785   4.920   6.388
 1650SOL    HW1 5849   2.834   4.951   6.306
 1650SOL    HW2 5850   2.846   4.926   6.467
 1651SOL     OW 5851   0.752   2.933   3.891
 1651SOL    HW1 5852   0.688   2.860   3.919
 1651SOL    HW2 5853   0.738   2.954   3.794
 1652SOL     OW 5854   0.439   2.775   1.224
 1652SOL    HW1 5855   0.470   2.769   1.130
 1652SOL    HW2 5856   0.428   2.871   1.249
 1653SOL     OW 5857   6.919   4.941   3.199
 1653SOL    HW1 5858   6.861   4.991   3.135
 1653SOL    HW2 5859   6.989   5.002   3.235
 1654SOL     OW 5860   0.851   3.107   2.050
 1654SOL    HW1 5861   0.905   3.055   2.116
 1654SOL    HW2 5862   0.867   3.070   1.958
 1655SOL     OW 5863   0.158   6.912   4.680
 1655SOL    HW1 5864   0.239   6.889   4.626
 1655SOL    HW2 5865   0.124   7.001   4.651
 1656SOL     OW 5866   2.113   4.884   4.070
 1656SOL    HW1 5867   2.094   4.877   3.972
 1656SOL    HW2 5868   2.150   4.974   4.091
 1657SOL     OW 5869   1.219   0.396   5.448
 1657SOL    HW1 5870   1.136   0.373   5.397
 1657SOL    HW2 5871   1.196   0.457   5.523
 1658SOL     OW 5872   6.824   0.013   6.316
 1658SOL    HW1 5873   6.896   6.994   6.375
 1658SOL    HW2 5874   6.821   6.981   6.230
 1659SOL     OW 5875   5.075   6.727   6.155
 1659SOL    HW1 5876   5.133   6.754   6.078
 1659SOL    HW2 5877   4.980   6.723   6.126
 1660SOL     OW 5878   1.966   6.942   1.973
 1660SOL    HW1 5879   1.912   6.859   1.984
 1660SOL    HW2 5880   2.052   6.933   2.024
 1661SOL     OW 5881   3.768   4.936   2.671
 1661SOL    HW1 5882   3.812   4.849   2.691
 1661SOL    HW2 5883   3.703   4.924   2.595
 1662SOL     OW 5884   0.279   0.755   4.710
 1662SOL    HW1 5885   0.289   0.835   4.770
 1662SOL    HW2 5886   0.292   0.782   4.615
 1663SOL     OW 5887   4.664   4.914   1.232
 1663SOL    HW1 5888   4.602   4.838   1.211
 1663SOL    HW2 5889   4.736   4.882   1.293
 1664SOL     OW 5890   0.990   0.120   5.412
 1664SOL    HW1 5891   1.039   0.143   5.496
 1664SOL    HW2 5892   0.973   0.203   5.359
 1665SOL     OW 5893   2.169   4.278   0.592
 1665SOL    HW1 5894   2.223   4.195   0.602
 1665SOL    HW2 5895   2.089   4.273   0.652
 1666SOL     OW 5896   5.633   6.822   6.286
 1666SOL    HW1 5897   5.681   6.784   6.365
 1666SOL    HW2 5898   5.694   6.883   6.236
 1667SOL     OW 5899   0.569   6.355   1.201
 1667SOL    HW1 5900   0.632   6.336   1.276
 1667SOL    HW2 5901   0.475   6.341   1.231
 1668SOL     OW 5902   5.309   4.426   3.926
 1668SOL    HW1 5903   5.305   4.462   4.019
 1668SOL    HW2 5904   5.266   4.490   3.863
 1669SOL     OW 5905   6.719   3.966   5.411
 1669SOL    HW1 5906   6.785   3.904   5.368
 1669SOL    HW2 5907   6.712   3.946   5.508
 1670SOL     OW 5908   1.674   4.826   5.723
 1670SOL    HW1 5909   1.706   4.771   5.800
 1670SOL    HW2 5910   1.586   4.868   5.747
 1671SOL     OW 5911   5.909   1.764   1.393
 1671SOL    HW1 5912   5.858   1.706   1.330
 1671SOL    HW2 5913   5.928   1.712   1.477
 1672SOL     OW 5914   1.149   3.028   7.007
 1672SOL    HW1 5915   1.111   2.935   7.000
 1672SOL    HW2 5916   1.078   3.091   0.017
 1673SOL     OW 5917   2.591   1.677   4.483
 1673SOL    HW1 5918   2.612   1.636   4.394
 1673SOL    HW2 5919   2.503   1.643   4.516
 1674SOL     OW 5920   4.895   2.701   2.684
 1674SOL    HW1 5921   4.886   2.724   2.780
 1674SOL    HW2 5922   4.816   2.737   2.633
 1675SOL     OW 5923   5.121   1.044   0.974
 1675SOL    HW1 5924   5.145   1.021   1.068
 1675SOL    HW2 5925   5.167   1.129   0.948
 1676SOL     OW 5926   1.716   1.594   2.901
 1676SOL    HW1 5927   1.702   1.692   2.915
 1676SOL    HW2 5928   1.787   1.561   2.963
 1677SOL     OW 5929   3.781   4.042   3.228
 1677SOL    HW1 5930   3.766   4.138   3.205
 1677SOL    HW2 5931   3.816   4.036   3.322
 1678SOL     OW 5932   0.561   6.433   0.688
 1678SOL    HW1 5933   0.620   6.356   0.714
 1678SOL    HW2 5934   0.554   6.438   0.589
 1679SOL     OW 5935   1.800   1.719   5.856
 1679SOL    HW1 5936   1.792   1.770   5.942
 1679SOL    HW2 5937   1.863   1.642   5.868
 1680SOL     OW 5938   4.787   2.560   4.030
 1680SOL    HW1 5939   4.783   2.641   4.089
 1680SOL    HW2 5940   4.863   2.501   4.060
 1681SOL     OW 5941   2.049   6.319   3.644
 1681SOL    HW1 5942   2.004   6.372   3.572
 1681SOL    HW2 5943   2.011   6.227   3.646
 1682SOL     OW 5944   2.124   0.053   5.393
 1682SOL    HW1 5945   2.189   0.011   5.330
 1682SOL    HW2 5946   2.117   0.151   5.374
 1683SOL     OW 5947   6.010   4.778   2.466
 1683SOL    HW1 5948   6.104   4.746   2.469
 1683SOL    HW2 5949   5.986   4.820   2.554
 1684SOL     OW 5950   2.543   4.459   1.721
 1684SOL    HW1 5951   2.594   4.495   1.799
 1684SOL    HW2 5952   2.605   4.446   1.643
 1685SOL     OW 5953   0.590   1.015   5.724
 1685SOL    HW1 5954   0.632   0.925   5.728
 1685SOL    HW2 5955   0.576   1.050   5.817
 1686SOL     OW 5956   4.428   6.156   3.084
 1686SOL    HW1 5957   4.376   6.175   3.167
 1686SOL    HW2 5958   4.459   6.061   3.085
 1687SOL     OW 5959   6.495   4.244   2.729
 1687SOL    HW1 5960   6.558   4.166   2.730
 1687SOL    HW2 5961   6.542   4.325   2.695
 1688SOL     OW 5962   2.195   2.090   3.672
 1688SOL    HW1 5963   2.268   2.032   3.635
 1688SOL    HW2 5964   2.175   2.063   3.766
 1689SOL     OW 5965   5.595   1.045   1.482
 1689SOL    HW1 5966   5.671   0.986   1.510
 1689SOL    HW2 5967   5.549   1.080   1.563
 1690SOL     OW 5968   0.762   4.099   4.159
 1690SOL    HW1 5969   0.766   4.026   4.228
 1690SOL    HW2 5970   0.724   4.062   4.074
 1691SOL     OW 5971   4.944   2.627   5.139
 1691SOL    HW1 5972   4.984   2.619   5.231
 1691SOL    HW2 5973   4.878   2.702   5.138
 1692SOL     OW 5974   5.828   5.178   1.352
 1692SOL    HW1 5975   5.895   5.249   1.332
 1692SOL    HW2 5976   5.862   5.090   1.318
 1693SOL     OW 5977   5.868   0.282   5.312
 1693SOL    HW1 5978   5.876   0.199   5.255
 1693SOL    HW2 5979   5.887   0.259   5.407
 1694SOL     OW 5980   5.036   0.759   5.126
 1694SOL    HW1 5981   5.069   0.670   5.160
 1694SOL    HW2 5982   4.952   0.746   5.075
 1695SOL     OW 5983   3.652   0.716   6.353
 1695SOL    HW1 5984   3.744   0.733   6.389
 1695SOL    HW2 5985   3.639   0.769   6.269
 1696SOL     OW 5986   4.265   5.992   0.023
 1696SOL    HW1 5987   4.345   6.010   0.080
 1696SOL    HW2 5988   4.184   5.990   0.080
 1697SOL     OW 5989   6.084   2.345   1.417
 1697SOL    HW1 5990   6.159   2.381   1.361
 1697SOL    HW2 5991   6.036   2.273   1.367
 1698SOL     OW 5992   3.521   0.489   1.703
 1698SOL    HW1 5993   3.486   0.497   1.796
 1698SOL    HW2 5994   3.500   0.573   1.652
 1699SOL     OW 5995   2.510   0.129   0.354
 1699SOL    HW1 5996   2.458   0.203   0.310
 1699SOL    HW2 5997   2.447   0.061   0.391
 1700SOL     OW 5998   6.021   3.599   3.516
 1700SOL    HW1 5999   6.109   3.556   3.500
 1700SOL    HW2 6000   6.002   3.603   3.614
 1701SOL     OW 6001   0.170   5.086   4.787
 1701SOL    HW1 6002   0.191   5.171   4.836
 1701SOL    HW2 6003   0.107   5.031   4.842
 1702SOL     OW 6004   1.975   2.708   5.919
 1702SOL    HW1 6005   1.888   2.751   5.896
 1702SOL    HW2 6006   2.024   2.684   5.834
 1703SOL     OW 6007   3.081   2.109   0.066
 1703SOL    HW1 6008   3.062   2.110   0.164
 1703SOL    HW2 6009   3.001   2.075   0.016
 1704SOL     OW 6010   2.365   1.676   1.051
 1704SOL    HW1 6011   2.305   1.613   1.001
 1704SOL    HW2 6012   2.455   1.677   1.008
 1705SOL     OW 6013   4.387   1.400   0.678
 1705SOL    HW1 6014   4.405   1.460   0.757
 1705SOL    HW2 6015   4.465   1.404   0.616
 1706SOL     OW 6016   4.128   2.090   0.899
 1706SOL    HW1 6017   4.162   2.180   0.872
 1706SOL    HW2 6018   4.053   2.100   0.965
 1707SOL     OW 6019   4.442   1.807   2.275
 1707SOL    HW1 6020   4.383   1.855   2.340
 1707SOL    HW2 6021   4.388   1.738   2.227
 1708SOL     OW 6022   2.898   5.155   1.453
 1708SOL    HW1 6023   2.918   5.230   1.516
 1708SOL    HW2 6024   2.984   5.114   1.421
 1709SOL     OW 6025   4.494   5.733   0.697
 1709SOL    HW1 6026   4.417   5.734   0.760
 1709SOL    HW2 6027   4.461   5.745   0.603
 1710SOL     OW 6028   3.877   5.317   3.147
 1710SOL    HW1 6029   3.913   5.225   3.159
 1710SOL    HW2 6030   3.801   5.331   3.211
 1711SOL     OW 6031   3.719   5.107   5.859
 1711SOL    HW1 6032   3.665   5.142   5.783
 1711SOL    HW2 6033   3.667   5.034   5.905
 1712SOL     OW 6034   6.802   1.722   3.931
 1712SOL    HW1 6035   6.886   1.708   3.879
 1712SOL    HW2 6036   6.723   1.703   3.873
 1713SOL     OW 6037   4.019   0.851   2.509
 1713SOL    HW1 6038   4.060   0.937   2.479
 1713SOL    HW2 6039   3.949   0.823   2.443
 1714SOL     OW 6040   3.406   2.795   0.341
 1714SOL    HW1 6041   3.428   2.708   0.298
 1714SOL    HW2 6042   3.308   2.802   0.356
 1715SOL     OW 6043   1.564   6.509   2.877
 1715SOL    HW1 6044   1.513   6.579   2.827
 1715SOL    HW2 6045   1.525   6.498   2.968
 1716SOL     OW 6046   4.378   0.347   3.517
 1716SOL    HW1 6047   4.382   0.308   3.609
 1716SOL    HW2 6048   4.382   0.273   3.449
 1717SOL     OW 6049   3.909   5.984   5.492
 1717SOL    HW1 6050   3.864   6.070   5.470
 1717SOL    HW2 6051   3.990   6.001   5.548
 1718SOL     OW 6052   1.340   2.678   1.424
 1718SOL    HW1 6053   1.384   2.736   1.493
 1718SOL    HW2 6054   1.241   2.682   1.434
 1719SOL     OW 6055   0.759   5.180   1.673
 1719SOL    HW1 6056   0.725   5.231   1.595
 1719SOL    HW2 6057   0.831   5.232   1.719
 1720SOL     OW 6058   6.418   2.702   5.503
 1720SOL    HW1 6059   6.376   2.700   5.413
 1720SOL    HW2 6060   6.358   2.655   5.568
 1721SOL     OW 6061   1.658   2.018   1.740
 1721SOL    HW1 6062   1.731   1.977   1.685
 1721SOL    HW2 6063   1.614   2.091   1.687
 1722SOL     OW 6064   3.054   2.144   2.954
 1722SOL    HW1 6065   3.071   2.074   2.885
 1722SOL    HW2 6066   3.130   2.147   3.019
 1723SOL     OW 6067   5.616   2.949   0.157
 1723SOL    HW1 6068   5.543   2.981   0.097
 1723SOL    HW2 6069   5.691   3.015   0.156
 1724SOL     OW 6070   6.716   2.371   1.284
 1724SOL    HW1 6071   6.739   2.322   1.369
 1724SOL    HW2 6072   6.628   2.416   1.295
 1725SOL     OW 6073   2.210   6.113   6.669
 1725SOL    HW1 6074   2.180   6.059   6.748
 1725SOL    HW2 6075   2.292   6.166   6.694
 1726SOL     OW 6076   5.647   3.905   4.045
 1726SOL    HW1 6077   5.725   3.958   4.079
 1726SOL    HW2 6078   5.633   3.825   4.102
 1727SOL     OW 6079   3.268   3.354   3.237
 1727SOL    HW1 6080   3.233   3.390   3.151
 1727SOL    HW2 6081   3.240   3.259   3.248
 1728SOL     OW 6082   4.686   2.260   4.600
 1728SOL    HW1 6083   4.622   2.186   4.620
 1728SOL    HW2 6084   4.779   2.230   4.618
 1729SOL     OW 6085   1.902   3.892   1.866
 1729SOL    HW1 6086   1.981   3.886   1.927
 1729SOL    HW2 6087   1.861   3.983   1.873
 1730SOL     OW 6088   3.040   5.097   5.749
 1730SOL    HW1 6089   3.107   5.102   5.674
 1730SOL    HW2 6090   2.953   5.063   5.714
 1731SOL     OW 6091   5.994   4.391   4.296
 1731SOL    HW1 6092   5.986   4.490   4.303
 1731SOL    HW2 6093   5.917   4.356   4.242
 1732SOL     OW 6094   1.910   4.402   6.134
 1732SOL    HW1 6095   1.873   4.359   6.052
 1732SOL    HW2 6096   1.990   4.351   6.165
 1733SOL     OW 6097   2.765   3.995   0.383
 1733SOL    HW1 6098   2.726   3.903   0.376
 1733SOL    HW2 6099   2.851   3.998   0.332
 1734SOL     OW 6100   6.811   3.256   1.059
 1734SOL    HW1 6101   6.748   3.202   1.114
 1734SOL    HW2 6102   6.762   3.331   1.015
 1735SOL     OW 6103   3.535   4.803   6.053
 1735SOL    HW1 6104   3.510   4.897   6.075
 1735SOL    HW2 6105   3.533   4.790   5.954
 1736SOL     OW 6106   4.578   3.296   0.994
 1736SOL    HW1 6107   4.568   3.267   1.089
 1736SOL    HW2 6108   4.504   3.359   0.970
 1737SOL     OW 6109   4.800   1.339   5.018
 1737SOL    HW1 6110   4.757   1.422   5.053
 1737SOL    HW2 6111   4.801   1.341   4.918
 1738SOL     OW 6112   1.013   3.085   4.603
 1738SOL    HW1 6113   0.949   3.119   4.672
 1738SOL    HW2 6114   1.098   3.055   4.648
 1739SOL     OW 6115   5.433   0.323   4.113
 1739SOL    HW1 6116   5.475   0.338   4.023
 1739SOL    HW2 6117   5.468   0.239   4.153
 1740SOL     OW 6118   6.498   3.105   4.537
 1740SOL    HW1 6119   6.555   3.133   4.459
 1740SOL    HW2 6120   6.553   3.054   4.603
 1741SOL     OW 6121   1.234   2.094   4.367
 1741SOL    HW1 6122   1.243   2.108   4.268
 1741SOL    HW2 6123   1.141   2.064   4.388
 1742SOL     OW 6124   6.066   6.037   6.760
 1742SOL    HW1 6125   6.156   6.063   6.793
 1742SOL    HW2 6126   6.028   6.110   6.703
 1743SOL     OW 6127   1.231   0.805   3.002
 1743SOL    HW1 6128   1.308   0.860   3.035
 1743SOL    HW2 6129   1.174   0.861   2.942
 1744SOL     OW 6130   3.711   1.767   4.003
 1744SOL    HW1 6131   3.714   1.862   3.970
 1744SOL    HW2 6132   3.803   1.738   4.030
 1745SOL     OW 6133   6.823   6.451   1.406
 1745SOL    HW1 6134   6.737   6.449   1.458
 1745SOL    HW2 6135   6.856   6.545   1.401
 1746SOL     OW 6136   1.710   4.498   3.926
 1746SOL    HW1 6137   1.763   4.419   3.895
 1746SOL    HW2 6138   1.765   4.580   3.918
 1747SOL     OW 6139   3.796   0.592   2.328
 1747SOL    HW1 6140   3.821   0.496   2.317
 1747SOL    HW2 6141   3.858   0.649   2.276
 1748SOL     OW 6142   6.708   2.246   4.642
 1748SOL    HW1 6143   6.659   2.266   4.557
 1748SOL    HW2 6144   6.778   2.316   4.657
 1749SOL     OW 6145   1.735   5.141   1.160
 1749SOL    HW1 6146   1.723   5.208   1.233
 1749SOL    HW2 6147   1.647   5.097   1.140
 1750SOL     OW 6148   4.620   6.852   5.195
 1750SOL    HW1 6149   4.543   6.908   5.163
 1750SOL    HW2 6150   4.679   6.908   5.253
 1751SOL     OW 6151   5.503   2.362   5.175
 1751SOL    HW1 6152   5.436   2.368   5.250
 1751SOL    HW2 6153   5.483   2.433   5.107
 1752SOL     OW 6154   6.192   0.656   1.306
 1752SOL    HW1 6155   6.199   0.754   1.294
 1752SOL    HW2 6156   6.204   0.610   1.218
 1753SOL     OW 6157   6.703   1.648   1.737
 1753SOL    HW1 6158   6.789   1.620   1.780
 1753SOL    HW2 6159   6.720   1.723   1.673
 1754SOL     OW 6160   3.209   5.332   5.259
 1754SOL    HW1 6161   3.222   5.431   5.253
 1754SOL    HW2 6162   3.297   5.288   5.278
 1755SOL     OW 6163   6.509   6.539   4.970
 1755SOL    HW1 6164   6.463   6.584   5.047
 1755SOL    HW2 6165   6.602   6.574   4.962
 1756SOL     OW 6166   5.374   0.179   6.027
 1756SOL    HW1 6167   5.378   0.210   6.122
 1756SOL    HW2 6168   5.430   0.097   6.017
 1757SOL     OW 6169   2.367   4.884   5.244
 1757SOL    HW1 6170   2.447   4.871   5.186
 1757SOL    HW2 6171   2.394   4.877   5.340
 1758SOL     OW 6172   2.355   6.354   4.698
 1758SOL    HW1 6173   2.270   6.303   4.713
 1758SOL    HW2 6174   2.334   6.441   4.653
 1759SOL     OW 6175   1.392   6.645   6.778
 1759SOL    HW1 6176   1.385   6.741   6.754
 1759SOL    HW2 6177   1.487   6.623   6.802
 1760SOL     OW 6178   6.386   1.439   5.257
 1760SOL    HW1 6179   6.294   1.412   5.288
 1760SOL    HW2 6180   6.384   1.454   5.159
 1761SOL     OW 6181   6.090   1.866   2.209
 1761SOL    HW1 6182   6.063   1.808   2.285
 1761SOL    HW2 6183   6.016   1.871   2.142
 1762SOL     OW 6184   0.070   1.527   5.365
 1762SOL    HW1 6185   0.004   1.532   5.440
 1762SOL    HW2 6186   0.080   1.432   5.337
 1763SOL     OW 6187   0.919   3.792   3.958
 1763SOL    HW1 6188   0.951   3.796   4.053
 1763SOL    HW2 6189   0.989   3.831   3.897
 1764SOL     OW 6190   0.810   5.202   2.571
 1764SOL    HW1 6191   0.844   5.245   2.487
 1764SOL    HW2 6192   0.824   5.103   2.565
 1765SOL     OW 6193   5.233   3.458   2.677
 1765SOL    HW1 6194   5.264   3.461   2.582
 1765SOL    HW2 6195   5.281   3.386   2.726
 1766SOL     OW 6196   4.477   5.349   4.633
 1766SOL    HW1 6197   4.495   5.252   4.648
 1766SOL    HW2 6198   4.429   5.387   4.712
 1767SOL     OW 6199   0.605   4.854   1.966
 1767SOL    HW1 6200   0.577   4.817   1.877
 1767SOL    HW2 6201   0.524   4.864   2.024
 1768SOL     OW 6202   5.166   6.598   2.456
 1768SOL    HW1 6203   5.069   6.592   2.480
 1768SOL    HW2 6204   5.204   6.505   2.446
 1769SOL     OW 6205   5.102   0.496   6.533
 1769SOL    HW1 6206   5.159   0.578   6.521
 1769SOL    HW2 6207   5.160   0.415   6.525
 1770SOL     OW 6208   2.114   5.250   6.345
 1770SOL    HW1 6209   2.058   5.237   6.427
 1770SOL    HW2 6210   2.198   5.195   6.354
 1771SOL     OW 6211   0.999   3.559   6.376
 1771SOL    HW1 6212   1.049   3.546   6.461
 1771SOL    HW2 6213   1.040   3.635   6.324
 1772SOL     OW 6214   2.294   4.421   3.463
 1772SOL    HW1 6215   2.286   4.360   3.542
 1772SOL    HW2 6216   2.340   4.374   3.388
 1773SOL     OW 6217   0.656   6.621   5.040
 1773SOL    HW1 6218   0.636   6.694   5.106
 1773SOL    HW2 6219   0.747   6.636   5.001
 1774SOL     OW 6220   5.291   5.132   1.016
 1774SOL    HW1 6221   5.346   5.147   0.933
 1774SOL    HW2 6222   5.340   5.168   1.095
 1775SOL     OW 6223   2.493   5.693   6.475
 1775SOL    HW1 6224   2.401   5.681   6.512
 1775SOL    HW2 6225   2.490   5.750   6.393
 1776SOL     OW 6226   4.901   1.230   6.083
 1776SOL    HW1 6227   4.973   1.284   6.126
 1776SOL    HW2 6228   4.876   1.272   5.995
 1777SOL     OW 6229   4.862   6.576   6.446
 1777SOL    HW1 6230   4.907   6.557   6.359
 1777SOL    HW2 6231   4.866   6.674   6.464
 1778SOL     OW 6232   5.948   6.952   3.986
 1778SOL    HW1 6233   6.043   6.946   3.957
 1778SOL    HW2 6234   5.899   6.869   3.958
 1779SOL     OW 6235   5.580   6.021   3.832
 1779SOL    HW1 6236   5.574   5.969   3.747
 1779SOL    HW2 6237   5.497   6.008   3.885
 1780SOL     OW 6238   2.043   5.665   4.656
 1780SOL    HW1 6239   2.110   5.667   4.581
 1780SOL    HW2 6240   2.067   5.735   4.723
 1781SOL     OW 6241   4.013   0.900   3.988
 1781SOL    HW1 6242   3.993   0.978   4.047
 1781SOL    HW2 6243   3.975   0.817   4.030
 1782SOL     OW 6244   0.863   1.662   2.674
 1782SOL    HW1 6245   0.905   1.739   2.722
 1782SOL    HW2 6246   0.925   1.630   2.602
 1783SOL     OW 6247   2.130   4.050   6.401
 1783SOL    HW1 6248   2.220   4.089   6.422
 1783SOL    HW2 6249   2.122   4.037   6.303
 1784SOL     OW 6250   2.717   6.935   1.311
 1784SOL    HW1 6251   2.760   6.996   1.244
 1784SOL    HW2 6252   2.759   6.845   1.305
 1785SOL     OW 6253   0.878   6.488   4.253
 1785SOL    HW1 6254   0.892   6.558   4.324
 1785SOL    HW2 6255   0.961   6.479   4.198
 1786SOL     OW 6256   1.187   6.000   0.623
 1786SOL    HW1 6257   1.283   5.972   0.627
 1786SOL    HW2 6258   1.182   6.100   0.631
 1787SOL     OW 6259   2.869   4.006   5.907
 1787SOL    HW1 6260   2.938   4.037   5.841
 1787SOL    HW2 6261   2.895   3.917   5.942
 1788SOL     OW 6262   4.643   3.740   0.762
 1788SOL    HW1 6263   4.626   3.671   0.692
 1788SOL    HW2 6264   4.578   3.728   0.837
 1789SOL     OW 6265   6.509   3.835   2.152
 1789SOL    HW1 6266   6.438   3.892   2.193
 1789SOL    HW2 6267   6.523   3.754   2.209
 1790SOL     OW 6268   2.518   2.545   4.861
 1790SOL    HW1 6269   2.613   2.526   4.888
 1790SOL    HW2 6270   2.476   2.604   4.929
 1791SOL     OW 6271   4.961   6.646   3.181
 1791SOL    HW1 6272   4.970   6.745   3.170
 1791SOL    HW2 6273   4.979   6.622   3.277
 1792SOL     OW 6274   0.302   1.435   5.504
 1792SOL    HW1 6275   0.222   1.483   5.470
 1792SOL    HW2 6276   0.349   1.391   5.428
 1793SOL     OW 6277   0.026   1.481   6.143
 1793SOL    HW1 6278   7.008   1.567   6.111
 1793SOL    HW2 6279   0.122   1.494   6.170
 1794SOL     OW 6280   1.215   6.862   6.443
 1794SOL    HW1 6281   1.118   6.878   6.425
 1794SOL    HW2 6282   1.238   6.767   6.425
 1795SOL     OW 6283   6.031   4.237   1.191
 1795SOL    HW1 6284   6.089   4.225   1.272
 1795SOL    HW2 6285   5.957   4.170   1.194
 1796SOL     OW 6286   1.098   0.140   6.505
 1796SOL    HW1 6287   1.106   0.074   6.431
 1796SOL    HW2 6288   1.189   0.172   6.532
 1797SOL     OW 6289   2.443   5.404   5.327
 1797SOL    HW1 6290   2.500   5.322   5.336
 1797SOL    HW2 6291   2.357   5.380   5.282
 1798SOL     OW 6292   2.944   3.235   4.386
 1798SOL    HW1 6293   2.994   3.157   4.347
 1798SOL    HW2 6294   2.948   3.312   4.322
 1799SOL     OW 6295   3.276   1.001   0.497
 1799SOL    HW1 6296   3.335   0.957   0.430
 1799SOL    HW2 6297   3.292   1.100   0.497
 1800SOL     OW 6298   5.612   3.613   4.824
 1800SOL    HW1 6299   5.563   3.590   4.740
 1800SOL    HW2 6300   5.691   3.552   4.835
 1801SOL     OW 6301   1.466   1.424   1.824
 1801SOL    HW1 6302   1.560   1.447   1.848
 1801SOL    HW2 6303   1.451   1.326   1.839
 1802SOL     OW 6304   6.743   4.844   3.689
 1802SOL    HW1 6305   6.731   4.754   3.648
 1802SOL    HW2 6306   6.670   4.905   3.658
 1803SOL     OW 6307   0.782   6.810   3.216
 1803SOL    HW1 6308   0.818   6.866   3.291
 1803SOL    HW2 6309   0.858   6.767   3.166
 1804SOL     OW 6310   2.076   3.383   5.615
 1804SOL    HW1 6311   2.054   3.332   5.532
 1804SOL    HW2 6312   2.086   3.320   5.692
 1805SOL     OW 6313   0.356   5.623   6.588
 1805SOL    HW1 6314   0.366   5.720   6.609
 1805SOL    HW2 6315   0.388   5.568   6.666
 1806SOL     OW 6316   6.926   1.661   2.080
 1806SOL    HW1 6317   6.945   1.628   2.173
 1806SOL    HW2 6318   7.008   1.705   2.043
 1807SOL     OW 6319   0.080   3.243   2.316
 1807SOL    HW1 6320   0.058   3.243   2.413
 1807SOL    HW2 6321   0.025   3.312   2.269
 1808SOL     OW 6322   4.803   1.913   5.878
 1808SOL    HW1 6323   4.805   2.007   5.913
 1808SOL    HW2 6324   4.745   1.857   5.936
 1809SOL     OW 6325   4.104   1.299   5.751
 1809SOL    HW1 6326   4.185   1.239   5.743
 1809SOL    HW2 6327   4.026   1.245   5.783
 1810SOL     OW 6328   0.502   0.124   4.276
 1810SOL    HW1 6329   0.414   0.169   4.263
 1810SOL    HW2 6330   0.552   0.121   4.189
 1811SOL     OW 6331   4.225   5.807   1.682
 1811SOL    HW1 6332   4.169   5.749   1.741
 1811SOL    HW2 6333   4.219   5.902   1.713
 1812SOL     OW 6334   4.238   6.619   5.329
 1812SOL    HW1 6335   4.199   6.558   5.398
 1812SOL    HW2 6336   4.334   6.595   5.313
 1813SOL     OW 6337   4.288   4.837   2.666
 1813SOL    HW1 6338   4.267   4.933   2.653
 1813SOL    HW2 6339   4.363   4.810   2.605
 1814SOL     OW 6340   0.154   5.646   0.687
 1814SOL    HW1 6341   0.125   5.550   0.692
 1814SOL    HW2 6342   0.079   5.705   0.714
 1815SOL     OW 6343   5.642   6.662   1.322
 1815SOL    HW1 6344   5.650   6.742   1.381
 1815SOL    HW2 6345   5.575   6.598   1.361
 1816SOL     OW 6346   4.135   5.329   5.472
 1816SOL    HW1 6347   4.185   5.408   5.508
 1816SOL    HW2 6348   4.200   5.258   5.444
 1817SOL     OW 6349   0.727   1.830   3.714
 1817SOL    HW1 6350   0.729   1.734   3.741
 1817SOL    HW2 6351   0.802   1.879   3.758
 1818SOL     OW 6352   2.146   6.835   1.101
 1818SOL    HW1 6353   2.185   6.926   1.116
 1818SOL    HW2 6354   2.205   6.782   1.040
 1819SOL     OW 6355   2.064   4.808   3.802
 1819SOL    HW1 6356   2.047   4.845   3.711
 1819SOL    HW2 6357   2.137   4.740   3.798
 1820SOL     OW 6358   3.886   0.064   4.862
 1820SOL    HW1 6359   3.824   0.001   4.908
 1820SOL    HW2 6360   3.869   0.157   4.893
 1821SOL     OW 6361   3.382   2.131   2.806
 1821SOL    HW1 6362   3.295   2.159   2.766
 1821SOL    HW2 6363   3.376   2.132   2.906
 1822SOL     OW 6364   6.732   2.924   2.534
 1822SOL    HW1 6365   6.823   2.928   2.575
 1822SOL    HW2 6366   6.738   2.946   2.436
 1823SOL     OW 6367   3.776   6.256   2.316
 1823SOL    HW1 6368   3.856   6.207   2.280
 1823SOL    HW2 6369   3.783   6.353   2.291
 1824SOL     OW 6370   3.861   2.835   1.319
 1824SOL    HW1 6371   3.906   2.862   1.404
 1824SOL    HW2 6372   3.810   2.912   1.282
 1825SOL     OW 6373   2.240   1.518   5.329
 1825SOL    HW1 6374   2.215   1.433   5.282
 1825SOL    HW2 6375   2.266   1.587   5.262
 1826SOL     OW 6376   3.463   2.226   1.729
 1826SOL    HW1 6377   3.538   2.273   1.775
 1826SOL    HW2 6378   3.410   2.291   1.675
 1827SOL     OW 6379   5.796   4.072   1.202
 1827SOL    HW1 6380   5.789   3.991   1.260
 1827SOL    HW2 6381   5.724   4.137   1.225
 1828SOL     OW 6382   1.587   2.924   5.084
 1828SOL    HW1 6383   1.607   2.870   5.002
 1828SOL    HW2 6384   1.673   2.957   5.123
 1829SOL     OW 6385   3.326   0.390   3.557
 1829SOL    HW1 6386   3.348   0.329   3.481
 1829SOL    HW2 6387   3.379   0.364   3.638
 1830SOL     OW 6388   4.690   6.800   4.577
 1830SOL    HW1 6389   4.728   6.878   4.527
 1830SOL    HW2 6390   4.760   6.728   4.583
 1831SOL     OW 6391   4.184   5.414   1.269
 1831SOL    HW1 6392   4.258   5.353   1.242
 1831SOL    HW2 6393   4.166   5.479   1.196
 1832SOL     OW 6394   2.220   3.206   0.373
 1832SOL    HW1 6395   2.236   3.112   0.405
 1832SOL    HW2 6396   2.170   3.204   0.287
 1833SOL     OW 6397   5.226   0.432   0.322
 1833SOL    HW1 6398   5.214   0.528   0.346
 1833SOL    HW2 6399   5.138   0.394   0.291
 1834SOL     OW 6400   1.859   2.307   5.938
 1834SOL    HW1 6401   1.902   2.221   5.911
 1834SOL    HW2 6402   1.924   2.363   5.989
 1835SOL     OW 6403   6.488   6.166   1.131
 1835SOL    HW1 6404   6.514   6.261   1.114
 1835SOL    HW2 6405   6.430   6.133   1.057
 1836SOL     OW 6406   5.149   2.544   1.709
 1836SOL    HW1 6407   5.185   2.633   1.737
 1836SOL    HW2 6408   5.050   2.550   1.699
 1837SOL     OW 6409   3.486   2.760   6.135
 1837SOL    HW1 6410   3.529   2.813   6.209
 1837SOL    HW2 6411   3.544   2.763   6.054
 1838SOL     OW 6412   6.373   1.062   0.417
 1838SOL    HW1 6413   6.385   1.156   0.386
 1838SOL    HW2 6414   6.394   0.999   0.343
 1839SOL     OW 6415   0.397   1.193   6.607
 1839SOL    HW1 6416   0.447   1.146   6.535
 1839SOL    HW2 6417   0.430   1.161   6.696
 1840SOL     OW 6418   4.490   6.634   3.044
 1840SOL    HW1 6419   4.547   6.703   3.090
 1840SOL    HW2 6420   4.523   6.543   3.067
 1841SOL     OW 6421   2.304   1.036   2.435
 1841SOL    HW1 6422   2.366   1.105   2.472
 1841SOL    HW2 6423   2.212   1.075   2.426
 1842SOL     OW 6424   1.562   5.611   0.059
 1842SOL    HW1 6425   1.522   5.692   0.103
 1842SOL    HW2 6426   1.621   5.564   0.125
 1843SOL     OW 6427   3.200   1.516   4.753
 1843SOL    HW1 6428   3.105   1.494   4.775
 1843SOL    HW2 6429   3.212   1.521   4.654
 1844SOL     OW 6430   5.473   2.489   6.513
 1844SOL    HW1 6431   5.525   2.504   6.597
 1844SOL    HW2 6432   5.397   2.426   6.531
 1845SOL     OW 6433   1.277   1.865   3.114
 1845SOL    HW1 6434   1.250   1.835   3.022
 1845SOL    HW2 6435   1.279   1.785   3.175
 1846SOL     OW 6436   4.120   1.666   1.998
 1846SOL    HW1 6437   4.088   1.761   1.997
 1846SOL    HW2 6438   4.219   1.665   2.011
 1847SOL     OW 6439   2.135   6.439   5.285
 1847SOL    HW1 6440   2.182   6.353   5.304
 1847SOL    HW2 6441   2.191   6.496   5.225
 1848SOL     OW 6442   2.828   5.633   3.609
 1848SOL    HW1 6443   2.862   5.716   3.565
 1848SOL    HW2 6444   2.854   5.554   3.554
 1849SOL     OW 6445   4.732   2.769   1.889
 1849SOL    HW1 6446   4.642   2.726   1.876
 1849SOL    HW2 6447   4.721   2.869   1.889
 1850SOL     OW 6448   5.279   1.295   0.954
 1850SOL    HW1 6449   5.321   1.230   1.017
 1850SOL    HW2 6450   5.322   1.384   0.965
 1851SOL     OW 6451   0.171   3.818   5.149
 1851SOL    HW1 6452   0.133   3.762   5.224
 1851SOL    HW2 6453   0.224   3.893   5.188
 1852SOL     OW 6454   0.686   6.687   2.630
 1852SOL    HW1 6455   0.662   6.724   2.540
 1852SOL    HW2 6456   0.603   6.652   2.674
 1853SOL     OW 6457   0.017   2.836   4.474
 1853SOL    HW1 6458   0.028   2.744   4.438
 1853SOL    HW2 6459   0.059   2.840   4.565
 1854SOL     OW 6460   0.382   0.174   3.534
 1854SOL    HW1 6461   0.311   0.183   3.464
 1854SOL    HW2 6462   0.455   0.115   3.500
 1855SOL     OW 6463   4.621   2.438   4.416
 1855SOL    HW1 6464   4.664   2.378   4.484
 1855SOL    HW2 6465   4.687   2.505   4.384
 1856SOL     OW 6466   3.487   2.579   0.653
 1856SOL    HW1 6467   3.480   2.556   0.556
 1856SOL    HW2 6468   3.552   2.517   0.697
 1857SOL     OW 6469   4.374   1.778   1.264
 1857SOL    HW1 6470   4.414   1.687   1.263
 1857SOL    HW2 6471   4.322   1.791   1.349
 1858SOL     OW 6472   4.546   2.442   4.007
 1858SOL    HW1 6473   4.510   2.447   3.914
 1858SOL    HW2 6474   4.625   2.504   4.014
 1859SOL     OW 6475   6.204   1.990   4.225
 1859SOL    HW1 6476   6.129   1.940   4.268
 1859SOL    HW2 6477   6.167   2.058   4.162
 1860SOL     OW 6478   1.254   1.416   4.672
 1860SOL    HW1 6479   1.306   1.410   4.757
 1860SOL    HW2 6480   1.190   1.339   4.666
 1861SOL     OW 6481   6.761   6.899   3.532
 1861SOL    HW1 6482   6.711   6.951   3.463
 1861SOL    HW2 6483   6.756   6.948   3.619
 1862SOL     OW 6484   2.849   5.553   6.359
 1862SOL    HW1 6485   2.769   5.513   6.403
 1862SOL    HW2 6486   2.827   5.573   6.263
 1863SOL     OW 6487   0.725   2.899   0.691
 1863SOL    HW1 6488   0.804   2.842   0.709
 1863SOL    HW2 6489   0.650   2.843   0.657
 1864SOL     OW 6490   4.044   5.340   2.450
 1864SOL    HW1 6491   4.003   5.249   2.452
 1864SOL    HW2 6492   4.139   5.334   2.480
 1865SOL     OW 6493   5.726   1.775   6.045
 1865SOL    HW1 6494   5.746   1.680   6.070
 1865SOL    HW2 6495   5.631   1.783   6.016
 1866SOL     OW 6496   0.915   4.960   3.605
 1866SOL    HW1 6497   0.939   4.988   3.512
 1866SOL    HW2 6498   0.934   4.863   3.617
 1867SOL     OW 6499   1.706   2.680   1.756
 1867SOL    HW1 6500   1.769   2.606   1.734
 1867SOL    HW2 6501   1.677   2.672   1.851
 1868SOL     OW 6502   6.124   3.857   5.585
 1868SOL    HW1 6503   6.215   3.844   5.547
 1868SOL    HW2 6504   6.113   3.953   5.612
 1869SOL     OW 6505   4.279   1.398   4.085
 1869SOL    HW1 6506   4.191   1.428   4.122
 1869SOL    HW2 6507   4.302   1.308   4.122
 1870SOL     OW 6508   0.057   5.327   4.513
 1870SOL    HW1 6509   0.153   5.297   4.522
 1870SOL    HW2 6510   0.046   5.376   4.427
 1871SOL     OW 6511   0.137   6.236   0.411
 1871SOL    HW1 6512   0.220   6.185   0.433
 1871SOL    HW2 6513   0.057   6.187   0.447
 1872SOL     OW 6514   2.796   2.598   1.464
 1872SOL    HW1 6515   2.864   2.628   1.530
 1872SOL    HW2 6516   2.710   2.647   1.479
 1873SOL     OW 6517   0.068   1.318   0.785
 1873SOL    HW1 6518   0.033   1.253   0.719
 1873SOL    HW2 6519   0.072   1.409   0.743
 1874SOL     OW 6520   0.360   6.280   0.009
 1874SOL    HW1 6521   0.348   6.347   6.955
 1874SOL    HW2 6522   0.270   6.249   0.040
 1875SOL     OW 6523   6.454   5.217   0.206
 1875SOL    HW1 6524   6.452   5.125   0.246
 1875SOL    HW2 6525   6.538   5.264   0.234
 1876SOL     OW 6526   6.860   5.815   0.096
 1876SOL    HW1 6527   6.793   5.754   0.055
 1876SOL    HW2 6528   6.920   5.763   0.157
 1877SOL     OW 6529   0.769   1.222   2.610
 1877SOL    HW1 6530   0.767   1.132   2.654
 1877SOL    HW2 6531   0.864   1.250   2.596
 1878SOL     OW 6532   6.765   3.803   3.621
 1878SOL    HW1 6533   6.711   3.886   3.635
 1878SOL    HW2 6534   6.855   3.815   3.661
 1879SOL     OW 6535   4.456   5.918   4.469
 1879SOL    HW1 6536   4.531   5.956   4.415
 1879SOL    HW2 6537   4.481   5.827   4.501
 1880SOL     OW 6538   0.247   1.967   4.034
 1880SOL    HW1 6539   0.195   2.018   3.966
 1880SOL    HW2 6540   0.195   1.887   4.063
 1881SOL     OW 6541   1.137   1.597   4.299
 1881SOL    HW1 6542   1.203   1.528   4.326
 1881SOL    HW2 6543   1.151   1.622   4.203
 1882SOL     OW 6544   1.863   5.576   6.863
 1882SOL    HW1 6545   1.887   5.522   6.944
 1882SOL    HW2 6546   1.912   5.663   6.866
 1883SOL     OW 6547   1.594   2.870   2.419
 1883SOL    HW1 6548   1.634   2.952   2.377
 1883SOL    HW2 6549   1.620   2.866   2.515
 1884SOL     OW 6550   3.022   1.281   0.322
 1884SOL    HW1 6551   3.020   1.202   0.260
 1884SOL    HW2 6552   2.973   1.357   0.279
 1885SOL     OW 6553   0.347   2.143   1.094
 1885SOL    HW1 6554   0.433   2.122   1.142
 1885SOL    HW2 6555   0.323   2.238   1.111
 1886SOL     OW 6556   2.943   2.598   6.046
 1886SOL    HW1 6557   3.036   2.615   6.079
 1886SOL    HW2 6558   2.915   2.506   6.072
 1887SOL     OW 6559   0.301   0.032   5.492
 1887SOL    HW1 6560   0.389   0.009   5.533
 1887SOL    HW2 6561   0.278   0.127   5.513
 1888SOL     OW 6562   2.248   2.080   5.597
 1888SOL    HW1 6563   2.347   2.083   5.583
 1888SOL    HW2 6564   2.222   1.990   5.632
 1889SOL     OW 6565   3.346   3.054   0.232
 1889SOL    HW1 6566   3.351   2.959   0.263
 1889SOL    HW2 6567   3.278   3.103   0.287
 1890SOL     OW 6568   6.341   5.456   6.498
 1890SOL    HW1 6569   6.389   5.428   6.581
 1890SOL    HW2 6570   6.341   5.380   6.433
 1891SOL     OW 6571   5.875   4.186   5.123
 1891SOL    HW1 6572   5.786   4.144   5.106
 1891SOL    HW2 6573   5.898   4.249   5.049
 1892SOL     OW 6574   4.025   6.347   1.238
 1892SOL    HW1 6575   3.962   6.285   1.191
 1892SOL    HW2 6576   4.113   6.300   1.253
 1893SOL     OW 6577   3.834   2.063   4.187
 1893SOL    HW1 6578   3.767   2.005   4.234
 1893SOL    HW2 6579   3.896   2.104   4.254
 1894SOL     OW 6580   3.865   3.993   1.031
 1894SOL    HW1 6581   3.897   3.903   1.060
 1894SOL    HW2 6582   3.765   3.994   1.029
 1895SOL     OW 6583   5.023   0.547   2.889
 1895SOL    HW1 6584   5.018   0.615   2.962
 1895SOL    HW2 6585   5.069   0.587   2.809
 1896SOL     OW 6586   6.748   0.975   5.772
 1896SOL    HW1 6587   6.827   1.032   5.791
 1896SOL    HW2 6588   6.740   0.904   5.842
 1897SOL     OW 6589   5.808   5.041   3.546
 1897SOL    HW1 6590   5.727   4.985   3.528
 1897SOL    HW2 6591   5.866   4.996   3.614
 1898SOL     OW 6592   5.971   5.033   0.030
 1898SOL    HW1 6593   5.876   5.003   0.038
 1898SOL    HW2 6594   6.000   5.025   6.953
 1899SOL     OW 6595   1.025   3.413   3.076
 1899SOL    HW1 6596   1.050   3.478   3.004
 1899SOL    HW2 6597   0.929   3.387   3.065
 1900SOL     OW 6598   2.659   5.674   0.374
 1900SOL    HW1 6599   2.666   5.617   0.293
 1900SOL    HW2 6600   2.563   5.695   0.392
 1901SOL     OW 6601   1.546   1.571   6.977
 1901SOL    HW1 6602   1.614   1.604   6.912
 1901SOL    HW2 6603   1.577   1.590   0.051
 1902SOL     OW 6604   1.212   2.779   4.994
 1902SOL    HW1 6605   1.175   2.689   4.970
 1902SOL    HW2 6606   1.276   2.770   5.071
 1903SOL     OW 6607   6.314   3.279   4.088
 1903SOL    HW1 6608   6.275   3.191   4.116
 1903SOL    HW2 6609   6.286   3.349   4.154
 1904SOL     OW 6610   6.813   0.001   3.789
 1904SOL    HW1 6611   6.862   6.975   3.864
 1904SOL    HW2 6612   6.875   0.064   3.742
 1905SOL     OW 6613   6.633   3.067   3.855
 1905SOL    HW1 6614   6.583   3.124   3.790
 1905SOL    HW2 6615   6.714   3.116   3.888
 1906SOL     OW 6616   2.448   6.821   0.664
 1906SOL    HW1 6617   2.508   6.784   0.593
 1906SOL    HW2 6618   2.502   6.858   0.739
 1907SOL     OW 6619   3.526   6.301   3.395
 1907SOL    HW1 6620   3.588   6.278   3.319
 1907SOL    HW2 6621   3.556   6.387   3.436
 1908SOL     OW 6622   4.805   1.262   6.609
 1908SOL    HW1 6623   4.735   1.300   6.548
 1908SOL    HW2 6624   4.878   1.222   6.554
 1909SOL     OW 6625   3.040   5.008   4.626
 1909SOL    HW1 6626   3.122   5.054   4.660
 1909SOL    HW2 6627   3.003   5.059   4.549
 1910SOL     OW 6628   4.808   1.461   5.524
 1910SOL    HW1 6629   4.901   1.435   5.549
 1910SOL    HW2 6630   4.791   1.555   5.556
 1911SOL     OW 6631   6.331   3.813   6.073
 1911SOL    HW1 6632   6.269   3.867   6.016
 1911SOL    HW2 6633   6.324   3.716   6.049
 1912SOL     OW 6634   3.840   6.987   3.307
 1912SOL    HW1 6635   3.893   0.048   3.280
 1912SOL    HW2 6636   3.903   6.914   3.334
 1913SOL     OW 6637   1.396   4.180   5.415
 1913SOL    HW1 6638   1.482   4.221   5.386
 1913SOL    HW2 6639   1.322   4.215   5.358
 1914SOL     OW 6640   4.001   1.835   5.771
 1914SOL    HW1 6641   4.054   1.755   5.742
 1914SOL    HW2 6642   4.061   1.914   5.778
 1915SOL     OW 6643   3.039   0.164   5.464
 1915SOL    HW1 6644   3.042   0.067   5.439
 1915SOL    HW2 6645   2.948   0.187   5.498
 1916SOL     OW 6646   3.761   6.542   1.179
 1916SOL    HW1 6647   3.854   6.561   1.148
 1916SOL    HW2 6648   3.743   6.592   1.264
 1917SOL     OW 6649   3.250   2.973   4.137
 1917SOL    HW1 6650   3.263   2.879   4.106
 1917SOL    HW2 6651   3.184   3.019   4.079
 1918SOL     OW 6652   5.776   6.913   4.251
 1918SOL    HW1 6653   5.828   6.905   4.166
 1918SOL    HW2 6654   5.757   6.823   4.288
 1919SOL     OW 6655   6.657   6.842   1.439
 1919SOL    HW1 6656   6.753   6.813   1.436
 1919SOL    HW2 6657   6.602   6.780   1.383
 1920SOL     OW 6658   6.775   5.703   4.226
 1920SOL    HW1 6659   6.863   5.710   4.179
 1920SOL    HW2 6660   6.783   5.742   4.317
 1921SOL     OW 6661   1.070   7.011   6.959
 1921SOL    HW1 6662   1.102   6.937   7.018
 1921SOL    HW2 6663   1.011   6.973   6.887
 1922SOL     OW 6664   3.382   4.241   0.427
 1922SOL    HW1 6665   3.470   4.262   0.385
 1922SOL    HW2 6666   3.313   4.304   0.392
 1923SOL     OW 6667   1.723   1.782   0.847
 1923SOL    HW1 6668   1.746   1.736   0.761
 1923SOL    HW2 6669   1.794   1.849   0.869
 1924SOL     OW 6670   0.446   4.724   1.445
 1924SOL    HW1 6671   0.504   4.646   1.423
 1924SOL    HW2 6672   0.465   4.754   1.539
 1925SOL     OW 6673   3.023   4.201   0.974
 1925SOL    HW1 6674   3.046   4.105   0.991
 1925SOL    HW2 6675   2.951   4.205   0.905
 1926SOL     OW 6676   1.257   0.256   3.747
 1926SOL    HW1 6677   1.182   0.308   3.708
 1926SOL    HW2 6678   1.303   0.310   3.817
 1927SOL     OW 6679   3.937   3.012   0.040
 1927SOL    HW1 6680   4.033   3.024   0.068
 1927SOL    HW2 6681   3.895   3.102   0.028
 1928SOL     OW 6682   6.089   4.553   5.954
 1928SOL    HW1 6683   6.168   4.518   6.006
 1928SOL    HW2 6684   6.029   4.604   6.015
 1929SOL     OW 6685   1.427   6.812   1.990
 1929SOL    HW1 6686   1.416   6.910   2.010
 1929SOL    HW2 6687   1.338   6.771   1.974
 1930SOL     OW 6688   5.628   3.961   6.224
 1930SOL    HW1 6689   5.727   3.963   6.212
 1930SOL    HW2 6690   5.596   3.867   6.218
 1931SOL     OW 6691   0.235   2.398   4.763
 1931SOL    HW1 6692   0.265   2.363   4.852
 1931SOL    HW2 6693   0.235   2.498   4.766
 1932SOL     OW 6694   6.073   3.750   1.405
 1932SOL    HW1 6695   6.076   3.795   1.494
 1932SOL    HW2 6696   6.165   3.744   1.367
 1933SOL     OW 6697   3.229   4.167   1.410
 1933SOL    HW1 6698   3.235   4.257   1.453
 1933SOL    HW2 6699   3.150   4.164   1.349
 1934SOL     OW 6700   0.923   5.864   5.376
 1934SOL    HW1 6701   1.016   5.834   5.396
 1934SOL    HW2 6702   0.923   5.963   5.359
 1935SOL     OW 6703   2.261   1.335   3.583
 1935SOL    HW1 6704   2.181   1.367   3.632
 1935SOL    HW2 6705   2.233   1.286   3.500
 1936SOL     OW 6706   6.023   5.596   5.259
 1936SOL    HW1 6707   6.035   5.498   5.273
 1936SOL    HW2 6708   6.079   5.647   5.325
 1937SOL     OW 6709   3.733   6.616   1.632
 1937SOL    HW1 6710   3.824   6.575   1.644
 1937SOL    HW2 6711   3.680   6.604   1.715
 1938SOL     OW 6712   4.667   0.756   3.672
 1938SOL    HW1 6713   4.611   0.673   3.664
 1938SOL    HW2 6714   4.610   0.831   3.705
 1939SOL     OW 6715   1.922   1.067   3.505
 1939SOL    HW1 6716   1.845   1.111   3.551
 1939SOL    HW2 6717   1.911   0.968   3.511
 1940SOL     OW 6718   0.113   5.493   6.890
 1940SOL    HW1 6719   0.059   5.410   6.876
 1940SOL    HW2 6720   0.154   5.491   6.981
 1941SOL     OW 6721   4.809   4.232   2.935
 1941SOL    HW1 6722   4.809   4.262   3.030
 1941SOL    HW2 6723   4.758   4.147   2.926
 1942SOL     OW 6724   6.366   4.833   2.744
 1942SOL    HW1 6725   6.288   4.879   2.702
 1942SOL    HW2 6726   6.387   4.877   2.832
 1943SOL     OW 6727   2.680   4.993   2.739
 1943SOL    HW1 6728   2.704   5.086   2.710
 1943SOL    HW2 6729   2.663   4.992   2.837
 1944SOL     OW 6730   6.841   1.220   1.008
 1944SOL    HW1 6731   6.762   1.281   1.012
 1944SOL    HW2 6732   6.894   1.229   1.092
 1945SOL     OW 6733   3.147   4.856   4.013
 1945SOL    HW1 6734   3.105   4.870   4.103
 1945SOL    HW2 6735   3.247   4.859   4.022
 1946SOL     OW 6736   1.508   0.729   0.041
 1946SOL    HW1 6737   1.501   0.754   6.963
 1946SOL    HW2 6738   1.602   0.703   0.062
 1947SOL     OW 6739   5.844   5.470   3.498
 1947SOL    HW1 6740   5.921   5.533   3.510
 1947SOL    HW2 6741   5.839   5.409   3.577
 1948SOL     OW 6742   6.231   5.081   4.686
 1948SOL    HW1 6743   6.248   5.090   4.784
 1948SOL    HW2 6744   6.159   5.145   4.659
 1949SOL     OW 6745   4.362   4.022   6.556
 1949SOL    HW1 6746   4.435   4.087   6.578
 1949SOL    HW2 6747   4.359   4.008   6.457
 1950SOL     OW 6748   3.006   3.581   6.732
 1950SOL    HW1 6749   2.925   3.629   6.698
 1950SOL    HW2 6750   2.980   3.524   6.810
 1951SOL     OW 6751   6.328   1.672   6.980
 1951SOL    HW1 6752   6.323   1.768   7.008
 1951SOL    HW2 6753   6.236   1.636   6.968
 1952SOL     OW 6754   3.552   1.959   6.829
 1952SOL    HW1 6755   3.484   2.031   6.841
 1952SOL    HW2 6756   3.639   1.990   6.868
 1953SOL     OW 6757   7.006   2.832   6.394
 1953SOL    HW1 6758   0.035   2.815   6.480
 1953SOL    HW2 6759   6.950   2.914   6.403
 1954SOL     OW 6760   3.166   2.082   4.146
 1954SOL    HW1 6761   3.155   2.083   4.245
 1954SOL    HW2 6762   3.088   2.127   4.103
 1955SOL     OW 6763   0.365   6.633   3.100
 1955SOL    HW1 6764   0.364   6.733   3.098
 1955SOL    HW2 6765   0.389   6.602   3.191
 1956SOL     OW 6766   6.098   5.482   2.607
 1956SOL    HW1 6767   6.089   5.537   2.524
 1956SOL    HW2 6768   6.009   5.472   2.650
 1957SOL     OW 6769   0.209   6.480   5.524
 1957SOL    HW1 6770   0.110   6.488   5.509
 1957SOL    HW2 6771   0.242   6.397   5.480
 1958SOL     OW 6772   5.459   3.338   6.051
 1958SOL    HW1 6773   5.393   3.359   5.979
 1958SOL    HW2 6774   5.498   3.247   6.035
 1959SOL     OW 6775   1.399   2.184   6.242
 1959SOL    HW1 6776   1.311   2.216   6.209
 1959SOL    HW2 6777   1.472   2.227   6.189
 1960SOL     OW 6778   5.280   5.447   1.070
 1960SOL    HW1 6779   5.274   5.348   1.059
 1960SOL    HW2 6780   5.373   5.477   1.051
 1961SOL     OW 6781   5.746   4.280   3.735
 1961SOL    HW1 6782   5.685   4.289   3.814
 1961SOL    HW2 6783   5.763   4.184   3.717
 1962SOL     OW 6784   1.025   6.491   3.929
 1962SOL    HW1 6785   1.031   6.426   3.853
 1962SOL    HW2 6786   1.065   6.450   4.011
 1963SOL     OW 6787   1.029   0.350   2.972
 1963SOL    HW1 6788   0.961   0.301   3.026
 1963SOL    HW2 6789   1.065   0.427   3.025
 1964SOL     OW 6790   5.148   3.442   2.955
 1964SOL    HW1 6791   5.169   3.516   3.018
 1964SOL    HW2 6792   5.180   3.466   2.863
 1965SOL     OW 6793   1.414   3.999   3.274
 1965SOL    HW1 6794   1.445   4.010   3.369
 1965SOL    HW2 6795   1.427   3.904   3.246
 1966SOL     OW 6796   6.377   5.198   5.415
 1966SOL    HW1 6797   6.395   5.220   5.511
 1966SOL    HW2 6798   6.438   5.252   5.357
 1967SOL     OW 6799   4.788   2.958   5.337
 1967SOL    HW1 6800   4.790   2.886   5.267
 1967SOL    HW2 6801   4.738   2.926   5.417
 1968SOL     OW 6802   3.487   6.055   6.341
 1968SOL    HW1 6803   3.438   6.139   6.317
 1968SOL    HW2 6804   3.422   5.978   6.344
 1969SOL     OW 6805   0.351   2.402   1.157
 1969SOL    HW1 6806   0.445   2.390   1.186
 1969SOL    HW2 6807   0.312   2.484   1.198
 1970SOL     OW 6808   1.761   0.907   4.248
 1970SOL    HW1 6809   1.747   0.863   4.336
 1970SOL    HW2 6810   1.673   0.939   4.212
 1971SOL     OW 6811   0.135   6.741   6.626
 1971SOL    HW1 6812   0.198   6.742   6.549
 1971SOL    HW2 6813   0.073   6.819   6.620
 1972SOL     OW 6814   0.644   4.543   3.869
 1972SOL    HW1 6815   0.670   4.465   3.926
 1972SOL    HW2 6816   0.696   4.542   3.784
 1973SOL     OW 6817   3.255   3.336   1.649
 1973SOL    HW1 6818   3.260   3.243   1.687
 1973SOL    HW2 6819   3.173   3.344   1.593
 1974SOL     OW 6820   5.292   0.563   3.904
 1974SOL    HW1 6821   5.366   0.496   3.897
 1974SOL    HW2 6822   5.309   0.625   3.981
 1975SOL     OW 6823   3.403   0.273   4.255
 1975SOL    HW1 6824   3.392   0.191   4.199
 1975SOL    HW2 6825   3.336   0.342   4.225
 1976SOL     OW 6826   0.297   5.600   0.465
 1976SOL    HW1 6827   0.236   5.625   0.540
 1976SOL    HW2 6828   0.287   5.666   0.391
 1977SOL     OW 6829   1.098   2.226   4.767
 1977SOL    HW1 6830   1.082   2.133   4.735
 1977SOL    HW2 6831   1.015   2.281   4.755
 1978SOL     OW 6832   6.294   1.787   4.055
 1978SOL    HW1 6833   6.287   1.865   4.117
 1978SOL    HW2 6834   6.390   1.760   4.045
 1979SOL     OW 6835   6.247   4.599   4.033
 1979SOL    HW1 6836   6.281   4.510   4.064
 1979SOL    HW2 6837   6.236   4.660   4.111
 1980SOL     OW 6838   4.071   0.445   1.320
 1980SOL    HW1 6839   4.133   0.515   1.353
 1980SOL    HW2 6840   4.083   0.433   1.221
 1981SOL     OW 6841   5.033   2.978   1.978
 1981SOL    HW1 6842   5.023   2.926   1.893
 1981SOL    HW2 6843   4.946   3.019   2.003
 1982SOL     OW 6844   5.999   5.781   4.545
 1982SOL    HW1 6845   6.046   5.693   4.540
 1982SOL    HW2 6846   5.906   5.771   4.510
 1983SOL     OW 6847   1.081   3.593   3.314
 1983SOL    HW1 6848   1.064   3.527   3.241
 1983SOL    HW2 6849   1.175   3.584   3.345
 1984SOL     OW 6850   4.178   1.757   6.600
 1984SOL    HW1 6851   4.079   1.755   6.584
 1984SOL    HW2 6852   4.226   1.748   6.513
 1985SOL     OW 6853   1.403   0.703   1.691
 1985SOL    HW1 6854   1.497   0.702   1.726
 1985SOL    HW2 6855   1.392   0.630   1.623
 1986SOL     OW 6856   1.713   1.690   6.448
 1986SOL    HW1 6857   1.771   1.653   6.520
 1986SOL    HW2 6858   1.758   1.679   6.359
 1987SOL     OW 6859   2.503   3.586   0.640
 1987SOL    HW1 6860   2.407   3.607   0.655
 1987SOL    HW2 6861   2.529   3.507   0.696
 1988SOL     OW 6862   4.464   3.967   0.608
 1988SOL    HW1 6863   4.503   3.879   0.579
 1988SOL    HW2 6864   4.511   3.999   0.690
 1989SOL     OW 6865   2.397   0.271   3.959
 1989SOL    HW1 6866   2.491   0.303   3.954
 1989SOL    HW2 6867   2.353   0.282   3.870
 1990SOL     OW 6868   3.219   0.674   1.373
 1990SOL    HW1 6869   3.279   0.743   1.412
 1990SOL    HW2 6870   3.245   0.584   1.407
 1991SOL     OW 6871   3.027   5.397   4.165
 1991SOL    HW1 6872   2.941   5.360   4.131
 1991SOL    HW2 6873   3.016   5.495   4.183
 1992SOL     OW 6874   2.253   6.385   5.725
 1992SOL    HW1 6875   2.158   6.404   5.750
 1992SOL    HW2 6876   2.314   6.426   5.793
 1993SOL     OW 6877   3.892   3.502   5.777
 1993SOL    HW1 6878   3.949   3.495   5.858
 1993SOL    HW2 6879   3.810   3.556   5.798
 1994SOL     OW 6880   6.405   2.219   2.342
 1994SOL    HW1 6881   6.324   2.160   2.339
 1994SOL    HW2 6882   6.479   2.176   2.289
 1995SOL     OW 6883   5.709   2.048   1.907
 1995SOL    HW1 6884   5.765   2.105   1.847
 1995SOL    HW2 6885   5.640   2.000   1.852
 1996SOL     OW 6886   3.499   4.197   6.908
 1996SOL    HW1 6887   3.575   4.262   6.910
 1996SOL    HW2 6888   3.424   4.235   6.854
 1997SOL     OW 6889   5.006   0.518   3.850
 1997SOL    HW1 6890   4.988   0.482   3.759
 1997SOL    HW2 6891   5.104   0.523   3.866
 1998SOL     OW 6892   2.894   4.315   5.660
 1998SOL    HW1 6893   2.975   4.319   5.602
 1998SOL    HW2 6894   2.841   4.233   5.638
 1999SOL     OW 6895   2.310   6.964   2.477
 1999SOL    HW1 6896   2.407   6.983   2.464
 1999SOL    HW2 6897   2.264   0.028   2.509
 2000SOL     OW 6898   4.110   1.400   4.980
 2000SOL    HW1 6899   4.098   1.303   4.956
 2000SOL    HW2 6900   4.020   1.441   4.996
 2001SOL     OW 6901   2.813   1.106   1.166
 2001SOL    HW1 6902   2.877   1.124   1.240
 2001SOL    HW2 6903   2.802   1.188   1.110
 2002SOL     OW 6904   1.915   5.382   5.647
 2002SOL    HW1 6905   2.009   5.409   5.666
 2002SOL    HW2 6906   1.853   5.457   5.670
 2003SOL     OW 6907   5.811   5.971   3.589
 2003SOL    HW1 6908   5.884   5.905   3.609
 2003SOL    HW2 6909   5.817   5.999   3.494
 2004SOL     OW 6910   3.099   0.842   5.775
 2004SOL    HW1 6911   3.096   0.933   5.817
 2004SOL    HW2 6912   3.143   0.777   5.838
 2005SOL     OW 6913   1.854   5.788   5.524
 2005SOL    HW1 6914   1.884   5.705   5.478
 2005SOL    HW2 6915   1.818   5.852   5.456
 2006SOL     OW 6916   4.079   5.369   4.219
 2006SOL    HW1 6917   4.027   5.431   4.277
 2006SOL    HW2 6918   4.157   5.332   4.270
 2007SOL     OW 6919   5.195   5.662   0.884
 2007SOL    HW1 6920   5.201   5.607   0.967
 2007SOL    HW2 6921   5.139   5.614   0.816
 2008SOL     OW 6922   6.736   6.223   3.740
 2008SOL    HW1 6923   6.763   6.132   3.771
 2008SOL    HW2 6924   6.680   6.215   3.658
 2009SOL     OW 6925   6.882   0.276   1.821
 2009SOL    HW1 6926   6.831   0.357   1.853
 2009SOL    HW2 6927   6.878   0.205   1.890
 2010SOL     OW 6928   0.754   0.135   0.484
 2010SOL    HW1 6929   0.664   0.112   0.448
 2010SOL    HW2 6930   0.755   0.232   0.510
 2011SOL     OW 6931   6.763   1.841   4.761
 2011SOL    HW1 6932   6.853   1.867   4.726
 2011SOL    HW2 6933   6.713   1.922   4.789
 2012SOL     OW 6934   1.789   4.354   0.684
 2012SOL    HW1 6935   1.829   4.433   0.731
 2012SOL    HW2 6936   1.838   4.271   0.711
 2013SOL     OW 6937   5.769   1.896   2.460
 2013SOL    HW1 6938   5.794   1.821   2.399
 2013SOL    HW2 6939   5.670   1.894   2.478
 2014SOL     OW 6940   1.914   5.400   3.415
 2014SOL    HW1 6941   1.972   5.479   3.399
 2014SOL    HW2 6942   1.956   5.341   3.484
 2015SOL     OW 6943   3.258   0.424   0.131
 2015SOL    HW1 6944   3.222   0.448   0.041
 2015SOL    HW2 6945   3.186   0.380   0.185
 2016SOL     OW 6946   0.728   5.644   4.365
 2016SOL    HW1 6947   0.696   5.550   4.376
 2016SOL    HW2 6948   0.827   5.645   4.352
 2017SOL     OW 6949   2.809   5.825   3.222
 2017SOL    HW1 6950   2.748   5.903   3.207
 2017SOL    HW2 6951   2.775   5.770   3.297
 2018SOL     OW 6952   0.536   5.310   5.804
 2018SOL    HW1 6953   0.472   5.386   5.811
 2018SOL    HW2 6954   0.585   5.299   5.890
 2019SOL     OW 6955   5.972   2.148   2.113
 2019SOL    HW1 6956   5.952   2.051   2.132
 2019SOL    HW2 6957   5.887   2.195   2.089
 2020SOL     OW 6958   2.306   5.497   3.074
 2020SOL    HW1 6959   2.229   5.465   3.019
 2020SOL    HW2 6960   2.386   5.440   3.055
 2021SOL     OW 6961   1.856   0.688   2.514
 2021SOL    HW1 6962   1.809   0.765   2.558
 2021SOL    HW2 6963   1.860   0.703   2.416
 2022SOL     OW 6964   2.377   3.625   1.642
 2022SOL    HW1 6965   2.334   3.713   1.665
 2022SOL    HW2 6966   2.392   3.573   1.726
 2023SOL     OW 6967   6.596   0.788   5.941
 2023SOL    HW1 6968   6.631   0.726   6.011
 2023SOL    HW2 6969   6.569   0.874   5.983
 2024SOL     OW 6970   5.765   0.970   3.482
 2024SOL    HW1 6971   5.826   0.894   3.506
 2024SOL    HW2 6972   5.820   1.052   3.467
 2025SOL     OW 6973   0.307   1.499   2.151
 2025SOL    HW1 6974   0.290   1.402   2.170
 2025SOL    HW2 6975   0.309   1.550   2.237
 2026SOL     OW 6976   2.355   1.715   5.479
 2026SOL    HW1 6977   2.266   1.761   5.484
 2026SOL    HW2 6978   2.341   1.620   5.450
 2027SOL     OW 6979   1.340   1.255   2.451
 2027SOL    HW1 6980   1.351   1.330   2.515
 2027SOL    HW2 6981   1.274   1.189   2.487
 2028SOL     OW 6982   3.633   2.578   0.345
 2028SOL    HW1 6983   3.650   2.480   0.334
 2028SOL    HW2 6984   3.694   2.630   0.285
 2029SOL     OW 6985   0.671   1.326   6.848
 2029SOL    HW1 6986   0.738   1.301   6.919
 2029SOL    HW2 6987   0.651   1.424   6.854
 2030SOL     OW 6988   2.016   2.128   3.466
 2030SOL    HW1 6989   2.079   2.108   3.542
 2030SOL    HW2 6990   2.067   2.168   3.390
 2031SOL     OW 6991   5.564   6.724   1.886
 2031SOL    HW1 6992   5.645   6.672   1.913
 2031SOL    HW2 6993   5.590   6.795   1.821
 2032SOL     OW 6994   4.667   5.985   0.982
 2032SOL    HW1 6995   4.692   5.909   0.922
 2032SOL    HW2 6996   4.750   6.023   1.024
 2033SOL     OW 6997   5.182   4.706   6.596
 2033SOL    HW1 6998   5.115   4.775   6.621
 2033SOL    HW2 6999   5.136   4.628   6.554
 2034SOL     OW 7000   2.029   6.984   3.180
 2034SOL    HW1 7001   2.004   0.054   3.219
 2034SOL    HW2 7002   2.102   6.997   3.112
 2035SOL     OW 7003   0.628   1.818   2.338
 2035SOL    HW1 7004   0.722   1.820   2.370
 2035SOL    HW2 7005   0.574   1.756   2.394
 2036SOL     OW 7006   0.725   5.334   0.716
 2036SOL    HW1 7007   0.717   5.292   0.807
 2036SOL    HW2 7008   0.634   5.349   0.678
 2037SOL     OW 7009   6.967   2.261   5.731
 2037SOL    HW1 7010   0.034   2.221   5.700
 2037SOL    HW2 7011   6.894   2.236   5.667
 2038SOL     OW 7012   0.288   1.278   4.495
 2038SOL    HW1 7013   0.346   1.359   4.503
 2038SOL    HW2 7014   0.221   1.279   4.570
 2039SOL     OW 7015   6.951   5.781   3.210
 2039SOL    HW1 7016   6.968   5.687   3.181
 2039SOL    HW2 7017   6.916   5.835   3.134
 2040SOL     OW 7018   4.099   3.342   4.595
 2040SOL    HW1 7019   4.143   3.365   4.508
 2040SOL    HW2 7020   4.056   3.424   4.633
 2041SOL     OW 7021   5.824   4.875   5.471
 2041SOL    HW1 7022   5.757   4.909   5.537
 2041SOL    HW2 7023   5.789   4.792   5.428
 2042SOL     OW 7024   4.701   5.397   0.251
 2042SOL    HW1 7025   4.717   5.437   0.341
 2042SOL    HW2 7026   4.603   5.381   0.239
 2043SOL     OW 7027   5.580   4.299   2.087
 2043SOL    HW1 7028   5.643   4.222   2.078
 2043SOL    HW2 7029   5.608   4.357   2.164
 2044SOL     OW 7030   6.121   0.118   1.608
 2044SOL    HW1 7031   6.190   0.083   1.671
 2044SOL    HW2 7032   6.165   0.169   1.535
 2045SOL     OW 7033   2.358   4.696   5.664
 2045SOL    HW1 7034   2.261   4.685   5.642
 2045SOL    HW2 7035   2.393   4.612   5.706
 2046SOL     OW 7036   6.161   0.192   4.185
 2046SOL    HW1 7037   6.100   0.250   4.239
 2046SOL    HW2 7038   6.163   0.224   4.090
 2047SOL     OW 7039   5.164   2.535   0.668
 2047SOL    HW1 7040   5.094   2.491   0.612
 2047SOL    HW2 7041   5.148   2.634   0.669
 2048SOL     OW 7042   4.499   0.775   6.569
 2048SOL    HW1 7043   4.504   0.710   6.644
 2048SOL    HW2 7044   4.582   0.831   6.567
 2049SOL     OW 7045   4.116   1.533   0.344
 2049SOL    HW1 7046   4.125   1.500   0.250
 2049SOL    HW2 7047   4.164   1.620   0.353
 2050SOL     OW 7048   6.138   3.053   4.133
 2050SOL    HW1 7049   6.050   3.095   4.110
 2050SOL    HW2 7050   6.128   2.998   4.216
 2051SOL     OW 7051   1.371   6.072   0.244
 2051SOL    HW1 7052   1.316   6.053   0.163
 2051SOL    HW2 7053   1.324   6.140   0.301
 2052SOL     OW 7054   1.130   2.804   6.543
 2052SOL    HW1 7055   1.075   2.793   6.460
 2052SOL    HW2 7056   1.088   2.752   6.618
 2053SOL     OW 7057   6.193   0.928   6.827
 2053SOL    HW1 7058   6.103   0.929   6.783
 2053SOL    HW2 7059   6.228   0.835   6.831
 2054SOL     OW 7060   5.544   2.346   0.455
 2054SOL    HW1 7061   5.580   2.254   0.471
 2054SOL    HW2 7062   5.604   2.414   0.499
 2055SOL     OW 7063   5.326   2.398   3.613
 2055SOL    HW1 7064   5.395   2.348   3.666
 2055SOL    HW2 7065   5.286   2.470   3.669
 2056SOL     OW 7066   2.149   1.079   3.128
 2056SOL    HW1 7067   2.227   1.039   3.177
 2056SOL    HW2 7068   2.065   1.035   3.158
 2057SOL     OW 7069   6.478   2.940   4.174
 2057SOL    HW1 7070   6.401   2.935   4.111
 2057SOL    HW2 7071   6.508   3.035   4.183
 2058SOL     OW 7072   6.871   2.166   2.711
 2058SOL    HW1 7073   6.947   2.206   2.660
 2058SOL    HW2 7074   6.906   2.096   2.773
 2059SOL     OW 7075   2.227   1.224   0.103
 2059SOL    HW1 7076   2.200   1.173   0.021
 2059SOL    HW2 7077   2.315   1.269   0.086
 2060SOL     OW 7078   0.012   4.547   1.941
 2060SOL    HW1 7079   0.091   4.549   1.880
 2060SOL    HW2 7080   0.002   4.456   1.981
 2061SOL     OW 7081   6.850   1.386   2.335
 2061SOL    HW1 7082   6.831   1.326   2.257
 2061SOL    HW2 7083   6.922   1.450   2.311
 2062SOL     OW 7084   4.740   0.332   2.491
 2062SOL    HW1 7085   4.752   0.373   2.401
 2062SOL    HW2 7086   4.819   0.354   2.548
 2063SOL     OW 7087   1.685   3.099   6.323
 2063SOL    HW1 7088   1.747   3.174   6.299
 2063SOL    HW2 7089   1.601   3.107   6.269
 2064SOL     OW 7090   0.825   2.289   6.220
 2064SOL    HW1 7091   0.734   2.278   6.259
 2064SOL    HW2 7092   0.893   2.293   6.294
 2065SOL     OW 7093   6.190   3.658   2.271
 2065SOL    HW1 7094   6.118   3.688   2.333
 2065SOL    HW2 7095   6.162   3.574   2.224
 2066SOL     OW 7096   0.016   6.861   4.946
 2066SOL    HW1 7097   0.075   6.935   4.978
 2066SOL    HW2 7098   0.051   6.826   4.859
 2067SOL     OW 7099   5.976   6.642   0.718
 2067SOL    HW1 7100   5.949   6.739   0.718
 2067SOL    HW2 7101   6.074   6.635   0.696
 2068SOL     OW 7102   2.146   1.488   5.582
 2068SOL    HW1 7103   2.192   1.496   5.493
 2068SOL    HW2 7104   2.211   1.510   5.655
 2069SOL     OW 7105   1.026   2.952   2.200
 2069SOL    HW1 7106   1.006   2.885   2.272
 2069SOL    HW2 7107   1.123   2.950   2.178
 2070SOL     OW 7108   1.397   1.444   2.628
 2070SOL    HW1 7109   1.345   1.477   2.707
 2070SOL    HW2 7110   1.487   1.413   2.657
 2071SOL     OW 7111   0.396   6.851   4.089
 2071SOL    HW1 7112   0.470   6.917   4.096
 2071SOL    HW2 7113   0.424   6.775   4.031
 2072SOL     OW 7114   4.811   6.182   1.772
 2072SOL    HW1 7115   4.825   6.083   1.761
 2072SOL    HW2 7116   4.755   6.216   1.697
 2073SOL     OW 7117   3.228   6.676   5.645
 2073SOL    HW1 7118   3.242   6.580   5.619
 2073SOL    HW2 7119   3.131   6.699   5.638
 2074SOL     OW 7120   6.660   1.435   1.038
 2074SOL    HW1 7121   6.586   1.474   1.094
 2074SOL    HW2 7122   6.747   1.471   1.070
 2075SOL     OW 7123   4.106   3.120   0.669
 2075SOL    HW1 7124   4.206   3.108   0.671
 2075SOL    HW2 7125   4.062   3.034   0.694
 2076SOL     OW 7126   5.084   5.986   0.683
 2076SOL    HW1 7127   5.162   6.006   0.623
 2076SOL    HW2 7128   5.026   6.067   0.690
 2077SOL     OW 7129   5.909   1.841   2.696
 2077SOL    HW1 7130   5.844   1.835   2.772
 2077SOL    HW2 7131   5.862   1.872   2.614
 2078SOL     OW 7132   2.985   5.311   6.376
 2078SOL    HW1 7133   2.934   5.243   6.324
 2078SOL    HW2 7134   2.949   5.402   6.356
 2079SOL     OW 7135   5.909   1.193   3.382
 2079SOL    HW1 7136   6.002   1.171   3.351
 2079SOL    HW2 7137   5.905   1.288   3.412
 2080SOL     OW 7138   2.732   2.255   5.090
 2080SOL    HW1 7139   2.704   2.351   5.096
 2080SOL    HW2 7140   2.828   2.250   5.064
 2081SOL     OW 7141   1.429   6.461   4.895
 2081SOL    HW1 7142   1.481   6.435   4.977
 2081SOL    HW2 7143   1.373   6.383   4.865
 2082SOL     OW 7144   5.655   0.931   0.718
 2082SOL    HW1 7145   5.688   1.019   0.753
 2082SOL    HW2 7146   5.697   0.912   0.629
 2083SOL     OW 7147   3.616   4.950   6.435
 2083SOL    HW1 7148   3.673   4.914   6.361
 2083SOL    HW2 7149   3.587   5.043   6.412
 2084SOL     OW 7150   0.115   2.461   3.077
 2084SOL    HW1 7151   0.028   2.444   3.031
 2084SOL    HW2 7152   0.141   2.381   3.130
 2085SOL     OW 7153   4.731   0.685   5.766
 2085SOL    HW1 7154   4.814   0.740   5.750
 2085SOL    HW2 7155   4.681   0.721   5.844
 2086SOL     OW 7156   3.262   4.819   0.080
 2086SOL    HW1 7157   3.189   4.874   0.039
 2086SOL    HW2 7158   3.349   4.867   0.071
 2087SOL     OW 7159   5.849   0.018   2.485
 2087SOL    HW1 7160   5.935   6.986   2.491
 2087SOL    HW2 7161   5.861   0.109   2.524
 2088SOL     OW 7162   3.312   6.452   0.905
 2088SOL    HW1 7163   3.251   6.510   0.960
 2088SOL    HW2 7164   3.407   6.472   0.929
 2089SOL     OW 7165   5.148   1.465   6.897
 2089SOL    HW1 7166   5.189   1.424   6.978
 2089SOL    HW2 7167   5.194   1.553   6.878
 2090SOL     OW 7168   3.758   3.478   4.641
 2090SOL    HW1 7169   3.825   3.539   4.685
 2090SOL    HW2 7170   3.747   3.396   4.697
 2091SOL     OW 7171   0.435   5.812   0.622
 2091SOL    HW1 7172   0.438   5.714   0.603
 2091SOL    HW2 7173   0.375   5.829   0.700
 2092SOL     OW 7174   6.223   6.357   1.180
 2092SOL    HW1 7175   6.304   6.411   1.201
 2092SOL    HW2 7176   6.163   6.410   1.119
 2093SOL     OW 7177   1.145   2.932   1.721
 2093SOL    HW1 7178   1.190   2.847   1.749
 2093SOL    HW2 7179   1.208   3.008   1.733
 2094SOL     OW 7180   6.044   0.089   1.940
 2094SOL    HW1 7181   5.995   0.016   1.892
 2094SOL    HW2 7182   5.986   0.129   2.010
 2095SOL     OW 7183   5.971   5.912   4.018
 2095SOL    HW1 7184   5.953   6.001   4.062
 2095SOL    HW2 7185   6.046   5.866   4.066
 2096SOL     OW 7186   4.761   4.029   2.658
 2096SOL    HW1 7187   4.719   4.120   2.657
 2096SOL    HW2 7188   4.756   3.988   2.567
 2097SOL     OW 7189   0.092   2.466   0.098
 2097SOL    HW1 7190   0.138   2.383   0.130
 2097SOL    HW2 7191   0.027   2.443   0.027
 2098SOL     OW 7192   4.238   6.795   3.783
 2098SOL    HW1 7193   4.233   6.697   3.802
 2098SOL    HW2 7194   4.321   6.815   3.731
 2099SOL     OW 7195   2.690   1.202   4.648
 2099SOL    HW1 7196   2.754   1.155   4.709
 2099SOL    HW2 7197   2.706   1.300   4.651
 2100SOL     OW 7198   4.264   3.993   6.951
 2100SOL    HW1 7199   4.359   4.016   6.928
 2100SOL    HW2 7200   4.209   3.990   6.868
 2101SOL     OW 7201   0.332   0.486   3.091
 2101SOL    HW1 7202   0.340   0.400   3.041
 2101SOL    HW2 7203   0.420   0.510   3.131
 2102SOL     OW 7204   0.281   5.504   2.721
 2102SOL    HW1 7205   0.295   5.601   2.698
 2102SOL    HW2 7206   0.358   5.471   2.775
 2103SOL     OW 7207   3.189   3.111   7.005
 2103SOL    HW1 7208   3.254   3.097   0.061
 2103SOL    HW2 7209   3.145   3.025   6.982
 2104SOL     OW 7210   1.698   3.394   5.667
 2104SOL    HW1 7211   1.765   3.459   5.633
 2104SOL    HW2 7212   1.744   3.323   5.720
 2105SOL     OW 7213   5.391   4.962   3.079
 2105SOL    HW1 7214   5.448   5.014   3.015
 2105SOL    HW2 7215   5.301   4.946   3.038
 2106SOL     OW 7216   4.513   5.662   6.698
 2106SOL    HW1 7217   4.457   5.711   6.632
 2106SOL    HW2 7218   4.459   5.645   6.781
 2107SOL     OW 7219   3.915   4.244   5.616
 2107SOL    HW1 7220   3.841   4.184   5.584
 2107SOL    HW2 7221   3.975   4.267   5.539
 2108SOL     OW 7222   6.017   5.434   5.970
 2108SOL    HW1 7223   6.032   5.520   5.921
 2108SOL    HW2 7224   5.943   5.383   5.925
 2109SOL     OW 7225   5.941   5.845   2.763
 2109SOL    HW1 7226   5.948   5.818   2.667
 2109SOL    HW2 7227   5.980   5.936   2.775
 2110SOL     OW 7228   2.742   4.331   6.274
 2110SOL    HW1 7229   2.663   4.391   6.259
 2110SOL    HW2 7230   2.808   4.378   6.333
 2111SOL     OW 7231   1.014   2.650   6.262
 2111SOL    HW1 7232   1.048   2.584   6.195
 2111SOL    HW2 7233   0.962   2.602   6.333
 2112SOL     OW 7234   4.565   2.568   1.578
 2112SOL    HW1 7235   4.488   2.547   1.518
 2112SOL    HW2 7236   4.650   2.538   1.535
 2113SOL     OW 7237   1.337   0.312   2.801
 2113SOL    HW1 7238   1.270   0.339   2.870
 2113SOL    HW2 7239   1.334   0.377   2.725
 2114SOL     OW 7240   1.313   4.325   0.190
 2114SOL    HW1 7241   1.218   4.341   0.164
 2114SOL    HW2 7242   1.340   4.391   0.260
 2115SOL     OW 7243   2.025   4.891   2.705
 2115SOL    HW1 7244   1.990   4.951   2.633
 2115SOL    HW2 7245   2.006   4.932   2.795
 2116SOL     OW 7246   0.069   3.741   2.542
 2116SOL    HW1 7247   6.991   3.761   2.556
 2116SOL    HW2 7248   0.122   3.826   2.550
 2117SOL     OW 7249   0.161   4.524   1.521
 2117SOL    HW1 7250   0.195   4.456   1.457
 2117SOL    HW2 7251   0.063   4.513   1.533
 2118SOL     OW 7252   6.755   3.787   2.663
 2118SOL    HW1 7253   6.693   3.775   2.585
 2118SOL    HW2 7254   6.766   3.700   2.710
 2119SOL     OW 7255   2.343   5.891   1.417
 2119SOL    HW1 7256   2.291   5.955   1.473
 2119SOL    HW2 7257   2.293   5.805   1.409
 2120SOL     OW 7258   6.055   4.501   1.837
 2120SOL    HW1 7259   5.962   4.465   1.830
 2120SOL    HW2 7260   6.112   4.459   1.767
 2121SOL     OW 7261   0.457   5.098   5.255
 2121SOL    HW1 7262   0.504   5.018   5.217
 2121SOL    HW2 7263   0.438   5.083   5.351
 2122SOL     OW 7264   5.170   4.517   5.202
 2122SOL    HW1 7265   5.239   4.446   5.190
 2122SOL    HW2 7266   5.173   4.550   5.296
 2123SOL     OW 7267   6.860   4.604   2.536
 2123SOL    HW1 7268   6.905   4.693   2.543
 2123SOL    HW2 7269   6.860   4.574   2.441
 2124SOL     OW 7270   2.089   1.524   1.357
 2124SOL    HW1 7271   2.005   1.579   1.361
 2124SOL    HW2 7272   2.067   1.431   1.329
 2125SOL     OW 7273   2.216   0.838   0.182
 2125SOL    HW1 7274   2.165   0.922   0.194
 2125SOL    HW2 7275   2.201   0.778   0.261
 2126SOL     OW 7276   2.897   0.724   6.854
 2126SOL    HW1 7277   2.892   0.791   6.780
 2126SOL    HW2 7278   2.834   0.750   6.927
 2127SOL     OW 7279   5.881   3.101   4.403
 2127SOL    HW1 7280   5.933   3.016   4.408
 2127SOL    HW2 7281   5.915   3.156   4.327
 2128SOL     OW 7282   0.546   4.482   4.911
 2128SOL    HW1 7283   0.461   4.431   4.902
 2128SOL    HW2 7284   0.623   4.425   4.880
 2129SOL     OW 7285   4.773   3.250   5.347
 2129SOL    HW1 7286   4.769   3.155   5.376
 2129SOL    HW2 7287   4.680   3.288   5.342
 2130SOL     OW 7288   4.981   6.998   2.576
 2130SOL    HW1 7289   5.000   6.953   2.489
 2130SOL    HW2 7290   4.887   6.980   2.604
 2131SOL     OW 7291   0.187   0.563   0.764
 2131SOL    HW1 7292   0.113   0.619   0.800
 2131SOL    HW2 7293   0.269   0.619   0.753
 2132SOL     OW 7294   2.815   2.932   1.222
 2132SOL    HW1 7295   2.783   2.855   1.168
 2132SOL    HW2 7296   2.901   2.908   1.267
 2133SOL     OW 7297   3.204   2.266   6.263
 2133SOL    HW1 7298   3.205   2.241   6.360
 2133SOL    HW2 7299   3.293   2.246   6.222
 2134SOL     OW 7300   6.887   1.531   1.152
 2134SOL    HW1 7301   6.961   1.497   1.096
 2134SOL    HW2 7302   6.895   1.494   1.245
 2135SOL     OW 7303   1.156   3.954   4.642
 2135SOL    HW1 7304   1.238   4.012   4.645
 2135SOL    HW2 7305   1.089   3.994   4.579
 2136SOL     OW 7306   2.468   5.288   1.930
 2136SOL    HW1 7307   2.566   5.307   1.942
 2136SOL    HW2 7308   2.453   5.250   1.839
 2137SOL     OW 7309   3.283   5.554   4.933
 2137SOL    HW1 7310   3.351   5.618   4.897
 2137SOL    HW2 7311   3.203   5.604   4.965
 2138SOL     OW 7312   6.115   1.416   2.606
 2138SOL    HW1 7313   6.212   1.396   2.597
 2138SOL    HW2 7314   6.070   1.407   2.517
 2139SOL     OW 7315   3.393   0.628   5.512
 2139SOL    HW1 7316   3.305   0.675   5.509
 2139SOL    HW2 7317   3.401   0.566   5.434
 2140SOL     OW 7318   2.737   0.793   4.663
 2140SOL    HW1 7319   2.672   0.772   4.590
 2140SOL    HW2 7320   2.793   0.713   4.682
 2141SOL     OW 7321   6.015   4.368   2.131
 2141SOL    HW1 7322   6.051   4.382   2.038
 2141SOL    HW2 7323   6.018   4.454   2.181
 2142SOL     OW 7324   1.893   2.884   3.575
 2142SOL    HW1 7325   1.979   2.834   3.583
 2142SOL    HW2 7326   1.829   2.831   3.520
 2143SOL     OW 7327   2.526   4.913   1.459
 2143SOL    HW1 7328   2.468   4.832   1.462
 2143SOL    HW2 7329   2.622   4.886   1.457
 2144SOL     OW 7330   6.521   5.608   4.148
 2144SOL    HW1 7331   6.501   5.680   4.082
 2144SOL    HW2 7332   6.615   5.619   4.182
 2145SOL     OW 7333   4.208   6.662   4.204
 2145SOL    HW1 7334   4.291   6.709   4.234
 2145SOL    HW2 7335   4.198   6.575   4.253
 2146SOL     OW 7336   2.675   3.080   0.984
 2146SOL    HW1 7337   2.688   3.037   1.074
 2146SOL    HW2 7338   2.577   3.090   0.966
 2147SOL     OW 7339   6.653   1.652   5.694
 2147SOL    HW1 7340   6.572   1.667   5.636
 2147SOL    HW2 7341   6.656   1.556   5.722
 2148SOL     OW 7342   7.006   3.336   6.729
 2148SOL    HW1 7343   6.912   3.364   6.710
 2148SOL    HW2 7344   0.043   3.351   6.648
 2149SOL     OW 7345   0.700   0.229   0.123
 2149SOL    HW1 7346   0.676   0.233   0.026
 2149SOL    HW2 7347   0.650   0.301   0.173
 2150SOL     OW 7348   2.483   2.880   1.730
 2150SOL    HW1 7349   2.389   2.907   1.708
 2150SOL    HW2 7350   2.481   2.810   1.802
 2151SOL     OW 7351   0.776   6.484   0.076
 2151SOL    HW1 7352   0.815   6.508   7.006
 2151SOL    HW2 7353   0.690   6.533   0.089
 2152SOL     OW 7354   3.977   6.122   2.199
 2152SOL    HW1 7355   4.018   6.122   2.291
 2152SOL    HW2 7356   4.040   6.078   2.135
 2153SOL     OW 7357   4.500   1.137   2.626
 2153SOL    HW1 7358   4.451   1.178   2.703
 2153SOL    HW2 7359   4.492   1.198   2.546
 2154SOL     OW 7360   3.566   6.572   3.458
 2154SOL    HW1 7361   3.546   6.589   3.361
 2154SOL    HW2 7362   3.517   6.639   3.514
 2155SOL     OW 7363   4.299   6.477   0.313
 2155SOL    HW1 7364   4.339   6.406   0.254
 2155SOL    HW2 7365   4.204   6.492   0.287
 2156SOL     OW 7366   5.253   1.536   4.053
 2156SOL    HW1 7367   5.294   1.602   4.116
 2156SOL    HW2 7368   5.303   1.536   3.967
 2157SOL     OW 7369   4.305   4.873   3.870
 2157SOL    HW1 7370   4.323   4.964   3.908
 2157SOL    HW2 7371   4.207   4.863   3.852
 2158SOL     OW 7372   3.190   0.413   0.663
 2158SOL    HW1 7373   3.232   0.461   0.586
 2158SOL    HW2 7374   3.196   0.314   0.648
 2159SOL     OW 7375   1.667   0.385   6.093
 2159SOL    HW1 7376   1.619   0.460   6.138
 2159SOL    HW2 7377   1.622   0.299   6.114
 2160SOL     OW 7378   4.903   6.140   0.232
 2160SOL    HW1 7379   4.853   6.150   0.146
 2160SOL    HW2 7380   4.862   6.067   0.286
 2161SOL     OW 7381   1.307   4.035   2.358
 2161SOL    HW1 7382   1.348   3.946   2.338
 2161SOL    HW2 7383   1.238   4.025   2.429
 2162SOL     OW 7384   1.679   6.914   3.369
 2162SOL    HW1 7385   1.753   6.854   3.398
 2162SOL    HW2 7386   1.603   6.858   3.335
 2163SOL     OW 7387   1.408   3.404   0.901
 2163SOL    HW1 7388   1.340   3.434   0.969
 2163SOL    HW2 7389   1.400   3.305   0.888
 2164SOL     OW 7390   2.198   2.860   1.392
 2164SOL    HW1 7391   2.249   2.783   1.353
 2164SOL    HW2 7392   2.256   2.941   1.393
 2165SOL     OW 7393   0.074   2.028   3.788
 2165SOL    HW1 7394   6.995   2.035   3.803
 2165SOL    HW2 7395   0.102   2.088   3.714
 2166SOL     OW 7396   0.685   4.358   3.561
 2166SOL    HW1 7397   0.672   4.316   3.651
 2166SOL    HW2 7398   0.778   4.337   3.529
 2167SOL     OW 7399   1.802   2.765   3.972
 2167SOL    HW1 7400   1.762   2.837   3.917
 2167SOL    HW2 7401   1.734   2.731   4.038
 2168SOL     OW 7402   1.530   2.279   3.153
 2168SOL    HW1 7403   1.481   2.328   3.225
 2168SOL    HW2 7404   1.612   2.330   3.128
 2169SOL     OW 7405   0.365   0.644   1.357
 2169SOL    HW1 7406   0.464   0.639   1.374
 2169SOL    HW2 7407   0.317   0.588   1.424
 2170SOL     OW 7408   1.098   3.795   5.917
 2170SOL    HW1 7409   1.115   3.821   5.822
 2170SOL    HW2 7410   1.004   3.819   5.942
 2171SOL     OW 7411   0.185   5.336   1.283
 2171SOL    HW1 7412   0.176   5.244   1.323
 2171SOL    HW2 7413   0.211   5.401   1.354
 2172SOL     OW 7414   0.117   1.854   4.959
 2172SOL    HW1 7415   0.128   1.768   5.010
 2172SOL    HW2 7416   0.024   1.887   4.970
 2173SOL     OW 7417   6.047   0.488   5.186
 2173SOL    HW1 7418   6.109   0.434   5.129
 2173SOL    HW2 7419   5.974   0.430   5.221
 2174SOL     OW 7420   6.978   5.993   4.821
 2174SOL    HW1 7421   6.945   5.913   4.871
 2174SOL    HW2 7422   0.059   5.994   4.824
 2175SOL     OW 7423   3.095   2.864   5.360
 2175SOL    HW1 7424   3.114   2.956   5.396
 2175SOL    HW2 7425   3.161   2.799   5.399
 2176SOL     OW 7426   5.451   2.684   1.083
 2176SOL    HW1 7427   5.417   2.664   1.175
 2176SOL    HW2 7428   5.389   2.748   1.038
 2177SOL     OW 7429   6.966   1.242   3.347
 2177SOL    HW1 7430   0.035   1.244   3.299
 2177SOL    HW2 7431   6.980   1.209   3.440
 2178SOL     OW 7432   0.790   1.619   2.135
 2178SOL    HW1 7433   0.762   1.609   2.230
 2178SOL    HW2 7434   0.835   1.535   2.104
 2179SOL     OW 7435   2.148   4.385   6.653
 2179SOL    HW1 7436   2.054   4.358   6.635
 2179SOL    HW2 7437   2.201   4.378   6.568
 2180SOL     OW 7438   1.340   4.826   1.962
 2180SOL    HW1 7439   1.315   4.783   1.876
 2180SOL    HW2 7440   1.405   4.768   2.011
 2181SOL     OW 7441   4.931   4.977   4.405
 2181SOL    HW1 7442   4.953   5.031   4.486
 2181SOL    HW2 7443   4.961   4.883   4.418
 2182SOL     OW 7444   0.537   5.132   3.341
 2182SOL    HW1 7445   0.555   5.126   3.439
 2182SOL    HW2 7446   0.592   5.065   3.292
 2183SOL     OW 7447   3.427   3.617   0.164
 2183SOL    HW1 7448   3.515   3.590   0.204
 2183SOL    HW2 7449   3.353   3.589   0.225
 2184SOL     OW 7450   6.538   6.923   0.271
 2184SOL    HW1 7451   6.464   6.988   0.289
 2184SOL    HW2 7452   6.555   6.868   0.353
 2185SOL     OW 7453   0.708   1.641   6.849
 2185SOL    HW1 7454   0.690   1.739   6.854
 2185SOL    HW2 7455   0.771   1.623   6.773
 2186SOL     OW 7456   6.598   5.279   4.789
 2186SOL    HW1 7457   6.694   5.274   4.760
 2186SOL    HW2 7458   6.574   5.374   4.808
 2187SOL     OW 7459   0.988   5.494   2.787
 2187SOL    HW1 7460   0.904   5.510   2.736
 2187SOL    HW2 7461   1.032   5.411   2.752
 2188SOL     OW 7462   1.938   6.468   0.134
 2188SOL    HW1 7463   1.881   6.546   0.108
 2188SOL    HW2 7464   1.963   6.476   0.231
 2189SOL     OW 7465   2.045   1.504   2.310
 2189SOL    HW1 7466   2.098   1.588   2.318
 2189SOL    HW2 7467   2.104   1.429   2.281
 2190SOL     OW 7468   6.655   4.450   2.609
 2190SOL    HW1 7469   6.582   4.517   2.621
 2190SOL    HW2 7470   6.743   4.495   2.625
 2191SOL     OW 7471   2.059   0.987   5.625
 2191SOL    HW1 7472   2.012   1.035   5.550
 2191SOL    HW2 7473   1.992   0.932   5.676
 2192SOL     OW 7474   5.334   0.701   2.091
 2192SOL    HW1 7475   5.294   0.778   2.141
 2192SOL    HW2 7476   5.414   0.732   2.040
 2193SOL     OW 7477   6.960   6.757   6.336
 2193SOL    HW1 7478   0.024   6.706   6.315
 2193SOL    HW2 7479   6.969   6.800   6.426
 2194SOL     OW 7480   0.629   4.353   5.305
 2194SOL    HW1 7481   0.724   4.322   5.301
 2194SOL    HW2 7482   0.585   4.315   5.387
 2195SOL     OW 7483   0.763   5.111   6.700
 2195SOL    HW1 7484   0.860   5.112   6.678
 2195SOL    HW2 7485   0.749   5.068   6.789
 2196SOL     OW 7486   2.316   5.983   5.402
 2196SOL    HW1 7487   2.369   5.912   5.356
 2196SOL    HW2 7488   2.244   5.941   5.457
 2197SOL     OW 7489   3.203   3.372   5.545
 2197SOL    HW1 7490   3.143   3.436   5.498
 2197SOL    HW2 7491   3.298   3.393   5.525
 2198SOL     OW 7492   0.447   0.288   6.246
 2198SOL    HW1 7493   0.524   0.325   6.193
 2198SOL    HW2 7494   0.461   0.308   6.342
 2199SOL     OW 7495   4.930   6.829   3.981
 2199SOL    HW1 7496   4.863   6.862   3.913
 2199SOL    HW2 7497   5.000   6.774   3.935
 2200SOL     OW 7498   2.929   0.694   4.340
 2200SOL    HW1 7499   2.860   0.763   4.315
 2200SOL    HW2 7500   2.937   0.690   4.439
 2201SOL     OW 7501   6.661   2.780   3.457
 2201SOL    HW1 7502   6.690   2.721   3.382
 2201SOL    HW2 7503   6.562   2.794   3.453
 2202SOL     OW 7504   3.413   5.018   2.724
 2202SOL    HW1 7505   3.403   5.117   2.709
 2202SOL    HW2 7506   3.507   4.999   2.753
 2203SOL     OW 7507   2.355   4.117   0.766
 2203SOL    HW1 7508   2.290   4.042   0.758
 2203SOL    HW2 7509   2.407   4.108   0.851
 2204SOL     OW 7510   4.442   2.956   1.272
 2204SOL    HW1 7511   4.512   2.895   1.234
 2204SOL    HW2 7512   4.366   2.965   1.208
 2205SOL     OW 7513   1.342   6.307   0.829
 2205SOL    HW1 7514   1.438   6.314   0.802
 2205SOL    HW2 7515   1.322   6.378   0.897
 2206SOL     OW 7516   3.026   2.880   6.413
 2206SOL    HW1 7517   3.059   2.821   6.339
 2206SOL    HW2 7518   3.045   2.976   6.389
 2207SOL     OW 7519   4.236   5.505   0.954
 2207SOL    HW1 7520   4.141   5.497   0.922
 2207SOL    HW2 7521   4.261   5.602   0.958
 2208SOL     OW 7522   0.998   5.512   3.869
 2208SOL    HW1 7523   1.009   5.423   3.825
 2208SOL    HW2 7524   1.031   5.507   3.964
 2209SOL     OW 7525   2.826   5.308   5.206
 2209SOL    HW1 7526   2.782   5.236   5.152
 2209SOL    HW2 7527   2.840   5.275   5.299
 2210SOL     OW 7528   5.916   6.115   1.448
 2210SOL    HW1 7529   6.013   6.098   1.465
 2210SOL    HW2 7530   5.864   6.099   1.532
 2211SOL     OW 7531   6.168   0.350   0.630
 2211SOL    HW1 7532   6.078   0.366   0.669
 2211SOL    HW2 7533   6.160   0.328   0.533
 2212SOL     OW 7534   2.433   6.275   6.753
 2212SOL    HW1 7535   2.488   6.248   6.832
 2212SOL    HW2 7536   2.423   6.374   6.752
 2213SOL     OW 7537   4.400   2.487   4.263
 2213SOL    HW1 7538   4.488   2.456   4.299
 2213SOL    HW2 7539   4.400   2.480   4.163
 2214SOL     OW 7540   4.482   2.940   5.849
 2214SOL    HW1 7541   4.473   3.040   5.847
 2214SOL    HW2 7542   4.411   2.899   5.791
 2215SOL     OW 7543   5.351   1.420   6.591
 2215SOL    HW1 7544   5.338   1.511   6.552
 2215SOL    HW2 7545   5.429   1.421   6.654
 2216SOL     OW 7546   0.485   5.361   6.424
 2216SOL    HW1 7547   0.441   5.360   6.514
 2216SOL    HW2 7548   0.579   5.329   6.433
 2217SOL     OW 7549   4.516   0.737   3.263
 2217SOL    HW1 7550   4.444   0.747   3.332
 2217SOL    HW2 7551   4.604   0.728   3.309
 2218SOL     OW 7552   0.770   5.322   6.875
 2218SOL    HW1 7553   0.694   5.299   6.936
 2218SOL    HW2 7554   0.758   5.275   6.788
 2219SOL     OW 7555   5.995   1.653   0.684
 2219SOL    HW1 7556   6.066   1.719   0.710
 2219SOL    HW2 7557   5.918   1.702   0.642
 2220SOL     OW 7558   1.718   6.320   5.291
 2220SOL    HW1 7559   1.811   6.321   5.254
 2220SOL    HW2 7560   1.721   6.312   5.390
 2221SOL     OW 7561   6.443   1.280   4.597
 2221SOL    HW1 7562   6.467   1.196   4.548
 2221SOL    HW2 7563   6.350   1.308   4.574
 2222SOL     OW 7564   6.189   6.731   0.409
 2222SOL    HW1 7565   6.199   6.638   0.445
 2222SOL    HW2 7566   6.279   6.769   0.388
 2223SOL     OW 7567   6.818   0.795   5.492
 2223SOL    HW1 7568   6.789   0.701   5.507
 2223SOL    HW2 7569   6.825   0.842   5.580
 2224SOL     OW 7570   5.762   3.657   1.815
 2224SOL    HW1 7571   5.790   3.751   1.836
 2224SOL    HW2 7572   5.837   3.608   1.772
 2225SOL     OW 7573   0.239   6.437   4.003
 2225SOL    HW1 7574   0.299   6.368   4.043
 2225SOL    HW2 7575   0.276   6.467   3.915
 2226SOL     OW 7576   3.552   5.138   0.600
 2226SOL    HW1 7577   3.481   5.205   0.579
 2226SOL    HW2 7578   3.538   5.055   0.547
 2227SOL     OW 7579   4.314   2.281   1.312
 2227SOL    HW1 7580   4.278   2.196   1.349
 2227SOL    HW2 7581   4.243   2.327   1.259
 2228SOL     OW 7582   4.439   5.316   0.263
 2228SOL    HW1 7583   4.414   5.272   0.177
 2228SOL    HW2 7584   4.364   5.373   0.295
 2229SOL     OW 7585   3.144   3.772   4.591
 2229SOL    HW1 7586   3.220   3.710   4.574
 2229SOL    HW2 7587   3.060   3.732   4.554
 2230SOL     OW 7588   5.099   6.231   1.419
 2230SOL    HW1 7589   5.096   6.205   1.323
 2230SOL    HW2 7590   5.194   6.228   1.452
 2231SOL     OW 7591   0.500   1.129   6.850
 2231SOL    HW1 7592   0.491   1.102   6.946
 2231SOL    HW2 7593   0.567   1.202   6.842
 2232SOL     OW 7594   1.250   0.524   5.125
 2232SOL    HW1 7595   1.166   0.501   5.175
 2232SOL    HW2 7596   1.297   0.598   5.172
 2233SOL     OW 7597   3.180   3.092   0.670
 2233SOL    HW1 7598   3.213   3.063   0.759
 2233SOL    HW2 7599   3.165   3.012   0.612
 2234SOL     OW 7600   3.677   1.728   0.803
 2234SOL    HW1 7601   3.675   1.634   0.768
 2234SOL    HW2 7602   3.679   1.726   0.903
 2235SOL     OW 7603   2.460   0.342   2.470
 2235SOL    HW1 7604   2.525   0.269   2.490
 2235SOL    HW2 7605   2.368   0.311   2.490
 2236SOL     OW 7606   1.885   3.983   6.079
 2236SOL    HW1 7607   1.896   3.938   5.991
 2236SOL    HW2 7608   1.970   4.031   6.103
 2237SOL     OW 7609   6.222   5.356   5.074
 2237SOL    HW1 7610   6.293   5.292   5.046
 2237SOL    HW2 7611   6.256   5.417   5.146
 2238SOL     OW 7612   4.570   4.768   2.893
 2238SOL    HW1 7613   4.476   4.751   2.922
 2238SOL    HW2 7614   4.587   4.720   2.807
 2239SOL     OW 7615   3.582   5.716   3.951
 2239SOL    HW1 7616   3.491   5.681   3.930
 2239SOL    HW2 7617   3.639   5.714   3.869
 2240SOL     OW 7618   3.730   5.701   3.100
 2240SOL    HW1 7619   3.695   5.791   3.124
 2240SOL    HW2 7620   3.730   5.691   3.000
 2241SOL     OW 7621   6.877   6.646   1.741
 2241SOL    HW1 7622   6.794   6.622   1.692
 2241SOL    HW2 7623   6.902   6.741   1.719
 2242SOL     OW 7624   5.383   3.277   2.825
 2242SOL    HW1 7625   5.412   3.299   2.918
 2242SOL    HW2 7626   5.332   3.191   2.825
 2243SOL     OW 7627   2.715   5.969   7.015
 2243SOL    HW1 7628   2.659   5.886   0.002
 2243SOL    HW2 7629   2.798   5.956   0.050
 2244SOL     OW 7630   3.097   0.355   1.289
 2244SOL    HW1 7631   3.159   0.314   1.356
 2244SOL    HW2 7632   3.097   0.300   1.206
 2245SOL     OW 7633   0.576   1.397   0.629
 2245SOL    HW1 7634   0.589   1.297   0.632
 2245SOL    HW2 7635   0.574   1.427   0.534
 2246SOL     OW 7636   2.062   0.524   4.151
 2246SOL    HW1 7637   1.991   0.510   4.220
 2246SOL    HW2 7638   2.026   0.583   4.078
 2247SOL     OW 7639   3.286   4.131   2.577
 2247SOL    HW1 7640   3.204   4.075   2.591
 2247SOL    HW2 7641   3.308   4.136   2.480
 2248SOL     OW 7642   6.354   4.327   4.104
 2248SOL    HW1 7643   6.397   4.286   4.023
 2248SOL    HW2 7644   6.292   4.261   4.146
 2249SOL     OW 7645   3.321   6.646   3.614
 2249SOL    HW1 7646   3.276   6.561   3.642
 2249SOL    HW2 7647   3.322   6.710   3.691
 2250SOL     OW 7648   3.804   3.722   5.595
 2250SOL    HW1 7649   3.880   3.746   5.535
 2250SOL    HW2 7650   3.781   3.801   5.653
 2251SOL     OW 7651   5.104   6.472   6.275
 2251SOL    HW1 7652   5.107   6.564   6.235
 2251SOL    HW2 7653   5.155   6.472   6.361
 2252SOL     OW 7654   5.602   1.631   2.918
 2252SOL    HW1 7655   5.655   1.548   2.938
 2252SOL    HW2 7656   5.659   1.711   2.937
 2253SOL     OW 7657   0.633   3.348   0.062
 2253SOL    HW1 7658   0.669   3.388   0.147
 2253SOL    HW2 7659   0.541   3.315   0.078
 2254SOL     OW 7660   3.580   4.113   3.044
 2254SOL    HW1 7661   3.520   4.123   2.964
 2254SOL    HW2 7662   3.645   4.039   3.028
 2255SOL     OW 7663   3.072   4.087   5.750
 2255SOL    HW1 7664   3.070   4.048   5.659
 2255SOL    HW2 7665   3.031   4.178   5.749
 2256SOL     OW 7666   4.478   6.319   2.142
 2256SOL    HW1 7667   4.493   6.397   2.082
 2256SOL    HW2 7668   4.472   6.235   2.088
 2257SOL     OW 7669   0.349   1.958   4.850
 2257SOL    HW1 7670   0.341   2.005   4.761
 2257SOL    HW2 7671   0.264   1.908   4.868
 2258SOL     OW 7672   2.397   6.422   4.318
 2258SOL    HW1 7673   2.476   6.363   4.305
 2258SOL    HW2 7674   2.314   6.367   4.322
 2259SOL     OW 7675   5.960   2.705   4.747
 2259SOL    HW1 7676   5.969   2.709   4.647
 2259SOL    HW2 7677   5.980   2.612   4.778
 2260SOL     OW 7678   0.679   3.457   1.386
 2260SOL    HW1 7679   0.727   3.517   1.322
 2260SOL    HW2 7680   0.627   3.513   1.450
 2261SOL     OW 7681   6.260   4.027   1.062
 2261SOL    HW1 7682   6.270   4.125   1.076
 2261SOL    HW2 7683   6.303   4.000   0.976
 2262SOL     OW 7684   6.507   0.683   3.289
 2262SOL    HW1 7685   6.455   0.751   3.341
 2262SOL    HW2 7686   6.590   0.659   3.340
 2263SOL     OW 7687   1.552   5.533   0.984
 2263SOL    HW1 7688   1.616   5.591   0.933
 2263SOL    HW2 7689   1.593   5.507   1.071
 2264SOL     OW 7690   2.646   6.789   6.831
 2264SOL    HW1 7691   2.709   6.860   6.865
 2264SOL    HW2 7692   2.649   6.788   6.731
 2265SOL     OW 7693   1.415   0.629   4.143
 2265SOL    HW1 7694   1.368   0.709   4.105
 2265SOL    HW2 7695   1.502   0.615   4.096
 2266SOL     OW 7696   5.406   1.159   6.244
 2266SOL    HW1 7697   5.426   1.256   6.234
 2266SOL    HW2 7698   5.307   1.144   6.234
 2267SOL     OW 7699   4.564   2.585   4.640
 2267SOL    HW1 7700   4.608   2.674   4.634
 2267SOL    HW2 7701   4.568   2.539   4.552
 2268SOL     OW 7702   6.206   3.674   6.605
 2268SOL    HW1 7703   6.218   3.593   6.547
 2268SOL    HW2 7704   6.252   3.752   6.562
 2269SOL     OW 7705   0.401   3.454   5.389
 2269SOL    HW1 7706   0.355   3.413   5.468
 2269SOL    HW2 7707   0.470   3.391   5.355
 2270SOL     OW 7708   4.304   3.300   6.226
 2270SOL    HW1 7709   4.361   3.345   6.157
 2270SOL    HW2 7710   4.266   3.368   6.288
 2271SOL     OW 7711   5.855   4.162   6.990
 2271SOL    HW1 7712   5.767   4.165   6.943
 2271SOL    HW2 7713   5.926   4.201   6.932
 2272SOL     OW 7714   6.703   1.529   6.386
 2272SOL    HW1 7715   6.681   1.626   6.391
 2272SOL    HW2 7716   6.798   1.515   6.417
 2273SOL     OW 7717   1.974   2.346   2.159
 2273SOL    HW1 7718   2.043   2.299   2.104
 2273SOL    HW2 7719   1.896   2.286   2.174
 2274SOL     OW 7720   0.450   1.779   0.151
 2274SOL    HW1 7721   0.364   1.783   0.098
 2274SOL    HW2 7722   0.510   1.853   0.120
 2275SOL     OW 7723   5.928   5.320   2.298
 2275SOL    HW1 7724   5.964   5.227   2.294
 2275SOL    HW2 7725   6.003   5.385   2.297
 2276SOL     OW 7726   1.619   6.395   1.380
 2276SOL    HW1 7727   1.605   6.468   1.313
 2276SOL    HW2 7728   1.691   6.334   1.348
 2277SOL     OW 7729   3.529   3.908   4.192
 2277SOL    HW1 7730   3.573   3.872   4.110
 2277SOL    HW2 7731   3.462   3.842   4.226
 2278SOL     OW 7732   6.816   3.081   4.135
 2278SOL    HW1 7733   6.839   3.111   4.042
 2278SOL    HW2 7734   6.718   3.091   4.150
 2279SOL     OW 7735   6.604   5.914   5.710
 2279SOL    HW1 7736   6.541   5.955   5.776
 2279SOL    HW2 7737   6.698   5.922   5.745
 2280SOL     OW 7738   6.500   0.598   5.015
 2280SOL    HW1 7739   6.509   0.662   4.939
 2280SOL    HW2 7740   6.421   0.622   5.070
 2281SOL     OW 7741   4.234   0.275   2.116
 2281SOL    HW1 7742   4.308   0.233   2.064
 2281SOL    HW2 7743   4.272   0.326   2.193
 2282SOL     OW 7744   4.765   6.017   5.131
 2282SOL    HW1 7745   4.858   6.053   5.123
 2282SOL    HW2 7746   4.722   6.053   5.214
 2283SOL     OW 7747   1.397   0.496   2.600
 2283SOL    HW1 7748   1.373   0.496   2.503
 2283SOL    HW2 7749   1.488   0.455   2.612
 2284SOL     OW 7750   0.719   3.597   5.623
 2284SOL    HW1 7751   0.676   3.508   5.637
 2284SOL    HW2 7752   0.775   3.595   5.540
 2285SOL     OW 7753   1.119   3.520   6.976
 2285SOL    HW1 7754   1.061   3.440   6.972
 2285SOL    HW2 7755   1.196   3.509   6.913
 2286SOL     OW 7756   5.106   6.949   2.906
 2286SOL    HW1 7757   5.014   6.912   2.922
 2286SOL    HW2 7758   5.142   6.913   2.820
 2287SOL     OW 7759   2.636   1.217   3.591
 2287SOL    HW1 7760   2.576   1.297   3.588
 2287SOL    HW2 7761   2.657   1.195   3.687
 2288SOL     OW 7762   0.419   5.157   3.962
 2288SOL    HW1 7763   0.340   5.120   3.913
 2288SOL    HW2 7764   0.463   5.083   4.013
 2289SOL     OW 7765   6.891   4.711   1.186
 2289SOL    HW1 7766   6.828   4.633   1.188
 2289SOL    HW2 7767   6.931   4.724   1.276
 2290SOL     OW 7768   1.114   4.136   0.894
 2290SOL    HW1 7769   1.073   4.100   0.811
 2290SOL    HW2 7770   1.103   4.235   0.897
 2291SOL     OW 7771   3.123   2.043   5.913
 2291SOL    HW1 7772   3.165   1.954   5.897
 2291SOL    HW2 7773   3.024   2.035   5.902
 2292SOL     OW 7774   1.369   1.394   4.931
 2292SOL    HW1 7775   1.300   1.402   5.003
 2292SOL    HW2 7776   1.429   1.474   4.934
 2293SOL     OW 7777   5.655   5.838   1.536
 2293SOL    HW1 7778   5.610   5.758   1.575
 2293SOL    HW2 7779   5.589   5.893   1.485
 2294SOL     OW 7780   3.630   0.013   0.674
 2294SOL    HW1 7781   3.643   0.108   0.701
 2294SOL    HW2 7782   3.697   7.008   0.604
 2295SOL     OW 7783   0.427   2.010   2.475
 2295SOL    HW1 7784   0.495   2.047   2.411
 2295SOL    HW2 7785   0.474   1.979   2.558
 2296SOL     OW 7786   3.178   0.126   0.765
 2296SOL    HW1 7787   3.202   0.175   0.849
 2296SOL    HW2 7788   3.259   0.080   0.729
 2297SOL     OW 7789   4.108   4.309   5.840
 2297SOL    HW1 7790   4.020   4.262   5.833
 2297SOL    HW2 7791   4.116   4.377   5.767
 2298SOL     OW 7792   3.845   2.243   1.234
 2298SOL    HW1 7793   3.866   2.324   1.289
 2298SOL    HW2 7794   3.798   2.175   1.290
 2299SOL     OW 7795   5.352   6.841   6.953
 2299SOL    HW1 7796   5.382   6.762   6.899
 2299SOL    HW2 7797   5.422   6.862   0.002
 2300SOL     OW 7798   1.726   5.290   1.411
 2300SOL    HW1 7799   1.691   5.238   1.489
 2300SOL    HW2 7800   1.821   5.316   1.428
 2301SOL     OW 7801   3.068   3.239   2.976
 2301SOL    HW1 7802   3.133   3.314   2.986
 2301SOL    HW2 7803   3.100   3.160   3.027
 2302SOL     OW 7804   4.216   6.483   2.503
 2302SOL    HW1 7805   4.166   6.564   2.475
 2302SOL    HW2 7806   4.231   6.423   2.424
 2303SOL     OW 7807   1.487   3.389   5.285
 2303SOL    HW1 7808   1.449   3.415   5.196
 2303SOL    HW2 7809   1.527   3.298   5.278
 2304SOL     OW 7810   2.713   0.432   3.714
 2304SOL    HW1 7811   2.700   0.529   3.693
 2304SOL    HW2 7812   2.691   0.378   3.633
 2305SOL     OW 7813   3.992   5.613   3.077
 2305SOL    HW1 7814   3.985   5.514   3.074
 2305SOL    HW2 7815   3.901   5.653   3.067
 2306SOL     OW 7816   2.246   5.306   1.634
 2306SOL    HW1 7817   2.146   5.302   1.627
 2306SOL    HW2 7818   2.275   5.402   1.637
 2307SOL     OW 7819   2.298   4.207   2.987
 2307SOL    HW1 7820   2.321   4.234   2.893
 2307SOL    HW2 7821   2.241   4.126   2.985
 2308SOL     OW 7822   0.666   0.630   6.674
 2308SOL    HW1 7823   0.692   0.716   6.718
 2308SOL    HW2 7824   0.674   0.639   6.575
 2309SOL     OW 7825   2.800   6.070   6.700
 2309SOL    HW1 7826   2.839   6.073   6.792
 2309SOL    HW2 7827   2.801   6.162   6.661
 2310SOL     OW 7828   6.602   6.637   0.937
 2310SOL    HW1 7829   6.699   6.635   0.961
 2310SOL    HW2 7830   6.572   6.732   0.930
 2311SOL     OW 7831   2.507   6.959   2.811
 2311SOL    HW1 7832   2.556   6.956   2.898
 2311SOL    HW2 7833   2.416   6.921   2.822
 2312SOL     OW 7834   3.075   6.652   3.384
 2312SOL    HW1 7835   3.013   6.583   3.346
 2312SOL    HW2 7836   3.073   6.734   3.327
 2313SOL     OW 7837   4.850   5.159   2.037
 2313SOL    HW1 7838   4.829   5.125   1.945
 2313SOL    HW2 7839   4.802   5.245   2.053
 2314SOL     OW 7840   6.004   0.770   3.249
 2314SOL    HW1 7841   5.961   0.860   3.246
 2314SOL    HW2 7842   5.998   0.734   3.343
 2315SOL     OW 7843   5.278   3.416   5.288
 2315SOL    HW1 7844   5.236   3.330   5.258
 2315SOL    HW2 7845   5.300   3.410   5.385
 2316SOL     OW 7846   2.528   1.306   5.564
 2316SOL    HW1 7847   2.581   1.230   5.603
 2316SOL    HW2 7848   2.471   1.271   5.490
 2317SOL     OW 7849   6.659   6.675   3.895
 2317SOL    HW1 7850   6.736   6.611   3.882
 2317SOL    HW2 7851   6.614   6.690   3.807
 2318SOL     OW 7852   2.015   3.545   4.395
 2318SOL    HW1 7853   2.055   3.464   4.353
 2318SOL    HW2 7854   2.061   3.627   4.361
 2319SOL     OW 7855   3.508   5.187   5.035
 2319SOL    HW1 7856   3.423   5.188   5.088
 2319SOL    HW2 7857   3.586   5.187   5.097
 2320SOL     OW 7858   1.300   2.526   5.690
 2320SOL    HW1 7859   1.338   2.614   5.662
 2320SOL    HW2 7860   1.315   2.513   5.788
 2321SOL     OW 7861   2.620   5.414   5.994
 2321SOL    HW1 7862   2.541   5.447   6.045
 2321SOL    HW2 7863   2.702   5.464   6.023
 2322SOL     OW 7864   1.690   4.244   2.043
 2322SOL    HW1 7865   1.720   4.302   1.967
 2322SOL    HW2 7866   1.590   4.243   2.047
 2323SOL     OW 7867   3.321   4.872   1.877
 2323SOL    HW1 7868   3.415   4.840   1.884
 2323SOL    HW2 7869   3.260   4.807   1.923
 2324SOL     OW 7870   0.215   5.840   1.176
 2324SOL    HW1 7871   0.263   5.859   1.090
 2324SOL    HW2 7872   0.159   5.919   1.201
 2325SOL     OW 7873   0.212   4.820   1.320
 2325SOL    HW1 7874   0.289   4.763   1.351
 2325SOL    HW2 7875   0.126   4.779   1.350
 2326SOL     OW 7876   1.825   6.168   6.664
 2326SOL    HW1 7877   1.824   6.191   6.567
 2326SOL    HW2 7878   1.887   6.231   6.712
 2327SOL     OW 7879   0.581   1.019   3.265
 2327SOL    HW1 7880   0.484   1.004   3.285
 2327SOL    HW2 7881   0.611   0.957   3.192
 2328SOL     OW 7882   1.229   2.015   2.666
 2328SOL    HW1 7883   1.162   2.015   2.592
 2328SOL    HW2 7884   1.285   2.098   2.659
 2329SOL     OW 7885   1.201   4.405   4.691
 2329SOL    HW1 7886   1.125   4.392   4.628
 2329SOL    HW2 7887   1.192   4.342   4.768
 2330SOL     OW 7888   0.470   2.751   0.591
 2330SOL    HW1 7889   0.483   2.691   0.512
 2330SOL    HW2 7890   0.445   2.696   0.671
 2331SOL     OW 7891   3.201   5.172   6.544
 2331SOL    HW1 7892   3.267   5.226   6.595
 2331SOL    HW2 7893   3.153   5.230   6.478
 2332SOL     OW 7894   6.943   6.802   5.712
 2332SOL    HW1 7895   6.916   6.870   5.780
 2332SOL    HW2 7896   6.967   6.847   5.626
 2333SOL     OW 7897   0.544   5.245   2.921
 2333SOL    HW1 7898   0.458   5.292   2.941
 2333SOL    HW2 7899   0.620   5.296   2.961
 2334SOL     OW 7900   1.357   1.416   6.808
 2334SOL    HW1 7901   1.424   1.377   6.746
 2334SOL    HW2 7902   1.402   1.482   6.869
 2335SOL     OW 7903   5.994   0.424   3.735
 2335SOL    HW1 7904   6.049   0.378   3.665
 2335SOL    HW2 7905   6.024   0.519   3.744
 2336SOL     OW 7906   3.249   1.319   4.159
 2336SOL    HW1 7907   3.335   1.271   4.142
 2336SOL    HW2 7908   3.174   1.252   4.166
 2337SOL     OW 7909   4.153   0.949   1.683
 2337SOL    HW1 7910   4.090   0.960   1.760
 2337SOL    HW2 7911   4.239   0.910   1.716
 2338SOL     OW 7912   1.011   3.394   4.278
 2338SOL    HW1 7913   1.070   3.331   4.329
 2338SOL    HW2 7914   1.054   3.419   4.192
 2339SOL     OW 7915   2.957   3.850   3.097
 2339SOL    HW1 7916   2.929   3.787   3.025
 2339SOL    HW2 7917   3.055   3.868   3.089
 2340SOL     OW 7918   0.566   4.649   6.824
 2340SOL    HW1 7919   0.606   4.559   6.840
 2340SOL    HW2 7920   0.621   4.699   6.757
 2341SOL     OW 7921   3.043   4.824   2.000
 2341SOL    HW1 7922   2.983   4.744   2.011
 2341SOL    HW2 7923   3.021   4.870   1.914
 2342SOL     OW 7924   1.819   6.760   4.754
 2342SOL    HW1 7925   1.847   6.740   4.660
 2342SOL    HW2 7926   1.884   6.823   4.796
 2343SOL     OW 7927   2.092   5.424   2.871
 2343SOL    HW1 7928   2.050   5.334   2.857
 2343SOL    HW2 7929   2.024   5.488   2.905
 2344SOL     OW 7930   0.113   5.768   6.791
 2344SOL    HW1 7931   0.122   5.669   6.800
 2344SOL    HW2 7932   0.020   5.790   6.761
 2345SOL     OW 7933   2.447   5.273   4.755
 2345SOL    HW1 7934   2.382   5.226   4.695
 2345SOL    HW2 7935   2.434   5.241   4.849
 2346SOL     OW 7936   4.078   3.155   5.930
 2346SOL    HW1 7937   4.008   3.167   5.860
 2346SOL    HW2 7938   4.042   3.097   6.004
 2347SOL     OW 7939   2.657   2.117   1.436
 2347SOL    HW1 7940   2.623   2.146   1.346
 2347SOL    HW2 7941   2.714   2.190   1.475
 2348SOL     OW 7942   1.543   6.217   4.017
 2348SOL    HW1 7943   1.640   6.235   4.037
 2348SOL    HW2 7944   1.536   6.172   3.927
 2349SOL     OW 7945   1.097   4.592   6.155
 2349SOL    HW1 7946   1.070   4.684   6.125
 2349SOL    HW2 7947   1.174   4.599   6.218
 2350SOL     OW 7948   5.890   5.060   6.310
 2350SOL    HW1 7949   5.898   5.000   6.230
 2350SOL    HW2 7950   5.913   5.009   6.392
 2351SOL     OW 7951   3.223   4.964   4.326
 2351SOL    HW1 7952   3.197   5.061   4.327
 2351SOL    HW2 7953   3.145   4.910   4.293
 2352SOL     OW 7954   0.674   2.898   2.361
 2352SOL    HW1 7955   0.585   2.898   2.405
 2352SOL    HW2 7956   0.668   2.941   2.271
 2353SOL     OW 7957   3.440   4.990   4.549
 2353SOL    HW1 7958   3.356   4.980   4.495
 2353SOL    HW2 7959   3.498   4.910   4.534
 2354SOL     OW 7960   2.444   2.151   4.473
 2354SOL    HW1 7961   2.469   2.170   4.378
 2354SOL    HW2 7962   2.362   2.093   4.475
 2355SOL     OW 7963   1.975   6.434   5.766
 2355SOL    HW1 7964   1.888   6.433   5.815
 2355SOL    HW2 7965   1.963   6.479   5.677
 2356SOL     OW 7966   1.470   3.080   6.172
 2356SOL    HW1 7967   1.376   3.071   6.206
 2356SOL    HW2 7968   1.469   3.082   6.072
 2357SOL     OW 7969   4.428   1.048   2.178
 2357SOL    HW1 7970   4.372   1.087   2.105
 2357SOL    HW2 7971   4.453   0.954   2.153
 2358SOL     OW 7972   3.173   5.500   5.527
 2358SOL    HW1 7973   3.123   5.431   5.475
 2358SOL    HW2 7974   3.271   5.479   5.525
 2359SOL     OW 7975   7.012   0.810   5.702
 2359SOL    HW1 7976   7.013   0.761   5.789
 2359SOL    HW2 7977   7.013   0.744   5.626
 2360SOL     OW 7978   6.075   3.501   0.028
 2360SOL    HW1 7979   6.155   3.557   0.049
 2360SOL    HW2 7980   6.009   3.556   6.997
 2361SOL     OW 7981   2.410   0.712   6.902
 2361SOL    HW1 7982   2.438   0.765   6.822
 2361SOL    HW2 7983   2.313   0.727   6.920
 2362SOL     OW 7984   2.383   5.891   4.221
 2362SOL    HW1 7985   2.377   5.909   4.319
 2362SOL    HW2 7986   2.467   5.930   4.184
 2363SOL     OW 7987   3.735   2.070   4.572
 2363SOL    HW1 7988   3.834   2.080   4.572
 2363SOL    HW2 7989   3.698   2.099   4.660
 2364SOL     OW 7990   1.089   2.740   2.405
 2364SOL    HW1 7991   1.170   2.682   2.394
 2364SOL    HW2 7992   1.014   2.684   2.439
 2365SOL     OW 7993   6.445   2.547   6.903
 2365SOL    HW1 7994   6.386   2.600   6.842
 2365SOL    HW2 7995   6.456   2.454   6.867
 2366SOL     OW 7996   2.238   5.925   6.462
 2366SOL    HW1 7997   2.328   5.947   6.423
 2366SOL    HW2 7998   2.217   5.989   6.535
 2367SOL     OW 7999   2.272   3.438   0.952
 2367SOL    HW1 8000   2.263   3.339   0.965
 2367SOL    HW2 8001   2.219   3.486   1.023
 2368SOL     OW 8002   5.503   6.454   4.524
 2368SOL    HW1 8003   5.472   6.369   4.481
 2368SOL    HW2 8004   5.460   6.532   4.479
 2369SOL     OW 8005   1.831   0.516   4.409
 2369SOL    HW1 8006   1.872   0.592   4.460
 2369SOL    HW2 8007   1.733   0.532   4.399
 2370SOL     OW 8008   5.690   3.171   6.939
 2370SOL    HW1 8009   5.725   3.250   6.989
 2370SOL    HW2 8010   5.654   3.200   6.850
 2371SOL     OW 8011   1.763   6.928   1.566
 2371SOL    HW1 8012   1.858   6.949   1.589
 2371SOL    HW2 8013   1.760   6.844   1.512
 2372SOL     OW 8014   6.899   2.855   2.204
 2372SOL    HW1 8015   6.978   2.903   2.167
 2372SOL    HW2 8016   6.815   2.904   2.181
 2373SOL     OW 8017   0.470   3.346   5.953
 2373SOL    HW1 8018   0.435   3.424   5.901
 2373SOL    HW2 8019   0.406   3.269   5.946
 2374SOL     OW 8020   6.126   1.569   4.375
 2374SOL    HW1 8021   6.140   1.530   4.466
 2374SOL    HW2 8022   6.028   1.583   4.359
 2375SOL     OW 8023   3.580   5.968   5.276
 2375SOL    HW1 8024   3.623   5.878   5.265
 2375SOL    HW2 8025   3.597   6.002   5.369
 2376SOL     OW 8026   6.566   3.196   4.191
 2376SOL    HW1 8027   6.499   3.246   4.136
 2376SOL    HW2 8028   6.578   3.243   4.278
 2377SOL     OW 8029   3.512   4.154   3.804
 2377SOL    HW1 8030   3.531   4.134   3.708
 2377SOL    HW2 8031   3.589   4.205   3.843
 2378SOL     OW 8032   5.115   1.954   6.862
 2378SOL    HW1 8033   5.132   2.052   6.849
 2378SOL    HW2 8034   5.016   1.939   6.873
 2379SOL     OW 8035   0.073   0.835   0.423
 2379SOL    HW1 8036   7.003   0.868   0.453
 2379SOL    HW2 8037   0.080   0.843   0.324
 2380SOL     OW 8038   0.454   2.020   6.672
 2380SOL    HW1 8039   0.415   1.973   6.751
 2380SOL    HW2 8040   0.400   2.102   6.652
 2381SOL     OW 8041   1.901   5.234   4.362
 2381SOL    HW1 8042   1.840   5.241   4.283
 2381SOL    HW2 8043   1.942   5.143   4.364
 2382SOL     OW 8044   1.839   3.502   4.594
 2382SOL    HW1 8045   1.814   3.405   4.595
 2382SOL    HW2 8046   1.917   3.516   4.533
 2383SOL     OW 8047   5.292   6.862   0.820
 2383SOL    HW1 8048   5.278   6.926   0.896
 2383SOL    HW2 8049   5.331   6.912   0.742
 2384SOL     OW 8050   5.845   1.322   2.716
 2384SOL    HW1 8051   5.936   1.356   2.694
 2384SOL    HW2 8052   5.852   1.237   2.768
 2385SOL     OW 8053   0.677   0.589   0.522
 2385SOL    HW1 8054   0.577   0.596   0.532
 2385SOL    HW2 8055   0.708   0.652   0.452
 2386SOL     OW 8056   5.523   5.933   4.575
 2386SOL    HW1 8057   5.480   5.843   4.565
 2386SOL    HW2 8058   5.585   5.932   4.653
 2387SOL     OW 8059   1.586   1.865   4.200
 2387SOL    HW1 8060   1.571   1.814   4.115
 2387SOL    HW2 8061   1.622   1.803   4.270
 2388SOL     OW 8062   6.938   1.943   4.074
 2388SOL    HW1 8063   6.878   1.973   4.000
 2388SOL    HW2 8064   6.941   1.843   4.076
 2389SOL     OW 8065   4.554   4.351   3.449
 2389SOL    HW1 8066   4.604   4.385   3.370
 2389SOL    HW2 8067   4.613   4.289   3.502
 2390SOL     OW 8068   3.955   3.313   3.531
 2390SOL    HW1 8069   3.974   3.227   3.577
 2390SOL    HW2 8070   3.864   3.346   3.555
 2391SOL     OW 8071   5.531   4.062   5.713
 2391SOL    HW1 8072   5.594   4.037   5.640
 2391SOL    HW2 8073   5.493   4.152   5.694
 2392SOL     OW 8074   3.247   6.417   5.555
 2392SOL    HW1 8075   3.346   6.421   5.544
 2392SOL    HW2 8076   3.221   6.330   5.596
 2393SOL     OW 8077   5.347   3.829   5.822
 2393SOL    HW1 8078   5.397   3.756   5.870
 2393SOL    HW2 8079   5.409   3.903   5.799
 2394SOL     OW 8080   0.966   4.067   4.828
 2394SOL    HW1 8081   1.045   4.047   4.769
 2394SOL    HW2 8082   0.912   3.984   4.841
 2395SOL     OW 8083   5.205   0.569   5.937
 2395SOL    HW1 8084   5.143   0.492   5.954
 2395SOL    HW2 8085   5.158   0.654   5.960
 2396SOL     OW 8086   3.781   4.958   0.976
 2396SOL    HW1 8087   3.770   4.859   0.975
 2396SOL    HW2 8088   3.794   4.989   1.070
 2397SOL     OW 8089   6.983   3.709   5.665
 2397SOL    HW1 8090   6.988   3.642   5.739
 2397SOL    HW2 8091   0.056   3.726   5.629
 2398SOL     OW 8092   4.270   4.454   6.320
 2398SOL    HW1 8093   4.213   4.397   6.262
 2398SOL    HW2 8094   4.366   4.432   6.305
 2399SOL     OW 8095   4.530   0.534   1.021
 2399SOL    HW1 8096   4.438   0.571   1.011
 2399SOL    HW2 8097   4.554   0.480   0.940
 2400SOL     OW 8098   2.893   4.222   1.242
 2400SOL    HW1 8099   2.795   4.227   1.226
 2400SOL    HW2 8100   2.933   4.151   1.184
 2401SOL     OW 8101   5.146   5.880   0.068
 2401SOL    HW1 8102   5.160   5.973   0.034
 2401SOL    HW2 8103   5.223   5.822   0.039
 2402SOL     OW 8104   0.479   0.304   3.856
 2402SOL    HW1 8105   0.396   0.341   3.896
 2402SOL    HW2 8106   0.471   0.204   3.849
 2403SOL     OW 8107   1.780   2.190   6.400
 2403SOL    HW1 8108   1.724   2.136   6.462
 2403SOL    HW2 8109   1.726   2.267   6.365
 2404SOL     OW 8110   2.341   0.506   0.889
 2404SOL    HW1 8111   2.382   0.544   0.972
 2404SOL    HW2 8112   2.388   0.542   0.809
 2405SOL     OW 8113   3.287   3.694   2.169
 2405SOL    HW1 8114   3.272   3.770   2.106
 2405SOL    HW2 8115   3.300   3.730   2.262
 2406SOL     OW 8116   3.209   0.252   1.552
 2406SOL    HW1 8117   3.222   0.308   1.633
 2406SOL    HW2 8118   3.272   0.174   1.555
 2407SOL     OW 8119   5.784   1.868   2.967
 2407SOL    HW1 8120   5.710   1.934   2.967
 2407SOL    HW2 8121   5.853   1.895   3.034
 2408SOL     OW 8122   4.414   4.694   3.257
 2408SOL    HW1 8123   4.512   4.702   3.236
 2408SOL    HW2 8124   4.402   4.631   3.333
 2409SOL     OW 8125   2.401   4.450   1.989
 2409SOL    HW1 8126   2.377   4.403   2.074
 2409SOL    HW2 8127   2.351   4.409   1.913
 2410SOL     OW 8128   4.051   3.052   5.288
 2410SOL    HW1 8129   4.020   2.959   5.306
 2410SOL    HW2 8130   4.117   3.080   5.357
 2411SOL     OW 8131   5.101   6.004   4.305
 2411SOL    HW1 8132   5.129   6.095   4.276
 2411SOL    HW2 8133   5.085   6.003   4.404
 2412SOL     OW 8134   5.996   4.144   1.478
 2412SOL    HW1 8135   5.945   4.227   1.502
 2412SOL    HW2 8136   5.932   4.067   1.471
 2413SOL     OW 8137   6.661   1.082   0.868
 2413SOL    HW1 8138   6.733   1.125   0.922
 2413SOL    HW2 8139   6.639   0.993   0.907
 2414SOL     OW 8140   4.731   4.176   3.600
 2414SOL    HW1 8141   4.730   4.077   3.612
 2414SOL    HW2 8142   4.822   4.211   3.620
 2415SOL     OW 8143   6.263   1.356   3.361
 2415SOL    HW1 8144   6.250   1.404   3.273
 2415SOL    HW2 8145   6.192   1.385   3.425
 2416SOL     OW 8146   4.701   2.365   4.872
 2416SOL    HW1 8147   4.701   2.343   4.775
 2416SOL    HW2 8148   4.647   2.448   4.888
 2417SOL     OW 8149   3.501   3.643   4.784
 2417SOL    HW1 8150   3.586   3.590   4.778
 2417SOL    HW2 8151   3.520   3.732   4.825
 2418SOL     OW 8152   3.869   3.330   4.375
 2418SOL    HW1 8153   3.926   3.338   4.458
 2418SOL    HW2 8154   3.921   3.282   4.305
 2419SOL     OW 8155   6.915   6.850   4.276
 2419SOL    HW1 8156   6.904   6.786   4.352
 2419SOL    HW2 8157   7.011   6.873   4.265
 2420SOL     OW 8158   3.117   0.578   3.390
 2420SOL    HW1 8159   3.048   0.563   3.461
 2420SOL    HW2 8160   3.207   0.551   3.425
 2421SOL     OW 8161   2.313   2.383   4.820
 2421SOL    HW1 8162   2.237   2.435   4.858
 2421SOL    HW2 8163   2.396   2.439   4.821
 2422SOL     OW 8164   5.313   1.877   0.573
 2422SOL    HW1 8165   5.305   1.808   0.644
 2422SOL    HW2 8166   5.286   1.838   0.485
 2423SOL     OW 8167   1.643   5.942   2.080
 2423SOL    HW1 8168   1.567   5.998   2.112
 2423SOL    HW2 8169   1.729   5.983   2.111
 2424SOL     OW 8170   6.406   6.656   6.883
 2424SOL    HW1 8171   6.396   6.691   6.976
 2424SOL    HW2 8172   6.348   6.575   6.872
 2425SOL     OW 8173   5.791   0.272   3.828
 2425SOL    HW1 8174   5.824   0.256   3.921
 2425SOL    HW2 8175   5.858   0.325   3.777
 2426SOL     OW 8176   1.310   5.569   5.360
 2426SOL    HW1 8177   1.252   5.523   5.428
 2426SOL    HW2 8178   1.344   5.501   5.295
 2427SOL     OW 8179   5.493   5.961   5.613
 2427SOL    HW1 8180   5.489   5.881   5.673
 2427SOL    HW2 8181   5.542   6.035   5.659
 2428SOL     OW 8182   0.280   0.629   1.954
 2428SOL    HW1 8183   0.236   0.557   1.901
 2428SOL    HW2 8184   0.220   0.709   1.956
 2429SOL     OW 8185   5.928   5.542   1.987
 2429SOL    HW1 8186   5.964   5.481   1.917
 2429SOL    HW2 8187   5.989   5.622   1.996
 2430SOL     OW 8188   6.146   1.067   2.005
 2430SOL    HW1 8189   6.105   1.148   1.964
 2430SOL    HW2 8190   6.192   1.092   2.091
 2431SOL     OW 8191   4.228   0.715   2.266
 2431SOL    HW1 8192   4.276   0.677   2.346
 2431SOL    HW2 8193   4.161   0.783   2.297
 2432SOL     OW 8194   4.385   6.667   2.263
 2432SOL    HW1 8195   4.417   6.584   2.310
 2432SOL    HW2 8196   4.358   6.644   2.170
 2433SOL     OW 8197   4.550   1.809   0.620
 2433SOL    HW1 8198   4.618   1.751   0.665
 2433SOL    HW2 8199   4.488   1.848   0.689
 2434SOL     OW 8200   4.284   1.641   6.373
 2434SOL    HW1 8201   4.360   1.611   6.316
 2434SOL    HW2 8202   4.260   1.569   6.438
 2435SOL     OW 8203   4.968   5.978   5.350
 2435SOL    HW1 8204   5.048   5.995   5.408
 2435SOL    HW2 8205   4.886   5.970   5.407
 2436SOL     OW 8206   1.870   5.990   6.240
 2436SOL    HW1 8207   1.965   5.993   6.270
 2436SOL    HW2 8208   1.816   6.055   6.293
 2437SOL     OW 8209   5.765   7.017   6.117
 2437SOL    HW1 8210   5.853   0.020   6.077
 2437SOL    HW2 8211   5.692   0.023   6.054
 2438SOL     OW 8212   3.355   2.031   0.709
 2438SOL    HW1 8213   3.368   2.063   0.803
 2438SOL    HW2 8214   3.416   1.954   0.690
 2439SOL     OW 8215   0.761   4.045   6.376
 2439SOL    HW1 8216   0.722   4.030   6.285
 2439SOL    HW2 8217   0.692   4.023   6.446
 2440SOL     OW 8218   4.928   5.627   5.801
 2440SOL    HW1 8219   4.869   5.564   5.852
 2440SOL    HW2 8220   4.889   5.719   5.804
 2441SOL     OW 8221   0.121   2.734   0.976
 2441SOL    HW1 8222   0.048   2.780   0.925
 2441SOL    HW2 8223   0.103   2.636   0.978
 2442SOL     OW 8224   1.299   3.679   5.673
 2442SOL    HW1 8225   1.288   3.774   5.645
 2442SOL    HW2 8226   1.324   3.675   5.770
 2443SOL     OW 8227   2.944   4.129   6.153
 2443SOL    HW1 8228   2.917   4.224   6.138
 2443SOL    HW2 8229   2.900   4.070   6.086
 2444SOL     OW 8230   2.468   4.465   5.817
 2444SOL    HW1 8231   2.565   4.442   5.825
 2444SOL    HW2 8232   2.418   4.385   5.782
 2445SOL     OW 8233   0.648   0.784   0.871
 2445SOL    HW1 8234   0.589   0.743   0.940
 2445SOL    HW2 8235   0.744   0.771   0.896
 2446SOL     OW 8236   6.208   4.195   4.349
 2446SOL    HW1 8237   6.135   4.263   4.349
 2446SOL    HW2 8238   6.227   4.166   4.442
 2447SOL     OW 8239   1.640   2.247   0.052
 2447SOL    HW1 8240   1.691   2.202   0.125
 2447SOL    HW2 8241   1.544   2.218   0.056
 2448SOL     OW 8242   0.320   0.208   4.577
 2448SOL    HW1 8243   0.338   0.291   4.523
 2448SOL    HW2 8244   0.342   0.225   4.673
 2449SOL     OW 8245   0.379   3.641   6.833
 2449SOL    HW1 8246   0.341   3.561   6.880
 2449SOL    HW2 8247   0.474   3.623   6.809
 2450SOL     OW 8248   2.775   4.696   2.703
 2450SOL    HW1 8249   2.716   4.662   2.629
 2450SOL    HW2 8250   2.750   4.791   2.724
 2451SOL     OW 8251   1.955   6.732   3.968
 2451SOL    HW1 8252   1.959   6.769   3.875
 2451SOL    HW2 8253   2.037   6.760   4.018
 2452SOL     OW 8254   1.056   3.704   2.680
 2452SOL    HW1 8255   0.967   3.738   2.710
 2452SOL    HW2 8256   1.104   3.776   2.630
 2453SOL     OW 8257   6.490   4.428   1.684
 2453SOL    HW1 8258   6.487   4.364   1.761
 2453SOL    HW2 8259   6.405   4.481   1.682
 2454SOL     OW 8260   3.139   0.156   1.946
 2454SOL    HW1 8261   3.143   0.239   1.891
 2454SOL    HW2 8262   3.073   0.093   1.907
 2455SOL     OW 8263   5.444   5.227   1.214
 2455SOL    HW1 8264   5.457   5.315   1.260
 2455SOL    HW2 8265   5.478   5.153   1.273
 2456SOL     OW 8266   5.070   6.432   1.921
 2456SOL    HW1 8267   5.161   6.403   1.950
 2456SOL    HW2 8268   5.049   6.389   1.833
 2457SOL     OW 8269   5.660   0.005   1.049
 2457SOL    HW1 8270   5.654   6.951   0.981
 2457SOL    HW2 8271   5.581   7.019   1.110
 2458SOL     OW 8272   2.485   5.881   2.734
 2458SOL    HW1 8273   2.563   5.885   2.672
 2458SOL    HW2 8274   2.504   5.937   2.814
 2459SOL     OW 8275   2.109   0.336   1.109
 2459SOL    HW1 8276   2.078   0.403   1.176
 2459SOL    HW2 8277   2.089   0.369   1.017
 2460SOL     OW 8278   3.112   6.228   1.964
 2460SOL    HW1 8279   3.206   6.246   1.936
 2460SOL    HW2 8280   3.111   6.186   2.054
 2461SOL     OW 8281   5.604   0.622   1.810
 2461SOL    HW1 8282   5.616   0.577   1.899
 2461SOL    HW2 8283   5.694   0.644   1.771
 2462SOL     OW 8284   2.364   5.374   6.556
 2462SOL    HW1 8285   2.302   5.426   6.499
 2462SOL    HW2 8286   2.406   5.301   6.502
 2463SOL     OW 8287   6.438   1.801   3.402
 2463SOL    HW1 8288   6.479   1.884   3.366
 2463SOL    HW2 8289   6.505   1.727   3.400
 2464SOL     OW 8290   1.212   3.658   1.333
 2464SOL    HW1 8291   1.123   3.642   1.376
 2464SOL    HW2 8292   1.272   3.705   1.398
 2465SOL     OW 8293   0.101   6.186   2.516
 2465SOL    HW1 8294   0.013   6.219   2.550
 2465SOL    HW2 8295   0.100   6.186   2.416
 2466SOL     OW 8296   4.002   1.833   2.740
 2466SOL    HW1 8297   3.995   1.811   2.643
 2466SOL    HW2 8298   4.024   1.930   2.751
 2467SOL     OW 8299   6.930   0.809   6.112
 2467SOL    HW1 8300   6.951   0.885   6.173
 2467SOL    HW2 8301   6.862   0.749   6.155
 2468SOL     OW 8302   6.843   5.753   1.351
 2468SOL    HW1 8303   6.847   5.659   1.316
 2468SOL    HW2 8304   6.748   5.779   1.367
 2469SOL     OW 8305   2.381   3.382   5.552
 2469SOL    HW1 8306   2.281   3.387   5.549
 2469SOL    HW2 8307   2.414   3.331   5.472
 2470SOL     OW 8308   4.812   3.403   0.046
 2470SOL    HW1 8309   4.783   3.315   0.008
 2470SOL    HW2 8310   4.905   3.394   0.082
 2471SOL     OW 8311   0.766   6.498   2.970
 2471SOL    HW1 8312   0.767   6.468   3.066
 2471SOL    HW2 8313   0.672   6.497   2.936
 2472SOL     OW 8314   5.685   2.333   4.560
 2472SOL    HW1 8315   5.771   2.324   4.610
 2472SOL    HW2 8316   5.660   2.245   4.519
 2473SOL     OW 8317   0.967   6.006   4.819
 2473SOL    HW1 8318   0.867   6.000   4.824
 2473SOL    HW2 8319   1.006   5.987   4.910
 2474SOL     OW 8320   6.571   4.675   5.106
 2474SOL    HW1 8321   6.636   4.750   5.098
 2474SOL    HW2 8322   6.618   4.594   5.141
 2475SOL     OW 8323   3.915   2.597   0.526
 2475SOL    HW1 8324   3.892   2.601   0.429
 2475SOL    HW2 8325   3.842   2.638   0.580
 2476SOL     OW 8326   0.442   2.407   3.727
 2476SOL    HW1 8327   0.353   2.452   3.729
 2476SOL    HW2 8328   0.510   2.469   3.688
 2477SOL     OW 8329   5.063   4.958   1.183
 2477SOL    HW1 8330   5.090   5.036   1.240
 2477SOL    HW2 8331   5.070   4.984   1.086
 2478SOL     OW 8332   5.886   0.129   2.889
 2478SOL    HW1 8333   5.955   0.058   2.872
 2478SOL    HW2 8334   5.800   0.102   2.845
 2479SOL     OW 8335   0.925   2.679   0.714
 2479SOL    HW1 8336   0.879   2.624   0.784
 2479SOL    HW2 8337   0.880   2.664   0.625
 2480SOL     OW 8338   0.826   3.697   0.736
 2480SOL    HW1 8339   0.790   3.724   0.647
 2480SOL    HW2 8340   0.751   3.687   0.801
 2481SOL     OW 8341   4.285   5.294   2.155
 2481SOL    HW1 8342   4.222   5.318   2.229
 2481SOL    HW2 8343   4.238   5.233   2.091
 2482SOL     OW 8344   4.761   2.817   5.096
 2482SOL    HW1 8345   4.668   2.807   5.132
 2482SOL    HW2 8346   4.757   2.864   5.007
 2483SOL     OW 8347   1.049   1.941   6.781
 2483SOL    HW1 8348   1.052   1.842   6.800
 2483SOL    HW2 8349   0.973   1.982   6.831
 2484SOL     OW 8350   3.224   1.586   0.224
 2484SOL    HW1 8351   3.188   1.676   0.248
 2484SOL    HW2 8352   3.228   1.528   0.305
 2485SOL     OW 8353   0.051   5.332   2.346
 2485SOL    HW1 8354   0.136   5.302   2.389
 2485SOL    HW2 8355   0.000   5.253   2.312
 2486SOL     OW 8356   1.291   5.454   2.923
 2486SOL    HW1 8357   1.268   5.357   2.934
 2486SOL    HW2 8358   1.259   5.505   3.003
 2487SOL     OW 8359   3.635   0.637   0.886
 2487SOL    HW1 8360   3.552   0.668   0.840
 2487SOL    HW2 8361   3.711   0.698   0.863
 2488SOL     OW 8362   3.069   5.389   1.274
 2488SOL    HW1 8363   3.138   5.317   1.280
 2488SOL    HW2 8364   2.995   5.359   1.215
 2489SOL     OW 8365   1.412   5.729   4.491
 2489SOL    HW1 8366   1.407   5.805   4.426
 2489SOL    HW2 8367   1.504   5.725   4.530
 2490SOL     OW 8368   5.504   3.472   1.127
 2490SOL    HW1 8369   5.572   3.400   1.111
 2490SOL    HW2 8370   5.448   3.448   1.206
 2491SOL     OW 8371   2.892   5.224   2.560
 2491SOL    HW1 8372   2.819   5.265   2.615
 2491SOL    HW2 8373   2.881   5.251   2.464
 2492SOL     OW 8374   5.095   3.322   6.752
 2492SOL    HW1 8375   5.123   3.247   6.692
 2492SOL    HW2 8376   4.997   3.313   6.772
 2493SOL     OW 8377   6.367   1.820   3.662
 2493SOL    HW1 8378   6.418   1.745   3.704
 2493SOL    HW2 8379   6.353   1.801   3.565
 2494SOL     OW 8380   4.967   3.384   2.420
 2494SOL    HW1 8381   5.036   3.441   2.376
 2494SOL    HW2 8382   4.997   3.288   2.418
 2495SOL     OW 8383   5.613   1.026   5.175
 2495SOL    HW1 8384   5.564   0.948   5.215
 2495SOL    HW2 8385   5.548   1.084   5.126
 2496SOL     OW 8386   1.240   6.539   0.542
 2496SOL    HW1 8387   1.158   6.594   0.560
 2496SOL    HW2 8388   1.232   6.450   0.588
 2497SOL     OW 8389   6.075   1.638   6.666
 2497SOL    HW1 8390   6.048   1.663   6.573
 2497SOL    HW2 8391   6.134   1.557   6.663
 2498SOL     OW 8392   1.645   3.407   4.794
 2498SOL    HW1 8393   1.699   3.441   4.717
 2498SOL    HW2 8394   1.677   3.447   4.879
 2499SOL     OW 8395   6.020   0.695   4.750
 2499SOL    HW1 8396   5.930   0.722   4.716
 2499SOL    HW2 8397   6.084   0.686   4.674
 2500SOL     OW 8398   4.452   3.296   0.064
 2500SOL    HW1 8399   4.487   3.223   0.123
 2500SOL    HW2 8400   4.421   3.256   6.997
 2501SOL     OW 8401   0.248   3.989   0.110
 2501SOL    HW1 8402   0.259   4.020   0.205
 2501SOL    HW2 8403   0.246   4.069   0.049
 2502SOL     OW 8404   1.945   6.503   3.471
 2502SOL    HW1 8405   2.030   6.521   3.422
 2502SOL    HW2 8406   1.898   6.590   3.489
 2503SOL     OW 8407   4.406   4.945   4.865
 2503SOL    HW1 8408   4.491   4.902   4.894
 2503SOL    HW2 8409   4.395   5.033   4.913
 2504SOL     OW 8410   1.262   4.313   3.939
 2504SOL    HW1 8411   1.333   4.266   3.992
 2504SOL    HW2 8412   1.175   4.265   3.950
 2505SOL     OW 8413   4.400   5.593   4.399
 2505SOL    HW1 8414   4.346   5.509   4.404
 2505SOL    HW2 8415   4.458   5.590   4.318
 2506SOL     OW 8416   0.244   2.228   6.586
 2506SOL    HW1 8417   0.169   2.286   6.618
 2506SOL    HW2 8418   0.213   2.171   6.510
 2507SOL     OW 8419   6.666   6.000   0.042
 2507SOL    HW1 8420   6.733   5.934   0.074
 2507SOL    HW2 8421   6.691   6.030   6.969
 2508SOL     OW 8422   2.290   2.569   2.461
 2508SOL    HW1 8423   2.291   2.518   2.548
 2508SOL    HW2 8424   2.327   2.660   2.476
 2509SOL     OW 8425   4.887   2.830   3.895
 2509SOL    HW1 8426   4.884   2.836   3.994
 2509SOL    HW2 8427   4.793   2.829   3.858
 2510SOL     OW 8428   4.151   5.752   0.516
 2510SOL    HW1 8429   4.165   5.794   0.605
 2510SOL    HW2 8430   4.144   5.653   0.527
 2511SOL     OW 8431   1.494   0.561   4.939
 2511SOL    HW1 8432   1.538   0.643   4.975
 2511SOL    HW2 8433   1.453   0.581   4.850
 2512SOL     OW 8434   5.278   3.675   5.193
 2512SOL    HW1 8435   5.294   3.590   5.243
 2512SOL    HW2 8436   5.253   3.747   5.258
 2513SOL     OW 8437   0.603   3.247   0.417
 2513SOL    HW1 8438   0.540   3.304   0.364
 2513SOL    HW2 8439   0.550   3.183   0.473
 2514SOL     OW 8440   1.157   1.046   3.543
 2514SOL    HW1 8441   1.212   0.989   3.482
 2514SOL    HW2 8442   1.064   1.010   3.546
 2515SOL     OW 8443   0.757   5.609   0.492
 2515SOL    HW1 8444   0.663   5.608   0.457
 2515SOL    HW2 8445   0.757   5.573   0.585
 2516SOL     OW 8446   5.457   6.452   4.003
 2516SOL    HW1 8447   5.368   6.496   3.988
 2516SOL    HW2 8448   5.525   6.521   4.026
 2517SOL     OW 8449   2.249   4.828   6.995
 2517SOL    HW1 8450   2.306   4.855   6.917
 2517SOL    HW2 8451   2.212   4.736   6.979
 2518SOL     OW 8452   2.285   2.351   6.643
 2518SOL    HW1 8453   2.231   2.434   6.629
 2518SOL    HW2 8454   2.291   2.301   6.556
 2519SOL     OW 8455   4.877   4.302   4.475
 2519SOL    HW1 8456   4.792   4.323   4.427
 2519SOL    HW2 8457   4.879   4.205   4.499
 2520SOL     OW 8458   2.183   4.087   2.071
 2520SOL    HW1 8459   2.216   4.136   2.152
 2520SOL    HW2 8460   2.161   3.993   2.095
 2521SOL     OW 8461   5.403   6.772   5.184
 2521SOL    HW1 8462   5.379   6.697   5.122
 2521SOL    HW2 8463   5.325   6.833   5.194
 2522SOL     OW 8464   1.235   2.950   4.758
 2522SOL    HW1 8465   1.237   2.899   4.845
 2522SOL    HW2 8466   1.225   2.885   4.682
 2523SOL     OW 8467   0.705   3.231   6.796
 2523SOL    HW1 8468   0.709   3.135   6.767
 2523SOL    HW2 8469   0.713   3.290   6.715
 2524SOL     OW 8470   1.154   6.840   4.502
 2524SOL    HW1 8471   1.252   6.842   4.484
 2524SOL    HW2 8472   1.137   6.864   4.598
 2525SOL     OW 8473   1.227   3.627   3.577
 2525SOL    HW1 8474   1.257   3.537   3.608
 2525SOL    HW2 8475   1.233   3.692   3.652
 2526SOL     OW 8476   6.866   1.415   4.915
 2526SOL    HW1 8477   6.892   1.466   4.834
 2526SOL    HW2 8478   6.802   1.342   4.890
 2527SOL     OW 8479   5.706   6.460   3.626
 2527SOL    HW1 8480   5.727   6.397   3.702
 2527SOL    HW2 8481   5.638   6.526   3.656
 2528SOL     OW 8482   6.368   5.374   0.452
 2528SOL    HW1 8483   6.347   5.358   0.548
 2528SOL    HW2 8484   6.334   5.298   0.397
 2529SOL     OW 8485   4.921   3.833   4.676
 2529SOL    HW1 8486   4.915   3.788   4.765
 2529SOL    HW2 8487   4.995   3.899   4.677
 2530SOL     OW 8488   0.216   0.644   3.987
 2530SOL    HW1 8489   0.303   0.668   4.031
 2530SOL    HW2 8490   0.199   0.546   3.998
 2531SOL     OW 8491   3.925   1.807   6.537
 2531SOL    HW1 8492   3.873   1.891   6.520
 2531SOL    HW2 8493   3.874   1.749   6.601
 2532SOL     OW 8494   1.653   4.800   6.697
 2532SOL    HW1 8495   1.627   4.707   6.670
 2532SOL    HW2 8496   1.735   4.796   6.754
 2533SOL     OW 8497   5.729   6.714   5.896
 2533SOL    HW1 8498   5.806   6.697   5.958
 2533SOL    HW2 8499   5.644   6.699   5.946
 2534SOL     OW 8500   0.835   2.150   3.818
 2534SOL    HW1 8501   0.882   2.232   3.851
 2534SOL    HW2 8502   0.739   2.155   3.842
 2535SOL     OW 8503   1.766   1.145   3.017
 2535SOL    HW1 8504   1.698   1.201   3.065
 2535SOL    HW2 8505   1.818   1.091   3.083
 2536SOL     OW 8506   5.692   1.117   4.326
 2536SOL    HW1 8507   5.635   1.192   4.291
 2536SOL    HW2 8508   5.779   1.116   4.277
 2537SOL     OW 8509   4.609   5.406   1.175
 2537SOL    HW1 8510   4.669   5.441   1.103
 2537SOL    HW2 8511   4.644   5.434   1.264
 2538SOL     OW 8512   2.306   4.702   4.987
 2538SOL    HW1 8513   2.300   4.665   5.080
 2538SOL    HW2 8514   2.216   4.734   4.958
 2539SOL     OW 8515   3.315   0.135   5.193
 2539SOL    HW1 8516   3.334   0.058   5.132
 2539SOL    HW2 8517   3.285   0.101   5.282
 2540SOL     OW 8518   5.315   1.984   2.450
 2540SOL    HW1 8519   5.352   2.056   2.392
 2540SOL    HW2 8520   5.386   1.951   2.512
 2541SOL     OW 8521   0.867   6.474   5.806
 2541SOL    HW1 8522   0.830   6.565   5.823
 2541SOL    HW2 8523   0.793   6.411   5.781
 2542SOL     OW 8524   3.436   2.108   4.236
 2542SOL    HW1 8525   3.365   2.095   4.305
 2542SOL    HW2 8526   3.399   2.158   4.158
 2543SOL     OW 8527   0.310   1.895   3.708
 2543SOL    HW1 8528   0.232   1.933   3.757
 2543SOL    HW2 8529   0.318   1.797   3.728
 2544SOL     OW 8530   6.368   5.055   1.825
 2544SOL    HW1 8531   6.458   5.022   1.800
 2544SOL    HW2 8532   6.311   4.979   1.856
 2545SOL     OW 8533   0.043   1.731   1.609
 2545SOL    HW1 8534   7.007   1.785   1.673
 2545SOL    HW2 8535   0.074   1.789   1.534
 2546SOL     OW 8536   7.000   4.355   2.737
 2546SOL    HW1 8537   6.951   4.430   2.782
 2546SOL    HW2 8538   7.018   4.283   2.804
 2547SOL     OW 8539   5.914   3.731   1.165
 2547SOL    HW1 8540   5.965   3.747   1.250
 2547SOL    HW2 8541   5.942   3.797   1.096
 2548SOL     OW 8542   6.956   6.776   5.363
 2548SOL    HW1 8543   7.002   6.853   5.407
 2548SOL    HW2 8544   7.004   6.752   5.279
 2549SOL     OW 8545   2.520   2.421   0.804
 2549SOL    HW1 8546   2.519   2.379   0.895
 2549SOL    HW2 8547   2.603   2.394   0.756
 2550SOL     OW 8548   4.551   6.998   6.215
 2550SOL    HW1 8549   4.572   0.013   6.124
 2550SOL    HW2 8550   4.495   0.046   6.264
 2551SOL     OW 8551   3.392   5.283   0.022
 2551SOL    HW1 8552   3.418   5.251   0.113
 2551SOL    HW2 8553   3.419   5.379   0.011
 2552SOL     OW 8554   2.608   6.106   0.763
 2552SOL    HW1 8555   2.582   6.133   0.856
 2552SOL    HW2 8556   2.525   6.082   0.711
 2553SOL     OW 8557   4.491   0.978   6.998
 2553SOL    HW1 8558   4.516   1.028   6.915
 2553SOL    HW2 8559   4.404   0.931   6.984
 2554SOL     OW 8560   1.239   5.788   1.369
 2554SOL    HW1 8561   1.324   5.775   1.420
 2554SOL    HW2 8562   1.258   5.832   1.281
 2555SOL     OW 8563   5.568   5.876   5.056
 2555SOL    HW1 8564   5.516   5.908   5.135
 2555SOL    HW2 8565   5.663   5.907   5.064
 2556SOL     OW 8566   3.986   0.284   0.846
 2556SOL    HW1 8567   4.018   0.338   0.923
 2556SOL    HW2 8568   3.933   0.206   0.880
 2557SOL     OW 8569   3.473   0.244   0.069
 2557SOL    HW1 8570   3.391   0.294   0.097
 2557SOL    HW2 8571   3.475   0.238   6.989
 2558SOL     OW 8572   6.024   3.805   6.307
 2558SOL    HW1 8573   6.117   3.769   6.296
 2558SOL    HW2 8574   5.958   3.734   6.282
 2559SOL     OW 8575   0.975   4.620   4.407
 2559SOL    HW1 8576   0.983   4.657   4.500
 2559SOL    HW2 8577   0.878   4.614   4.382
 2560SOL     OW 8578   4.982   1.936   3.285
 2560SOL    HW1 8579   4.999   2.021   3.236
 2560SOL    HW2 8580   4.979   1.954   3.383
 2561SOL     OW 8581   3.583   0.738   4.523
 2561SOL    HW1 8582   3.613   0.829   4.551
 2561SOL    HW2 8583   3.592   0.675   4.601
 2562SOL     OW 8584   3.259   0.077   3.267
 2562SOL    HW1 8585   3.300   7.005   3.273
 2562SOL    HW2 8586   3.168   0.070   3.227
 2563SOL     OW 8587   3.704   1.269   0.064
 2563SOL    HW1 8588   3.754   1.209   0.001
 2563SOL    HW2 8589   3.615   1.291   0.026
 2564SOL     OW 8590   1.669   1.345   0.569
 2564SOL    HW1 8591   1.632   1.345   0.662
 2564SOL    HW2 8592   1.736   1.272   0.559
 2565SOL     OW 8593   1.393   2.137   0.053
 2565SOL    HW1 8594   1.347   2.063   0.101
 2565SOL    HW2 8595   1.349   2.152   6.984
 2566SOL     OW 8596   2.344   0.710   1.268
 2566SOL    HW1 8597   2.359   0.613   1.254
 2566SOL    HW2 8598   2.341   0.757   1.180
 2567SOL     OW 8599   1.508   0.389   0.389
 2567SOL    HW1 8600   1.433   0.335   0.351
 2567SOL    HW2 8601   1.579   0.327   0.423
 2568SOL     OW 8602   2.932   6.278   1.260
 2568SOL    HW1 8603   2.838   6.310   1.252
 2568SOL    HW2 8604   2.989   6.324   1.192
 2569SOL     OW 8605   0.935   0.379   1.329
 2569SOL    HW1 8606   0.975   0.295   1.365
 2569SOL    HW2 8607   0.957   0.455   1.390
 2570SOL     OW 8608   5.951   6.592   6.050
 2570SOL    HW1 8609   6.014   6.612   5.975
 2570SOL    HW2 8610   5.963   6.497   6.078
 2571SOL     OW 8611   3.588   3.255   4.320
 2571SOL    HW1 8612   3.667   3.268   4.259
 2571SOL    HW2 8613   3.584   3.331   4.385
 2572SOL     OW 8614   1.923   6.512   1.715
 2572SOL    HW1 8615   1.866   6.552   1.644
 2572SOL    HW2 8616   2.012   6.485   1.677
 2573SOL     OW 8617   7.017   2.306   4.825
 2573SOL    HW1 8618   0.085   2.332   4.782
 2573SOL    HW2 8619   6.977   2.230   4.774
 2574SOL     OW 8620   0.917   4.108   1.856
 2574SOL    HW1 8621   1.004   4.063   1.835
 2574SOL    HW2 8622   0.919   4.141   1.950
 2575SOL     OW 8623   6.317   4.023   0.493
 2575SOL    HW1 8624   6.412   4.017   0.524
 2575SOL    HW2 8625   6.259   3.963   0.548
 2576SOL     OW 8626   1.634   0.094   3.603
 2576SOL    HW1 8627   1.679   0.035   3.536
 2576SOL    HW2 8628   1.687   0.095   3.687
 2577SOL     OW 8629   2.224   5.903   2.661
 2577SOL    HW1 8630   2.223   5.971   2.588
 2577SOL    HW2 8631   2.315   5.897   2.701
 2578SOL     OW 8632   5.048   2.632   4.409
 2578SOL    HW1 8633   5.057   2.541   4.449
 2578SOL    HW2 8634   5.088   2.634   4.318
 2579SOL     OW 8635   6.708   2.508   6.628
 2579SOL    HW1 8636   6.680   2.460   6.544
 2579SOL    HW2 8637   6.670   2.459   6.707
 2580SOL     OW 8638   1.590   2.470   6.484
 2580SOL    HW1 8639   1.534   2.527   6.544
 2580SOL    HW2 8640   1.567   2.373   6.499
 2581SOL     OW 8641   6.567   6.757   3.652
 2581SOL    HW1 8642   6.503   6.740   3.577
 2581SOL    HW2 8643   6.649   6.802   3.615
 2582SOL     OW 8644   0.684   5.408   2.158
 2582SOL    HW1 8645   0.717   5.330   2.106
 2582SOL    HW2 8646   0.760   5.449   2.208
 2583SOL     OW 8647   1.504   0.001   0.503
 2583SOL    HW1 8648   1.475   0.002   0.599
 2583SOL    HW2 8649   1.565   6.943   0.487
 2584SOL     OW 8650   4.412   6.523   1.530
 2584SOL    HW1 8651   4.340   6.458   1.552
 2584SOL    HW2 8652   4.385   6.614   1.562
 2585SOL     OW 8653   3.835   0.595   1.064
 2585SOL    HW1 8654   3.839   0.649   1.148
 2585SOL    HW2 8655   3.748   0.611   1.018
 2586SOL     OW 8656   6.315   2.316   3.902
 2586SOL    HW1 8657   6.400   2.272   3.873
 2586SOL    HW2 8658   6.332   2.373   3.982
 2587SOL     OW 8659   5.691   6.389   3.341
 2587SOL    HW1 8660   5.730   6.465   3.395
 2587SOL    HW2 8661   5.764   6.349   3.285
 2588SOL     OW 8662   5.686   1.084   1.043
 2588SOL    HW1 8663   5.700   0.988   1.020
 2588SOL    HW2 8664   5.759   1.139   1.002
 2589SOL     OW 8665   6.643   6.490   6.569
 2589SOL    HW1 8666   6.679   6.473   6.661
 2589SOL    HW2 8667   6.674   6.416   6.508
 2590SOL     OW 8668   4.471   0.281   2.522
 2590SOL    HW1 8669   4.571   0.282   2.517
 2590SOL    HW2 8670   4.442   0.316   2.611
 2591SOL     OW 8671   5.256   6.517   1.343
 2591SOL    HW1 8672   5.226   6.499   1.436
 2591SOL    HW2 8673   5.326   6.451   1.317
 2592SOL     OW 8674   3.929   5.400   1.745
 2592SOL    HW1 8675   3.842   5.382   1.790
 2592SOL    HW2 8676   3.919   5.479   1.684
 2593SOL     OW 8677   3.185   6.416   2.579
 2593SOL    HW1 8678   3.143   6.325   2.578
 2593SOL    HW2 8679   3.157   6.467   2.498
 2594SOL     OW 8680   0.589   6.607   6.496
 2594SOL    HW1 8681   0.658   6.663   6.452
 2594SOL    HW2 8682   0.608   6.601   6.594
 2595SOL     OW 8683   6.037   3.595   4.582
 2595SOL    HW1 8684   6.028   3.671   4.518
 2595SOL    HW2 8685   5.958   3.534   4.573
 2596SOL     OW 8686   3.992   2.194   1.969
 2596SOL    HW1 8687   3.907   2.218   2.016
 2596SOL    HW2 8688   3.996   2.241   1.880
 2597SOL     OW 8689   2.082   3.257   0.131
 2597SOL    HW1 8690   1.990   3.221   0.141
 2597SOL    HW2 8691   2.081   3.356   0.144
 2598SOL     OW 8692   6.461   3.478   3.630
 2598SOL    HW1 8693   6.385   3.452   3.570
 2598SOL    HW2 8694   6.429   3.481   3.725
 2599SOL     OW 8695   3.572   5.505   0.223
 2599SOL    HW1 8696   3.546   5.538   0.132
 2599SOL    HW2 8697   3.491   5.500   0.281
 2600SOL     OW 8698   5.889   3.652   3.285
 2600SOL    HW1 8699   5.955   3.624   3.355
 2600SOL    HW2 8700   5.937   3.689   3.206
 2601SOL     OW 8701   4.135   3.050   6.615
 2601SOL    HW1 8702   4.212   3.055   6.552
 2601SOL    HW2 8703   4.069   2.982   6.581
 2602SOL     OW 8704   6.372   5.343   3.677
 2602SOL    HW1 8705   6.424   5.330   3.593
 2602SOL    HW2 8706   6.276   5.321   3.661
 2603SOL     OW 8707   3.059   1.682   1.234
 2603SOL    HW1 8708   3.103   1.764   1.196
 2603SOL    HW2 8709   3.129   1.622   1.273
 2604SOL     OW 8710   5.885   6.922   1.186
 2604SOL    HW1 8711   5.948   6.889   1.116
 2604SOL    HW2 8712   5.797   6.946   1.143
 2605SOL     OW 8713   4.486   4.943   4.441
 2605SOL    HW1 8714   4.443   4.991   4.517
 2605SOL    HW2 8715   4.460   4.987   4.355
 2606SOL     OW 8716   0.059   4.363   0.066
 2606SOL    HW1 8717   7.011   4.298   0.030
 2606SOL    HW2 8718   0.026   4.401   0.153
 2607SOL     OW 8719   0.533   0.998   3.817
 2607SOL    HW1 8720   0.612   1.051   3.847
 2607SOL    HW2 8721   0.479   1.052   3.752
 2608SOL     OW 8722   5.118   0.689   1.156
 2608SOL    HW1 8723   5.084   0.688   1.062
 2608SOL    HW2 8724   5.163   0.777   1.173
 2609SOL     OW 8725   0.962   2.386   2.302
 2609SOL    HW1 8726   0.891   2.328   2.261
 2609SOL    HW2 8727   0.936   2.408   2.397
 2610SOL     OW 8728   5.926   6.113   4.814
 2610SOL    HW1 8729   5.908   6.153   4.904
 2610SOL    HW2 8730   6.024   6.107   4.800
 2611SOL     OW 8731   4.650   6.263   1.389
 2611SOL    HW1 8732   4.679   6.331   1.322
 2611SOL    HW2 8733   4.655   6.302   1.481
 2612SOL     OW 8734   5.932   6.673   2.922
 2612SOL    HW1 8735   5.898   6.746   2.980
 2612SOL    HW2 8736   5.855   6.630   2.874
 2613SOL     OW 8737   3.689   0.314   1.451
 2613SOL    HW1 8738   3.624   0.306   1.527
 2613SOL    HW2 8739   3.777   0.347   1.486
 2614SOL     OW 8740   7.005   6.445   6.092
 2614SOL    HW1 8741   0.002   6.375   6.161
 2614SOL    HW2 8742   6.907   6.460   6.082
 2615SOL     OW 8743   5.119   5.673   2.707
 2615SOL    HW1 8744   5.035   5.679   2.653
 2615SOL    HW2 8745   5.125   5.583   2.750
 2616SOL     OW 8746   3.806   2.924   3.027
 2616SOL    HW1 8747   3.757   3.010   3.041
 2616SOL    HW2 8748   3.741   2.853   3.000
 2617SOL     OW 8749   4.131   6.673   1.336
 2617SOL    HW1 8750   4.085   6.583   1.334
 2617SOL    HW2 8751   4.063   6.745   1.323
 2618SOL     OW 8752   1.259   0.345   0.773
 2618SOL    HW1 8753   1.354   0.345   0.803
 2618SOL    HW2 8754   1.201   0.380   0.846
 2619SOL     OW 8755   4.429   1.937   1.975
 2619SOL    HW1 8756   4.487   1.901   2.048
 2619SOL    HW2 8757   4.360   1.999   2.013
 2620SOL     OW 8758   1.060   4.728   4.028
 2620SOL    HW1 8759   1.115   4.667   3.972
 2620SOL    HW2 8760   1.076   4.708   4.125
 2621SOL     OW 8761   0.670   5.130   3.590
 2621SOL    HW1 8762   0.741   5.076   3.635
 2621SOL    HW2 8763   0.660   5.218   3.636
 2622SOL     OW 8764   2.479   2.658   6.736
 2622SOL    HW1 8765   2.409   2.619   6.797
 2622SOL    HW2 8766   2.444   2.743   6.696
 2623SOL     OW 8767   3.096   1.085   5.865
 2623SOL    HW1 8768   3.078   1.068   5.962
 2623SOL    HW2 8769   3.161   1.160   5.856
 2624SOL     OW 8770   5.718   2.453   3.684
 2624SOL    HW1 8771   5.775   2.495   3.755
 2624SOL    HW2 8772   5.742   2.491   3.595
 2625SOL     OW 8773   2.969   2.361   5.681
 2625SOL    HW1 8774   3.063   2.328   5.676
 2625SOL    HW2 8775   2.969   2.460   5.700
 2626SOL     OW 8776   1.958   6.728   3.080
 2626SOL    HW1 8777   1.989   6.822   3.070
 2626SOL    HW2 8778   1.858   6.725   3.079
 2627SOL     OW 8779   6.574   0.447   4.056
 2627SOL    HW1 8780   6.634   0.377   4.017
 2627SOL    HW2 8781   6.511   0.405   4.121
 2628SOL     OW 8782   3.906   5.974   6.897
 2628SOL    HW1 8783   3.828   5.913   6.900
 2628SOL    HW2 8784   3.878   6.066   6.924
 2629SOL     OW 8785   3.564   4.159   1.395
 2629SOL    HW1 8786   3.607   4.128   1.480
 2629SOL    HW2 8787   3.465   4.152   1.403
 2630SOL     OW 8788   2.979   2.198   2.406
 2630SOL    HW1 8789   2.902   2.244   2.363
 2630SOL    HW2 8790   3.042   2.165   2.336
 2631SOL     OW 8791   4.388   6.508   3.851
 2631SOL    HW1 8792   4.393   6.498   3.950
 2631SOL    HW2 8793   4.332   6.435   3.812
 2632SOL     OW 8794   3.579   2.136   0.404
 2632SOL    HW1 8795   3.528   2.118   0.320
 2632SOL    HW2 8796   3.631   2.055   0.430
 2633SOL     OW 8797   5.813   2.311   6.951
 2633SOL    HW1 8798   5.769   2.224   6.974
 2633SOL    HW2 8799   5.912   2.301   6.958
 2634SOL     OW 8800   2.016   4.128   1.504
 2634SOL    HW1 8801   1.974   4.170   1.424
 2634SOL    HW2 8802   2.010   4.028   1.497
 2635SOL     OW 8803   5.317   4.754   5.130
 2635SOL    HW1 8804   5.260   4.672   5.133
 2635SOL    HW2 8805   5.410   4.730   5.102
 2636SOL     OW 8806   4.499   0.257   5.598
 2636SOL    HW1 8807   4.513   0.291   5.691
 2636SOL    HW2 8808   4.525   0.327   5.532
 2637SOL     OW 8809   5.769   6.439   2.796
 2637SOL    HW1 8810   5.803   6.357   2.840
 2637SOL    HW2 8811   5.675   6.457   2.824
 2638SOL     OW 8812   5.558   5.901   1.106
 2638SOL    HW1 8813   5.477   5.935   1.058
 2638SOL    HW2 8814   5.612   5.843   1.045
 2639SOL     OW 8815   6.279   6.133   1.325
 2639SOL    HW1 8816   6.263   6.193   1.247
 2639SOL    HW2 8817   6.294   6.040   1.292
 2640SOL     OW 8818   6.700   6.235   5.147
 2640SOL    HW1 8819   6.657   6.170   5.210
 2640SOL    HW2 8820   6.706   6.324   5.191
 2641SOL     OW 8821   5.100   4.331   6.865
 2641SOL    HW1 8822   5.159   4.408   6.891
 2641SOL    HW2 8823   5.085   4.272   6.944
 2642SOL     OW 8824   5.011   0.459   3.557
 2642SOL    HW1 8825   4.947   0.393   3.519
 2642SOL    HW2 8826   5.029   0.531   3.490
 2643SOL     OW 8827   7.017   0.275   2.659
 2643SOL    HW1 8828   0.016   0.210   2.733
 2643SOL    HW2 8829   0.085   0.313   2.627
 2644SOL     OW 8830   0.643   4.623   6.098
 2644SOL    HW1 8831   0.570   4.563   6.066
 2644SOL    HW2 8832   0.732   4.581   6.079
 2645SOL     OW 8833   5.368   5.832   6.220
 2645SOL    HW1 8834   5.335   5.922   6.250
 2645SOL    HW2 8835   5.327   5.810   6.131
 2646SOL     OW 8836   0.146   0.348   6.300
 2646SOL    HW1 8837   0.229   0.387   6.340
 2646SOL    HW2 8838   0.151   0.248   6.302
 2647SOL     OW 8839   4.528   2.143   1.522
 2647SOL    HW1 8840   4.587   2.092   1.584
 2647SOL    HW2 8841   4.526   2.239   1.548
 2648SOL     OW 8842   5.667   0.308   2.254
 2648SOL    HW1 8843   5.567   0.303   2.254
 2648SOL    HW2 8844   5.700   0.324   2.347
 2649SOL     OW 8845   3.139   1.645   6.407
 2649SOL    HW1 8846   3.077   1.641   6.328
 2649SOL    HW2 8847   3.210   1.713   6.390
 2650SOL     OW 8848   6.859   6.146   2.892
 2650SOL    HW1 8849   6.821   6.196   2.970
 2650SOL    HW2 8850   6.849   6.048   2.907
 2651SOL     OW 8851   6.770   1.242   2.098
 2651SOL    HW1 8852   6.685   1.227   2.048
 2651SOL    HW2 8853   6.836   1.171   2.076
 2652SOL     OW 8854   3.112   3.122   3.347
 2652SOL    HW1 8855   3.026   3.171   3.363
 2652SOL    HW2 8856   3.105   3.067   3.264
 2653SOL     OW 8857   6.614   6.698   5.976
 2653SOL    HW1 8858   6.518   6.705   6.006
 2653SOL    HW2 8859   6.617   6.692   5.876
 2654SOL     OW 8860   5.141   2.497   5.660
 2654SOL    HW1 8861   5.105   2.452   5.742
 2654SOL    HW2 8862   5.181   2.585   5.686
 2655SOL     OW 8863   4.806   6.309   4.531
 2655SOL    HW1 8864   4.747   6.238   4.493
 2655SOL    HW2 8865   4.898   6.301   4.492
 2656SOL     OW 8866   5.188   3.740   3.547
 2656SOL    HW1 8867   5.218   3.814   3.607
 2656SOL    HW2 8868   5.263   3.675   3.535
 2657SOL     OW 8869   1.823   3.857   6.930
 2657SOL    HW1 8870   1.737   3.903   6.955
 2657SOL    HW2 8871   1.900   3.905   6.973
 2658SOL     OW 8872   6.424   4.481   5.609
 2658SOL    HW1 8873   6.431   4.426   5.692
 2658SOL    HW2 8874   6.394   4.573   5.632
 2659SOL     OW 8875   6.775   2.510   4.452
 2659SOL    HW1 8876   6.844   2.532   4.520
 2659SOL    HW2 8877   6.820   2.491   4.364
 2660SOL     OW 8878   6.073   2.285   2.622
 2660SOL    HW1 8879   6.005   2.311   2.691
 2660SOL    HW2 8880   6.030   2.227   2.552
 2661SOL     OW 8881   3.837   5.924   1.033
 2661SOL    HW1 8882   3.881   5.850   0.982
 2661SOL    HW2 8883   3.840   5.903   1.131
 2662SOL     OW 8884   3.973   6.583   4.495
 2662SOL    HW1 8885   3.901   6.607   4.561
 2662SOL    HW2 8886   3.954   6.494   4.455
 2663SOL     OW 8887   1.874   4.602   2.106
 2663SOL    HW1 8888   1.964   4.562   2.125
 2663SOL    HW2 8889   1.802   4.546   2.146
 2664SOL     OW 8890   4.149   3.635   2.663
 2664SOL    HW1 8891   4.136   3.654   2.760
 2664SOL    HW2 8892   4.198   3.548   2.652
 2665SOL     OW 8893   3.451   1.316   5.048
 2665SOL    HW1 8894   3.380   1.248   5.067
 2665SOL    HW2 8895   3.429   1.401   5.096
 2666SOL     OW 8896   5.252   4.293   0.841
 2666SOL    HW1 8897   5.333   4.284   0.898
 2666SOL    HW2 8898   5.273   4.349   0.760
 2667SOL     OW 8899   2.238   5.878   4.741
 2667SOL    HW1 8900   2.289   5.936   4.678
 2667SOL    HW2 8901   2.258   5.905   4.835
 2668SOL     OW 8902   6.973   3.375   5.374
 2668SOL    HW1 8903   7.002   3.299   5.432
 2668SOL    HW2 8904   6.934   3.339   5.289
 2669SOL     OW 8905   4.264   4.826   5.378
 2669SOL    HW1 8906   4.175   4.837   5.334
 2669SOL    HW2 8907   4.306   4.740   5.348
 2670SOL     OW 8908   1.049   1.318   0.299
 2670SOL    HW1 8909   1.136   1.358   0.270
 2670SOL    HW2 8910   1.042   1.324   0.399
 2671SOL     OW 8911   2.592   3.385   6.323
 2671SOL    HW1 8912   2.540   3.469   6.312
 2671SOL    HW2 8913   2.530   3.307   6.324
 2672SOL     OW 8914   2.096   5.565   0.389
 2672SOL    HW1 8915   2.183   5.602   0.423
 2672SOL    HW2 8916   2.104   5.466   0.378
 2673SOL     OW 8917   3.947   2.212   3.391
 2673SOL    HW1 8918   3.873   2.174   3.336
 2673SOL    HW2 8919   3.911   2.285   3.449
 2674SOL     OW 8920   6.886   5.216   4.707
 2674SOL    HW1 8921   6.885   5.125   4.666
 2674SOL    HW2 8922   6.961   5.269   4.667
 2675SOL     OW 8923   0.222   4.632   5.661
 2675SOL    HW1 8924   0.246   4.569   5.734
 2675SOL    HW2 8925   0.291   4.626   5.589
 2676SOL     OW 8926   4.840   1.617   1.643
 2676SOL    HW1 8927   4.805   1.532   1.604
 2676SOL    HW2 8928   4.807   1.627   1.737
 2677SOL     OW 8929   2.040   4.853   1.373
 2677SOL    HW1 8930   2.088   4.934   1.406
 2677SOL    HW2 8931   2.036   4.784   1.446
 2678SOL     OW 8932   1.086   5.111   6.404
 2678SOL    HW1 8933   1.073   5.074   6.496
 2678SOL    HW2 8934   1.137   5.196   6.410
 2679SOL     OW 8935   3.200   4.918   0.567
 2679SOL    HW1 8936   3.194   4.961   0.477
 2679SOL    HW2 8937   3.296   4.904   0.592
 2680SOL     OW 8938   1.997   1.268   1.289
 2680SOL    HW1 8939   1.957   1.224   1.208
 2680SOL    HW2 8940   2.013   1.199   1.359
 2681SOL     OW 8941   1.447   2.769   3.507
 2681SOL    HW1 8942   1.489   2.746   3.595
 2681SOL    HW2 8943   1.416   2.864   3.509
 2682SOL     OW 8944   5.499   2.983   2.578
 2682SOL    HW1 8945   5.589   2.950   2.550
 2682SOL    HW2 8946   5.475   3.064   2.525
 2683SOL     OW 8947   0.969   5.761   1.038
 2683SOL    HW1 8948   1.034   5.693   1.072
 2683SOL    HW2 8949   1.020   5.835   0.993
 2684SOL     OW 8950   2.367   6.417   3.049
 2684SOL    HW1 8951   2.453   6.389   3.008
 2684SOL    HW2 8952   2.371   6.405   3.149
 2685SOL     OW 8953   5.072   6.049   4.967
 2685SOL    HW1 8954   5.139   6.106   5.015
 2685SOL    HW2 8955   5.025   6.104   4.898
 2686SOL     OW 8956   2.182   3.077   4.148
 2686SOL    HW1 8957   2.252   3.022   4.103
 2686SOL    HW2 8958   2.093   3.062   4.104
 2687SOL     OW 8959   3.729   5.338   2.112
 2687SOL    HW1 8960   3.698   5.276   2.185
 2687SOL    HW2 8961   3.712   5.295   2.024
 2688SOL     OW 8962   4.655   4.584   6.428
 2688SOL    HW1 8963   4.694   4.645   6.358
 2688SOL    HW2 8964   4.685   4.614   6.518
 2689SOL     OW 8965   0.699   2.905   3.548
 2689SOL    HW1 8966   0.736   2.824   3.502
 2689SOL    HW2 8967   0.599   2.899   3.550
 2690SOL     OW 8968   4.139   3.528   3.969
 2690SOL    HW1 8969   4.176   3.499   3.881
 2690SOL    HW2 8970   4.083   3.454   4.008
 2691SOL     OW 8971   1.792   5.683   2.161
 2691SOL    HW1 8972   1.773   5.779   2.140
 2691SOL    HW2 8973   1.812   5.634   2.076
 2692SOL     OW 8974   6.900   6.369   3.340
 2692SOL    HW1 8975   6.832   6.299   3.362
 2692SOL    HW2 8976   6.992   6.332   3.353
 2693SOL     OW 8977   2.145   3.720   3.534
 2693SOL    HW1 8978   2.142   3.750   3.438
 2693SOL    HW2 8979   2.119   3.623   3.539
 2694SOL     OW 8980   2.148   6.540   3.305
 2694SOL    HW1 8981   2.150   6.624   3.250
 2694SOL    HW2 8982   2.240   6.502   3.311
 2695SOL     OW 8983   4.711   2.408   2.762
 2695SOL    HW1 8984   4.698   2.396   2.663
 2695SOL    HW2 8985   4.725   2.319   2.805
 2696SOL     OW 8986   4.029   3.835   5.420
 2696SOL    HW1 8987   4.014   3.929   5.391
 2696SOL    HW2 8988   4.120   3.804   5.391
 2697SOL     OW 8989   3.283   1.587   4.209
 2697SOL    HW1 8990   3.276   1.490   4.186
 2697SOL    HW2 8991   3.220   1.640   4.154
 2698SOL     OW 8992   1.409   4.287   0.586
 2698SOL    HW1 8993   1.325   4.295   0.531
 2698SOL    HW2 8994   1.392   4.323   0.677
 2699SOL     OW 8995   3.688   6.129   1.288
 2699SOL    HW1 8996   3.728   6.191   1.221
 2699SOL    HW2 8997   3.686   6.173   1.377
 2700SOL     OW 8998   1.585   3.562   2.712
 2700SOL    HW1 8999   1.674   3.601   2.687
 2700SOL    HW2 9000   1.578   3.469   2.677
 2701SOL     OW 9001   3.737   0.242   6.518
 2701SOL    HW1 9002   3.738   0.193   6.605
 2701SOL    HW2 9003   3.715   0.179   6.443
 2702SOL     OW 9004   0.028   1.204   3.618
 2702SOL    HW1 9005   6.989   1.273   3.661
 2702SOL    HW2 9006   0.058   1.137   3.687
 2703SOL     OW 9007   1.806   1.804   2.607
 2703SOL    HW1 9008   1.767   1.867   2.674
 2703SOL    HW2 9009   1.732   1.765   2.552
 2704SOL     OW 9010   2.703   5.363   1.324
 2704SOL    HW1 9011   2.651   5.284   1.292
 2704SOL    HW2 9012   2.801   5.343   1.319
 2705SOL     OW 9013   6.466   5.693   3.413
 2705SOL    HW1 9014   6.512   5.780   3.395
 2705SOL    HW2 9015   6.433   5.692   3.508
 2706SOL     OW 9016   6.552   1.566   2.260
 2706SOL    HW1 9017   6.592   1.557   2.169
 2706SOL    HW2 9018   6.467   1.619   2.255
 2707SOL     OW 9019   1.803   1.597   6.182
 2707SOL    HW1 9020   1.886   1.542   6.177
 2707SOL    HW2 9021   1.824   1.692   6.157
 2708SOL     OW 9022   1.445   2.780   1.684
 2708SOL    HW1 9023   1.526   2.726   1.706
 2708SOL    HW2 9024   1.384   2.784   1.763
 2709SOL     OW 9025   4.990   5.569   1.249
 2709SOL    HW1 9026   5.047   5.627   1.306
 2709SOL    HW2 9027   5.043   5.537   1.171
 2710SOL     OW 9028   6.803   3.862   2.365
 2710SOL    HW1 9029   6.821   3.845   2.269
 2710SOL    HW2 9030   6.715   3.821   2.390
 2711SOL     OW 9031   1.164   0.197   1.951
 2711SOL    HW1 9032   1.192   0.291   1.971
 2711SOL    HW2 9033   1.228   0.134   1.996
 2712SOL     OW 9034   2.578   4.358   0.592
 2712SOL    HW1 9035   2.637   4.382   0.669
 2712SOL    HW2 9036   2.633   4.344   0.510
 2713SOL     OW 9037   2.243   3.255   5.167
 2713SOL    HW1 9038   2.319   3.191   5.163
 2713SOL    HW2 9039   2.169   3.215   5.221
 2714SOL     OW 9040   4.935   0.422   5.920
 2714SOL    HW1 9041   4.963   0.403   6.014
 2714SOL    HW2 9042   4.836   0.435   5.916
 2715SOL     OW 9043   5.977   1.329   6.605
 2715SOL    HW1 9044   5.957   1.234   6.628
 2715SOL    HW2 9045   6.075   1.345   6.610
 2716SOL     OW 9046   0.438   5.755   2.054
 2716SOL    HW1 9047   0.480   5.746   2.144
 2716SOL    HW2 9048   0.447   5.849   2.022
 2717SOL     OW 9049   0.700   0.022   3.100
 2717SOL    HW1 9050   0.680   0.014   3.002
 2717SOL    HW2 9051   0.731   6.952   3.134
 2718SOL     OW 9052   2.160   4.266   4.031
 2718SOL    HW1 9053   2.073   4.225   4.004
 2718SOL    HW2 9054   2.150   4.313   4.118
 2719SOL     OW 9055   4.381   5.524   1.997
 2719SOL    HW1 9056   4.463   5.551   2.047
 2719SOL    HW2 9057   4.335   5.449   2.045
 2720SOL     OW 9058   1.489   6.910   3.988
 2720SOL    HW1 9059   1.526   7.002   3.974
 2720SOL    HW2 9060   1.525   6.872   4.073
 2721SOL     OW 9061   3.335   6.846   4.072
 2721SOL    HW1 9062   3.374   6.777   4.133
 2721SOL    HW2 9063   3.238   6.856   4.091
 2722SOL     OW 9064   1.053   6.074   2.896
 2722SOL    HW1 9065   1.023   6.093   2.803
 2722SOL    HW2 9066   0.995   6.124   2.961
 2723SOL     OW 9067   1.977   1.084   5.877
 2723SOL    HW1 9068   2.056   1.100   5.818
 2723SOL    HW2 9069   1.894   1.083   5.822
 2724SOL     OW 9070   3.835   5.805   6.585
 2724SOL    HW1 9071   3.895   5.725   6.596
 2724SOL    HW2 9072   3.786   5.798   6.499
 2725SOL     OW 9073   4.036   4.799   4.072
 2725SOL    HW1 9074   3.942   4.834   4.075
 2725SOL    HW2 9075   4.090   4.852   4.007
 2726SOL     OW 9076   5.150   5.196   2.035
 2726SOL    HW1 9077   5.050   5.193   2.030
 2726SOL    HW2 9078   5.182   5.124   2.096
 2727SOL     OW 9079   1.017   4.992   2.735
 2727SOL    HW1 9080   0.935   4.938   2.718
 2727SOL    HW2 9081   1.091   4.959   2.676
 2728SOL     OW 9082   2.467   6.696   5.380
 2728SOL    HW1 9083   2.548   6.743   5.416
 2728SOL    HW2 9084   2.496   6.627   5.314
 2729SOL     OW 9085   5.776   4.967   2.934
 2729SOL    HW1 9086   5.686   5.006   2.917
 2729SOL    HW2 9087   5.795   4.967   3.032
 2730SOL     OW 9088   1.763   0.189   1.029
 2730SOL    HW1 9089   1.817   0.273   1.028
 2730SOL    HW2 9090   1.824   0.111   1.041
 2731SOL     OW 9091   2.940   3.778   1.829
 2731SOL    HW1 9092   2.908   3.828   1.909
 2731SOL    HW2 9093   2.974   3.688   1.856
 2732SOL     OW 9094   5.491   2.299   2.680
 2732SOL    HW1 9095   5.566   2.234   2.692
 2732SOL    HW2 9096   5.405   2.255   2.704
 2733SOL     OW 9097   1.109   6.759   5.778
 2733SOL    HW1 9098   1.074   6.715   5.695
 2733SOL    HW2 9099   1.033   6.783   5.837
 2734SOL     OW 9100   1.802   6.287   4.119
 2734SOL    HW1 9101   1.891   6.325   4.093
 2734SOL    HW2 9102   1.816   6.206   4.175
 2735SOL     OW 9103   1.710   5.082   2.572
 2735SOL    HW1 9104   1.768   5.130   2.638
 2735SOL    HW2 9105   1.622   5.130   2.564
 2736SOL     OW 9106   4.203   0.411   4.933
 2736SOL    HW1 9107   4.181   0.508   4.947
 2736SOL    HW2 9108   4.270   0.383   5.002
 2737SOL     OW 9109   4.821   3.922   6.398
 2737SOL    HW1 9110   4.823   4.010   6.446
 2737SOL    HW2 9111   4.799   3.849   6.462
 2738SOL     OW 9112   5.579   5.213   4.835
 2738SOL    HW1 9113   5.581   5.298   4.783
 2738SOL    HW2 9114   5.571   5.235   4.933
 2739SOL     OW 9115   5.179   3.285   1.066
 2739SOL    HW1 9116   5.208   3.380   1.071
 2739SOL    HW2 9117   5.081   3.280   1.047
 2740SOL     OW 9118   5.781   2.617   3.417
 2740SOL    HW1 9119   5.796   2.607   3.319
 2740SOL    HW2 9120   5.742   2.708   3.436
 2741SOL     OW 9121   0.696   2.207   5.656
 2741SOL    HW1 9122   0.784   2.208   5.704
 2741SOL    HW2 9123   0.667   2.113   5.641
 2742SOL     OW 9124   1.963   6.624   6.783
 2742SOL    HW1 9125   1.951   6.706   6.727
 2742SOL    HW2 9126   1.959   6.543   6.725
 2743SOL     OW 9127   5.243   4.830   1.402
 2743SOL    HW1 9128   5.305   4.802   1.329
 2743SOL    HW2 9129   5.158   4.866   1.362
 2744SOL     OW 9130   4.027   2.413   6.209
 2744SOL    HW1 9131   4.121   2.407   6.176
 2744SOL    HW2 9132   3.997   2.324   6.242
 2745SOL     OW 9133   2.613   6.173   1.018
 2745SOL    HW1 9134   2.619   6.119   1.102
 2745SOL    HW2 9135   2.660   6.260   1.031
 2746SOL     OW 9136   2.122   1.891   6.125
 2746SOL    HW1 9137   2.159   1.979   6.095
 2746SOL    HW2 9138   2.112   1.891   6.225
 2747SOL     OW 9139   5.629   6.672   4.031
 2747SOL    HW1 9140   5.551   6.727   4.061
 2747SOL    HW2 9141   5.705   6.685   4.095
 2748SOL     OW 9142   3.770   1.436   2.647
 2748SOL    HW1 9143   3.762   1.347   2.692
 2748SOL    HW2 9144   3.866   1.453   2.623
 2749SOL     OW 9145   4.682   4.772   4.475
 2749SOL    HW1 9146   4.621   4.846   4.447
 2749SOL    HW2 9147   4.628   4.694   4.506
 2750SOL     OW 9148   0.574   5.897   2.558
 2750SOL    HW1 9149   0.490   5.844   2.546
 2750SOL    HW2 9150   0.595   5.906   2.655
 2751SOL     OW 9151   1.887   7.012   6.837
 2751SOL    HW1 9152   1.825   0.000   6.914
 2751SOL    HW2 9153   1.973   6.969   6.866
 2752SOL     OW 9154   5.743   6.231   5.395
 2752SOL    HW1 9155   5.719   6.135   5.383
 2752SOL    HW2 9156   5.843   6.240   5.402
 2753SOL     OW 9157   3.727   6.071   6.184
 2753SOL    HW1 9158   3.646   6.089   6.239
 2753SOL    HW2 9159   3.767   5.982   6.209
 2754SOL     OW 9160   0.511   1.115   4.781
 2754SOL    HW1 9161   0.442   1.177   4.818
 2754SOL    HW2 9162   0.491   1.022   4.811
 2755SOL     OW 9163   2.767   6.383   2.243
 2755SOL    HW1 9164   2.813   6.342   2.322
 2755SOL    HW2 9165   2.727   6.471   2.270
 2756SOL     OW 9166   0.061   2.974   5.858
 2756SOL    HW1 9167   0.075   2.916   5.938
 2756SOL    HW2 9168   6.982   2.989   5.844
 2757SOL     OW 9169   4.506   2.988   6.658
 2757SOL    HW1 9170   4.534   2.956   6.748
 2757SOL    HW2 9171   4.407   2.981   6.648
 2758SOL     OW 9172   5.993   5.876   2.489
 2758SOL    HW1 9173   6.001   5.974   2.474
 2758SOL    HW2 9174   6.043   5.827   2.418
 2759SOL     OW 9175   3.134   4.288   6.528
 2759SOL    HW1 9176   3.232   4.297   6.542
 2759SOL    HW2 9177   3.113   4.301   6.431
 2760SOL     OW 9178   5.265   5.946   3.291
 2760SOL    HW1 9179   5.202   5.911   3.223
 2760SOL    HW2 9180   5.223   6.021   3.341
 2761SOL     OW 9181   1.876   3.235   2.549
 2761SOL    HW1 9182   1.796   3.292   2.564
 2761SOL    HW2 9183   1.892   3.178   2.629
 2762SOL     OW 9184   2.510   2.110   0.616
 2762SOL    HW1 9185   2.532   2.024   0.661
 2762SOL    HW2 9186   2.447   2.163   0.674
 2763SOL     OW 9187   4.867   1.684   4.960
 2763SOL    HW1 9188   4.929   1.620   5.005
 2763SOL    HW2 9189   4.912   1.773   4.951
 2764SOL     OW 9190   1.058   3.931   2.109
 2764SOL    HW1 9191   1.108   3.965   2.030
 2764SOL    HW2 9192   0.960   3.947   2.097
 2765SOL     OW 9193   0.022   6.454   6.506
 2765SOL    HW1 9194   0.073   6.383   6.554
 2765SOL    HW2 9195   0.086   6.514   6.457
 2766SOL     OW 9196   5.656   1.101   6.752
 2766SOL    HW1 9197   5.587   1.172   6.764
 2766SOL    HW2 9198   5.624   1.033   6.686
 2767SOL     OW 9199   7.006   5.008   6.174
 2767SOL    HW1 9200   6.924   4.967   6.134
 2767SOL    HW2 9201   0.065   4.949   6.154
 2768SOL     OW 9202   4.750   0.258   0.836
 2768SOL    HW1 9203   4.655   0.225   0.836
 2768SOL    HW2 9204   4.810   0.188   0.875
 2769SOL     OW 9205   1.665   4.449   5.495
 2769SOL    HW1 9206   1.668   4.424   5.398
 2769SOL    HW2 9207   1.735   4.399   5.545
 2770SOL     OW 9208   2.714   6.389   0.821
 2770SOL    HW1 9209   2.679   6.377   0.729
 2770SOL    HW2 9210   2.805   6.347   0.828
 2771SOL     OW 9211   4.532   0.140   4.508
 2771SOL    HW1 9212   4.475   0.069   4.466
 2771SOL    HW2 9213   4.486   0.178   4.587
 2772SOL     OW 9214   3.774   0.270   3.197
 2772SOL    HW1 9215   3.739   0.334   3.265
 2772SOL    HW2 9216   3.732   0.180   3.210
 2773SOL     OW 9217   5.957   2.682   4.154
 2773SOL    HW1 9218   5.969   2.739   4.235
 2773SOL    HW2 9219   5.936   2.739   4.075
 2774SOL     OW 9220   4.991   1.729   3.679
 2774SOL    HW1 9221   4.965   1.638   3.647
 2774SOL    HW2 9222   5.029   1.722   3.772
 2775SOL     OW 9223   1.024   4.353   4.508
 2775SOL    HW1 9224   0.935   4.308   4.505
 2775SOL    HW2 9225   1.018   4.440   4.458
 2776SOL     OW 9226   4.838   4.322   6.060
 2776SOL    HW1 9227   4.815   4.374   5.977
 2776SOL    HW2 9228   4.914   4.261   6.041
 2777SOL     OW 9229   2.860   1.974   6.478
 2777SOL    HW1 9230   2.914   1.986   6.395
 2777SOL    HW2 9231   2.883   2.046   6.544
 2778SOL     OW 9232   2.803   6.351   6.591
 2778SOL    HW1 9233   2.804   6.375   6.494
 2778SOL    HW2 9234   2.767   6.427   6.644
 2779SOL     OW 9235   5.989   6.906   1.541
 2779SOL    HW1 9236   6.016   6.863   1.455
 2779SOL    HW2 9237   6.028   6.997   1.547
 2780SOL     OW 9238   0.745   1.698   5.502
 2780SOL    HW1 9239   0.708   1.791   5.505
 2780SOL    HW2 9240   0.843   1.702   5.480
 2781SOL     OW 9241   6.062   0.852   3.002
 2781SOL    HW1 9242   6.067   0.817   3.096
 2781SOL    HW2 9243   6.144   0.905   2.982
 2782SOL     OW 9244   4.286   0.839   6.907
 2782SOL    HW1 9245   4.332   0.768   6.960
 2782SOL    HW2 9246   4.193   0.808   6.885
 2783SOL     OW 9247   5.549   4.036   1.590
 2783SOL    HW1 9248   5.468   4.000   1.637
 2783SOL    HW2 9249   5.521   4.104   1.522
 2784SOL     OW 9250   1.396   1.632   1.132
 2784SOL    HW1 9251   1.492   1.607   1.119
 2784SOL    HW2 9252   1.357   1.578   1.207
 2785SOL     OW 9253   5.477   2.632   1.811
 2785SOL    HW1 9254   5.395   2.662   1.859
 2785SOL    HW2 9255   5.454   2.560   1.745
 2786SOL     OW 9256   0.004   6.647   0.107
 2786SOL    HW1 9257   6.941   6.683   0.152
 2786SOL    HW2 9258   0.062   6.602   0.175
 2787SOL     OW 9259   6.342   5.095   6.463
 2787SOL    HW1 9260   6.250   5.123   6.436
 2787SOL    HW2 9261   6.343   4.997   6.483
 2788SOL     OW 9262   2.857   6.294   5.560
 2788SOL    HW1 9263   2.880   6.324   5.468
 2788SOL    HW2 9264   2.760   6.310   5.578
 2789SOL     OW 9265   0.877   2.524   5.043
 2789SOL    HW1 9266   0.900   2.621   5.049
 2789SOL    HW2 9267   0.911   2.476   5.124
 2790SOL     OW 9268   1.502   5.676   1.446
 2790SOL    HW1 9269   1.516   5.652   1.542
 2790SOL    HW2 9270   1.583   5.725   1.412
 2791SOL     OW 9271   6.995   3.880   3.219
 2791SOL    HW1 9272   6.968   3.843   3.130
 2791SOL    HW2 9273   0.041   3.955   3.205
 2792SOL     OW 9274   3.307   1.757   5.608
 2792SOL    HW1 9275   3.207   1.755   5.611
 2792SOL    HW2 9276   3.340   1.673   5.564
 2793SOL     OW 9277   3.253   4.333   1.020
 2793SOL    HW1 9278   3.257   4.342   1.119
 2793SOL    HW2 9279   3.160   4.311   0.992
 2794SOL     OW 9280   0.830   2.572   6.455
 2794SOL    HW1 9281   0.778   2.655   6.477
 2794SOL    HW2 9282   0.850   2.522   6.539
 2795SOL     OW 9283   0.920   4.813   1.383
 2795SOL    HW1 9284   0.892   4.863   1.465
 2795SOL    HW2 9285   1.019   4.799   1.386
 2796SOL     OW 9286   1.574   6.273   5.689
 2796SOL    HW1 9287   1.509   6.306   5.619
 2796SOL    HW2 9288   1.535   6.288   5.780
 2797SOL     OW 9289   5.820   6.908   3.543
 2797SOL    HW1 9290   5.738   6.963   3.530
 2797SOL    HW2 9291   5.900   6.959   3.512
 2798SOL     OW 9292   5.903   0.155   2.162
 2798SOL    HW1 9293   5.833   0.197   2.219
 2798SOL    HW2 9294   5.918   0.060   2.193
 2799SOL     OW 9295   3.483   5.861   5.545
 2799SOL    HW1 9296   3.511   5.957   5.548
 2799SOL    HW2 9297   3.483   5.828   5.451
 2800SOL     OW 9298   5.940   0.226   6.508
 2800SOL    HW1 9299   5.983   0.149   6.554
 2800SOL    HW2 9300   5.996   0.254   6.431
 2801SOL     OW 9301   0.733   4.708   5.483
 2801SOL    HW1 9302   0.680   4.788   5.512
 2801SOL    HW2 9303   0.697   4.626   5.528
 2802SOL     OW 9304   6.978   5.440   5.668
 2802SOL    HW1 9305   6.993   5.392   5.754
 2802SOL    HW2 9306   6.882   5.428   5.639
 2803SOL     OW 9307   3.657   2.618   0.003
 2803SOL    HW1 9308   3.679   2.624   6.925
 2803SOL    HW2 9309   3.724   2.560   0.050
 2804SOL     OW 9310   0.455   2.779   3.573
 2804SOL    HW1 9311   0.413   2.714   3.511
 2804SOL    HW2 9312   0.394   2.797   3.650
 2805SOL     OW 9313   4.549   3.240   1.271
 2805SOL    HW1 9314   4.495   3.156   1.266
 2805SOL    HW2 9315   4.608   3.237   1.351
 2806SOL     OW 9316   0.389   3.972   5.977
 2806SOL    HW1 9317   0.369   3.876   5.958
 2806SOL    HW2 9318   0.310   4.028   5.955
 2807SOL     OW 9319   3.043   0.315   3.551
 2807SOL    HW1 9320   3.136   0.351   3.553
 2807SOL    HW2 9321   3.002   0.324   3.642
 2808SOL     OW 9322   6.713   4.969   6.766
 2808SOL    HW1 9323   6.616   4.990   6.763
 2808SOL    HW2 9324   6.766   5.054   6.762
 2809SOL     OW 9325   6.565   4.894   2.071
 2809SOL    HW1 9326   6.559   4.798   2.041
 2809SOL    HW2 9327   6.506   4.907   2.150
 2810SOL     OW 9328   2.639   5.431   2.968
 2810SOL    HW1 9329   2.625   5.503   2.900
 2810SOL    HW2 9330   2.556   5.377   2.978
 2811SOL     OW 9331   0.739   0.499   1.867
 2811SOL    HW1 9332   0.817   0.445   1.899
 2811SOL    HW2 9333   0.717   0.475   1.773
 2812SOL     OW 9334   0.776   3.023   1.440
 2812SOL    HW1 9335   0.782   2.926   1.467
 2812SOL    HW2 9336   0.860   3.050   1.394
 2813SOL     OW 9337   0.736   2.294   1.880
 2813SOL    HW1 9338   0.692   2.377   1.847
 2813SOL    HW2 9339   0.679   2.215   1.856
 2814SOL     OW 9340   2.081   4.379   6.990
 2814SOL    HW1 9341   2.145   4.431   0.028
 2814SOL    HW2 9342   2.132   4.322   6.927
 2815SOL     OW 9343   0.407   5.380   5.332
 2815SOL    HW1 9344   0.444   5.294   5.298
 2815SOL    HW2 9345   0.359   5.364   5.419
 2816SOL     OW 9346   0.692   6.016   6.241
 2816SOL    HW1 9347   0.779   5.977   6.212
 2816SOL    HW2 9348   0.628   5.942   6.264
 2817SOL     OW 9349   4.435   0.880   1.735
 2817SOL    HW1 9350   4.491   0.821   1.794
 2817SOL    HW2 9351   4.488   0.958   1.705
 2818SOL     OW 9352   1.084   0.412   1.020
 2818SOL    HW1 9353   1.064   0.509   1.003
 2818SOL    HW2 9354   0.998   0.362   1.034
 2819SOL     OW 9355   0.816   0.733   0.339
 2819SOL    HW1 9356   0.832   0.725   0.240
 2819SOL    HW2 9357   0.901   0.757   0.385
 2820SOL     OW 9358   0.786   2.738   1.433
 2820SOL    HW1 9359   0.803   2.665   1.499
 2820SOL    HW2 9360   0.820   2.710   1.343
 2821SOL     OW 9361   2.886   3.761   6.055
 2821SOL    HW1 9362   2.931   3.679   6.018
 2821SOL    HW2 9363   2.921   3.780   6.146
 2822SOL     OW 9364   4.730   2.639   0.918
 2822SOL    HW1 9365   4.743   2.544   0.947
 2822SOL    HW2 9366   4.791   2.660   0.842
 2823SOL     OW 9367   5.949   2.194   1.251
 2823SOL    HW1 9368   5.870   2.153   1.297
 2823SOL    HW2 9369   5.979   2.134   1.177
 2824SOL     OW 9370   1.394   3.937   4.857
 2824SOL    HW1 9371   1.476   3.928   4.800
 2824SOL    HW2 9372   1.390   3.860   4.921
 2825SOL     OW 9373   5.128   1.633   6.311
 2825SOL    HW1 9374   5.029   1.644   6.299
 2825SOL    HW2 9375   5.155   1.670   6.399
 2826SOL     OW 9376   2.241   3.297   6.931
 2826SOL    HW1 9377   2.326   3.251   6.957
 2826SOL    HW2 9378   2.177   3.295   7.007
 2827SOL     OW 9379   6.591   0.601   5.732
 2827SOL    HW1 9380   6.582   0.627   5.636
 2827SOL    HW2 9381   6.586   0.683   5.790
 2828SOL     OW 9382   1.525   3.827   0.541
 2828SOL    HW1 9383   1.516   3.861   0.635
 2828SOL    HW2 9384   1.454   3.758   0.524
 2829SOL     OW 9385   3.301   4.103   3.135
 2829SOL    HW1 9386   3.289   4.119   3.233
 2829SOL    HW2 9387   3.394   4.130   3.108
 2830SOL     OW 9388   3.025   4.716   5.504
 2830SOL    HW1 9389   2.981   4.669   5.581
 2830SOL    HW2 9390   2.972   4.798   5.482
 2831SOL     OW 9391   6.015   1.609   1.896
 2831SOL    HW1 9392   6.087   1.678   1.905
 2831SOL    HW2 9393   5.952   1.617   1.973
 2832SOL     OW 9394   0.647   3.756   1.323
 2832SOL    HW1 9395   0.634   3.737   1.421
 2832SOL    HW2 9396   0.586   3.697   1.269
 2833SOL     OW 9397   1.615   2.194   2.280
 2833SOL    HW1 9398   1.525   2.196   2.237
 2833SOL    HW2 9399   1.655   2.103   2.269
 2834SOL     OW 9400   2.998   6.270   5.937
 2834SOL    HW1 9401   2.922   6.212   5.967
 2834SOL    HW2 9402   3.029   6.240   5.847
 2835SOL     OW 9403   0.007   6.881   0.293
 2835SOL    HW1 9404   6.929   6.859   0.281
 2835SOL    HW2 9405   0.047   6.821   0.362
 2836SOL     OW 9406   3.645   6.261   2.555
 2836SOL    HW1 9407   3.686   6.241   2.466
 2836SOL    HW2 9408   3.635   6.176   2.608
 2837SOL     OW 9409   5.001   4.186   2.330
 2837SOL    HW1 9410   4.969   4.241   2.407
 2837SOL    HW2 9411   4.923   4.150   2.279
 2838SOL     OW 9412   5.327   4.405   5.959
 2838SOL    HW1 9413   5.414   4.441   5.991
 2838SOL    HW2 9414   5.296   4.333   6.021
 2839SOL     OW 9415   5.584   3.043   4.985
 2839SOL    HW1 9416   5.570   2.951   4.949
 2839SOL    HW2 9417   5.670   3.046   5.036
 2840SOL     OW 9418   6.905   6.144   4.124
 2840SOL    HW1 9419   6.902   6.240   4.098
 2840SOL    HW2 9420   6.818   6.100   4.102
 2841SOL     OW 9421   6.319   3.185   1.945
 2841SOL    HW1 9422   6.348   3.174   1.849
 2841SOL    HW2 9423   6.221   3.202   1.948
 2842SOL     OW 9424   1.140   0.079   2.985
 2842SOL    HW1 9425   1.192   0.043   2.908
 2842SOL    HW2 9426   1.129   0.178   2.974
 2843SOL     OW 9427   2.184   2.623   3.203
 2843SOL    HW1 9428   2.156   2.589   3.293
 2843SOL    HW2 9429   2.233   2.552   3.154
 2844SOL     OW 9430   4.898   4.574   0.795
 2844SOL    HW1 9431   4.868   4.563   0.701
 2844SOL    HW2 9432   4.984   4.626   0.796
 2845SOL     OW 9433   3.344   1.906   3.234
 2845SOL    HW1 9434   3.270   1.846   3.265
 2845SOL    HW2 9435   3.391   1.865   3.156
 2846SOL     OW 9436   5.714   0.400   0.193
 2846SOL    HW1 9437   5.654   0.465   0.146
 2846SOL    HW2 9438   5.675   0.308   0.187
 2847SOL     OW 9439   4.508   5.085   2.445
 2847SOL    HW1 9440   4.590   5.126   2.406
 2847SOL    HW2 9441   4.532   4.999   2.491
 2848SOL     OW 9442   0.500   3.691   5.470
 2848SOL    HW1 9443   0.463   3.618   5.413
 2848SOL    HW2 9444   0.580   3.656   5.520
 2849SOL     OW 9445   4.993   0.422   2.639
 2849SOL    HW1 9446   4.965   0.517   2.626
 2849SOL    HW2 9447   4.976   0.395   2.734
 2850SOL     OW 9448   1.739   6.929   2.990
 2850SOL    HW1 9449   1.742   6.962   3.084
 2850SOL    HW2 9450   1.828   6.944   2.946
 2851SOL     OW 9451   3.986   3.323   0.479
 2851SOL    HW1 9452   3.890   3.309   0.505
 2851SOL    HW2 9453   4.045   3.288   0.552
 2852SOL     OW 9454   5.982   4.268   6.109
 2852SOL    HW1 9455   5.970   4.270   6.208
 2852SOL    HW2 9456   6.079   4.281   6.087
 2853SOL     OW 9457   0.260   3.860   6.738
 2853SOL    HW1 9458   0.205   3.834   6.658
 2853SOL    HW2 9459   0.320   3.784   6.762
 2854SOL     OW 9460   3.639   1.518   6.011
 2854SOL    HW1 9461   3.651   1.553   5.918
 2854SOL    HW2 9462   3.545   1.537   6.042
 2855SOL     OW 9463   1.929   1.319   5.383
 2855SOL    HW1 9464   1.895   1.370   5.462
 2855SOL    HW2 9465   1.899   1.224   5.389
 2856SOL     OW 9466   0.824   5.639   3.175
 2856SOL    HW1 9467   0.868   5.665   3.089
 2856SOL    HW2 9468   0.892   5.639   3.249
 2857SOL     OW 9469   0.321   3.574   0.469
 2857SOL    HW1 9470   0.281   3.497   0.519
 2857SOL    HW2 9471   0.249   3.622   0.419
 2858SOL     OW 9472   4.682   5.224   2.834
 2858SOL    HW1 9473   4.584   5.220   2.857
 2858SOL    HW2 9474   4.726   5.296   2.888
 2859SOL     OW 9475   4.736   4.577   1.196
 2859SOL    HW1 9476   4.769   4.490   1.232
 2859SOL    HW2 9477   4.711   4.566   1.100
 2860SOL     OW 9478   0.387   6.747   2.133
 2860SOL    HW1 9479   0.351   6.679   2.069
 2860SOL    HW2 9480   0.480   6.721   2.160
 2861SOL     OW 9481   4.514   5.292   6.747
 2861SOL    HW1 9482   4.543   5.329   6.835
 2861SOL    HW2 9483   4.415   5.305   6.736
 2862SOL     OW 9484   4.086   2.814   0.848
 2862SOL    HW1 9485   4.182   2.801   0.825
 2862SOL    HW2 9486   4.041   2.725   0.859
 2863SOL     OW 9487   5.573   6.773   5.691
 2863SOL    HW1 9488   5.566   6.722   5.605
 2863SOL    HW2 9489   5.627   6.720   5.757
 2864SOL     OW 9490   3.916   4.033   0.291
 2864SOL    HW1 9491   3.896   4.118   0.341
 2864SOL    HW2 9492   3.845   3.965   0.312
 2865SOL     OW 9493   5.165   5.810   4.149
 2865SOL    HW1 9494   5.210   5.831   4.062
 2865SOL    HW2 9495   5.161   5.892   4.206
 2866SOL     OW 9496   4.469   4.743   0.236
 2866SOL    HW1 9497   4.457   4.810   0.163
 2866SOL    HW2 9498   4.505   4.658   0.198
 2867SOL     OW 9499   5.444   6.447   1.916
 2867SOL    HW1 9500   5.520   6.504   1.947
 2867SOL    HW2 9501   5.425   6.377   1.985
 2868SOL     OW 9502   0.993   1.740   6.087
 2868SOL    HW1 9503   1.057   1.730   6.164
 2868SOL    HW2 9504   0.985   1.837   6.063
 2869SOL     OW 9505   5.696   5.580   4.734
 2869SOL    HW1 9506   5.607   5.536   4.724
 2869SOL    HW2 9507   5.766   5.522   4.692
 2870SOL     OW 9508   6.559   1.781   1.327
 2870SOL    HW1 9509   6.640   1.789   1.268
 2870SOL    HW2 9510   6.586   1.792   1.422
 2871SOL     OW 9511   5.457   1.664   1.206
 2871SOL    HW1 9512   5.379   1.714   1.244
 2871SOL    HW2 9513   5.439   1.642   1.110
 2872SOL     OW 9514   2.584   2.447   2.085
 2872SOL    HW1 9515   2.679   2.476   2.095
 2872SOL    HW2 9516   2.574   2.391   2.003
 2873SOL     OW 9517   1.052   6.287   1.263
 2873SOL    HW1 9518   1.073   6.377   1.224
 2873SOL    HW2 9519   1.032   6.222   1.190
 2874SOL     OW 9520   2.479   0.563   2.963
 2874SOL    HW1 9521   2.388   0.522   2.955
 2874SOL    HW2 9522   2.538   0.525   2.891
 2875SOL     OW 9523   3.318   6.608   2.989
 2875SOL    HW1 9524   3.288   6.680   2.927
 2875SOL    HW2 9525   3.243   6.543   3.004
 2876SOL     OW 9526   1.167   6.202   1.887
 2876SOL    HW1 9527   1.099   6.140   1.849
 2876SOL    HW2 9528   1.172   6.191   1.986
 2877SOL     OW 9529   1.239   1.983   6.357
 2877SOL    HW1 9530   1.262   2.069   6.312
 2877SOL    HW2 9531   1.221   1.999   6.454
 2878SOL     OW 9532   3.985   3.903   4.093
 2878SOL    HW1 9533   3.909   3.963   4.117
 2878SOL    HW2 9534   4.008   3.915   3.996
 2879SOL     OW 9535   4.220   4.087   0.472
 2879SOL    HW1 9536   4.303   4.046   0.510
 2879SOL    HW2 9537   4.236   4.107   0.375
 2880SOL     OW 9538   1.795   1.573   4.414
 2880SOL    HW1 9539   1.701   1.548   4.394
 2880SOL    HW2 9540   1.845   1.586   4.328
 2881SOL     OW 9541   4.577   6.589   6.523
 2881SOL    HW1 9542   4.670   6.626   6.519
 2881SOL    HW2 9543   4.557   6.561   6.617
 2882SOL     OW 9544   4.888   6.489   0.334
 2882SOL    HW1 9545   4.921   6.582   0.345
 2882SOL    HW2 9546   4.956   6.425   0.369
 2883SOL     OW 9547   6.117   6.091   3.758
 2883SOL    HW1 9548   6.202   6.039   3.765
 2883SOL    HW2 9549   6.049   6.055   3.822
 2884SOL     OW 9550   6.754   5.125   3.051
 2884SOL    HW1 9551   6.719   5.080   2.969
 2884SOL    HW2 9552   6.833   5.181   3.028
 2885SOL     OW 9553   1.190   3.017   3.278
 2885SOL    HW1 9554   1.263   2.953   3.254
 2885SOL    HW2 9555   1.183   3.025   3.377
 2886SOL     OW 9556   2.102   4.737   6.075
 2886SOL    HW1 9557   2.069   4.826   6.104
 2886SOL    HW2 9558   2.051   4.707   5.994
 2887SOL     OW 9559   1.038   5.286   3.750
 2887SOL    HW1 9560   0.945   5.252   3.759
 2887SOL    HW2 9561   1.063   5.292   3.653
 2888SOL     OW 9562   6.382   6.749   0.148
 2888SOL    HW1 9563   6.391   6.650   0.163
 2888SOL    HW2 9564   6.460   6.796   0.190
 2889SOL     OW 9565   3.653   6.834   3.159
 2889SOL    HW1 9566   3.639   6.737   3.180
 2889SOL    HW2 9567   3.747   6.860   3.183
 2890SOL     OW 9568   2.943   0.514   1.139
 2890SOL    HW1 9569   2.999   0.472   1.211
 2890SOL    HW2 9570   2.848   0.486   1.151
 2891SOL     OW 9571   0.507   2.075   4.313
 2891SOL    HW1 9572   0.509   2.058   4.214
 2891SOL    HW2 9573   0.537   2.169   4.330
 2892SOL     OW 9574   6.744   4.220   2.497
 2892SOL    HW1 9575   6.705   4.311   2.504
 2892SOL    HW2 9576   6.705   4.162   2.569
 2893SOL     OW 9577   6.643   5.197   4.346
 2893SOL    HW1 9578   6.738   5.223   4.363
 2893SOL    HW2 9579   6.607   5.147   4.425
 2894SOL     OW 9580   1.789   5.282   2.757
 2894SOL    HW1 9581   1.725   5.342   2.803
 2894SOL    HW2 9582   1.844   5.233   2.824
 2895SOL     OW 9583   4.340   6.820   6.143
 2895SOL    HW1 9584   4.337   6.766   6.228
 2895SOL    HW2 9585   4.394   6.903   6.158
 2896SOL     OW 9586   5.397   6.149   4.756
 2896SOL    HW1 9587   5.472   6.084   4.741
 2896SOL    HW2 9588   5.312   6.107   4.727
 2897SOL     OW 9589   3.883   4.906   3.382
 2897SOL    HW1 9590   3.975   4.869   3.390
 2897SOL    HW2 9591   3.843   4.917   3.473
 2898SOL     OW 9592   5.538   3.698   2.940
 2898SOL    HW1 9593   5.504   3.752   2.863
 2898SOL    HW2 9594   5.463   3.675   3.001
 2899SOL     OW 9595   6.898   3.502   1.164
 2899SOL    HW1 9596   6.903   3.402   1.156
 2899SOL    HW2 9597   6.811   3.534   1.125
 2900SOL     OW 9598   2.684   3.498   6.585
 2900SOL    HW1 9599   2.701   3.475   6.489
 2900SOL    HW2 9600   2.603   3.555   6.592
 2901SOL     OW 9601   1.401   4.333   3.690
 2901SOL    HW1 9602   1.339   4.328   3.769
 2901SOL    HW2 9603   1.361   4.285   3.612
 2902SOL     OW 9604   0.396   6.137   3.627
 2902SOL    HW1 9605   0.313   6.104   3.582
 2902SOL    HW2 9606   0.399   6.104   3.721
 2903SOL     OW 9607   4.594   5.454   0.604
 2903SOL    HW1 9608   4.677   5.482   0.556
 2903SOL    HW2 9609   4.542   5.535   0.632
 2904SOL     OW 9610   2.326   4.227   5.276
 2904SOL    HW1 9611   2.331   4.144   5.219
 2904SOL    HW2 9612   2.311   4.306   5.218
 2905SOL     OW 9613   0.493   5.167   1.895
 2905SOL    HW1 9614   0.442   5.130   1.972
 2905SOL    HW2 9615   0.591   5.152   1.910
 2906SOL     OW 9616   5.809   6.306   2.484
 2906SOL    HW1 9617   5.809   6.406   2.484
 2906SOL    HW2 9618   5.750   6.272   2.557
 2907SOL     OW 9619   0.311   1.099   4.024
 2907SOL    HW1 9620   0.369   1.062   3.950
 2907SOL    HW2 9621   0.365   1.108   4.107
 2908SOL     OW 9622   4.669   6.753   2.473
 2908SOL    HW1 9623   4.642   6.776   2.566
 2908SOL    HW2 9624   4.600   6.693   2.433
 2909SOL     OW 9625   1.020   5.925   2.405
 2909SOL    HW1 9626   1.021   6.004   2.467
 2909SOL    HW2 9627   1.093   5.862   2.431
 2910SOL     OW 9628   6.697   0.888   3.971
 2910SOL    HW1 9629   6.668   0.809   4.024
 2910SOL    HW2 9630   6.659   0.972   4.011
 2911SOL     OW 9631   6.387   4.352   4.778
 2911SOL    HW1 9632   6.385   4.443   4.818
 2911SOL    HW2 9633   6.480   4.331   4.747
 2912SOL     OW 9634   0.423   6.805   1.767
 2912SOL    HW1 9635   0.492   6.794   1.838
 2912SOL    HW2 9636   0.457   6.866   1.695
 2913SOL     OW 9637   2.669   6.198   1.557
 2913SOL    HW1 9638   2.767   6.214   1.558
 2913SOL    HW2 9639   2.626   6.255   1.487
 2914SOL     OW 9640   5.229   5.368   0.426
 2914SOL    HW1 9641   5.238   5.443   0.361
 2914SOL    HW2 9642   5.144   5.318   0.408
 2915SOL     OW 9643   2.591   0.308   2.809
 2915SOL    HW1 9644   2.635   0.225   2.844
 2915SOL    HW2 9645   2.644   0.345   2.733
 2916SOL     OW 9646   1.443   5.781   0.232
 2916SOL    HW1 9647   1.395   5.868   0.216
 2916SOL    HW2 9648   1.513   5.794   0.302
 2917SOL     OW 9649   2.896   6.292   4.300
 2917SOL    HW1 9650   2.853   6.202   4.302
 2917SOL    HW2 9651   2.906   6.326   4.393
 2918SOL     OW 9652   5.667   2.924   2.107
 2918SOL    HW1 9653   5.710   3.005   2.147
 2918SOL    HW2 9654   5.590   2.951   2.049
 2919SOL     OW 9655   1.118   5.468   4.103
 2919SOL    HW1 9656   1.162   5.523   4.174
 2919SOL    HW2 9657   1.097   5.378   4.139
 2920SOL     OW 9658   1.219   2.352   2.406
 2920SOL    HW1 9659   1.138   2.368   2.350
 2920SOL    HW2 9660   1.268   2.439   2.420
 2921SOL     OW 9661   1.302   0.306   4.969
 2921SOL    HW1 9662   1.302   0.322   4.871
 2921SOL    HW2 9663   1.314   0.393   5.017
 2922SOL     OW 9664   3.498   0.493   3.326
 2922SOL    HW1 9665   3.509   0.395   3.346
 2922SOL    HW2 9666   3.500   0.545   3.412
 2923SOL     OW 9667   5.899   5.727   4.936
 2923SOL    HW1 9668   5.880   5.644   4.988
 2923SOL    HW2 9669   5.910   5.704   4.840
 2924SOL     OW 9670   5.916   2.763   5.251
 2924SOL    HW1 9671   5.896   2.803   5.341
 2924SOL    HW2 9672   5.831   2.741   5.205
 2925SOL     OW 9673   5.099   0.127   5.978
 2925SOL    HW1 9674   5.198   0.134   5.992
 2925SOL    HW2 9675   5.053   0.130   6.067
 2926SOL     OW 9676   6.978   2.135   4.585
 2926SOL    HW1 9677   7.001   2.050   4.632
 2926SOL    HW2 9678   6.918   2.116   4.508
 2927SOL     OW 9679   1.049   2.398   2.000
 2927SOL    HW1 9680   1.141   2.433   2.016
 2927SOL    HW2 9681   1.009   2.366   2.086
 2928SOL     OW 9682   0.081   3.076   0.161
 2928SOL    HW1 9683   0.142   3.011   0.207
 2928SOL    HW2 9684   0.087   3.165   0.206
 2929SOL     OW 9685   2.641   2.504   5.139
 2929SOL    HW1 9686   2.698   2.502   5.220
 2929SOL    HW2 9687   2.550   2.539   5.163
 2930SOL     OW 9688   6.716   4.900   5.081
 2930SOL    HW1 9689   6.678   4.931   4.994
 2930SOL    HW2 9690   6.689   4.963   5.154
 2931SOL     OW 9691   5.209   4.553   5.464
 2931SOL    HW1 9692   5.190   4.498   5.545
 2931SOL    HW2 9693   5.281   4.620   5.485
 2932SOL     OW 9694   6.380   5.405   0.723
 2932SOL    HW1 9695   6.346   5.446   0.808
 2932SOL    HW2 9696   6.434   5.473   0.673
 2933SOL     OW 9697   1.446   0.215   1.266
 2933SOL    HW1 9698   1.460   0.228   1.364
 2933SOL    HW2 9699   1.371   0.274   1.235
 2934SOL     OW 9700   4.169   5.057   0.242
 2934SOL    HW1 9701   4.129   5.062   0.151
 2934SOL    HW2 9702   4.220   4.971   0.251
 2935SOL     OW 9703   0.081   2.382   6.234
 2935SOL    HW1 9704   0.130   2.305   6.275
 2935SOL    HW2 9705   0.107   2.467   6.280
 2936SOL     OW 9706   4.376   6.171   0.473
 2936SOL    HW1 9707   4.330   6.249   0.432
 2936SOL    HW2 9708   4.319   6.133   0.546
 2937SOL     OW 9709   4.888   4.964   2.225
 2937SOL    HW1 9710   4.879   4.880   2.171
 2937SOL    HW2 9711   4.863   5.042   2.169
 2938SOL     OW 9712   6.338   5.822   0.106
 2938SOL    HW1 9713   6.328   5.784   0.198
 2938SOL    HW2 9714   6.274   5.899   0.095
 2939SOL     OW 9715   0.212   5.630   1.352
 2939SOL    HW1 9716   0.205   5.645   1.450
 2939SOL    HW2 9717   0.232   5.717   1.306
 2940SOL     OW 9718   4.566   6.606   3.392
 2940SOL    HW1 9719   4.569   6.668   3.313
 2940SOL    HW2 9720   4.634   6.634   3.459
 2941SOL     OW 9721   1.473   3.994   3.572
 2941SOL    HW1 9722   1.556   3.959   3.615
 2941SOL    HW2 9723   1.396   3.985   3.635
 2942SOL     OW 9724   3.720   1.704   1.669
 2942SOL    HW1 9725   3.687   1.793   1.703
 2942SOL    HW2 9726   3.770   1.717   1.584
 2943SOL     OW 9727   5.895   3.896   3.520
 2943SOL    HW1 9728   5.908   3.850   3.433
 2943SOL    HW2 9729   5.982   3.899   3.570
 2944SOL     OW 9730   1.690   5.727   3.000
 2944SOL    HW1 9731   1.681   5.751   3.096
 2944SOL    HW2 9732   1.750   5.792   2.954
 2945SOL     OW 9733   5.156   4.635   1.567
 2945SOL    HW1 9734   5.191   4.705   1.505
 2945SOL    HW2 9735   5.223   4.618   1.639
 2946SOL     OW 9736   3.327   3.795   5.511
 2946SOL    HW1 9737   3.248   3.741   5.483
 2946SOL    HW2 9738   3.375   3.829   5.430
 2947SOL     OW 9739   5.730   6.575   0.537
 2947SOL    HW1 9740   5.699   6.600   0.629
 2947SOL    HW2 9741   5.784   6.491   0.541
 2948SOL     OW 9742   6.348   4.027   2.301
 2948SOL    HW1 9743   6.312   4.051   2.391
 2948SOL    HW2 9744   6.448   4.027   2.303
 2949SOL     OW 9745   1.255   6.783   0.947
 2949SOL    HW1 9746   1.335   6.836   0.922
 2949SOL    HW2 9747   1.282   6.689   0.969
 2950SOL     OW 9748   5.548   4.377   3.239
 2950SOL    HW1 9749   5.495   4.428   3.172
 2950SOL    HW2 9750   5.537   4.279   3.223
 2951SOL     OW 9751   6.496   1.464   1.765
 2951SOL    HW1 9752   6.576   1.521   1.748
 2951SOL    HW2 9753   6.524   1.383   1.817
 2952SOL     OW 9754   5.562   1.635   4.318
 2952SOL    HW1 9755   5.551   1.656   4.221
 2952SOL    HW2 9756   5.508   1.699   4.373
 2953SOL     OW 9757   1.020   5.661   4.379
 2953SOL    HW1 9758   1.095   5.702   4.327
 2953SOL    HW2 9759   1.033   5.562   4.382
 2954SOL     OW 9760   6.874   4.519   5.969
 2954SOL    HW1 9761   6.775   4.507   5.962
 2954SOL    HW2 9762   6.913   4.521   5.877
 2955SOL     OW 9763   2.124   4.849   6.654
 2955SOL    HW1 9764   2.184   4.891   6.722
 2955SOL    HW2 9765   2.177   4.821   6.574
 2956SOL     OW 9766   6.295   4.259   3.552
 2956SOL    HW1 9767   6.302   4.300   3.461
 2956SOL    HW2 9768   6.270   4.330   3.618
 2957SOL     OW 9769   2.802   4.889   1.433
 2957SOL    HW1 9770   2.872   4.832   1.477
 2957SOL    HW2 9771   2.832   4.984   1.432
 2958SOL     OW 9772   2.630   5.349   2.322
 2958SOL    HW1 9773   2.533   5.325   2.333
 2958SOL    HW2 9774   2.686   5.268   2.339
 2959SOL     OW 9775   0.043   2.860   3.112
 2959SOL    HW1 9776   0.027   2.898   3.204
 2959SOL    HW2 9777   7.009   2.776   3.102
 2960SOL     OW 9778   4.675   0.487   0.156
 2960SOL    HW1 9779   4.630   0.524   0.075
 2960SOL    HW2 9780   4.669   0.387   0.155
 2961SOL     OW 9781   5.735   4.084   2.333
 2961SOL    HW1 9782   5.640   4.073   2.361
 2961SOL    HW2 9783   5.743   4.065   2.235
 2962SOL     OW 9784   0.124   0.080   2.827
 2962SOL    HW1 9785   0.200   0.090   2.763
 2962SOL    HW2 9786   0.119   7.004   2.858
 2963SOL     OW 9787   1.964   1.233   4.660
 2963SOL    HW1 9788   2.039   1.166   4.668
 2963SOL    HW2 9789   1.973   1.302   4.732
 2964SOL     OW 9790   1.180   2.035   0.337
 2964SOL    HW1 9791   1.206   2.129   0.361
 2964SOL    HW2 9792   1.249   1.971   0.371
 2965SOL     OW 9793   1.351   7.015   4.697
 2965SOL    HW1 9794   1.342   0.084   4.651
 2965SOL    HW2 9795   1.445   7.005   4.732
 2966SOL     OW 9796   3.512   5.952   3.048
 2966SOL    HW1 9797   3.499   6.039   3.001
 2966SOL    HW2 9798   3.436   5.890   3.025
 2967SOL     OW 9799   5.898   0.197   5.576
 2967SOL    HW1 9800   5.837   0.175   5.652
 2967SOL    HW2 9801   5.961   0.121   5.561
 2968SOL     OW 9802   2.018   2.422   1.253
 2968SOL    HW1 9803   2.046   2.518   1.248
 2968SOL    HW2 9804   1.926   2.416   1.292
 2969SOL     OW 9805   5.117   3.266   4.637
 2969SOL    HW1 9806   5.028   3.245   4.676
 2969SOL    HW2 9807   5.189   3.220   4.689
 2970SOL     OW 9808   2.511   2.145   4.197
 2970SOL    HW1 9809   2.472   2.093   4.121
 2970SOL    HW2 9810   2.520   2.241   4.170
 2971SOL     OW 9811   5.535   3.020   6.236
 2971SOL    HW1 9812   5.548   3.063   6.325
 2971SOL    HW2 9813   5.556   2.922   6.244
 2972SOL     OW 9814   5.728   4.932   0.079
 2972SOL    HW1 9815   5.741   4.841   0.039
 2972SOL    HW2 9816   5.673   4.925   0.162
 2973SOL     OW 9817   4.465   1.240   2.357
 2973SOL    HW1 9818   4.393   1.305   2.334
 2973SOL    HW2 9819   4.464   1.164   2.293
 2974SOL     OW 9820   4.604   6.368   3.083
 2974SOL    HW1 9821   4.534   6.298   3.092
 2974SOL    HW2 9822   4.674   6.354   3.154
 2975SOL     OW 9823   4.844   4.132   4.182
 2975SOL    HW1 9824   4.814   4.089   4.267
 2975SOL    HW2 9825   4.769   4.183   4.142
 2976SOL     OW 9826   4.206   2.274   2.132
 2976SOL    HW1 9827   4.134   2.251   2.067
 2976SOL    HW2 9828   4.268   2.341   2.089
 2977SOL     OW 9829   1.340   0.963   1.405
 2977SOL    HW1 9830   1.240   0.963   1.405
 2977SOL    HW2 9831   1.373   0.869   1.399
 2978SOL     OW 9832   4.510   5.339   6.291
 2978SOL    HW1 9833   4.568   5.343   6.373
 2978SOL    HW2 9834   4.515   5.247   6.252
 2979SOL     OW 9835   3.489   0.868   4.142
 2979SOL    HW1 9836   3.574   0.900   4.099
 2979SOL    HW2 9837   3.467   0.776   4.108
 2980SOL     OW 9838   3.613   3.541   5.898
 2980SOL    HW1 9839   3.595   3.547   5.800
 2980SOL    HW2 9840   3.642   3.630   5.933
 2981SOL     OW 9841   1.444   0.656   1.090
 2981SOL    HW1 9842   1.418   0.743   1.047
 2981SOL    HW2 9843   1.518   0.614   1.037
 2982SOL     OW 9844   0.660   0.428   1.612
 2982SOL    HW1 9845   0.650   0.518   1.570
 2982SOL    HW2 9846   0.571   0.380   1.611
 2983SOL     OW 9847   6.317   2.980   5.953
 2983SOL    HW1 9848   6.303   2.910   5.884
 2983SOL    HW2 9849   6.273   3.065   5.924
 2984SOL     OW 9850   0.380   4.835   0.618
 2984SOL    HW1 9851   0.283   4.812   0.630
 2984SOL    HW2 9852   0.407   4.903   0.687
 2985SOL     OW 9853   0.102   6.673   5.153
 2985SOL    HW1 9854   0.076   6.740   5.083
 2985SOL    HW2 9855   0.168   6.714   5.215
 2986SOL     OW 9856   3.948   4.002   2.639
 2986SOL    HW1 9857   4.005   4.048   2.707
 2986SOL    HW2 9858   4.007   3.959   2.570
 2987SOL     OW 9859   1.939   0.299   4.322
 2987SOL    HW1 9860   1.897   0.388   4.338
 2987SOL    HW2 9861   1.871   0.227   4.335
 2988SOL     OW 9862   0.598   1.552   0.075
 2988SOL    HW1 9863   0.611   1.597   7.006
 2988SOL    HW2 9864   0.581   1.621   0.146
 2989SOL     OW 9865   5.126   3.493   4.179
 2989SOL    HW1 9866   5.208   3.539   4.144
 2989SOL    HW2 9867   5.086   3.548   4.253
 2990SOL     OW 9868   4.841   1.335   4.182
 2990SOL    HW1 9869   4.940   1.325   4.197
 2990SOL    HW2 9870   4.810   1.421   4.221
 2991SOL     OW 9871   6.547   4.246   1.007
 2991SOL    HW1 9872   6.575   4.342   1.000
 2991SOL    HW2 9873   6.512   4.229   1.099
 2992SOL     OW 9874   0.253   3.742   5.537
 2992SOL    HW1 9875   0.224   3.832   5.504
 2992SOL    HW2 9876   0.349   3.728   5.515
 2993SOL     OW 9877   1.077   4.375   0.109
 2993SOL    HW1 9878   1.054   4.471   0.124
 2993SOL    HW2 9879   1.002   4.318   0.143
 2994SOL     OW 9880   4.215   6.722   6.573
 2994SOL    HW1 9881   4.238   6.785   6.646
 2994SOL    HW2 9882   4.189   6.633   6.612
 2995SOL     OW 9883   5.356   0.818   0.966
 2995SOL    HW1 9884   5.359   0.872   1.051
 2995SOL    HW2 9885   5.379   0.723   0.986
 2996SOL     OW 9886   0.167   1.553   4.903
 2996SOL    HW1 9887   0.089   1.541   4.841
 2996SOL    HW2 9888   0.249   1.573   4.849
 2997SOL     OW 9889   5.238   0.292   3.568
 2997SOL    HW1 9890   5.179   0.370   3.589
 2997SOL    HW2 9891   5.304   0.318   3.499
 2998SOL     OW 9892   2.460   1.577   2.628
 2998SOL    HW1 9893   2.423   1.604   2.717
 2998SOL    HW2 9894   2.495   1.657   2.580
 2999SOL     OW 9895   2.541   4.544   0.392
 2999SOL    HW1 9896   2.611   4.525   0.323
 2999SOL    HW2 9897   2.523   4.461   0.445
 3000SOL     OW 9898   2.914   3.870   4.833
 3000SOL    HW1 9899   2.953   3.787   4.795
 3000SOL    HW2 9900   2.832   3.895   4.782
 3001SOL     OW 9901   5.878   0.495   5.807
 3001SOL    HW1 9902   5.886   0.405   5.848
 3001SOL    HW2 9903   5.829   0.488   5.720
 3002SOL     OW 9904   1.943   2.099   1.821
 3002SOL    HW1 9905   2.018   2.067   1.764
 3002SOL    HW2 9906   1.912   2.025   1.881
 3003SOL     OW 9907   1.315   6.438   6.921
 3003SOL    HW1 9908   1.322   6.530   6.884
 3003SOL    HW2 9909   1.228   6.428   6.970
 3004SOL     OW 9910   2.513   6.516   3.797
 3004SOL    HW1 9911   2.454   6.586   3.837
 3004SOL    HW2 9912   2.571   6.477   3.868
 3005SOL     OW 9913   0.956   2.182   5.789
 3005SOL    HW1 9914   0.940   2.258   5.852
 3005SOL    HW2 9915   1.052   2.182   5.761
 3006SOL     OW 9916   5.091   1.366   5.592
 3006SOL    HW1 9917   5.099   1.355   5.493
 3006SOL    HW2 9918   5.134   1.452   5.619
 3007SOL     OW 9919   5.283   5.086   6.899
 3007SOL    HW1 9920   5.383   5.091   6.909
 3007SOL    HW2 9921   5.248   5.007   6.949
 3008SOL     OW 9922   5.232   2.693   5.818
 3008SOL    HW1 9923   5.207   2.679   5.914
 3008SOL    HW2 9924   5.224   2.790   5.795
 3009SOL     OW 9925   7.017   3.470   2.190
 3009SOL    HW1 9926   0.023   3.561   2.224
 3009SOL    HW2 9927   7.006   3.474   2.091
 3010SOL     OW 9928   4.040   6.057   6.218
 3010SOL    HW1 9929   4.026   6.060   6.318
 3010SOL    HW2 9930   4.102   6.130   6.191
 3011SOL     OW 9931   6.984   6.991   1.258
 3011SOL    HW1 9932   6.959   0.069   1.257
 3011SOL    HW2 9933   6.926   6.942   1.192
 3012SOL     OW 9934   2.485   2.570   5.636
 3012SOL    HW1 9935   2.507   2.556   5.733
 3012SOL    HW2 9936   2.485   2.482   5.589
 3013SOL     OW 9937   0.780   4.766   5.012
 3013SOL    HW1 9938   0.756   4.857   5.046
 3013SOL    HW2 9939   0.714   4.738   4.943
 3014SOL     OW 9940   4.777   0.056   5.599
 3014SOL    HW1 9941   4.832   0.018   5.674
 3014SOL    HW2 9942   4.742   0.146   5.626
 3015SOL     OW 9943   1.334   1.124   6.886
 3015SOL    HW1 9944   1.281   1.209   6.886
 3015SOL    HW2 9945   1.291   1.058   6.948
 3016SOL     OW 9946   1.645   6.724   4.150
 3016SOL    HW1 9947   1.655   6.626   4.129
 3016SOL    HW2 9948   1.731   6.758   4.188
 3017SOL     OW 9949   0.250   5.248   0.675
 3017SOL    HW1 9950   0.218   5.155   0.657
 3017SOL    HW2 9951   0.172   5.306   0.700
 3018SOL     OW 9952   3.268   0.221   0.482
 3018SOL    HW1 9953   3.279   0.131   0.524
 3018SOL    HW2 9954   3.357   0.266   0.475
 3019SOL     OW 9955   1.948   0.466   5.287
 3019SOL    HW1 9956   1.897   0.380   5.293
 3019SOL    HW2 9957   2.042   0.451   5.318
 3020SOL     OW 9958   5.800   3.392   0.012
 3020SOL    HW1 9959   5.793   3.398   0.112
 3020SOL    HW2 9960   5.836   3.478   6.995
 3021SOL     OW 9961   4.208   6.607   4.655
 3021SOL    HW1 9962   4.155   6.602   4.570
 3021SOL    HW2 9963   4.266   6.689   4.654
 3022SOL     OW 9964   3.788   5.696   3.751
 3022SOL    HW1 9965   3.831   5.753   3.681
 3022SOL    HW2 9966   3.838   5.706   3.837
 3023SOL     OW 9967   5.044   6.528   2.828
 3023SOL    HW1 9968   5.100   6.607   2.852
 3023SOL    HW2 9969   4.951   6.541   2.863
 3024SOL     OW 9970   0.041   6.094   6.400
 3024SOL    HW1 9971   0.082   6.148   6.327
 3024SOL    HW2 9972   0.053   6.143   6.487
 3025SOL     OW 9973   3.089   6.049   0.482
 3025SOL    HW1 9974   3.020   5.979   0.465
 3025SOL    HW2 9975   3.123   6.041   0.575
 3026SOL     OW 9976   6.445   1.182   0.708
 3026SOL    HW1 9977   6.471   1.167   0.612
 3026SOL    HW2 9978   6.517   1.147   0.768
 3027SOL     OW 9979   4.639   1.252   1.363
 3027SOL    HW1 9980   4.709   1.311   1.322
 3027SOL    HW2 9981   4.613   1.181   1.298
 3028SOL     OW 9982   3.382   4.105   5.584
 3028SOL    HW1 9983   3.478   4.103   5.557
 3028SOL    HW2 9984   3.334   4.026   5.546
 3029SOL     OW 9985   0.591   2.554   4.474
 3029SOL    HW1 9986   0.522   2.506   4.529
 3029SOL    HW2 9987   0.678   2.554   4.523
 3030SOL     OW 9988   2.639   3.379   0.778
 3030SOL    HW1 9989   2.734   3.347   0.787
 3030SOL    HW2 9990   2.581   3.303   0.748
 3031SOL     OW 9991   0.830   6.404   1.392
 3031SOL    HW1 9992   0.820   6.499   1.364
 3031SOL    HW2 9993   0.909   6.364   1.347
 3032SOL     OW 9994   2.012   0.375   2.360
 3032SOL    HW1 9995   1.964   0.289   2.340
 3032SOL    HW2 9996   2.020   0.429   2.276
 3033SOL     OW 9997   6.862   2.075   4.303
 3033SOL    HW1 9998   6.906   2.037   4.222
 3033SOL    HW2 9999   6.827   2.166   4.284
 3034SOL     OW10000   6.896   5.475   3.195
 3034SOL    HW110001   6.797   5.485   3.198
 3034SOL    HW210002   6.921   5.405   3.127
 3035SOL     OW10003   1.430   2.754   6.968
 3035SOL    HW110004   1.427   2.806   0.034
 3035SOL    HW210005   1.503   2.791   6.910
 3036SOL     OW10006   2.901   2.187   6.632
 3036SOL    HW110007   2.999   2.198   6.620
 3036SOL    HW210008   2.878   2.188   6.729
 3037SOL     OW10009   0.165   5.411   0.268
 3037SOL    HW110010   0.245   5.418   0.328
 3037SOL    HW210011   0.187   5.352   0.190
 3038SOL     OW10012   5.835   4.702   7.005
 3038SOL    HW110013   5.918   4.662   0.026
 3038SOL    HW210014   5.767   4.630   6.991
 3039SOL     OW10015   6.966   4.011   0.062
 3039SOL    HW110016   0.035   3.968   0.083
 3039SOL    HW210017   6.901   3.941   0.033
 3040SOL     OW10018   5.088   3.942   5.837
 3040SOL    HW110019   5.179   3.902   5.840
 3040SOL    HW210020   5.068   3.974   5.745
 3041SOL     OW10021   1.746   4.047   5.002
 3041SOL    HW110022   1.718   4.140   4.978
 3041SOL    HW210023   1.779   4.046   5.097
 3042SOL     OW10024   6.994   5.271   3.004
 3042SOL    HW110025   0.038   5.196   3.022
 3042SOL    HW210026   6.996   5.295   2.907
 3043SOL     OW10027   3.088   4.793   0.298
 3043SOL    HW110028   3.154   4.786   0.223
 3043SOL    HW210029   3.134   4.775   0.385
 3044SOL     OW10030   3.628   3.698   5.072
 3044SOL    HW110031   3.716   3.695   5.121
 3044SOL    HW210032   3.634   3.767   4.999
 3045SOL     OW10033   4.756   1.670   1.928
 3045SOL    HW110034   4.844   1.688   1.972
 3045SOL    HW210035   4.714   1.589   1.969
 3046SOL     OW10036   5.512   6.070   1.429
 3046SOL    HW110037   5.564   6.086   1.345
 3046SOL    HW210038   5.526   6.147   1.491
 3047SOL     OW10039   6.278   1.085   5.672
 3047SOL    HW110040   6.345   1.127   5.611
 3047SOL    HW210041   6.299   0.988   5.683
 3048SOL     OW10042   3.533   4.173   0.823
 3048SOL    HW110043   3.619   4.215   0.793
 3048SOL    HW210044   3.553   4.105   0.894
 3049SOL     OW10045   1.308   0.831   3.736
 3049SOL    HW110046   1.320   0.738   3.702
 3049SOL    HW210047   1.360   0.895   3.680
 3050SOL     OW10048   2.891   1.971   1.585
 3050SOL    HW110049   2.835   1.894   1.613
 3050SOL    HW210050   2.862   2.053   1.634
 3051SOL     OW10051   2.209   5.146   5.421
 3051SOL    HW110052   2.169   5.061   5.386
 3051SOL    HW210053   2.226   5.208   5.345
 3052SOL     OW10054   6.709   6.515   2.310
 3052SOL    HW110055   6.655   6.581   2.258
 3052SOL    HW210056   6.739   6.556   2.396
 3053SOL     OW10057   1.528   4.270   0.026
 3053SOL    HW110058   1.455   4.301   0.087
 3053SOL    HW210059   1.491   4.260   6.953
 3054SOL     OW10060   5.725   1.245   2.467
 3054SOL    HW110061   5.779   1.266   2.548
 3054SOL    HW210062   5.669   1.324   2.443
 3055SOL     OW10063   5.985   5.772   6.815
 3055SOL    HW110064   5.999   5.864   6.779
 3055SOL    HW210065   6.036   5.706   6.760
 3056SOL     OW10066   4.440   1.451   5.812
 3056SOL    HW110067   4.342   1.473   5.821
 3056SOL    HW210068   4.490   1.533   5.785
 3057SOL     OW10069   5.831   5.058   3.186
 3057SOL    HW110070   5.760   5.018   3.244
 3057SOL    HW210071   5.824   5.158   3.189
 3058SOL     OW10072   0.908   4.781   6.699
 3058SOL    HW110073   0.863   4.696   6.673
 3058SOL    HW210074   0.943   4.773   6.792
 3059SOL     OW10075   2.089   2.265   4.263
 3059SOL    HW110076   2.151   2.295   4.336
 3059SOL    HW210077   2.142   2.223   4.189
 3060SOL     OW10078   4.971   5.219   5.053
 3060SOL    HW110079   5.004   5.153   4.985
 3060SOL    HW210080   5.047   5.250   5.109
 3061SOL     OW10081   5.241   5.616   5.223
 3061SOL    HW110082   5.253   5.562   5.140
 3061SOL    HW210083   5.167   5.682   5.210
 3062SOL     OW10084   4.672   4.430   1.498
 3062SOL    HW110085   4.772   4.433   1.506
 3062SOL    HW210086   4.631   4.448   1.587
 3063SOL     OW10087   0.068   4.284   1.708
 3063SOL    HW110088   0.158   4.328   1.709
 3063SOL    HW210089   0.001   4.347   1.669
 3064SOL     OW10090   4.819   1.961   6.471
 3064SOL    HW110091   4.866   2.022   6.534
 3064SOL    HW210092   4.810   1.870   6.512
 3065SOL     OW10093   6.974   1.470   6.428
 3065SOL    HW110094   6.973   1.485   6.330
 3065SOL    HW210095   0.025   1.403   6.451
 3066SOL     OW10096   5.237   6.228   5.639
 3066SOL    HW110097   5.322   6.254   5.593
 3066SOL    HW210098   5.210   6.136   5.610
 3067SOL     OW10099   1.625   2.003   5.974
 3067SOL    HW110100   1.609   2.093   6.014
 3067SOL    HW210101   1.578   1.997   5.886
 3068SOL     OW10102   0.961   0.865   0.653
 3068SOL    HW110103   0.973   0.930   0.728
 3068SOL    HW210104   0.942   0.774   0.691
 3069SOL     OW10105   5.209   0.157   2.830
 3069SOL    HW110106   5.148   0.079   2.844
 3069SOL    HW210107   5.185   0.229   2.895
 3070SOL     OW10108   2.054   0.665   0.933
 3070SOL    HW110109   2.064   0.575   0.891
 3070SOL    HW210110   2.104   0.667   1.020
 3071SOL     OW10111   0.211   3.928   4.449
 3071SOL    HW110112   0.142   3.948   4.518
 3071SOL    HW210113   0.196   3.985   4.369
 3072SOL     OW10114   2.085   0.126   6.034
 3072SOL    HW110115   2.026   0.162   6.106
 3072SOL    HW210116   2.031   0.072   5.970
 3073SOL     OW10117   5.905   4.915   1.294
 3073SOL    HW110118   5.810   4.883   1.289
 3073SOL    HW210119   5.949   4.903   1.205
 3074SOL     OW10120   1.647   3.496   1.114
 3074SOL    HW110121   1.637   3.479   1.016
 3074SOL    HW210122   1.711   3.430   1.153
 3075SOL     OW10123   3.305   5.824   2.214
 3075SOL    HW110124   3.403   5.836   2.227
 3075SOL    HW210125   3.282   5.727   2.215
 3076SOL     OW10126   0.623   0.353   5.030
 3076SOL    HW110127   0.636   0.407   5.114
 3076SOL    HW210128   0.658   0.261   5.044
 3077SOL     OW10129   6.341   3.855   2.657
 3077SOL    HW110130   6.252   3.884   2.621
 3077SOL    HW210131   6.364   3.910   2.737
 3078SOL     OW10132   6.599   2.639   1.846
 3078SOL    HW110133   6.582   2.697   1.926
 3078SOL    HW210134   6.696   2.643   1.821
 3079SOL     OW10135   1.984   3.470   5.246
 3079SOL    HW110136   2.024   3.403   5.183
 3079SOL    HW210137   2.013   3.562   5.220
 3080SOL     OW10138   4.442   5.024   0.721
 3080SOL    HW110139   4.427   4.930   0.692
 3080SOL    HW210140   4.427   5.031   0.820
 3081SOL     OW10141   1.657   4.025   0.062
 3081SOL    HW110142   1.647   4.025   0.162
 3081SOL    HW210143   1.633   4.115   0.026
 3082SOL     OW10144   4.724   5.625   4.745
 3082SOL    HW110145   4.776   5.592   4.824
 3082SOL    HW210146   4.783   5.623   4.664
 3083SOL     OW10147   3.411   5.809   1.813
 3083SOL    HW110148   3.404   5.899   1.855
 3083SOL    HW210149   3.320   5.775   1.789
 3084SOL     OW10150   0.512   3.446   4.137
 3084SOL    HW110151   0.541   3.386   4.063
 3084SOL    HW210152   0.563   3.424   4.220
 3085SOL     OW10153   5.323   4.423   0.222
 3085SOL    HW110154   5.324   4.347   0.157
 3085SOL    HW210155   5.353   4.506   0.176
 3086SOL     OW10156   5.789   6.753   6.494
 3086SOL    HW110157   5.866   6.745   6.430
 3086SOL    HW210158   5.787   6.845   6.533
 3087SOL     OW10159   2.824   6.953   2.138
 3087SOL    HW110160   2.851   6.953   2.234
 3087SOL    HW210161   2.864   6.875   2.092
 3088SOL     OW10162   1.717   2.784   5.860
 3088SOL    HW110163   1.691   2.840   5.781
 3088SOL    HW210164   1.713   2.840   5.943
 3089SOL     OW10165   4.233   6.556   5.057
 3089SOL    HW110166   4.312   6.585   5.003
 3089SOL    HW210167   4.247   6.579   5.153
 3090SOL     OW10168   1.449   1.709   2.695
 3090SOL    HW110169   1.444   1.695   2.596
 3090SOL    HW210170   1.520   1.651   2.734
 3091SOL     OW10171   0.901   2.283   1.418
 3091SOL    HW110172   0.834   2.220   1.457
 3091SOL    HW210173   0.993   2.242   1.425
 3092SOL     OW10174   6.660   1.049   2.386
 3092SOL    HW110175   6.631   1.144   2.378
 3092SOL    HW210176   6.583   0.992   2.413
 3093SOL     OW10177   5.493   4.848   6.762
 3093SOL    HW110178   5.458   4.754   6.752
 3093SOL    HW210179   5.432   4.900   6.822
 3094SOL     OW10180   2.720   1.809   6.275
 3094SOL    HW110181   2.774   1.874   6.328
 3094SOL    HW210182   2.653   1.764   6.335
 3095SOL     OW10183   1.776   3.512   5.017
 3095SOL    HW110184   1.852   3.450   5.034
 3095SOL    HW210185   1.810   3.605   5.006
 3096SOL     OW10186   0.423   3.970   4.590
 3096SOL    HW110187   0.485   4.039   4.553
 3096SOL    HW210188   0.346   3.957   4.529
 3097SOL     OW10189   5.385   2.255   5.691
 3097SOL    HW110190   5.456   2.272   5.624
 3097SOL    HW210191   5.349   2.162   5.679
 3098SOL     OW10192   1.926   2.862   1.829
 3098SOL    HW110193   1.867   2.826   1.756
 3098SOL    HW210194   1.963   2.785   1.882
 3099SOL     OW10195   0.675   6.057   4.481
 3099SOL    HW110196   0.756   6.074   4.426
 3099SOL    HW210197   0.626   5.978   4.446
 3100SOL     OW10198   6.621   5.344   2.412
 3100SOL    HW110199   6.583   5.437   2.407
 3100SOL    HW210200   6.638   5.310   2.319
 3101SOL     OW10201   3.510   6.396   5.499
 3101SOL    HW110202   3.541   6.442   5.416
 3101SOL    HW210203   3.575   6.414   5.573
 3102SOL     OW10204   0.058   5.155   0.942
 3102SOL    HW110205   0.005   5.142   0.859
 3102SOL    HW210206   0.070   5.252   0.961
 3103SOL     OW10207   3.456   0.756   1.532
 3103SOL    HW110208   3.409   0.838   1.565
 3103SOL    HW210209   3.503   0.777   1.446
 3104SOL     OW10210   4.590   0.781   5.973
 3104SOL    HW110211   4.501   0.736   5.987
 3104SOL    HW210212   4.647   0.764   6.053
 3105SOL     OW10213   6.154   3.861   0.063
 3105SOL    HW110214   6.198   3.951   0.070
 3105SOL    HW210215   6.164   3.826   6.989
 3106SOL     OW10216   6.358   0.176   5.323
 3106SOL    HW110217   6.372   0.275   5.315
 3106SOL    HW210218   6.421   0.128   5.261
 3107SOL     OW10219   3.841   1.363   6.110
 3107SOL    HW110220   3.769   1.410   6.059
 3107SOL    HW210221   3.866   1.416   6.191
 3108SOL     OW10222   1.994   4.188   3.403
 3108SOL    HW110223   2.081   4.157   3.363
 3108SOL    HW210224   1.944   4.243   3.336
 3109SOL     OW10225   6.511   5.837   3.904
 3109SOL    HW110226   6.443   5.810   3.836
 3109SOL    HW210227   6.476   5.914   3.957
 3110SOL     OW10228   1.083   4.350   3.350
 3110SOL    HW110229   1.037   4.288   3.287
 3110SOL    HW210230   1.020   4.376   3.423
 3111SOL     OW10231   5.622   4.596   4.175
 3111SOL    HW110232   5.530   4.597   4.135
 3111SOL    HW210233   5.681   4.661   4.127
 3112SOL     OW10234   3.482   1.702   6.939
 3112SOL    HW110235   3.465   1.702   0.018
 3112SOL    HW210236   3.506   1.795   6.910
 3113SOL     OW10237   2.451   5.805   3.548
 3113SOL    HW110238   2.505   5.796   3.632
 3113SOL    HW210239   2.438   5.714   3.507
 3114SOL     OW10240   4.277   0.960   6.637
 3114SOL    HW110241   4.320   0.918   6.718
 3114SOL    HW210242   4.327   0.931   6.555
 3115SOL     OW10243   4.958   4.924   5.500
 3115SOL    HW110244   4.874   4.978   5.496
 3115SOL    HW210245   5.021   4.965   5.566
 3116SOL     OW10246   0.667   1.763   1.163
 3116SOL    HW110247   0.716   1.718   1.088
 3116SOL    HW210248   0.575   1.723   1.171
 3117SOL     OW10249   4.897   1.336   5.807
 3117SOL    HW110250   4.829   1.282   5.759
 3117SOL    HW210251   4.985   1.327   5.761
 3118SOL     OW10252   1.210   0.860   3.354
 3118SOL    HW110253   1.139   0.902   3.297
 3118SOL    HW210254   1.244   0.777   3.309
 3119SOL     OW10255   4.199   4.846   5.719
 3119SOL    HW110256   4.242   4.932   5.743
 3119SOL    HW210257   4.194   4.837   5.619
 3120SOL     OW10258   1.729   6.323   4.942
 3120SOL    HW110259   1.765   6.379   5.017
 3120SOL    HW210260   1.674   6.248   4.980
 3121SOL     OW10261   4.787   1.415   4.527
 3121SOL    HW110262   4.863   1.457   4.578
 3121SOL    HW210263   4.730   1.487   4.488
 3122SOL     OW10264   3.955   5.492   4.447
 3122SOL    HW110265   3.938   5.439   4.530
 3122SOL    HW210266   4.041   5.543   4.457
 3123SOL     OW10267   1.964   1.800   3.666
 3123SOL    HW110268   2.003   1.794   3.574
 3123SOL    HW210269   1.953   1.896   3.691
 3124SOL     OW10270   5.174   6.814   3.733
 3124SOL    HW110271   5.260   6.864   3.729
 3124SOL    HW210272   5.101   6.871   3.694
 3125SOL     OW10273   1.395   1.450   5.604
 3125SOL    HW110274   1.332   1.518   5.567
 3125SOL    HW210275   1.459   1.494   5.666
 3126SOL     OW10276   5.981   5.502   4.677
 3126SOL    HW110277   5.993   5.487   4.579
 3126SOL    HW210278   5.990   5.415   4.725
 3127SOL     OW10279   0.156   1.098   4.885
 3127SOL    HW110280   0.094   1.031   4.843
 3127SOL    HW210281   0.176   1.070   4.979
 3128SOL     OW10282   4.381   0.607   0.056
 3128SOL    HW110283   4.305   0.542   0.053
 3128SOL    HW210284   4.367   0.671   0.132
 3129SOL     OW10285   4.462   3.646   0.377
 3129SOL    HW110286   4.472   3.690   0.288
 3129SOL    HW210287   4.549   3.602   0.402
 3130SOL     OW10288   1.208   4.541   1.919
 3130SOL    HW110289   1.243   4.492   1.999
 3130SOL    HW210290   1.117   4.507   1.896
 3131SOL     OW10291   6.888   4.559   2.938
 3131SOL    HW110292   6.848   4.650   2.926
 3131SOL    HW210293   6.967   4.565   2.999
 3132SOL     OW10294   3.931   4.575   6.656
 3132SOL    HW110295   3.994   4.504   6.687
 3132SOL    HW210296   3.893   4.550   6.568
 3133SOL     OW10297   3.738   0.676   4.289
 3133SOL    HW110298   3.709   0.676   4.385
 3133SOL    HW210299   3.705   0.593   4.245
 3134SOL     OW10300   4.348   5.441   2.834
 3134SOL    HW110301   4.288   5.521   2.828
 3134SOL    HW210302   4.377   5.415   2.742
 3135SOL     OW10303   4.859   6.236   6.364
 3135SOL    HW110304   4.946   6.219   6.318
 3135SOL    HW210305   4.860   6.194   6.455
 3136SOL     OW10306   6.297   1.951   2.918
 3136SOL    HW110307   6.310   1.953   2.818
 3136SOL    HW210308   6.378   1.990   2.962
 3137SOL     OW10309   6.159   6.820   6.581
 3137SOL    HW110310   6.156   6.802   6.483
 3137SOL    HW210311   6.253   6.838   6.609
 3138SOL     OW10312   5.510   5.588   3.803
 3138SOL    HW110313   5.532   5.543   3.716
 3138SOL    HW210314   5.555   5.677   3.806
 3139SOL     OW10315   2.408   5.039   0.975
 3139SOL    HW110316   2.348   4.985   1.034
 3139SOL    HW210317   2.496   4.992   0.967
 3140SOL     OW10318   0.207   0.071   5.845
 3140SOL    HW110319   0.205   0.162   5.887
 3140SOL    HW210320   0.291   0.060   5.792
 3141SOL     OW10321   6.509   2.244   6.358
 3141SOL    HW110322   6.466   2.219   6.271
 3141SOL    HW210323   6.564   2.326   6.345
 3142SOL     OW10324   5.060   1.107   2.796
 3142SOL    HW110325   5.077   1.183   2.734
 3142SOL    HW210326   5.102   1.024   2.760
 3143SOL     OW10327   6.844   0.901   0.523
 3143SOL    HW110328   6.765   0.841   0.533
 3143SOL    HW210329   6.813   0.991   0.491
 3144SOL     OW10330   3.974   3.472   6.397
 3144SOL    HW110331   3.921   3.537   6.342
 3144SOL    HW210332   3.912   3.415   6.451
 3145SOL     OW10333   0.609   6.164   0.987
 3145SOL    HW110334   0.622   6.077   1.035
 3145SOL    HW210335   0.611   6.239   1.053
 3146SOL     OW10336   0.926   0.181   4.788
 3146SOL    HW110337   0.942   0.084   4.809
 3146SOL    HW210338   0.938   0.197   4.691
 3147SOL     OW10339   3.989   4.816   6.716
 3147SOL    HW110340   3.915   4.858   6.769
 3147SOL    HW210341   3.956   4.731   6.675
 3148SOL     OW10342   6.773   5.022   2.429
 3148SOL    HW110343   6.767   5.089   2.503
 3148SOL    HW210344   6.714   4.943   2.451
 3149SOL     OW10345   3.054   0.907   0.617
 3149SOL    HW110346   3.055   0.906   0.717
 3149SOL    HW210347   3.145   0.934   0.583
 3150SOL     OW10348   6.685   5.856   4.732
 3150SOL    HW110349   6.743   5.926   4.771
 3150SOL    HW210350   6.591   5.867   4.766
 3151SOL     OW10351   6.397   1.458   5.660
 3151SOL    HW110352   6.432   1.424   5.747
 3151SOL    HW210353   6.421   1.394   5.587
 3152SOL     OW10354   0.896   2.999   5.924
 3152SOL    HW110355   0.865   3.036   6.012
 3152SOL    HW210356   0.991   3.026   5.909
 3153SOL     OW10357   6.317   4.926   1.199
 3153SOL    HW110358   6.248   4.901   1.131
 3153SOL    HW210359   6.374   4.999   1.161
 3154SOL     OW10360   4.870   1.579   0.486
 3154SOL    HW110361   4.804   1.504   0.489
 3154SOL    HW210362   4.953   1.553   0.535
 3155SOL     OW10363   0.426   5.000   0.849
 3155SOL    HW110364   0.359   4.976   0.920
 3155SOL    HW210365   0.513   5.021   0.892
 3156SOL     OW10366   3.668   4.205   1.915
 3156SOL    HW110367   3.668   4.305   1.927
 3156SOL    HW210368   3.734   4.165   1.978
 3157SOL     OW10369   0.698   1.978   5.459
 3157SOL    HW110370   0.606   1.983   5.496
 3157SOL    HW210371   0.703   2.034   5.375
 3158SOL     OW10372   2.306   1.082   5.669
 3158SOL    HW110373   2.218   1.038   5.647
 3158SOL    HW210374   2.323   1.156   5.603
 3159SOL     OW10375   6.512   6.495   0.201
 3159SOL    HW110376   6.517   6.401   0.167
 3159SOL    HW210377   6.529   6.496   0.300
 3160SOL     OW10378   2.357   0.530   6.463
 3160SOL    HW110379   2.379   0.625   6.444
 3160SOL    HW210380   2.421   0.470   6.415
 3161SOL     OW10381   1.956   2.579   3.050
 3161SOL    HW110382   1.904   2.661   3.027
 3161SOL    HW210383   2.026   2.601   3.118
 3162SOL     OW10384   1.894   5.485   0.879
 3162SOL    HW110385   1.929   5.505   0.788
 3162SOL    HW210386   1.879   5.387   0.889
 3163SOL     OW10387   4.216   3.696   0.441
 3163SOL    HW110388   4.217   3.794   0.418
 3163SOL    HW210389   4.301   3.654   0.409
 3164SOL     OW10390   2.642   6.060   3.177
 3164SOL    HW110391   2.633   6.067   3.276
 3164SOL    HW210392   2.721   6.115   3.147
 3165SOL     OW10393   0.902   6.267   0.191
 3165SOL    HW110394   0.858   6.221   0.268
 3165SOL    HW210395   0.840   6.336   0.154
 3166SOL     OW10396   3.824   1.128   5.590
 3166SOL    HW110397   3.849   1.081   5.675
 3166SOL    HW210398   3.750   1.078   5.545
 3167SOL     OW10399   5.410   3.294   0.612
 3167SOL    HW110400   5.337   3.231   0.586
 3167SOL    HW210401   5.371   3.368   0.668
 3168SOL     OW10402   4.707   1.657   0.815
 3168SOL    HW110403   4.662   1.690   0.898
 3168SOL    HW210404   4.722   1.558   0.823
 3169SOL     OW10405   1.779   4.404   1.818
 3169SOL    HW110406   1.864   4.452   1.796
 3169SOL    HW210407   1.781   4.312   1.780
 3170SOL     OW10408   3.441   5.394   3.600
 3170SOL    HW110409   3.415   5.400   3.696
 3170SOL    HW210410   3.540   5.380   3.593
 3171SOL     OW10411   5.261   2.859   3.320
 3171SOL    HW110412   5.202   2.784   3.289
 3171SOL    HW210413   5.314   2.893   3.242
 3172SOL     OW10414   0.335   4.589   1.102
 3172SOL    HW110415   0.248   4.625   1.068
 3172SOL    HW210416   0.407   4.611   1.037
 3173SOL     OW10417   3.733   1.954   0.598
 3173SOL    HW110418   3.689   1.919   0.681
 3173SOL    HW210419   3.704   1.898   0.520
 3174SOL     OW10420   2.702   3.818   5.775
 3174SOL    HW110421   2.748   3.896   5.817
 3174SOL    HW210422   2.770   3.752   5.742
 3175SOL     OW10423   0.288   0.265   4.220
 3175SOL    HW110424   0.197   0.234   4.247
 3175SOL    HW210425   0.315   0.344   4.275
 3176SOL     OW10426   1.185   4.658   4.979
 3176SOL    HW110427   1.088   4.636   4.963
 3176SOL    HW210428   1.191   4.748   5.023
 3177SOL     OW10429   5.710   3.620   3.527
 3177SOL    HW110430   5.678   3.528   3.503
 3177SOL    HW210431   5.783   3.647   3.465
 3178SOL     OW10432   6.849   0.743   1.249
 3178SOL    HW110433   6.798   0.713   1.168
 3178SOL    HW210434   6.939   0.701   1.250
 3179SOL     OW10435   0.954   1.970   1.718
 3179SOL    HW110436   0.941   2.011   1.808
 3179SOL    HW210437   0.899   2.020   1.651
 3180SOL     OW10438   6.551   5.672   0.051
 3180SOL    HW110439   6.466   5.719   0.075
 3180SOL    HW210440   6.596   5.640   0.134
 3181SOL     OW10441   0.383   0.878   4.927
 3181SOL    HW110442   0.398   0.936   5.007
 3181SOL    HW210443   0.417   0.786   4.946
 3182SOL     OW10444   2.757   0.172   0.479
 3182SOL    HW110445   2.796   0.085   0.509
 3182SOL    HW210446   2.680   0.155   0.418
 3183SOL     OW10447   4.420   4.525   2.049
 3183SOL    HW110448   4.422   4.429   2.076
 3183SOL    HW210449   4.448   4.534   1.954
 3184SOL     OW10450   0.411   2.392   4.560
 3184SOL    HW110451   0.365   2.339   4.488
 3184SOL    HW210452   0.353   2.393   4.642
 3185SOL     OW10453   0.247   5.619   6.092
 3185SOL    HW110454   0.227   5.575   6.180
 3185SOL    HW210455   0.207   5.710   6.091
 3186SOL     OW10456   0.267   1.486   6.300
 3186SOL    HW110457   0.216   1.444   6.375
 3186SOL    HW210458   0.336   1.422   6.267
 3187SOL     OW10459   4.000   5.800   2.156
 3187SOL    HW110460   4.057   5.867   2.109
 3187SOL    HW210461   3.906   5.835   2.162
 3188SOL     OW10462   2.143   4.334   5.533
 3188SOL    HW110463   2.109   4.301   5.445
 3188SOL    HW210464   2.202   4.265   5.575
 3189SOL     OW10465   3.099   1.228   6.800
 3189SOL    HW110466   3.064   1.313   6.760
 3189SOL    HW210467   3.171   1.249   6.866
 3190SOL     OW10468   6.756   5.376   3.943
 3190SOL    HW110469   6.831   5.365   4.009
 3190SOL    HW210470   6.780   5.329   3.858
 3191SOL     OW10471   4.471   5.836   2.271
 3191SOL    HW110472   4.380   5.802   2.246
 3191SOL    HW210473   4.480   5.932   2.245
 3192SOL     OW10474   5.913   2.137   2.478
 3192SOL    HW110475   5.859   2.212   2.441
 3192SOL    HW210476   5.863   2.051   2.467
 3193SOL     OW10477   3.820   0.286   5.641
 3193SOL    HW110478   3.822   0.376   5.683
 3193SOL    HW210479   3.832   0.296   5.542
 3194SOL     OW10480   1.126   1.261   6.152
 3194SOL    HW110481   1.214   1.213   6.149
 3194SOL    HW210482   1.137   1.353   6.113
 3195SOL     OW10483   0.146   1.806   2.055
 3195SOL    HW110484   0.197   1.831   2.137
 3195SOL    HW210485   0.208   1.763   1.989
 3196SOL     OW10486   6.461   0.238   4.687
 3196SOL    HW110487   6.447   0.198   4.778
 3196SOL    HW210488   6.405   0.321   4.679
 3197SOL     OW10489   2.245   0.970   6.633
 3197SOL    HW110490   2.230   1.017   6.546
 3197SOL    HW210491   2.221   0.873   6.623
 3198SOL     OW10492   6.686   2.821   3.906
 3198SOL    HW110493   6.647   2.913   3.898
 3198SOL    HW210494   6.624   2.755   3.863
 3199SOL     OW10495   5.335   4.401   3.415
 3199SOL    HW110496   5.383   4.401   3.327
 3199SOL    HW210497   5.388   4.451   3.483
 3200SOL     OW10498   5.621   3.275   4.304
 3200SOL    HW110499   5.593   3.207   4.237
 3200SOL    HW210500   5.703   3.322   4.270
 3201SOL     OW10501   6.132   4.359   2.474
 3201SOL    HW110502   6.145   4.389   2.568
 3201SOL    HW210503   6.049   4.304   2.468
 3202SOL     OW10504   1.453   5.155   0.225
 3202SOL    HW110505   1.409   5.220   0.163
 3202SOL    HW210506   1.415   5.165   0.317
 3203SOL     OW10507   4.378   6.321   1.045
 3203SOL    HW110508   4.445   6.367   0.987
 3203SOL    HW210509   4.378   6.364   1.136
 3204SOL     OW10510   2.496   1.467   3.651
 3204SOL    HW110511   2.405   1.427   3.646
 3204SOL    HW210512   2.506   1.515   3.738
 3205SOL     OW10513   5.417   3.093   5.250
 3205SOL    HW110514   5.374   3.182   5.235
 3205SOL    HW210515   5.442   3.054   5.161
 3206SOL     OW10516   2.927   2.967   1.790
 3206SOL    HW110517   2.969   3.056   1.809
 3206SOL    HW210518   2.834   2.981   1.756
 3207SOL     OW10519   0.822   6.387   5.318
 3207SOL    HW110520   0.765   6.417   5.394
 3207SOL    HW210521   0.766   6.374   5.237
 3208SOL     OW10522   6.257   5.800   5.854
 3208SOL    HW110523   6.162   5.810   5.826
 3208SOL    HW210524   6.309   5.881   5.828
 3209SOL     OW10525   5.110   6.043   5.911
 3209SOL    HW110526   5.062   6.065   5.996
 3209SOL    HW210527   5.120   6.126   5.856
 3210SOL     OW10528   6.965   4.783   1.469
 3210SOL    HW110529   6.995   4.862   1.522
 3210SOL    HW210530   6.966   4.702   1.527
 3211SOL     OW10531   1.243   5.736   6.670
 3211SOL    HW110532   1.332   5.764   6.708
 3211SOL    HW210533   1.229   5.781   6.582
 3212SOL     OW10534   2.212   0.031   2.989
 3212SOL    HW110535   2.235   0.120   2.950
 3212SOL    HW210536   2.293   6.992   2.988
 3213SOL     OW10537   1.537   0.629   6.166
 3213SOL    HW110538   1.445   0.596   6.188
 3213SOL    HW210539   1.531   0.719   6.122
 3214SOL     OW10540   3.556   1.079   3.068
 3214SOL    HW110541   3.491   1.004   3.065
 3214SOL    HW210542   3.645   1.047   3.036
 3215SOL     OW10543   1.618   2.971   0.892
 3215SOL    HW110544   1.579   2.883   0.921
 3215SOL    HW210545   1.620   2.976   0.793
 3216SOL     OW10546   5.570   3.977   0.688
 3216SOL    HW110547   5.542   4.030   0.769
 3216SOL    HW210548   5.582   4.039   0.610
 3217SOL     OW10549   0.807   4.815   2.646
 3217SOL    HW110550   0.769   4.840   2.735
 3217SOL    HW210551   0.734   4.783   2.586
 3218SOL     OW10552   6.561   1.356   3.369
 3218SOL    HW110553   6.463   1.356   3.348
 3218SOL    HW210554   6.609   1.299   3.302
 3219SOL     OW10555   5.761   0.476   5.505
 3219SOL    HW110556   5.796   0.502   5.415
 3219SOL    HW210557   5.782   0.380   5.523
 3220SOL     OW10558   6.651   4.500   6.607
 3220SOL    HW110559   6.677   4.558   6.685
 3220SOL    HW210560   6.571   4.538   6.562
 3221SOL     OW10561   4.145   0.480   1.804
 3221SOL    HW110562   4.122   0.383   1.808
 3221SOL    HW210563   4.239   0.491   1.771
 3222SOL     OW10564   2.572   1.212   2.154
 3222SOL    HW110565   2.662   1.169   2.161
 3222SOL    HW210566   2.508   1.149   2.112
 3223SOL     OW10567   1.507   6.960   1.457
 3223SOL    HW110568   1.595   6.978   1.501
 3223SOL    HW210569   1.444   0.016   1.476
 3224SOL     OW10570   4.232   2.348   4.423
 3224SOL    HW110571   4.272   2.424   4.372
 3224SOL    HW210572   4.255   2.357   4.520
 3225SOL     OW10573   4.171   0.244   4.090
 3225SOL    HW110574   4.102   0.204   4.150
 3225SOL    HW210575   4.138   0.330   4.053
 3226SOL     OW10576   0.430   0.022   1.341
 3226SOL    HW110577   0.354   6.991   1.298
 3226SOL    HW210578   0.514   0.005   1.290
 3227SOL     OW10579   4.569   2.920   5.551
 3227SOL    HW110580   4.618   2.960   5.629
 3227SOL    HW210581   4.497   2.860   5.585
 3228SOL     OW10582   1.416   4.393   0.830
 3228SOL    HW110583   1.363   4.467   0.872
 3228SOL    HW210584   1.469   4.345   0.900
 3229SOL     OW10585   1.921   1.880   7.012
 3229SOL    HW110586   1.934   1.884   0.092
 3229SOL    HW210587   1.828   1.848   6.991
 3230SOL     OW10588   2.275   5.709   5.780
 3230SOL    HW110589   2.248   5.613   5.782
 3230SOL    HW210590   2.365   5.718   5.736
 3231SOL     OW10591   2.419   1.004   2.040
 3231SOL    HW110592   2.376   0.922   2.078
 3231SOL    HW210593   2.386   1.019   1.947
 3232SOL     OW10594   4.169   6.304   3.902
 3232SOL    HW110595   4.118   6.390   3.900
 3232SOL    HW210596   4.139   6.250   3.981
 3233SOL     OW10597   0.858   2.178   6.887
 3233SOL    HW110598   0.823   2.179   6.981
 3233SOL    HW210599   0.955   2.204   6.888
 3234SOL     OW10600   2.996   2.493   0.888
 3234SOL    HW110601   3.071   2.501   0.953
 3234SOL    HW210602   2.914   2.463   0.936
 3235SOL     OW10603   6.767   6.244   2.342
 3235SOL    HW110604   6.838   6.248   2.413
 3235SOL    HW210605   6.750   6.336   2.307
 3236SOL     OW10606   3.200   3.741   0.413
 3236SOL    HW110607   3.289   3.781   0.391
 3236SOL    HW210608   3.168   3.777   0.501
 3237SOL     OW10609   6.128   1.294   5.625
 3237SOL    HW110610   6.207   1.348   5.652
 3237SOL    HW210611   6.148   1.197   5.638
 3238SOL     OW10612   6.571   5.440   1.371
 3238SOL    HW110613   6.612   5.357   1.333
 3238SOL    HW210614   6.483   5.418   1.412
 3239SOL     OW10615   6.795   0.539   3.726
 3239SOL    HW110616   6.729   0.465   3.732
 3239SOL    HW210617   6.870   0.523   3.791
 3240SOL     OW10618   0.418   0.875   6.613
 3240SOL    HW110619   0.429   0.793   6.557
 3240SOL    HW210620   0.484   0.944   6.583
 3241SOL     OW10621   5.587   1.762   6.549
 3241SOL    HW110622   5.648   1.830   6.509
 3241SOL    HW210623   5.543   1.710   6.475
 3242SOL     OW10624   4.905   4.445   5.620
 3242SOL    HW110625   4.918   4.542   5.643
 3242SOL    HW210626   4.888   4.393   5.703
 3243SOL     OW10627   4.914   5.262   5.694
 3243SOL    HW110628   4.971   5.321   5.751
 3243SOL    HW210629   4.949   5.263   5.600
 3244SOL     OW10630   5.570   6.154   0.114
 3244SOL    HW110631   5.650   6.154   0.054
 3244SOL    HW210632   5.492   6.195   0.067
 3245SOL     OW10633   3.873   1.376   4.114
 3245SOL    HW110634   3.810   1.390   4.190
 3245SOL    HW210635   3.880   1.460   4.061
 3246SOL     OW10636   0.497   0.690   2.290
 3246SOL    HW110637   0.401   0.714   2.302
 3246SOL    HW210638   0.531   0.731   2.205
 3247SOL     OW10639   0.813   4.079   2.889
 3247SOL    HW110640   0.812   4.075   2.989
 3247SOL    HW210641   0.736   4.133   2.857
 3248SOL     OW10642   5.537   2.283   3.768
 3248SOL    HW110643   5.565   2.192   3.738
 3248SOL    HW210644   5.602   2.351   3.733
 3249SOL     OW10645   3.249   3.793   3.403
 3249SOL    HW110646   3.163   3.823   3.362
 3249SOL    HW210647   3.243   3.803   3.503
 3250SOL     OW10648   5.438   5.812   2.281
 3250SOL    HW110649   5.434   5.732   2.220
 3250SOL    HW210650   5.397   5.788   2.369
 3251SOL     OW10651   2.872   1.240   3.985
 3251SOL    HW110652   2.957   1.189   3.992
 3251SOL    HW210653   2.827   1.243   4.074
 3252SOL     OW10654   2.372   1.347   4.128
 3252SOL    HW110655   2.319   1.332   4.211
 3252SOL    HW210656   2.469   1.337   4.148
 3253SOL     OW10657   6.636   3.116   1.264
 3253SOL    HW110658   6.544   3.124   1.227
 3253SOL    HW210659   6.637   3.148   1.359
 3254SOL     OW10660   5.961   0.450   0.376
 3254SOL    HW110661   5.953   0.545   0.405
 3254SOL    HW210662   5.918   0.438   0.286
 3255SOL     OW10663   5.464   4.842   1.003
 3255SOL    HW110664   5.375   4.879   0.976
 3255SOL    HW210665   5.537   4.904   0.973
 3256SOL     OW10666   4.730   2.389   0.983
 3256SOL    HW110667   4.673   2.357   1.059
 3256SOL    HW210668   4.700   2.347   0.898
 3257SOL     OW10669   2.524   2.092   2.899
 3257SOL    HW110670   2.607   2.071   2.847
 3257SOL    HW210671   2.548   2.115   2.993
 3258SOL     OW10672   2.550   6.042   3.420
 3258SOL    HW110673   2.533   5.949   3.451
 3258SOL    HW210674   2.466   6.096   3.427
 3259SOL     OW10675   5.124   4.092   4.376
 3259SOL    HW110676   5.059   4.161   4.343
 3259SOL    HW210677   5.133   4.020   4.308
 3260SOL     OW10678   1.809   4.150   1.716
 3260SOL    HW110679   1.743   4.097   1.664
 3260SOL    HW210680   1.902   4.125   1.688
 3261SOL     OW10681   4.042   0.730   3.120
 3261SOL    HW110682   4.018   0.743   3.216
 3261SOL    HW210683   3.993   0.651   3.084
 3262SOL     OW10684   3.625   2.050   2.486
 3262SOL    HW110685   3.562   1.975   2.466
 3262SOL    HW210686   3.631   2.062   2.585
 3263SOL     OW10687   1.636   1.373   2.738
 3263SOL    HW110688   1.727   1.335   2.726
 3263SOL    HW210689   1.636   1.433   2.818
 3264SOL     OW10690   2.360   5.807   0.239
 3264SOL    HW110691   2.349   5.748   0.319
 3264SOL    HW210692   2.286   5.788   0.173
 3265SOL     OW10693   5.786   5.098   5.871
 3265SOL    HW110694   5.760   5.194   5.882
 3265SOL    HW210695   5.871   5.092   5.818
 3266SOL     OW10696   2.880   4.721   6.884
 3266SOL    HW110697   2.899   4.623   6.882
 3266SOL    HW210698   2.786   4.737   6.855
 3267SOL     OW10699   4.133   0.208   0.479
 3267SOL    HW110700   4.185   0.282   0.435
 3267SOL    HW210701   4.035   0.223   0.466
 3268SOL     OW10702   6.681   4.607   1.627
 3268SOL    HW110703   6.728   4.628   1.713
 3268SOL    HW210704   6.605   4.545   1.645
 3269SOL     OW10705   1.638   5.285   2.293
 3269SOL    HW110706   1.684   5.197   2.291
 3269SOL    HW210707   1.657   5.331   2.379
 3270SOL     OW10708   0.938   2.782   5.410
 3270SOL    HW110709   0.911   2.747   5.320
 3270SOL    HW210710   1.037   2.787   5.415
 3271SOL     OW10711   0.357   3.843   2.394
 3271SOL    HW110712   0.394   3.825   2.486
 3271SOL    HW210713   0.308   3.763   2.362
 3272SOL     OW10714   4.450   6.326   0.134
 3272SOL    HW110715   4.533   6.380   0.115
 3272SOL    HW210716   4.476   6.231   0.152
 3273SOL     OW10717   4.966   3.243   6.023
 3273SOL    HW110718   4.963   3.273   6.118
 3273SOL    HW210719   5.057   3.257   5.985
 3274SOL     OW10720   5.803   0.789   7.015
 3274SOL    HW110721   5.885   0.763   0.046
 3274SOL    HW210722   5.822   0.869   6.958
 3275SOL     OW10723   5.013   0.221   1.164
 3275SOL    HW110724   5.080   0.148   1.153
 3275SOL    HW210725   4.945   0.195   1.232
 3276SOL     OW10726   4.465   6.927   0.169
 3276SOL    HW110727   4.460   6.860   0.243
 3276SOL    HW210728   4.427   7.014   0.200
 3277SOL     OW10729   3.357   1.718   2.120
 3277SOL    HW110730   3.321   1.715   2.027
 3277SOL    HW210731   3.407   1.803   2.134
 3278SOL     OW10732   6.773   0.244   6.603
 3278SOL    HW110733   6.871   0.228   6.616
 3278SOL    HW210734   6.759   0.292   6.516
 3279SOL     OW10735   4.306   6.573   0.856
 3279SOL    HW110736   4.270   6.663   0.882
 3279SOL    HW210737   4.307   6.514   0.936
 3280SOL     OW10738   5.460   3.548   4.609
 3280SOL    HW110739   5.383   3.537   4.672
 3280SOL    HW210740   5.445   3.490   4.528
 3281SOL     OW10741   6.511   4.318   2.143
 3281SOL    HW110742   6.538   4.231   2.184
 3281SOL    HW210743   6.490   4.304   2.046
 3282SOL     OW10744   0.643   3.931   5.704
 3282SOL    HW110745   0.659   3.872   5.625
 3282SOL    HW210746   0.651   3.876   5.788
 3283SOL     OW10747   4.042   0.802   1.043
 3283SOL    HW110748   3.977   0.816   0.969
 3283SOL    HW210749   4.001   0.742   1.112
 3284SOL     OW10750   1.841   5.734   4.836
 3284SOL    HW110751   1.837   5.832   4.814
 3284SOL    HW210752   1.870   5.683   4.755
 3285SOL     OW10753   5.841   1.033   4.735
 3285SOL    HW110754   5.776   1.075   4.672
 3285SOL    HW210755   5.792   0.979   4.804
 3286SOL     OW10756   3.108   1.698   1.738
 3286SOL    HW110757   3.196   1.720   1.779
 3286SOL    HW210758   3.102   1.738   1.647
 3287SOL     OW10759   2.309   0.420   6.707
 3287SOL    HW110760   2.350   0.458   6.624
 3287SOL    HW210761   2.351   0.464   6.787
 3288SOL     OW10762   2.067   6.126   0.900
 3288SOL    HW110763   2.039   6.111   0.995
 3288SOL    HW210764   2.015   6.203   0.862
 3289SOL     OW10765   3.749   1.623   6.701
 3289SOL    HW110766   3.762   1.525   6.686
 3289SOL    HW210767   3.676   1.638   6.767
 3290SOL     OW10768   6.710   5.286   0.317
 3290SOL    HW110769   6.760   5.200   0.319
 3290SOL    HW210770   6.756   5.350   0.255
 3291SOL     OW10771   4.473   6.943   5.589
 3291SOL    HW110772   4.516   6.860   5.627
 3291SOL    HW210773   4.544   7.010   5.567
 3292SOL     OW10774   0.297   1.879   1.351
 3292SOL    HW110775   0.283   1.846   1.257
 3292SOL    HW210776   0.353   1.813   1.401
 3293SOL     OW10777   6.646   5.561   3.210
 3293SOL    HW110778   6.621   5.594   3.301
 3293SOL    HW210779   6.595   5.612   3.141
 3294SOL     OW10780   5.244   2.526   5.399
 3294SOL    HW110781   5.196   2.499   5.482
 3294SOL    HW210782   5.342   2.536   5.419
 3295SOL     OW10783   2.014   2.708   1.196
 3295SOL    HW110784   1.995   2.755   1.110
 3295SOL    HW210785   2.045   2.774   1.264
 3296SOL     OW10786   0.726   0.401   6.204
 3296SOL    HW110787   0.750   0.417   6.108
 3296SOL    HW210788   0.809   0.377   6.256
 3297SOL     OW10789   3.323   1.804   5.284
 3297SOL    HW110790   3.355   1.784   5.377
 3297SOL    HW210791   3.281   1.894   5.283
 3298SOL     OW10792   6.006   4.329   4.600
 3298SOL    HW110793   6.001   4.361   4.505
 3298SOL    HW210794   6.101   4.329   4.631
 3299SOL     OW10795   3.109   4.896   3.759
 3299SOL    HW110796   3.189   4.954   3.739
 3299SOL    HW210797   3.109   4.873   3.857
 3300SOL     OW10798   1.856   6.917   5.228
 3300SOL    HW110799   1.836   6.995   5.288
 3300SOL    HW210800   1.873   6.950   5.135
 3301SOL     OW10801   1.807   2.843   2.777
 3301SOL    HW110802   1.840   2.768   2.720
 3301SOL    HW210803   1.876   2.914   2.783
 3302SOL     OW10804   2.451   4.945   5.583
 3302SOL    HW110805   2.411   5.008   5.649
 3302SOL    HW210806   2.423   4.852   5.604
 3303SOL     OW10807   3.355   2.716   0.922
 3303SOL    HW110808   3.362   2.673   0.832
 3303SOL    HW210809   3.443   2.712   0.968
 3304SOL     OW10810   2.727   5.036   5.622
 3304SOL    HW110811   2.720   5.119   5.677
 3304SOL    HW210812   2.637   5.011   5.587
 3305SOL     OW10813   3.605   0.832   1.293
 3305SOL    HW110814   3.644   0.919   1.323
 3305SOL    HW210815   3.678   0.770   1.265
 3306SOL     OW10816   1.902   0.407   0.204
 3306SOL    HW110817   1.816   0.357   0.195
 3306SOL    HW210818   1.885   0.496   0.247
 3307SOL     OW10819   0.965   0.302   4.561
 3307SOL    HW110820   1.028   0.317   4.485
 3307SOL    HW210821   0.871   0.308   4.528
 3308SOL     OW10822   3.412   4.612   0.899
 3308SOL    HW110823   3.330   4.640   0.848
 3308SOL    HW210824   3.408   4.649   0.992
 3309SOL     OW10825   5.463   4.038   3.892
 3309SOL    HW110826   5.520   4.001   3.965
 3309SOL    HW210827   5.381   4.079   3.932
 3310SOL     OW10828   0.405   4.920   4.839
 3310SOL    HW110829   0.312   4.945   4.813
 3310SOL    HW210830   0.446   4.994   4.892
 3311SOL     OW10831   3.340   3.645   0.726
 3311SOL    HW110832   3.411   3.629   0.657
 3311SOL    HW210833   3.276   3.714   0.692
 3312SOL     OW10834   5.103   2.665   6.056
 3312SOL    HW110835   5.139   2.616   6.136
 3312SOL    HW210836   5.028   2.725   6.085
 3313SOL     OW10837   0.885   0.955   3.508
 3313SOL    HW110838   0.819   0.896   3.554
 3313SOL    HW210839   0.872   1.050   3.540
 3314SOL     OW10840   1.910   6.182   2.718
 3314SOL    HW110841   1.894   6.262   2.661
 3314SOL    HW210842   2.007   6.162   2.721
 3315SOL     OW10843   0.205   4.810   5.115
 3315SOL    HW110844   0.178   4.775   5.205
 3315SOL    HW210845   0.284   4.870   5.125
 3316SOL     OW10846   2.693   1.283   6.725
 3316SOL    HW110847   2.777   1.239   6.759
 3316SOL    HW210848   2.620   1.271   6.791
 3317SOL     OW10849   5.025   2.702   2.321
 3317SOL    HW110850   4.963   2.646   2.375
 3317SOL    HW210851   5.106   2.724   2.376
 3318SOL     OW10852   3.054   2.167   0.343
 3318SOL    HW110853   3.088   2.117   0.422
 3318SOL    HW210854   3.021   2.257   0.371
 3319SOL     OW10855   6.648   6.675   3.168
 3319SOL    HW110856   6.719   6.677   3.098
 3319SOL    HW210857   6.576   6.611   3.141
 3320SOL     OW10858   6.050   0.024   0.883
 3320SOL    HW110859   6.034   7.008   0.791
 3320SOL    HW210860   5.977   0.087   0.908
 3321SOL     OW10861   5.596   1.649   0.273
 3321SOL    HW110862   5.635   1.735   0.305
 3321SOL    HW210863   5.653   1.573   0.303
 3322SOL     OW10864   6.835   3.754   0.848
 3322SOL    HW110865   6.908   3.787   0.908
 3322SOL    HW210866   6.761   3.820   0.846
 3323SOL     OW10867   2.049   1.850   1.912
 3323SOL    HW110868   2.053   1.776   1.844
 3323SOL    HW210869   1.982   1.827   1.982
 3324SOL     OW10870   5.105   5.041   5.706
 3324SOL    HW110871   5.079   4.994   5.791
 3324SOL    HW210872   5.081   5.137   5.713
 3325SOL     OW10873   1.533   3.297   6.550
 3325SOL    HW110874   1.625   3.323   6.520
 3325SOL    HW210875   1.495   3.231   6.486
 3326SOL     OW10876   5.379   1.261   2.717
 3326SOL    HW110877   5.393   1.183   2.778
 3326SOL    HW210878   5.373   1.230   2.623
 3327SOL     OW10879   1.615   6.009   1.498
 3327SOL    HW110880   1.620   6.001   1.597
 3327SOL    HW210881   1.519   6.008   1.470
 3328SOL     OW10882   3.881   1.948   1.032
 3328SOL    HW110883   3.935   1.946   1.116
 3328SOL    HW210884   3.922   1.889   0.964
 3329SOL     OW10885   5.696   5.639   6.061
 3329SOL    HW110886   5.727   5.604   6.149
 3329SOL    HW210887   5.744   5.724   6.041
 3330SOL     OW10888   5.969   3.002   2.260
 3330SOL    HW110889   6.044   3.067   2.270
 3330SOL    HW210890   5.947   2.962   2.349
 3331SOL     OW10891   1.362   2.032   1.420
 3331SOL    HW110892   1.453   1.996   1.441
 3331SOL    HW210893   1.332   1.997   1.331
 3332SOL     OW10894   5.613   4.148   0.499
 3332SOL    HW110895   5.586   4.208   0.423
 3332SOL    HW210896   5.711   4.158   0.517
 3333SOL     OW10897   3.967   5.027   5.890
 3333SOL    HW110898   3.963   4.942   5.944
 3333SOL    HW210899   3.874   5.063   5.879
 3334SOL     OW10900   3.055   3.732   1.311
 3334SOL    HW110901   3.114   3.770   1.382
 3334SOL    HW210902   3.056   3.632   1.316
 3335SOL     OW10903   4.925   4.703   5.693
 3335SOL    HW110904   4.946   4.753   5.609
 3335SOL    HW210905   4.970   4.748   5.771
 3336SOL     OW10906   3.477   5.334   5.926
 3336SOL    HW110907   3.378   5.344   5.938
 3336SOL    HW210908   3.506   5.245   5.963
 3337SOL     OW10909   3.873   2.449   1.445
 3337SOL    HW110910   3.961   2.496   1.456
 3337SOL    HW210911   3.838   2.423   1.535
 3338SOL     OW10912   0.004   4.225   1.037
 3338SOL    HW110913   0.052   4.165   0.973
 3338SOL    HW210914   0.070   4.283   1.085
 3339SOL     OW10915   6.616   5.596   6.798
 3339SOL    HW110916   6.597   5.607   6.896
 3339SOL    HW210917   6.567   5.517   6.763
 3340SOL     OW10918   3.112   6.499   2.081
 3340SOL    HW110919   3.088   6.402   2.088
 3340SOL    HW210920   3.184   6.511   2.014
 3341SOL     OW10921   0.658   0.417   2.771
 3341SOL    HW110922   0.609   0.504   2.779
 3341SOL    HW210923   0.757   0.435   2.773
 3342SOL     OW10924   2.053   0.111   4.092
 3342SOL    HW110925   2.062   0.183   4.160
 3342SOL    HW210926   2.139   0.060   4.085
 3343SOL     OW10927   4.837   2.910   0.672
 3343SOL    HW110928   4.797   2.937   0.585
 3343SOL    HW210929   4.787   2.954   0.747
 3344SOL     OW10930   5.783   3.253   5.803
 3344SOL    HW110931   5.698   3.299   5.828
 3344SOL    HW210932   5.763   3.176   5.742
 3345SOL     OW10933   3.386   3.723   5.794
 3345SOL    HW110934   3.331   3.794   5.751
 3345SOL    HW210935   3.435   3.671   5.723
 3346SOL     OW10936   0.075   0.473   1.825
 3346SOL    HW110937   0.012   0.415   1.773
 3346SOL    HW210938   0.042   0.567   1.826
 3347SOL     OW10939   5.826   4.141   4.637
 3347SOL    HW110940   5.893   4.216   4.634
 3347SOL    HW210941   5.739   4.176   4.674
 3348SOL     OW10942   3.583   3.141   3.932
 3348SOL    HW110943   3.501   3.198   3.920
 3348SOL    HW210944   3.620   3.115   3.843
 3349SOL     OW10945   6.895   3.904   4.423
 3349SOL    HW110946   6.933   3.811   4.420
 3349SOL    HW210947   6.804   3.900   4.465
 3350SOL     OW10948   1.623   1.010   0.412
 3350SOL    HW110949   1.524   1.019   0.414
 3350SOL    HW210950   1.657   1.034   0.321
 3351SOL     OW10951   5.416   1.544   0.957
 3351SOL    HW110952   5.511   1.543   0.926
 3351SOL    HW210953   5.359   1.586   0.886
 3352SOL     OW10954   0.741   4.125   1.148
 3352SOL    HW110955   0.794   4.207   1.168
 3352SOL    HW210956   0.792   4.066   1.085
 3353SOL     OW10957   1.719   6.900   6.662
 3353SOL    HW110958   1.759   6.838   6.594
 3353SOL    HW210959   1.793   6.938   6.718
 3354SOL     OW10960   6.835   2.359   4.157
 3354SOL    HW110961   6.807   2.451   4.129
 3354SOL    HW210962   6.762   2.295   4.134
 3355SOL     OW10963   0.115   1.424   1.948
 3355SOL    HW110964   0.091   1.333   1.984
 3355SOL    HW210965   0.191   1.462   2.001
 3356SOL     OW10966   2.911   3.447   6.962
 3356SOL    HW110967   2.849   3.379   6.922
 3356SOL    HW210968   2.981   3.400   7.015
 3357SOL     OW10969   3.036   5.349   1.609
 3357SOL    HW110970   3.131   5.324   1.624
 3357SOL    HW210971   3.028   5.449   1.606
 3358SOL     OW10972   4.752   6.275   2.605
 3358SOL    HW110973   4.788   6.182   2.608
 3358SOL    HW210974   4.699   6.288   2.522
 3359SOL     OW10975   1.200   0.204   2.362
 3359SOL    HW110976   1.126   0.235   2.422
 3359SOL    HW210977   1.287   0.239   2.396
 3360SOL     OW10978   0.448   0.688   0.353
 3360SOL    HW110979   0.442   0.684   0.254
 3360SOL    HW210980   0.450   0.784   0.383
 3361SOL     OW10981   6.066   5.810   3.117
 3361SOL    HW110982   6.134   5.860   3.063
 3361SOL    HW210983   6.021   5.743   3.057
 3362SOL     OW10984   2.484   1.288   4.914
 3362SOL    HW110985   2.385   1.272   4.906
 3362SOL    HW210986   2.506   1.378   4.876
 3363SOL     OW10987   0.189   1.802   0.086
 3363SOL    HW110988   0.158   1.764   0.173
 3363SOL    HW210989   0.151   1.893   0.074
 3364SOL     OW10990   1.579   5.644   5.925
 3364SOL    HW110991   1.584   5.719   5.991
 3364SOL    HW210992   1.545   5.562   5.970
 3365SOL     OW10993   0.104   2.834   4.736
 3365SOL    HW110994   0.102   2.907   4.803
 3365SOL    HW210995   0.182   2.774   4.754
 3366SOL     OW10996   5.304   0.208   5.560
 3366SOL    HW110997   5.311   0.246   5.468
 3366SOL    HW210998   5.247   0.126   5.558
 3367SOL     OW10999   1.315   2.398   2.816
 3367SOL    HW111000   1.299   2.481   2.761
 3367SOL    HW211001   1.250   2.396   2.892
 3368SOL     OW11002   6.706   5.532   5.944
 3368SOL    HW111003   6.651   5.612   5.967
 3368SOL    HW211004   6.793   5.535   5.995
 3369SOL     OW11005   3.914   0.330   0.124
 3369SOL    HW111006   3.848   0.303   0.195
 3369SOL    HW211007   3.957   0.248   0.086
 3370SOL     OW11008   6.202   6.559   4.727
 3370SOL    HW111009   6.242   6.597   4.644
 3370SOL    HW211010   6.121   6.612   4.752
 3371SOL     OW11011   1.119   4.953   1.778
 3371SOL    HW111012   1.092   4.935   1.873
 3371SOL    HW211013   1.188   5.025   1.776
 3372SOL     OW11014   1.037   1.037   2.525
 3372SOL    HW111015   1.100   0.992   2.461
 3372SOL    HW211016   1.001   0.969   2.589
 3373SOL     OW11017   5.854   1.445   5.314
 3373SOL    HW111018   5.951   1.442   5.291
 3373SOL    HW211019   5.800   1.403   5.241
 3374SOL     OW11020   2.894   5.773   5.779
 3374SOL    HW111021   2.920   5.785   5.875
 3374SOL    HW211022   2.973   5.793   5.721
 3375SOL     OW11023   4.540   4.262   5.136
 3375SOL    HW111024   4.475   4.337   5.123
 3375SOL    HW211025   4.596   4.252   5.053
 3376SOL     OW11026   3.175   2.889   2.301
 3376SOL    HW111027   3.139   2.796   2.298
 3376SOL    HW211028   3.249   2.900   2.235
 3377SOL     OW11029   0.935   6.530   5.014
 3377SOL    HW111030   0.962   6.549   4.920
 3377SOL    HW211031   1.012   6.548   5.075
 3378SOL     OW11032   6.670   1.309   1.553
 3378SOL    HW111033   6.604   1.375   1.589
 3378SOL    HW211034   6.626   1.219   1.547
 3379SOL     OW11035   0.645   4.856   5.949
 3379SOL    HW111036   0.640   4.774   6.006
 3379SOL    HW211037   0.717   4.844   5.880
 3380SOL     OW11038   0.113   4.481   6.759
 3380SOL    HW111039   0.028   4.483   6.812
 3380SOL    HW211040   0.093   4.456   6.664
 3381SOL     OW11041   3.115   2.622   0.670
 3381SOL    HW111042   3.103   2.576   0.758
 3381SOL    HW211043   3.134   2.553   0.600
 3382SOL     OW11044   6.644   2.021   0.597
 3382SOL    HW111045   6.600   1.938   0.561
 3382SOL    HW211046   6.617   2.035   0.692
 3383SOL     OW11047   6.122   4.490   2.716
 3383SOL    HW111048   6.139   4.461   2.810
 3383SOL    HW211049   6.180   4.568   2.695
 3384SOL     OW11050   3.508   2.924   4.678
 3384SOL    HW111051   3.418   2.933   4.634
 3384SOL    HW211052   3.577   2.969   4.622
 3385SOL     OW11053   6.641   3.605   3.470
 3385SOL    HW111054   6.585   3.562   3.541
 3385SOL    HW211055   6.700   3.674   3.513
 3386SOL     OW11056   5.952   5.046   4.585
 3386SOL    HW111057   5.855   5.058   4.603
 3386SOL    HW211058   5.982   4.956   4.618
 3387SOL     OW11059   2.320   2.426   3.070
 3387SOL    HW111060   2.261   2.384   3.001
 3387SOL    HW211061   2.395   2.364   3.093
 3388SOL     OW11062   5.581   2.129   1.456
 3388SOL    HW111063   5.663   2.092   1.413
 3388SOL    HW211064   5.548   2.066   1.527
 3389SOL     OW11065   4.982   4.499   3.770
 3389SOL    HW111066   4.954   4.495   3.866
 3389SOL    HW211067   4.913   4.547   3.717
 3390SOL     OW11068   5.094   3.203   5.739
 3390SOL    HW111069   5.114   3.106   5.722
 3390SOL    HW211070   4.999   3.222   5.715
 3391SOL     OW11071   3.658   1.879   4.812
 3391SOL    HW111072   3.708   1.798   4.780
 3391SOL    HW211073   3.561   1.858   4.818
 3392SOL     OW11074   2.212   0.993   4.314
 3392SOL    HW111075   2.146   1.047   4.262
 3392SOL    HW211076   2.286   1.052   4.346
 3393SOL     OW11077   6.481   6.315   6.751
 3393SOL    HW111078   6.460   6.250   6.678
 3393SOL    HW211079   6.506   6.403   6.711
 3394SOL     OW11080   6.136   2.807   0.870
 3394SOL    HW111081   6.098   2.714   0.868
 3394SOL    HW211082   6.124   2.846   0.961
 3395SOL     OW11083   0.708   3.311   4.301
 3395SOL    HW111084   0.700   3.226   4.352
 3395SOL    HW211085   0.804   3.338   4.296
 3396SOL     OW11086   0.456   3.426   3.553
 3396SOL    HW111087   0.511   3.392   3.476
 3396SOL    HW211088   0.373   3.371   3.561
 3397SOL     OW11089   3.900   0.074   5.952
 3397SOL    HW111090   3.981   0.016   5.961
 3397SOL    HW211091   3.824   0.019   5.917
 3398SOL     OW11092   1.189   0.319   4.363
 3398SOL    HW111093   1.212   0.416   4.357
 3398SOL    HW211094   1.178   0.281   4.271
 3399SOL     OW11095   4.788   5.203   4.007
 3399SOL    HW111096   4.828   5.122   4.049
 3399SOL    HW211097   4.836   5.225   3.922
 3400SOL     OW11098   4.908   2.135   6.672
 3400SOL    HW111099   4.903   2.232   6.694
 3400SOL    HW211100   4.872   2.081   6.748
 3401SOL     OW11101   6.654   3.378   0.629
 3401SOL    HW111102   6.608   3.334   0.705
 3401SOL    HW211103   6.681   3.470   0.655
 3402SOL     OW11104   5.287   6.008   1.593
 3402SOL    HW111105   5.375   6.036   1.554
 3402SOL    HW211106   5.247   5.937   1.536
 3403SOL     OW11107   3.238   0.547   5.007
 3403SOL    HW111108   3.285   0.562   4.920
 3403SOL    HW211109   3.172   0.621   5.022
 3404SOL     OW11110   4.538   1.392   1.030
 3404SOL    HW111111   4.470   1.460   1.001
 3404SOL    HW211112   4.606   1.382   0.958
 3405SOL     OW11113   6.118   4.026   6.487
 3405SOL    HW111114   6.074   3.956   6.432
 3405SOL    HW211115   6.067   4.112   6.480
 3406SOL     OW11116   2.367   4.259   1.681
 3406SOL    HW111117   2.413   4.172   1.701
 3406SOL    HW211118   2.426   4.335   1.707
 3407SOL     OW11119   1.154   5.705   1.721
 3407SOL    HW111120   1.097   5.763   1.663
 3407SOL    HW211121   1.251   5.720   1.699
 3408SOL     OW11122   5.076   4.179   2.970
 3408SOL    HW111123   4.979   4.201   2.957
 3408SOL    HW211124   5.088   4.080   2.968
 3409SOL     OW11125   3.792   0.272   6.084
 3409SOL    HW111126   3.830   0.196   6.031
 3409SOL    HW211127   3.706   0.303   6.043
 3410SOL     OW11128   6.054   5.767   0.375
 3410SOL    HW111129   6.045   5.782   0.277
 3410SOL    HW211130   6.083   5.673   0.393
 3411SOL     OW11131   4.872   2.526   2.479
 3411SOL    HW111132   4.858   2.578   2.563
 3411SOL    HW211133   4.916   2.439   2.501
 3412SOL     OW11134   3.910   3.606   6.910
 3412SOL    HW111135   3.828   3.657   6.884
 3412SOL    HW211136   3.934   3.627   7.005
 3413SOL     OW11137   3.861   1.804   3.314
 3413SOL    HW111138   3.765   1.831   3.314
 3413SOL    HW211139   3.875   1.726   3.375
 3414SOL     OW11140   2.990   2.147   5.016
 3414SOL    HW111141   2.962   2.114   4.926
 3414SOL    HW211142   3.084   2.180   5.012
 3415SOL     OW11143   0.929   5.020   4.253
 3415SOL    HW111144   0.876   4.979   4.179
 3415SOL    HW211145   1.014   5.058   4.216
 3416SOL     OW11146   0.300   4.449   5.850
 3416SOL    HW111147   0.372   4.410   5.794
 3416SOL    HW211148   0.328   4.449   5.946
 3417SOL     OW11149   6.875   6.672   2.504
 3417SOL    HW111150   6.826   6.720   2.577
 3417SOL    HW211151   6.940   6.735   2.462
 3418SOL     OW11152   2.659   1.087   5.011
 3418SOL    HW111153   2.603   1.161   4.973
 3418SOL    HW211154   2.706   1.120   5.093
 3419SOL     OW11155   4.380   4.877   0.016
 3419SOL    HW111156   4.287   4.843   0.026
 3419SOL    HW211157   4.384   4.941   6.958
 3420SOL     OW11158   4.738   1.721   4.042
 3420SOL    HW111159   4.662   1.666   4.076
 3420SOL    HW211160   4.733   1.813   4.080
 3421SOL     OW11161   6.762   6.480   5.229
 3421SOL    HW111162   6.769   6.548   5.156
 3421SOL    HW211163   6.696   6.512   5.297
 3422SOL     OW11164   3.211   0.205   1.063
 3422SOL    HW111165   3.294   0.150   1.063
 3422SOL    HW211166   3.230   0.294   1.022
 3423SOL     OW11167   2.385   0.487   0.495
 3423SOL    HW111168   2.429   0.546   0.563
 3423SOL    HW211169   2.384   0.393   0.528
 3424SOL     OW11170   4.255   0.981   2.394
 3424SOL    HW111171   4.317   1.014   2.322
 3424SOL    HW211172   4.264   1.039   2.474
 3425SOL     OW11173   4.801   4.104   2.181
 3425SOL    HW111174   4.707   4.138   2.186
 3425SOL    HW211175   4.800   4.010   2.147
 3426SOL     OW11176   3.442   2.895   0.627
 3426SOL    HW111177   3.410   2.804   0.653
 3426SOL    HW211178   3.477   2.893   0.533
 3427SOL     OW11179   6.690   0.128   0.168
 3427SOL    HW111180   6.755   0.156   0.239
 3427SOL    HW211181   6.618   0.072   0.209
 3428SOL     OW11182   4.042   4.768   2.137
 3428SOL    HW111183   4.036   4.713   2.053
 3428SOL    HW211184   4.091   4.853   2.118
 3429SOL     OW11185   1.325   2.863   0.163
 3429SOL    HW111186   1.282   2.812   0.237
 3429SOL    HW211187   1.265   2.866   0.084
 3430SOL     OW11188   1.248   6.549   0.263
 3430SOL    HW111189   1.271   6.554   0.360
 3430SOL    HW211190   1.324   6.509   0.212
 3431SOL     OW11191   1.800   6.169   1.382
 3431SOL    HW111192   1.710   6.128   1.399
 3431SOL    HW211193   1.853   6.171   1.467
 3432SOL     OW11194   3.022   1.819   5.591
 3432SOL    HW111195   3.060   1.910   5.606
 3432SOL    HW211196   2.922   1.822   5.601
 3433SOL     OW11197   3.326   1.204   6.050
 3433SOL    HW111198   3.298   1.259   5.971
 3433SOL    HW211199   3.419   1.170   6.036
 3434SOL     OW11200   4.466   2.529   1.309
 3434SOL    HW111201   4.559   2.506   1.278
 3434SOL    HW211202   4.413   2.446   1.320
 3435SOL     OW11203   0.060   2.719   1.791
 3435SOL    HW111204   0.153   2.715   1.827
 3435SOL    HW211205   7.015   2.719   1.867
 3436SOL     OW11206   4.420   6.801   4.620
 3436SOL    HW111207   4.516   6.779   4.606
 3436SOL    HW211208   4.392   6.871   4.555
 3437SOL     OW11209   4.044   0.130   5.164
 3437SOL    HW111210   4.140   0.157   5.162
 3437SOL    HW211211   4.008   0.127   5.070
 3438SOL     OW11212   2.004   2.571   6.862
 3438SOL    HW111213   1.966   2.640   6.924
 3438SOL    HW211214   1.947   2.566   6.779
 3439SOL     OW11215   2.607   6.511   5.015
 3439SOL    HW111216   2.672   6.583   4.992
 3439SOL    HW211217   2.653   6.441   5.069
 3440SOL     OW11218   4.479   3.859   0.958
 3440SOL    HW111219   4.531   3.906   0.887
 3440SOL    HW211220   4.532   3.857   1.043
 3441SOL     OW11221   3.992   0.052   4.206
 3441SOL    HW111222   3.959   7.012   4.279
 3441SOL    HW211223   4.005   7.016   4.123
 3442SOL     OW11224   2.071   5.214   3.537
 3442SOL    HW111225   2.158   5.264   3.529
 3442SOL    HW211226   2.087   5.117   3.522
 3443SOL     OW11227   5.992   1.986   3.190
 3443SOL    HW111228   6.066   1.980   3.257
 3443SOL    HW211229   5.954   2.078   3.191
 3444SOL     OW11230   5.009   5.666   6.635
 3444SOL    HW111231   5.029   5.593   6.570
 3444SOL    HW211232   5.094   5.709   6.664
 3445SOL     OW11233   6.654   4.075   4.465
 3445SOL    HW111234   6.626   4.051   4.558
 3445SOL    HW211235   6.715   4.155   4.468
 3446SOL     OW11236   3.705   0.755   2.851
 3446SOL    HW111237   3.669   0.666   2.880
 3446SOL    HW211238   3.754   0.744   2.764
 3447SOL     OW11239   5.676   5.514   0.240
 3447SOL    HW111240   5.770   5.484   0.256
 3447SOL    HW211241   5.614   5.466   0.301
 3448SOL     OW11242   3.154   0.675   0.897
 3448SOL    HW111243   3.086   0.604   0.880
 3448SOL    HW211244   3.202   0.656   0.983
 3449SOL     OW11245   6.544   6.831   1.708
 3449SOL    HW111246   6.624   6.817   1.767
 3449SOL    HW211247   6.573   6.839   1.613
 3450SOL     OW11248   0.815   1.842   1.370
 3450SOL    HW111249   0.906   1.801   1.365
 3450SOL    HW211250   0.758   1.805   1.297
 3451SOL     OW11251   0.990   5.614   3.565
 3451SOL    HW111252   0.915   5.674   3.537
 3451SOL    HW211253   0.980   5.592   3.663
 3452SOL     OW11254   6.663   0.944   6.853
 3452SOL    HW111255   6.573   0.979   6.827
 3452SOL    HW211256   6.729   1.019   6.857
 3453SOL     OW11257   5.298   5.840   4.965
 3453SOL    HW111258   5.230   5.862   5.035
 3453SOL    HW211259   5.388   5.831   5.007
 3454SOL     OW11260   1.543   1.374   0.338
 3454SOL    HW111261   1.607   1.372   0.415
 3454SOL    HW211262   1.586   1.421   0.261
 3455SOL     OW11263   1.632   3.100   4.321
 3455SOL    HW111264   1.573   3.176   4.347
 3455SOL    HW211265   1.593   3.055   4.240
 3456SOL     OW11266   5.930   6.830   1.831
 3456SOL    HW111267   5.957   6.845   1.736
 3456SOL    HW211268   5.849   6.885   1.852
 3457SOL     OW11269   2.642   4.996   3.886
 3457SOL    HW111270   2.580   4.931   3.842
 3457SOL    HW211271   2.722   5.010   3.828
 3458SOL     OW11272   6.066   6.615   0.135
 3458SOL    HW111273   6.105   6.523   0.139
 3458SOL    HW211274   6.099   6.668   0.214
 3459SOL     OW11275   0.389   3.638   3.210
 3459SOL    HW111276   0.298   3.598   3.213
 3459SOL    HW211277   0.457   3.567   3.229
 3460SOL     OW11278   2.694   2.780   6.878
 3460SOL    HW111279   2.608   2.740   6.844
 3460SOL    HW211280   2.674   2.843   6.952
 3461SOL     OW11281   3.467   5.271   4.247
 3461SOL    HW111282   3.494   5.181   4.211
 3461SOL    HW211283   3.539   5.338   4.228
 3462SOL     OW11284   5.801   2.735   3.000
 3462SOL    HW111285   5.812   2.706   2.905
 3462SOL    HW211286   5.832   2.663   3.061
 3463SOL     OW11287   1.371   3.104   1.783
 3463SOL    HW111288   1.435   3.043   1.829
 3463SOL    HW211289   1.336   3.172   1.848
 3464SOL     OW11290   5.789   2.692   6.727
 3464SOL    HW111291   5.730   2.613   6.741
 3464SOL    HW211292   5.759   2.767   6.787
 3465SOL     OW11293   2.128   3.408   1.679
 3465SOL    HW111294   2.186   3.412   1.761
 3465SOL    HW211295   2.050   3.469   1.691
 3466SOL     OW11296   5.636   4.306   5.416
 3466SOL    HW111297   5.702   4.376   5.442
 3466SOL    HW211298   5.587   4.274   5.497
 3467SOL     OW11299   3.648   1.678   1.093
 3467SOL    HW111300   3.597   1.593   1.107
 3467SOL    HW211301   3.605   1.752   1.146
 3468SOL     OW11302   4.552   1.777   1.803
 3468SOL    HW111303   4.633   1.741   1.849
 3468SOL    HW211304   4.497   1.829   1.869
 3469SOL     OW11305   4.560   0.258   5.956
 3469SOL    HW111306   4.608   0.174   5.933
 3469SOL    HW211307   4.466   0.237   5.983
 3470SOL     OW11308   0.204   3.004   1.039
 3470SOL    HW111309   0.212   2.911   1.002
 3470SOL    HW211310   0.219   3.002   1.138
 3471SOL     OW11311   4.600   4.375   3.755
 3471SOL    HW111312   4.548   4.353   3.673
 3471SOL    HW211313   4.693   4.340   3.745
 3472SOL     OW11314   4.590   2.620   2.896
 3472SOL    HW111315   4.494   2.594   2.885
 3472SOL    HW211316   4.648   2.546   2.862
 3473SOL     OW11317   0.085   3.613   3.895
 3473SOL    HW111318   0.179   3.606   3.862
 3473SOL    HW211319   0.038   3.688   3.847
 3474SOL     OW11320   0.399   4.195   4.073
 3474SOL    HW111321   0.365   4.268   4.014
 3474SOL    HW211322   0.327   4.126   4.085
 3475SOL     OW11323   0.015   4.878   4.294
 3475SOL    HW111324   0.053   4.919   4.376
 3475SOL    HW211325   6.964   4.938   4.255
 3476SOL     OW11326   2.142   1.664   3.822
 3476SOL    HW111327   2.087   1.709   3.751
 3476SOL    HW211328   2.163   1.731   3.894
 3477SOL     OW11329   0.151   3.500   1.155
 3477SOL    HW111330   0.052   3.483   1.160
 3477SOL    HW211331   0.177   3.516   1.060
 3478SOL     OW11332   2.277   6.578   0.416
 3478SOL    HW111333   2.257   6.598   0.512
 3478SOL    HW211334   2.338   6.499   0.411
 3479SOL     OW11335   0.483   3.100   3.692
 3479SOL    HW111336   0.550   3.122   3.620
 3479SOL    HW211337   0.434   3.183   3.718
 3480SOL     OW11338   0.683   5.667   6.631
 3480SOL    HW111339   0.595   5.621   6.643
 3480SOL    HW211340   0.685   5.750   6.686
 3481SOL     OW11341   5.530   0.526   0.048
 3481SOL    HW111342   5.542   0.624   0.035
 3481SOL    HW211343   5.477   0.489   6.990
 3482SOL     OW11344   6.285   2.943   3.946
 3482SOL    HW111345   6.317   3.014   3.882
 3482SOL    HW211346   6.219   2.983   4.009
 3483SOL     OW11347   5.144   2.386   3.403
 3483SOL    HW111348   5.196   2.376   3.489
 3483SOL    HW211349   5.047   2.395   3.424
 3484SOL     OW11350   1.825   3.616   6.449
 3484SOL    HW111351   1.824   3.516   6.451
 3484SOL    HW211352   1.870   3.651   6.531
 3485SOL     OW11353   6.829   2.133   5.495
 3485SOL    HW111354   6.753   2.103   5.437
 3485SOL    HW211355   6.908   2.074   5.478
 3486SOL     OW11356   1.882   6.972   4.247
 3486SOL    HW111357   1.928   7.017   4.171
 3486SOL    HW211358   1.840   0.021   4.307
 3487SOL     OW11359   6.569   1.610   6.840
 3487SOL    HW111360   6.539   1.526   6.796
 3487SOL    HW211361   6.506   1.633   6.915
 3488SOL     OW11362   5.605   0.592   5.130
 3488SOL    HW111363   5.594   0.498   5.162
 3488SOL    HW211364   5.636   0.590   5.034
 3489SOL     OW11365   3.096   6.929   1.054
 3489SOL    HW111366   3.091   6.890   0.962
 3489SOL    HW211367   3.192   6.947   1.077
 3490SOL     OW11368   3.868   5.009   1.251
 3490SOL    HW111369   3.841   4.936   1.314
 3490SOL    HW211370   3.968   5.009   1.240
 3491SOL     OW11371   5.130   4.176   6.598
 3491SOL    HW111372   5.177   4.091   6.621
 3491SOL    HW211373   5.105   4.224   6.683
 3492SOL     OW11374   6.931   3.904   2.122
 3492SOL    HW111375   0.010   3.922   2.110
 3492SOL    HW211376   6.886   3.903   2.033
 3493SOL     OW11377   6.545   3.948   4.225
 3493SOL    HW111378   6.622   3.913   4.172
 3493SOL    HW211379   6.578   3.984   4.312
 3494SOL     OW11380   3.406   1.863   2.462
 3494SOL    HW111381   3.344   1.904   2.395
 3494SOL    HW211382   3.387   1.765   2.470
 3495SOL     OW11383   0.800   3.993   2.089
 3495SOL    HW111384   0.780   4.077   2.139
 3495SOL    HW211385   0.716   3.939   2.079
 3496SOL     OW11386   6.025   4.357   0.648
 3496SOL    HW111387   6.035   4.260   0.669
 3496SOL    HW211388   5.929   4.383   0.657
 3497SOL     OW11389   3.436   1.239   3.756
 3497SOL    HW111390   3.471   1.241   3.662
 3497SOL    HW211391   3.489   1.174   3.810
 3498SOL     OW11392   2.694   2.022   2.389
 3498SOL    HW111393   2.619   2.011   2.324
 3498SOL    HW211394   2.756   2.094   2.357
 3499SOL     OW11395   5.912   5.887   5.571
 3499SOL    HW111396   5.881   5.817   5.505
 3499SOL    HW211397   6.003   5.919   5.544
 3500SOL     OW11398   1.843   2.358   4.353
 3500SOL    HW111399   1.913   2.296   4.317
 3500SOL    HW211400   1.879   2.452   4.353
 3501SOL     OW11401   2.273   6.861   6.580
 3501SOL    HW111402   2.324   6.836   6.498
 3501SOL    HW211403   2.215   6.940   6.560
 3502SOL     OW11404   5.869   3.394   1.949
 3502SOL    HW111405   5.878   3.442   1.862
 3502SOL    HW211406   5.836   3.457   2.019
 3503SOL     OW11407   6.761   5.826   6.085
 3503SOL    HW111408   6.793   5.857   5.996
 3503SOL    HW211409   6.667   5.792   6.077
 3504SOL     OW11410   2.241   0.790   2.134
 3504SOL    HW111411   2.260   0.722   2.063
 3504SOL    HW211412   2.237   0.745   2.223
 3505SOL     OW11413   5.695   5.578   5.726
 3505SOL    HW111414   5.631   5.644   5.765
 3505SOL    HW211415   5.676   5.568   5.628
 3506SOL     OW11416   5.834   4.541   5.057
 3506SOL    HW111417   5.880   4.478   4.995
 3506SOL    HW211418   5.893   4.560   5.136
 3507SOL     OW11419   2.201   6.638   0.699
 3507SOL    HW111420   2.246   6.715   0.743
 3507SOL    HW211421   2.202   6.559   0.760
 3508SOL     OW11422   3.239   2.630   6.088
 3508SOL    HW111423   3.306   2.691   6.129
 3508SOL    HW211424   3.281   2.541   6.070
 3509SOL     OW11425   5.541   6.666   0.288
 3509SOL    HW111426   5.522   6.704   0.378
 3509SOL    HW211427   5.467   6.604   0.261
 3510SOL     OW11428   2.094   0.789   1.338
 3510SOL    HW111429   2.049   0.835   1.261
 3510SOL    HW211430   2.193   0.783   1.319
 3511SOL     OW11431   1.973   4.691   1.605
 3511SOL    HW111432   1.920   4.623   1.554
 3511SOL    HW211433   2.026   4.645   1.676
 3512SOL     OW11434   0.981   4.057   0.668
 3512SOL    HW111435   1.025   4.072   0.580
 3512SOL    HW211436   0.882   4.062   0.658
 3513SOL     OW11437   6.399   2.179   1.244
 3513SOL    HW111438   6.371   2.103   1.185
 3513SOL    HW211439   6.428   2.143   1.332
 3514SOL     OW11440   5.585   0.650   2.503
 3514SOL    HW111441   5.574   0.574   2.567
 3514SOL    HW211442   5.496   0.677   2.466
 3515SOL     OW11443   5.507   6.283   3.769
 3515SOL    HW111444   5.582   6.217   3.767
 3515SOL    HW211445   5.512   6.338   3.852
 3516SOL     OW11446   5.143   6.957   1.142
 3516SOL    HW111447   5.063   6.956   1.203
 3516SOL    HW211448   5.166   6.864   1.117
 3517SOL     OW11449   0.534   1.051   1.142
 3517SOL    HW111450   0.521   0.992   1.222
 3517SOL    HW211451   0.453   1.047   1.084
 3518SOL     OW11452   5.273   2.170   4.991
 3518SOL    HW111453   5.298   2.106   5.064
 3518SOL    HW211454   5.223   2.247   5.031
 3519SOL     OW11455   2.479   1.168   6.892
 3519SOL    HW111456   2.381   1.148   6.885
 3519SOL    HW211457   2.494   1.241   6.959
 3520SOL     OW11458   3.620   6.341   6.663
 3520SOL    HW111459   3.692   6.395   6.705
 3520SOL    HW211460   3.660   6.268   6.608
 3521SOL     OW11461   3.373   2.566   6.751
 3521SOL    HW111462   3.279   2.588   6.779
 3521SOL    HW211463   3.390   2.604   6.661
 3522SOL     OW11464   6.434   5.033   6.741
 3522SOL    HW111465   6.406   5.057   6.834
 3522SOL    HW211466   6.358   5.053   6.678
 3523SOL     OW11467   1.178   4.271   5.736
 3523SOL    HW111468   1.163   4.207   5.811
 3523SOL    HW211469   1.136   4.235   5.653
 3524SOL     OW11470   5.048   2.018   2.503
 3524SOL    HW111471   5.145   1.996   2.497
 3524SOL    HW211472   5.006   1.964   2.576
 3525SOL     OW11473   5.869   3.606   3.925
 3525SOL    HW111474   5.811   3.629   3.847
 3525SOL    HW211475   5.811   3.591   4.006
 3526SOL     OW11476   2.286   6.168   3.413
 3526SOL    HW111477   2.229   6.104   3.360
 3526SOL    HW211478   2.234   6.201   3.491
 3527SOL     OW11479   6.439   3.077   6.169
 3527SOL    HW111480   6.409   3.043   6.080
 3527SOL    HW211481   6.367   3.134   6.209
 3528SOL     OW11482   2.569   6.223   4.840
 3528SOL    HW111483   2.510   6.270   4.775
 3528SOL    HW211484   2.664   6.225   4.807
 3529SOL     OW11485   4.207   6.882   6.787
 3529SOL    HW111486   4.206   6.852   6.882
 3529SOL    HW211487   4.253   6.970   6.779
 3530SOL     OW11488   0.079   4.983   1.591
 3530SOL    HW111489   0.001   5.033   1.629
 3530SOL    HW211490   0.141   5.047   1.545
 3531SOL     OW11491   5.802   2.207   1.700
 3531SOL    HW111492   5.879   2.144   1.688
 3531SOL    HW211493   5.831   2.300   1.678
 3532SOL     OW11494   2.657   0.883   2.126
 3532SOL    HW111495   2.725   0.951   2.151
 3532SOL    HW211496   2.576   0.928   2.089
 3533SOL     OW11497   0.712   2.151   2.779
 3533SOL    HW111498   0.807   2.157   2.748
 3533SOL    HW211499   0.653   2.202   2.717
 3534SOL     OW11500   0.760   2.308   2.150
 3534SOL    HW111501   0.767   2.308   2.050
 3534SOL    HW211502   0.679   2.255   2.177
 3535SOL     OW11503   2.550   5.560   5.144
 3535SOL    HW111504   2.523   5.484   5.202
 3535SOL    HW211505   2.648   5.552   5.122
 3536SOL     OW11506   3.508   1.762   3.031
 3536SOL    HW111507   3.519   1.687   3.096
 3536SOL    HW211508   3.442   1.736   2.961
 3537SOL     OW11509   1.248   5.737   2.152
 3537SOL    HW111510   1.176   5.767   2.089
 3537SOL    HW211511   1.209   5.674   2.219
 3538SOL     OW11512   3.185   5.362   5.780
 3538SOL    HW111513   3.212   5.266   5.767
 3538SOL    HW211514   3.164   5.403   5.692
 3539SOL     OW11515   3.588   3.532   4.435
 3539SOL    HW111516   3.633   3.544   4.346
 3539SOL    HW211517   3.657   3.532   4.507
 3540SOL     OW11518   2.245   2.390   4.483
 3540SOL    HW111519   2.326   2.334   4.468
 3540SOL    HW211520   2.271   2.474   4.531
 3541SOL     OW11521   2.841   2.781   5.357
 3541SOL    HW111522   2.754   2.825   5.338
 3541SOL    HW211523   2.916   2.839   5.324
 3542SOL     OW11524   1.562   5.370   2.918
 3542SOL    HW111525   1.494   5.440   2.896
 3542SOL    HW211526   1.588   5.376   3.014
 3543SOL     OW11527   5.861   2.793   3.917
 3543SOL    HW111528   5.918   2.804   3.836
 3543SOL    HW211529   5.785   2.858   3.913
 3544SOL     OW11530   1.867   4.110   6.505
 3544SOL    HW111531   1.831   4.173   6.436
 3544SOL    HW211532   1.964   4.095   6.489
 3545SOL     OW11533   4.096   6.323   6.090
 3545SOL    HW111534   4.152   6.389   6.141
 3545SOL    HW211535   4.122   6.326   5.993
 3546SOL     OW11536   0.523   5.554   3.289
 3546SOL    HW111537   0.436   5.520   3.327
 3546SOL    HW211538   0.580   5.476   3.264
 3547SOL     OW11539   4.071   5.144   3.693
 3547SOL    HW111540   4.161   5.186   3.707
 3547SOL    HW211541   4.081   5.045   3.684
 3548SOL     OW11542   4.866   2.223   5.940
 3548SOL    HW111543   4.855   2.318   5.909
 3548SOL    HW211544   4.958   2.209   5.975
 3549SOL     OW11545   6.810   4.658   4.249
 3549SOL    HW111546   6.798   4.752   4.219
 3549SOL    HW211547   6.908   4.635   4.248
 3550SOL     OW11548   5.312   2.328   3.046
 3550SOL    HW111549   5.313   2.383   3.129
 3550SOL    HW211550   5.219   2.300   3.025
 3551SOL     OW11551   3.652   6.355   2.985
 3551SOL    HW111552   3.703   6.440   3.002
 3551SOL    HW211553   3.657   6.297   3.066
 3552SOL     OW11554   4.681   5.796   2.594
 3552SOL    HW111555   4.627   5.812   2.677
 3552SOL    HW211556   4.624   5.811   2.514
 3553SOL     OW11557   5.717   2.872   2.457
 3553SOL    HW111558   5.728   2.855   2.359
 3553SOL    HW211559   5.800   2.846   2.506
 3554SOL     OW11560   3.889   3.666   0.161
 3554SOL    HW111561   3.914   3.633   0.252
 3554SOL    HW211562   3.919   3.761   0.150
 3555SOL     OW11563   0.483   3.427   2.939
 3555SOL    HW111564   0.434   3.351   2.981
 3555SOL    HW211565   0.418   3.485   2.889
 3556SOL     OW11566   3.455   0.322   5.439
 3556SOL    HW111567   3.472   0.229   5.471
 3556SOL    HW211568   3.356   0.338   5.436
 3557SOL     OW11569   0.988   0.968   4.488
 3557SOL    HW111570   0.936   0.922   4.416
 3557SOL    HW211571   1.045   0.902   4.536
 3558SOL     OW11572   0.110   5.564   1.682
 3558SOL    HW111573   0.098   5.513   1.767
 3558SOL    HW211574   0.206   5.589   1.671
 3559SOL     OW11575   0.394   0.299   4.834
 3559SOL    HW111576   0.347   0.382   4.803
 3559SOL    HW211577   0.482   0.325   4.874
 3560SOL     OW11578   1.363   6.002   1.216
 3560SOL    HW111579   1.375   6.010   1.315
 3560SOL    HW211580   1.321   6.085   1.181
 3561SOL     OW11581   5.048   4.827   5.899
 3561SOL    HW111582   5.134   4.792   5.862
 3561SOL    HW211583   5.023   4.775   5.980
 3562SOL     OW11584   4.739   0.464   3.905
 3562SOL    HW111585   4.688   0.540   3.947
 3562SOL    HW211586   4.837   0.484   3.906
 3563SOL     OW11587   5.570   1.160   1.723
 3563SOL    HW111588   5.499   1.101   1.762
 3563SOL    HW211589   5.580   1.242   1.779
 3564SOL     OW11590   0.713   4.470   4.563
 3564SOL    HW111591   0.730   4.469   4.662
 3564SOL    HW211592   0.717   4.377   4.527
 3565SOL     OW11593   3.065   6.253   5.164
 3565SOL    HW111594   3.086   6.163   5.124
 3565SOL    HW211595   3.118   6.323   5.117
 3566SOL     OW11596   6.684   3.582   5.817
 3566SOL    HW111597   6.676   3.621   5.909
 3566SOL    HW211598   6.599   3.595   5.767
 3567SOL     OW11599   1.005   2.468   0.496
 3567SOL    HW111600   0.927   2.528   0.513
 3567SOL    HW211601   1.049   2.493   0.409
 3568SOL     OW11602   5.195   4.838   2.434
 3568SOL    HW111603   5.105   4.836   2.476
 3568SOL    HW211604   5.262   4.798   2.497
 3569SOL     OW11605   3.134   3.285   4.966
 3569SOL    HW111606   3.203   3.330   4.909
 3569SOL    HW211607   3.099   3.204   4.919
 3570SOL     OW11608   5.770   1.310   5.586
 3570SOL    HW111609   5.807   1.384   5.528
 3570SOL    HW211610   5.845   1.268   5.637
 3571SOL     OW11611   1.690   0.765   4.983
 3571SOL    HW111612   1.702   0.773   4.884
 3571SOL    HW211613   1.764   0.709   5.021
 3572SOL     OW11614   5.177   4.303   2.744
 3572SOL    HW111615   5.176   4.228   2.678
 3572SOL    HW211616   5.152   4.268   2.835
 3573SOL     OW11617   6.507   4.712   2.377
 3573SOL    HW111618   6.441   4.637   2.379
 3573SOL    HW211619   6.576   4.694   2.306
 3574SOL     OW11620   2.431   3.203   6.566
 3574SOL    HW111621   2.347   3.230   6.520
 3574SOL    HW211622   2.454   3.271   6.636
 3575SOL     OW11623   4.873   5.420   0.517
 3575SOL    HW111624   4.893   5.368   0.600
 3575SOL    HW211625   4.916   5.376   0.438
 3576SOL     OW11626   0.623   2.557   0.164
 3576SOL    HW111627   0.527   2.529   0.161
 3576SOL    HW211628   0.633   2.636   0.224
 3577SOL     OW11629   2.356   2.778   5.565
 3577SOL    HW111630   2.415   2.833   5.506
 3577SOL    HW211631   2.407   2.698   5.598
 3578SOL     OW11632   3.010   3.016   1.028
 3578SOL    HW111633   3.000   2.953   1.105
 3578SOL    HW211634   3.093   2.992   0.976
 3579SOL     OW11635   0.596   3.855   2.251
 3579SOL    HW111636   0.517   3.879   2.308
 3579SOL    HW211637   0.656   3.793   2.302
 3580SOL     OW11638   0.631   3.256   1.195
 3580SOL    HW111639   0.632   3.335   1.257
 3580SOL    HW211640   0.574   3.184   1.234
 3581SOL     OW11641   0.544   0.029   3.334
 3581SOL    HW111642   0.588   7.008   3.415
 3581SOL    HW211643   0.615   0.055   3.268
 3582SOL     OW11644   3.249   4.496   5.998
 3582SOL    HW111645   3.273   4.470   5.904
 3582SOL    HW211646   3.160   4.541   5.999
 3583SOL     OW11647   0.348   4.500   0.603
 3583SOL    HW111648   0.348   4.576   0.537
 3583SOL    HW211649   0.432   4.503   0.657
 3584SOL     OW11650   5.825   4.560   5.448
 3584SOL    HW111651   5.873   4.580   5.533
 3584SOL    HW211652   5.891   4.543   5.375
 3585SOL     OW11653   2.712   2.356   4.774
 3585SOL    HW111654   2.793   2.300   4.793
 3585SOL    HW211655   2.630   2.298   4.780
 3586SOL     OW11656   6.116   3.110   3.766
 3586SOL    HW111657   6.097   3.204   3.794
 3586SOL    HW211658   6.214   3.099   3.751
 3587SOL     OW11659   3.822   6.702   6.390
 3587SOL    HW111660   3.845   6.620   6.443
 3587SOL    HW211661   3.905   6.752   6.366
 3588SOL     OW11662   6.341   4.452   4.453
 3588SOL    HW111663   6.425   4.488   4.413
 3588SOL    HW211664   6.312   4.371   4.402
 3589SOL     OW11665   0.236   6.719   5.389
 3589SOL    HW111666   0.235   6.805   5.442
 3589SOL    HW211667   0.228   6.642   5.452
 3590SOL     OW11668   0.299   4.293   0.432
 3590SOL    HW111669   0.326   4.370   0.489
 3590SOL    HW211670   0.205   4.266   0.453
 3591SOL     OW11671   5.323   2.716   6.486
 3591SOL    HW111672   5.337   2.784   6.558
 3591SOL    HW211673   5.384   2.639   6.501
 3592SOL     OW11674   1.530   0.189   2.445
 3592SOL    HW111675   1.569   0.267   2.395
 3592SOL    HW211676   1.586   0.170   2.525
 3593SOL     OW11677   6.472   4.042   5.320
 3593SOL    HW111678   6.562   4.010   5.352
 3593SOL    HW211679   6.444   4.121   5.374
 3594SOL     OW11680   4.064   5.501   5.163
 3594SOL    HW111681   4.042   5.595   5.188
 3594SOL    HW211682   4.081   5.495   5.065
 3595SOL     OW11683   5.720   5.790   0.163
 3595SOL    HW111684   5.697   5.700   0.200
 3595SOL    HW211685   5.731   5.783   0.064
 3596SOL     OW11686   4.371   1.650   3.372
 3596SOL    HW111687   4.395   1.747   3.367
 3596SOL    HW211688   4.303   1.636   3.444
 3597SOL     OW11689   1.803   3.078   5.206
 3597SOL    HW111690   1.802   3.153   5.271
 3597SOL    HW211691   1.897   3.056   5.181
 3598SOL     OW11692   1.396   6.018   5.263
 3598SOL    HW111693   1.491   5.987   5.253
 3598SOL    HW211694   1.364   6.057   5.177
 3599SOL     OW11695   4.610   1.780   6.150
 3599SOL    HW111696   4.601   1.853   6.219
 3599SOL    HW211697   4.534   1.786   6.085
 3600SOL     OW11698   2.635   3.418   0.443
 3600SOL    HW111699   2.714   3.369   0.479
 3600SOL    HW211700   2.600   3.481   0.512
 3601SOL     OW11701   5.193   1.404   5.281
 3601SOL    HW111702   5.111   1.354   5.252
 3601SOL    HW211703   5.270   1.340   5.287
 3602SOL     OW11704   2.038   2.697   1.535
 3602SOL    HW111705   2.104   2.739   1.473
 3602SOL    HW211706   1.945   2.717   1.502
 3603SOL     OW11707   3.049   0.877   6.115
 3603SOL    HW111708   3.116   0.807   6.087
 3603SOL    HW211709   2.958   0.835   6.120
 3604SOL     OW11710   0.255   0.718   3.486
 3604SOL    HW111711   0.305   0.678   3.563
 3604SOL    HW211712   0.157   0.700   3.497
 3605SOL     OW11713   1.134   5.283   3.447
 3605SOL    HW111714   1.211   5.234   3.408
 3605SOL    HW211715   1.062   5.294   3.378
 3606SOL     OW11716   1.920   6.180   1.631
 3606SOL    HW111717   1.832   6.221   1.655
 3606SOL    HW211718   1.957   6.133   1.711
 3607SOL     OW11719   5.401   2.907   2.816
 3607SOL    HW111720   5.309   2.911   2.779
 3607SOL    HW211721   5.468   2.918   2.742
 3608SOL     OW11722   3.987   1.849   4.110
 3608SOL    HW111723   4.049   1.897   4.048
 3608SOL    HW211724   3.918   1.912   4.145
 3609SOL     OW11725   2.378   6.652   4.437
 3609SOL    HW111726   2.314   6.704   4.380
 3609SOL    HW211727   2.394   6.563   4.396
 3610SOL     OW11728   1.794   0.047   5.513
 3610SOL    HW111729   1.817   0.124   5.453
 3610SOL    HW211730   1.833   0.063   5.604
 3611SOL     OW11731   4.688   4.370   4.308
 3611SOL    HW111732   4.615   4.431   4.339
 3611SOL    HW211733   4.683   4.361   4.208
 3612SOL     OW11734   6.237   1.385   6.656
 3612SOL    HW111735   6.299   1.390   6.578
 3612SOL    HW211736   6.290   1.371   6.740
 3613SOL     OW11737   3.279   5.182   1.233
 3613SOL    HW111738   3.258   5.096   1.278
 3613SOL    HW211739   3.374   5.207   1.250
 3614SOL     OW11740   3.296   3.921   6.535
 3614SOL    HW111741   3.349   3.954   6.613
 3614SOL    HW211742   3.356   3.918   6.454
 3615SOL     OW11743   6.142   2.842   5.767
 3615SOL    HW111744   6.185   2.755   5.742
 3615SOL    HW211745   6.047   2.843   5.735
 3616SOL     OW11746   1.960   1.945   6.644
 3616SOL    HW111747   2.021   1.870   6.670
 3616SOL    HW211748   1.986   2.028   6.694
 3617SOL     OW11749   4.245   7.000   5.723
 3617SOL    HW111750   4.330   6.970   5.680
 3617SOL    HW211751   4.178   0.007   5.653
 3618SOL     OW11752   1.579   3.727   4.616
 3618SOL    HW111753   1.537   3.800   4.563
 3618SOL    HW211754   1.630   3.766   4.693
 3619SOL     OW11755   6.023   2.924   1.090
 3619SOL    HW111756   6.058   2.878   1.172
 3619SOL    HW211757   5.935   2.883   1.064
 3620SOL     OW11758   6.071   6.298   4.545
 3620SOL    HW111759   6.062   6.395   4.567
 3620SOL    HW211760   5.980   6.256   4.545
 3621SOL     OW11761   3.719   3.039   4.133
 3621SOL    HW111762   3.673   3.100   4.069
 3621SOL    HW211763   3.651   2.984   4.182
 3622SOL     OW11764   0.776   0.052   0.787
 3622SOL    HW111765   0.740   0.042   0.694
 3622SOL    HW211766   0.789   0.149   0.807
 3623SOL     OW11767   1.253   5.515   5.938
 3623SOL    HW111768   1.345   5.477   5.951
 3623SOL    HW211769   1.260   5.601   5.887
 3624SOL     OW11770   3.241   0.840   2.074
 3624SOL    HW111771   3.181   0.760   2.067
 3624SOL    HW211772   3.216   0.893   2.155
 3625SOL     OW11773   6.454   2.943   6.513
 3625SOL    HW111774   6.374   2.889   6.485
 3625SOL    HW211775   6.520   2.882   6.558
 3626SOL     OW11776   0.521   2.959   4.698
 3626SOL    HW111777   0.477   2.875   4.730
 3626SOL    HW211778   0.555   3.010   4.777
 3627SOL     OW11779   4.778   2.970   1.102
 3627SOL    HW111780   4.736   3.024   1.175
 3627SOL    HW211781   4.754   2.873   1.113
 3628SOL     OW11782   0.968   1.447   1.950
 3628SOL    HW111783   0.979   1.355   1.986
 3628SOL    HW211784   0.883   1.452   1.897
 3629SOL     OW11785   0.588   1.688   4.385
 3629SOL    HW111786   0.659   1.758   4.376
 3629SOL    HW211787   0.622   1.601   4.351
 3630SOL     OW11788   6.776   3.032   3.510
 3630SOL    HW111789   6.844   3.029   3.583
 3630SOL    HW211790   6.744   2.940   3.489
 3631SOL     OW11791   1.745   6.555   2.682
 3631SOL    HW111792   1.752   6.479   2.618
 3631SOL    HW211793   1.692   6.526   2.762
 3632SOL     OW11794   4.194   3.532   0.850
 3632SOL    HW111795   4.214   3.529   0.753
 3632SOL    HW211796   4.098   3.555   0.864
 3633SOL     OW11797   4.032   2.641   6.398
 3633SOL    HW111798   4.028   2.574   6.324
 3633SOL    HW211799   3.939   2.675   6.417
 3634SOL     OW11800   3.011   5.796   6.068
 3634SOL    HW111801   3.048   5.853   6.142
 3634SOL    HW211802   3.079   5.727   6.042
 3635SOL     OW11803   2.791   0.640   2.070
 3635SOL    HW111804   2.738   0.582   2.008
 3635SOL    HW211805   2.749   0.730   2.076
 3636SOL     OW11806   1.067   5.684   6.994
 3636SOL    HW111807   1.021   5.731   6.919
 3636SOL    HW211808   1.064   5.742   0.057
 3637SOL     OW11809   0.380   2.998   6.726
 3637SOL    HW111810   0.474   2.966   6.740
 3637SOL    HW211811   0.318   2.945   6.782
 3638SOL     OW11812   5.783   4.383   2.277
 3638SOL    HW111813   5.843   4.365   2.199
 3638SOL    HW211814   5.773   4.299   2.331
 3639SOL     OW11815   4.067   3.818   4.846
 3639SOL    HW111816   4.139   3.886   4.832
 3639SOL    HW211817   3.989   3.838   4.788
 3640SOL     OW11818   5.292   2.555   6.949
 3640SOL    HW111819   5.232   2.625   6.909
 3640SOL    HW211820   5.375   2.598   6.985
 3641SOL     OW11821   6.740   3.923   1.549
 3641SOL    HW111822   6.647   3.957   1.566
 3641SOL    HW211823   6.736   3.825   1.530
 3642SOL     OW11824   5.911   2.314   6.647
 3642SOL    HW111825   5.888   2.231   6.596
 3642SOL    HW211826   5.862   2.314   6.734
 3643SOL     OW11827   4.271   5.807   5.950
 3643SOL    HW111828   4.241   5.885   5.895
 3643SOL    HW211829   4.248   5.823   6.046
 3644SOL     OW11830   3.188   0.452   2.089
 3644SOL    HW111831   3.120   0.518   2.122
 3644SOL    HW211832   3.179   0.366   2.140
 3645SOL     OW11833   1.657   4.252   4.327
 3645SOL    HW111834   1.650   4.292   4.419
 3645SOL    HW211835   1.731   4.185   4.326
 3646SOL     OW11836   2.648   4.672   4.774
 3646SOL    HW111837   2.693   4.640   4.857
 3646SOL    HW211838   2.555   4.635   4.770
 3647SOL     OW11839   1.684   0.201   0.483
 3647SOL    HW111840   1.609   0.147   0.520
 3647SOL    HW211841   1.755   0.140   0.447
 3648SOL     OW11842   4.772   5.589   3.461
 3648SOL    HW111843   4.680   5.623   3.476
 3648SOL    HW211844   4.773   5.530   3.380
 3649SOL     OW11845   5.555   3.611   0.348
 3649SOL    HW111846   5.594   3.547   0.414
 3649SOL    HW211847   5.619   3.686   0.333
 3650SOL     OW11848   4.900   4.743   0.532
 3650SOL    HW111849   4.853   4.659   0.507
 3650SOL    HW211850   4.836   4.804   0.579
 3651SOL     OW11851   1.410   2.467   5.929
 3651SOL    HW111852   1.353   2.507   6.001
 3651SOL    HW211853   1.504   2.499   5.940
 3652SOL     OW11854   5.161   1.479   2.039
 3652SOL    HW111855   5.160   1.421   1.957
 3652SOL    HW211856   5.181   1.573   2.011
 3653SOL     OW11857   0.705   1.329   2.033
 3653SOL    HW111858   0.641   1.345   2.108
 3653SOL    HW211859   0.753   1.242   2.048
 3654SOL     OW11860   5.075   0.553   0.648
 3654SOL    HW111861   5.056   0.601   0.563
 3654SOL    HW211862   5.173   0.557   0.668
 3655SOL     OW11863   1.537   1.703   3.957
 3655SOL    HW111864   1.631   1.713   3.923
 3655SOL    HW211865   1.532   1.623   4.018
 3656SOL     OW11866   0.362   5.633   1.611
 3656SOL    HW111867   0.423   5.558   1.637
 3656SOL    HW211868   0.412   5.720   1.617
 3657SOL     OW11869   4.967   6.254   4.790
 3657SOL    HW111870   4.978   6.341   4.838
 3657SOL    HW211871   4.888   6.259   4.729
 3658SOL     OW11872   1.213   5.552   6.215
 3658SOL    HW111873   1.116   5.528   6.222
 3658SOL    HW211874   1.241   5.551   6.119
 3659SOL     OW11875   6.817   1.770   6.336
 3659SOL    HW111876   6.862   1.780   6.424
 3659SOL    HW211877   6.882   1.731   6.270
 3660SOL     OW11878   5.758   5.304   6.183
 3660SOL    HW111879   5.761   5.388   6.237
 3660SOL    HW211880   5.773   5.225   6.244
 3661SOL     OW11881   6.911   1.825   5.276
 3661SOL    HW111882   6.965   1.812   5.360
 3661SOL    HW211883   6.902   1.737   5.229
 3662SOL     OW11884   3.574   1.272   5.903
 3662SOL    HW111885   3.598   1.363   5.937
 3662SOL    HW211886   3.485   1.275   5.859
 3663SOL     OW11887   2.383   2.892   6.605
 3663SOL    HW111888   2.436   2.953   6.546
 3663SOL    HW211889   2.305   2.940   6.642
 3664SOL     OW11890   3.928   1.792   2.479
 3664SOL    HW111891   3.951   1.887   2.456
 3664SOL    HW211892   3.829   1.781   2.482
 3665SOL     OW11893   0.459   6.079   5.887
 3665SOL    HW111894   0.500   6.011   5.826
 3665SOL    HW211895   0.400   6.140   5.834
 3666SOL     OW11896   2.191   2.006   4.460
 3666SOL    HW111897   2.168   1.921   4.507
 3666SOL    HW211898   2.129   2.079   4.491
 3667SOL     OW11899   2.194   0.764   2.788
 3667SOL    HW111900   2.282   0.745   2.744
 3667SOL    HW211901   2.192   0.860   2.817
 3668SOL     OW11902   0.733   0.114   1.625
 3668SOL    HW111903   0.831   0.116   1.642
 3668SOL    HW211904   0.698   0.208   1.621
 3669SOL     OW11905   6.552   1.715   4.129
 3669SOL    HW111906   6.619   1.750   4.194
 3669SOL    HW211907   6.536   1.618   4.146
 3670SOL     OW11908   3.292   5.250   1.666
 3670SOL    HW111909   3.337   5.271   1.579
 3670SOL    HW211910   3.327   5.311   1.737
 3671SOL     OW11911   0.096   0.475   3.437
 3671SOL    HW111912   0.181   0.458   3.387
 3671SOL    HW211913   0.101   0.432   3.527
 3672SOL     OW11914   4.179   0.962   3.072
 3672SOL    HW111915   4.105   0.898   3.089
 3672SOL    HW211916   4.205   0.958   2.976
 3673SOL     OW11917   5.128   6.275   0.889
 3673SOL    HW111918   5.066   6.274   0.810
 3673SOL    HW211919   5.075   6.285   0.973
 3674SOL     OW11920   1.458   5.320   5.804
 3674SOL    HW111921   1.547   5.344   5.844
 3674SOL    HW211922   1.468   5.236   5.751
 3675SOL     OW11923   6.996   1.678   4.289
 3675SOL    HW111924   0.044   1.696   4.360
 3675SOL    HW211925   6.909   1.722   4.314
 3676SOL     OW11926   4.764   1.776   3.142
 3676SOL    HW111927   4.836   1.783   3.210
 3676SOL    HW211928   4.735   1.868   3.115
 3677SOL     OW11929   2.307   0.556   4.054
 3677SOL    HW111930   2.219   0.533   4.096
 3677SOL    HW211931   2.370   0.479   4.063
 3678SOL     OW11932   1.312   0.580   3.612
 3678SOL    HW111933   1.328   0.538   3.702
 3678SOL    HW211934   1.388   0.557   3.551
 3679SOL     OW11935   4.949   1.009   2.411
 3679SOL    HW111936   4.919   0.982   2.319
 3679SOL    HW211937   4.894   0.962   2.479
 3680SOL     OW11938   3.977   1.132   4.154
 3680SOL    HW111939   3.956   1.228   4.137
 3680SOL    HW211940   4.075   1.122   4.174
 3681SOL     OW11941   1.436   0.088   5.092
 3681SOL    HW111942   1.374   0.153   5.050
 3681SOL    HW211943   1.509   0.065   5.027
 3682SOL     OW11944   5.550   2.342   1.294
 3682SOL    HW111945   5.518   2.317   1.203
 3682SOL    HW211946   5.582   2.261   1.342
 3683SOL     OW11947   0.287   0.990   5.794
 3683SOL    HW111948   0.345   0.987   5.713
 3683SOL    HW211949   0.238   1.078   5.796
 3684SOL     OW11950   1.817   6.787   5.548
 3684SOL    HW111951   1.784   6.750   5.635
 3684SOL    HW211952   1.823   6.886   5.555
 3685SOL     OW11953   2.132   5.857   5.573
 3685SOL    HW111954   2.184   5.825   5.653
 3685SOL    HW211955   2.043   5.812   5.572
 3686SOL     OW11956   6.844   4.136   3.757
 3686SOL    HW111957   6.820   4.224   3.715
 3686SOL    HW211958   6.943   4.129   3.765
 3687SOL     OW11959   4.928   5.907   3.401
 3687SOL    HW111960   4.943   5.960   3.317
 3687SOL    HW211961   5.013   5.865   3.430
 3688SOL     OW11962   5.749   3.349   0.310
 3688SOL    HW111963   5.712   3.372   0.400
 3688SOL    HW211964   5.755   3.249   0.301
 3689SOL     OW11965   1.402   0.376   5.730
 3689SOL    HW111966   1.456   0.292   5.734
 3689SOL    HW211967   1.463   0.456   5.732
 3690SOL     OW11968   4.999   4.996   0.927
 3690SOL    HW111969   4.917   4.949   0.960
 3690SOL    HW211970   4.996   5.002   0.827
 3691SOL     OW11971   2.363   2.248   0.393
 3691SOL    HW111972   2.403   2.215   0.478
 3691SOL    HW211973   2.360   2.348   0.394
 3692SOL     OW11974   0.495   3.468   6.224
 3692SOL    HW111975   0.574   3.432   6.174
 3692SOL    HW211976   0.413   3.459   6.168
 3693SOL     OW11977   0.558   1.932   2.703
 3693SOL    HW111978   0.622   2.003   2.730
 3693SOL    HW211979   0.597   1.842   2.723
 3694SOL     OW11980   0.043   0.164   1.657
 3694SOL    HW111981   0.115   0.128   1.716
 3694SOL    HW211982   6.992   0.207   1.713
 3695SOL     OW11983   6.594   2.877   2.754
 3695SOL    HW111984   6.635   2.883   2.663
 3695SOL    HW211985   6.542   2.792   2.761
 3696SOL     OW11986   5.023   1.061   4.451
 3696SOL    HW111987   5.092   0.992   4.472
 3696SOL    HW211988   4.965   1.076   4.531
 3697SOL     OW11989   6.306   6.482   3.408
 3697SOL    HW111990   6.275   6.486   3.503
 3697SOL    HW211991   6.232   6.511   3.347
 3698SOL     OW11992   2.234   0.389   2.942
 3698SOL    HW111993   2.188   0.354   2.860
 3698SOL    HW211994   2.204   0.338   3.022
 3699SOL     OW11995   2.607   2.217   3.878
 3699SOL    HW111996   2.686   2.173   3.920
 3699SOL    HW211997   2.591   2.306   3.921
 3700SOL     OW11998   0.868   5.009   5.392
 3700SOL    HW111999   0.838   4.981   5.301
 3700SOL    HW212000   0.791   5.005   5.455
 3701SOL     OW12001   1.308   0.030   2.751
 3701SOL    HW112002   1.309   0.130   2.758
 3701SOL    HW212003   1.398   7.014   2.774
 3702SOL     OW12004   5.048   4.806   3.812
 3702SOL    HW112005   4.994   4.729   3.845
 3702SOL    HW212006   4.996   4.856   3.743
 3703SOL     OW12007   1.126   1.619   5.466
 3703SOL    HW112008   1.049   1.682   5.470
 3703SOL    HW212009   1.188   1.646   5.392
 3704SOL     OW12010   6.967   1.957   1.226
 3704SOL    HW112011   0.012   1.967   1.151
 3704SOL    HW212012   7.016   1.959   1.313
 3705SOL     OW12013   5.087   4.742   3.244
 3705SOL    HW112014   4.995   4.750   3.284
 3705SOL    HW212015   5.154   4.781   3.306
 3706SOL     OW12016   1.248   3.438   0.330
 3706SOL    HW112017   1.342   3.436   0.296
 3706SOL    HW212018   1.248   3.439   0.430
 3707SOL     OW12019   1.836   4.907   3.597
 3707SOL    HW112020   1.869   4.960   3.519
 3707SOL    HW212021   1.756   4.853   3.569
 3708SOL     OW12022   3.753   6.834   0.815
 3708SOL    HW112023   3.779   6.924   0.850
 3708SOL    HW212024   3.709   6.844   0.726
 3709SOL     OW12025   1.942   0.651   2.759
 3709SOL    HW112026   1.926   0.668   2.662
 3709SOL    HW212027   2.026   0.696   2.788
 3710SOL     OW12028   0.082   5.632   5.518
 3710SOL    HW112029   0.030   5.586   5.590
 3710SOL    HW212030   0.155   5.687   5.558
 3711SOL     OW12031   1.762   6.000   4.823
 3711SOL    HW112032   1.671   6.016   4.863
 3711SOL    HW212033   1.795   6.084   4.781
 3712SOL     OW12034   1.789   5.001   4.892
 3712SOL    HW112035   1.843   5.084   4.881
 3712SOL    HW212036   1.729   5.010   4.972
 3713SOL     OW12037   6.279   6.394   4.921
 3713SOL    HW112038   6.366   6.422   4.961
 3713SOL    HW212039   6.252   6.460   4.850
 3714SOL     OW12040   1.123   4.818   0.325
 3714SOL    HW112041   1.180   4.844   0.247
 3714SOL    HW212042   1.129   4.890   0.395
 3715SOL     OW12043   6.331   5.940   3.650
 3715SOL    HW112044   6.249   5.935   3.593
 3715SOL    HW212045   6.363   5.847   3.669
 3716SOL     OW12046   5.067   5.778   3.783
 3716SOL    HW112047   5.006   5.808   3.856
 3716SOL    HW212048   5.081   5.854   3.719
 3717SOL     OW12049   4.189   1.166   1.324
 3717SOL    HW112050   4.212   1.260   1.301
 3717SOL    HW212051   4.272   1.116   1.347
 3718SOL     OW12052   0.071   6.476   5.822
 3718SOL    HW112053   0.121   6.558   5.796
 3718SOL    HW212054   0.022   6.493   5.908
 3719SOL     OW12055   4.553   3.645   6.238
 3719SOL    HW112056   4.602   3.728   6.213
 3719SOL    HW212057   4.461   3.669   6.271
 3720SOL     OW12058   0.143   2.976   1.581
 3720SOL    HW112059   0.082   2.897   1.582
 3720SOL    HW212060   0.139   3.024   1.669
 3721SOL     OW12061   6.491   4.657   6.412
 3721SOL    HW112062   6.530   4.735   6.362
 3721SOL    HW212063   6.502   4.574   6.357
 3722SOL     OW12064   3.960   0.135   2.375
 3722SOL    HW112065   4.021   0.075   2.323
 3722SOL    HW212066   3.924   0.085   2.454
 3723SOL     OW12067   4.615   5.094   6.583
 3723SOL    HW112068   4.586   5.159   6.653
 3723SOL    HW212069   4.561   5.010   6.591
 3724SOL     OW12070   1.539   4.648   4.995
 3724SOL    HW112071   1.633   4.679   4.979
 3724SOL    HW212072   1.524   4.637   5.093
 3725SOL     OW12073   0.368   0.051   6.458
 3725SOL    HW112074   0.414   6.982   6.452
 3725SOL    HW212075   0.435   0.123   6.475
 3726SOL     OW12076   5.494   3.427   3.741
 3726SOL    HW112077   5.533   3.423   3.649
 3726SOL    HW212078   5.426   3.355   3.752
 3727SOL     OW12079   0.083   3.374   4.372
 3727SOL    HW112080   7.015   3.326   4.374
 3727SOL    HW212081   0.158   3.309   4.356
 3728SOL     OW12082   3.584   3.470   6.974
 3728SOL    HW112083   3.508   3.485   0.019
 3728SOL    HW212084   3.652   3.543   6.985
 3729SOL     OW12085   0.875   6.909   5.400
 3729SOL    HW112086   0.937   6.986   5.404
 3729SOL    HW212087   0.917   6.829   5.442
 3730SOL     OW12088   3.921   5.876   5.766
 3730SOL    HW112089   3.916   5.858   5.668
 3730SOL    HW212090   3.917   5.789   5.816
 3731SOL     OW12091   0.568   2.253   6.297
 3731SOL    HW112092   0.551   2.156   6.316
 3731SOL    HW212093   0.519   2.309   6.364
 3732SOL     OW12094   2.623   2.274   0.146
 3732SOL    HW112095   2.602   2.180   0.172
 3732SOL    HW212096   2.638   2.329   0.228
 3733SOL     OW12097   1.724   1.999   3.450
 3733SOL    HW112098   1.790   2.074   3.441
 3733SOL    HW212099   1.740   1.931   3.379
 3734SOL     OW12100   4.208   0.007   1.476
 3734SOL    HW112101   4.267   0.066   1.421
 3734SOL    HW212102   4.148   0.064   1.532
 3735SOL     OW12103   4.346   0.412   2.320
 3735SOL    HW112104   4.356   0.504   2.359
 3735SOL    HW212105   4.387   0.345   2.382
 3736SOL     OW12106   0.053   1.243   1.223
 3736SOL    HW112107   0.007   1.289   1.298
 3736SOL    HW212108   0.139   1.203   1.255
 3737SOL     OW12109   0.394   2.315   3.408
 3737SOL    HW112110   0.343   2.229   3.403
 3737SOL    HW212111   0.481   2.300   3.454
 3738SOL     OW12112   6.364   6.414   0.828
 3738SOL    HW112113   6.374   6.341   0.760
 3738SOL    HW212114   6.447   6.420   0.883
 3739SOL     OW12115   2.837   4.797   1.168
 3739SOL    HW112116   2.892   4.870   1.128
 3739SOL    HW212117   2.834   4.808   1.268
 3740SOL     OW12118   5.545   5.178   6.912
 3740SOL    HW112119   5.639   5.153   6.890
 3740SOL    HW212120   5.529   5.167   7.011
 3741SOL     OW12121   5.001   2.975   0.116
 3741SOL    HW112122   4.978   3.072   0.110
 3741SOL    HW212123   4.940   2.923   0.056
 3742SOL     OW12124   3.481   5.851   0.154
 3742SOL    HW112125   3.384   5.871   0.169
 3742SOL    HW212126   3.525   5.832   0.242
 3743SOL     OW12127   4.119   3.529   1.282
 3743SOL    HW112128   4.113   3.574   1.371
 3743SOL    HW212129   4.160   3.591   1.215
 3744SOL     OW12130   0.191   6.691   2.348
 3744SOL    HW112131   0.136   6.611   2.321
 3744SOL    HW212132   0.257   6.711   2.275
 3745SOL     OW12133   4.908   3.937   2.430
 3745SOL    HW112134   4.966   4.017   2.415
 3745SOL    HW212135   4.892   3.890   2.344
 3746SOL     OW12136   6.511   0.685   3.960
 3746SOL    HW112137   6.530   0.705   3.864
 3746SOL    HW212138   6.541   0.593   3.982
 3747SOL     OW12139   4.547   6.596   6.160
 3747SOL    HW112140   4.502   6.671   6.209
 3747SOL    HW212141   4.512   6.509   6.192
 3748SOL     OW12142   5.248   1.512   2.649
 3748SOL    HW112143   5.202   1.524   2.561
 3748SOL    HW212144   5.239   1.417   2.679
 3749SOL     OW12145   0.555   5.944   3.259
 3749SOL    HW112146   0.585   5.901   3.174
 3749SOL    HW212147   0.467   5.905   3.287
 3750SOL     OW12148   5.530   4.056   6.831
 3750SOL    HW112149   5.499   4.132   6.774
 3750SOL    HW212150   5.619   4.025   6.798
 3751SOL     OW12151   1.915   3.117   1.447
 3751SOL    HW112152   1.894   3.022   1.426
 3751SOL    HW212153   2.013   3.134   1.433
 3752SOL     OW12154   0.730   0.033   6.607
 3752SOL    HW112155   0.761   0.070   6.694
 3752SOL    HW212156   0.632   0.050   6.598
 3753SOL     OW12157   0.139   5.990   4.486
 3753SOL    HW112158   0.050   6.015   4.448
 3753SOL    HW212159   0.162   6.054   4.560
 3754SOL     OW12160   5.989   6.099   1.158
 3754SOL    HW112161   5.988   6.088   1.257
 3754SOL    HW212162   6.010   6.193   1.134
 3755SOL     OW12163   5.241   4.177   3.980
 3755SOL    HW112164   5.265   4.269   3.950
 3755SOL    HW212165   5.145   4.159   3.960
 3756SOL     OW12166   1.968   1.978   6.387
 3756SOL    HW112167   1.974   1.960   6.486
 3756SOL    HW212168   1.894   2.043   6.369
 3757SOL     OW12169   3.165   5.726   6.617
 3757SOL    HW112170   3.135   5.815   6.652
 3757SOL    HW212171   3.106   5.654   6.653
 3758SOL     OW12172   1.957   1.122   4.180
 3758SOL    HW112173   1.900   1.047   4.212
 3758SOL    HW212174   1.969   1.188   4.254
 3759SOL     OW12175   5.197   4.432   5.722
 3759SOL    HW112176   5.222   4.381   5.804
 3759SOL    HW212177   5.108   4.475   5.736
 3760SOL     OW12178   1.608   2.538   4.628
 3760SOL    HW112179   1.578   2.444   4.643
 3760SOL    HW212180   1.708   2.543   4.634
 3761SOL     OW12181   0.639   6.329   5.071
 3761SOL    HW112182   0.674   6.423   5.077
 3761SOL    HW212183   0.659   6.292   4.980
 3762SOL     OW12184   0.601   4.246   6.976
 3762SOL    HW112185   0.504   4.247   6.952
 3762SOL    HW212186   0.618   4.175   0.025
 3763SOL     OW12187   6.089   2.902   6.645
 3763SOL    HW112188   6.115   2.960   6.723
 3763SOL    HW212189   6.015   2.947   6.595
 3764SOL     OW12190   2.663   0.334   3.959
 3764SOL    HW112191   2.740   0.346   4.021
 3764SOL    HW212192   2.678   0.389   3.877
 3765SOL     OW12193   5.763   0.717   3.100
 3765SOL    HW112194   5.857   0.731   3.130
 3765SOL    HW212195   5.760   0.644   3.031
 3766SOL     OW12196   6.878   0.983   4.243
 3766SOL    HW112197   6.941   0.985   4.165
 3766SOL    HW212198   6.793   1.030   4.217
 3767SOL     OW12199   1.607   5.012   6.903
 3767SOL    HW112200   1.566   4.952   6.972
 3767SOL    HW212201   1.607   4.965   6.815
 3768SOL     OW12202   4.828   6.505   6.866
 3768SOL    HW112203   4.855   6.588   6.915
 3768SOL    HW212204   4.902   6.476   6.805
 3769SOL     OW12205   4.928   6.444   5.269
 3769SOL    HW112206   4.875   6.522   5.301
 3769SOL    HW212207   4.941   6.379   5.343
 3770SOL     OW12208   2.154   1.386   6.531
 3770SOL    HW112209   2.088   1.312   6.544
 3770SOL    HW212210   2.203   1.403   6.616
 3771SOL     OW12211   5.259   2.327   6.590
 3771SOL    HW112212   5.241   2.233   6.561
 3771SOL    HW212213   5.180   2.364   6.638
 3772SOL     OW12214   5.792   1.197   1.328
 3772SOL    HW112215   5.828   1.191   1.234
 3772SOL    HW212216   5.714   1.134   1.338
 3773SOL     OW12217   6.380   2.529   6.091
 3773SOL    HW112218   6.301   2.477   6.125
 3773SOL    HW212219   6.408   2.596   6.160
 3774SOL     OW12220   0.367   0.582   0.054
 3774SOL    HW112221   0.284   0.595   7.019
 3774SOL    HW212222   0.445   0.567   7.012
 3775SOL     OW12223   5.377   3.535   3.482
 3775SOL    HW112224   5.434   3.617   3.481
 3775SOL    HW212225   5.428   3.459   3.440
 3776SOL     OW12226   2.353   2.609   1.319
 3776SOL    HW112227   2.426   2.619   1.387
 3776SOL    HW212228   2.360   2.520   1.275
 3777SOL     OW12229   2.865   5.183   4.032
 3777SOL    HW112230   2.853   5.110   4.100
 3777SOL    HW212231   2.857   5.145   3.940
 3778SOL     OW12232   2.967   5.581   1.475
 3778SOL    HW112233   2.990   5.507   1.412
 3778SOL    HW212234   2.882   5.558   1.523
 3779SOL     OW12235   2.464   4.403   6.543
 3779SOL    HW112236   2.476   4.428   6.447
 3779SOL    HW212237   2.519   4.322   6.563
 3780SOL     OW12238   3.096   6.056   5.360
 3780SOL    HW112239   3.179   6.009   5.329
 3780SOL    HW212240   3.077   6.133   5.299
 3781SOL     OW12241   3.397   6.745   4.559
 3781SOL    HW112242   3.353   6.730   4.471
 3781SOL    HW212243   3.418   6.657   4.602
 3782SOL     OW12244   2.280   1.592   4.415
 3782SOL    HW112245   2.296   1.651   4.336
 3782SOL    HW212246   2.249   1.502   4.383
 3783SOL     OW12247   5.276   6.542   5.044
 3783SOL    HW112248   5.244   6.597   4.967
 3783SOL    HW212249   5.273   6.445   5.019
 3784SOL     OW12250   5.550   1.171   3.107
 3784SOL    HW112251   5.488   1.221   3.167
 3784SOL    HW212252   5.588   1.093   3.156
 3785SOL     OW12253   2.633   2.018   0.969
 3785SOL    HW112254   2.639   2.107   1.014
 3785SOL    HW212255   2.706   1.959   1.002
 3786SOL     OW12256   2.995   5.072   2.768
 3786SOL    HW112257   2.981   5.119   2.680
 3786SOL    HW212258   3.028   4.979   2.751
 3787SOL     OW12259   4.662   1.000   3.886
 3787SOL    HW112260   4.708   1.054   3.956
 3787SOL    HW212261   4.689   1.032   3.795
 3788SOL     OW12262   6.275   3.069   2.676
 3788SOL    HW112263   6.338   3.108   2.743
 3788SOL    HW212264   6.257   2.973   2.699
 3789SOL     OW12265   1.521   4.737   3.962
 3789SOL    HW112266   1.473   4.756   3.877
 3789SOL    HW212267   1.579   4.656   3.950
 3790SOL     OW12268   1.841   3.278   4.216
 3790SOL    HW112269   1.801   3.201   4.265
 3790SOL    HW212270   1.785   3.299   4.135
 3791SOL     OW12271   5.219   6.815   1.575
 3791SOL    HW112272   5.252   6.737   1.629
 3791SOL    HW212273   5.264   6.815   1.486
 3792SOL     OW12274   5.955   6.580   4.912
 3792SOL    HW112275   6.048   6.548   4.932
 3792SOL    HW212276   5.902   6.583   4.997
 3793SOL     OW12277   2.067   1.691   2.577
 3793SOL    HW112278   2.110   1.701   2.487
 3793SOL    HW212279   1.975   1.731   2.575
 3794SOL     OW12280   4.413   6.300   1.809
 3794SOL    HW112281   4.456   6.382   1.845
 3794SOL    HW212282   4.332   6.277   1.864
 3795SOL     OW12283   4.903   0.634   6.370
 3795SOL    HW112284   4.914   0.548   6.420
 3795SOL    HW212285   4.952   0.707   6.418
 3796SOL     OW12286   0.937   2.112   1.956
 3796SOL    HW112287   1.023   2.163   1.945
 3796SOL    HW212288   0.863   2.161   1.910
 3797SOL     OW12289   1.229   4.933   2.596
 3797SOL    HW112290   1.327   4.932   2.614
 3797SOL    HW212291   1.213   4.937   2.498
 3798SOL     OW12292   2.178   4.661   2.641
 3798SOL    HW112293   2.213   4.627   2.728
 3798SOL    HW212294   2.118   4.740   2.657
 3799SOL     OW12295   1.643   1.598   5.473
 3799SOL    HW112296   1.695   1.545   5.541
 3799SOL    HW212297   1.617   1.537   5.398
 3800SOL     OW12298   5.115   2.464   4.689
 3800SOL    HW112299   5.151   2.510   4.770
 3800SOL    HW212300   5.045   2.398   4.716
 3801SOL     OW12301   6.499   5.752   6.046
 3801SOL    HW112302   6.449   5.720   6.127
 3801SOL    HW212303   6.435   5.765   5.970
 3802SOL     OW12304   1.213   1.911   4.812
 3802SOL    HW112305   1.205   1.842   4.884
 3802SOL    HW212306   1.256   1.870   4.732
 3803SOL     OW12307   3.940   6.870   1.488
 3803SOL    HW112308   3.873   6.919   1.545
 3803SOL    HW212309   4.028   6.916   1.495
 3804SOL     OW12310   4.433   2.146   4.347
 3804SOL    HW112311   4.378   2.229   4.359
 3804SOL    HW212312   4.504   2.142   4.417
 3805SOL     OW12313   3.060   4.267   1.733
 3805SOL    HW112314   2.984   4.324   1.764
 3805SOL    HW212315   3.037   4.226   1.645
 3806SOL     OW12316   2.515   2.663   0.259
 3806SOL    HW112317   2.466   2.750   0.251
 3806SOL    HW212318   2.575   2.651   0.180
 3807SOL     OW12319   1.022   6.989   3.982
 3807SOL    HW112320   1.101   6.939   4.018
 3807SOL    HW212321   0.954   6.924   3.948
 3808SOL     OW12322   3.491   6.889   1.875
 3808SOL    HW112323   3.515   6.838   1.957
 3808SOL    HW212324   3.455   6.979   1.901
 3809SOL     OW12325   5.811   1.423   0.038
 3809SOL    HW112326   5.838   1.499   0.097
 3809SOL    HW212327   5.719   1.438   0.003
 3810SOL     OW12328   3.149   3.125   5.429
 3810SOL    HW112329   3.145   3.203   5.492
 3810SOL    HW212330   3.181   3.156   5.340
 3811SOL     OW12331   0.604   4.731   4.807
 3811SOL    HW112332   0.591   4.632   4.816
 3811SOL    HW212333   0.515   4.776   4.811
 3812SOL     OW12334   6.286   1.707   5.642
 3812SOL    HW112335   6.326   1.616   5.651
 3812SOL    HW212336   6.346   1.765   5.588
 3813SOL     OW12337   3.027   5.389   0.184
 3813SOL    HW112338   2.986   5.429   0.102
 3813SOL    HW212339   3.025   5.290   0.178
 3814SOL     OW12340   6.717   5.852   2.229
 3814SOL    HW112341   6.784   5.785   2.198
 3814SOL    HW212342   6.637   5.851   2.168
 3815SOL     OW12343   5.521   2.320   1.710
 3815SOL    HW112344   5.614   2.284   1.702
 3815SOL    HW212345   5.480   2.326   1.619
 3816SOL     OW12346   6.974   6.830   1.963
 3816SOL    HW112347   7.001   6.919   1.926
 3816SOL    HW212348   0.024   6.762   1.938
 3817SOL     OW12349   4.670   1.859   4.454
 3817SOL    HW112350   4.647   1.904   4.540
 3817SOL    HW212351   4.632   1.766   4.454
 3818SOL     OW12352   4.395   5.953   2.573
 3818SOL    HW112353   4.410   6.034   2.629
 3818SOL    HW212354   4.442   5.964   2.485
 3819SOL     OW12355   5.365   4.952   0.412
 3819SOL    HW112356   5.273   4.913   0.422
 3819SOL    HW212357   5.385   5.009   0.492
 3820SOL     OW12358   4.713   5.813   3.864
 3820SOL    HW112359   4.709   5.883   3.792
 3820SOL    HW212360   4.791   5.831   3.923
 3821SOL     OW12361   1.350   3.588   1.614
 3821SOL    HW112362   1.377   3.659   1.549
 3821SOL    HW212363   1.359   3.498   1.570
 3822SOL     OW12364   2.611   5.117   1.213
 3822SOL    HW112365   2.547   5.088   1.142
 3822SOL    HW212366   2.590   5.068   1.298
 3823SOL     OW12367   3.601   2.723   5.890
 3823SOL    HW112368   3.700   2.711   5.887
 3823SOL    HW212369   3.569   2.756   5.801
 3824SOL     OW12370   6.231   1.780   5.899
 3824SOL    HW112371   6.174   1.740   5.971
 3824SOL    HW212372   6.263   1.708   5.838
 3825SOL     OW12373   0.390   6.496   5.728
 3825SOL    HW112374   0.334   6.470   5.650
 3825SOL    HW212375   0.412   6.594   5.723
 3826SOL     OW12376   6.651   3.442   1.632
 3826SOL    HW112377   6.570   3.398   1.594
 3826SOL    HW212378   6.718   3.373   1.656
 3827SOL     OW12379   3.730   3.289   0.585
 3827SOL    HW112380   3.642   3.265   0.626
 3827SOL    HW212381   3.789   3.330   0.654
 3828SOL     OW12382   4.604   2.248   2.018
 3828SOL    HW112383   4.665   2.202   1.953
 3828SOL    HW212384   4.658   2.301   2.083
 3829SOL     OW12385   2.602   5.376   3.589
 3829SOL    HW112386   2.564   5.284   3.597
 3829SOL    HW212387   2.702   5.371   3.593
 3830SOL     OW12388   2.445   0.374   4.791
 3830SOL    HW112389   2.457   0.409   4.698
 3830SOL    HW212390   2.504   0.424   4.854
 3831SOL     OW12391   4.284   1.847   2.821
 3831SOL    HW112392   4.190   1.820   2.799
 3831SOL    HW212393   4.345   1.768   2.808
 3832SOL     OW12394   6.451   0.781   1.675
 3832SOL    HW112395   6.484   0.776   1.581
 3832SOL    HW212396   6.467   0.693   1.720
 3833SOL     OW12397   0.865   5.027   0.717
 3833SOL    HW112398   0.954   4.984   0.723
 3833SOL    HW212399   0.860   5.104   0.781
 3834SOL     OW12400   2.908   1.586   0.825
 3834SOL    HW112401   3.000   1.571   0.787
 3834SOL    HW212402   2.875   1.502   0.867
 3835SOL     OW12403   3.810   5.607   6.171
 3835SOL    HW112404   3.871   5.540   6.127
 3835SOL    HW212405   3.716   5.589   6.144
 3836SOL     OW12406   1.427   3.789   6.154
 3836SOL    HW112407   1.517   3.805   6.193
 3836SOL    HW212408   1.358   3.837   6.208
 3837SOL     OW12409   3.966   3.602   0.416
 3837SOL    HW112410   4.057   3.634   0.439
 3837SOL    HW212411   3.961   3.503   0.426
 3838SOL     OW12412   5.975   2.221   4.354
 3838SOL    HW112413   6.072   2.199   4.348
 3838SOL    HW212414   5.929   2.153   4.411
 3839SOL     OW12415   5.595   6.191   5.763
 3839SOL    HW112416   5.566   6.210   5.857
 3839SOL    HW212417   5.610   6.277   5.715
 3840SOL     OW12418   1.827   1.571   3.720
 3840SOL    HW112419   1.848   1.658   3.675
 3840SOL    HW212420   1.761   1.520   3.666
 3841SOL     OW12421   1.063   3.661   5.126
 3841SOL    HW112422   1.099   3.674   5.033
 3841SOL    HW212423   0.979   3.608   5.122
 3842SOL     OW12424   0.910   4.983   0.209
 3842SOL    HW112425   0.835   4.979   0.276
 3842SOL    HW212426   0.987   5.034   0.249
 3843SOL     OW12427   5.857   3.244   0.816
 3843SOL    HW112428   5.764   3.221   0.846
 3843SOL    HW212429   5.901   3.163   0.777
 3844SOL     OW12430   1.967   4.967   6.087
 3844SOL    HW112431   1.943   4.994   5.993
 3844SOL    HW212432   1.899   5.004   6.150
 3845SOL     OW12433   3.511   3.844   3.228
 3845SOL    HW112434   3.556   3.933   3.236
 3845SOL    HW212435   3.418   3.849   3.265
 3846SOL     OW12436   0.593   4.906   4.375
 3846SOL    HW112437   0.636   4.934   4.461
 3846SOL    HW212438   0.504   4.865   4.395
 3847SOL     OW12439   0.403   0.455   5.890
 3847SOL    HW112440   0.395   0.534   5.830
 3847SOL    HW212441   0.330   0.458   5.958
 3848SOL     OW12442   2.583   4.828   1.043
 3848SOL    HW112443   2.672   4.821   1.088
 3848SOL    HW212444   2.518   4.768   1.089
 3849SOL     OW12445   0.944   1.856   5.583
 3849SOL    HW112446   0.864   1.900   5.543
 3849SOL    HW212447   0.923   1.829   5.677
 3850SOL     OW12448   3.434   4.140   2.066
 3850SOL    HW112449   3.383   4.170   1.986
 3850SOL    HW212450   3.530   4.166   2.056
 3851SOL     OW12451   1.905   3.136   2.809
 3851SOL    HW112452   1.980   3.099   2.864
 3851SOL    HW212453   1.832   3.168   2.870
 3852SOL     OW12454   4.153   0.979   4.689
 3852SOL    HW112455   4.174   1.008   4.783
 3852SOL    HW212456   4.115   0.887   4.691
 3853SOL     OW12457   1.094   3.647   2.018
 3853SOL    HW112458   1.153   3.589   2.074
 3853SOL    HW212459   1.123   3.743   2.028
 3854SOL     OW12460   0.858   3.564   4.466
 3854SOL    HW112461   0.784   3.611   4.418
 3854SOL    HW212462   0.924   3.529   4.399
 3855SOL     OW12463   6.225   3.240   5.848
 3855SOL    HW112464   6.306   3.299   5.846
 3855SOL    HW212465   6.176   3.249   5.761
 3856SOL     OW12466   0.188   6.093   5.987
 3856SOL    HW112467   0.281   6.060   5.996
 3856SOL    HW212468   0.179   6.146   5.902
 3857SOL     OW12469   1.091   6.479   4.552
 3857SOL    HW112470   1.039   6.432   4.623
 3857SOL    HW212471   1.027   6.526   4.490
 3858SOL     OW12472   2.502   6.062   6.604
 3858SOL    HW112473   2.505   5.983   6.665
 3858SOL    HW212474   2.482   6.144   6.656
 3859SOL     OW12475   0.410   3.437   2.528
 3859SOL    HW112476   0.437   3.360   2.470
 3859SOL    HW212477   0.481   3.508   2.525
 3860SOL     OW12478   2.545   6.913   5.754
 3860SOL    HW112479   2.591   6.839   5.704
 3860SOL    HW212480   2.490   6.874   5.828
 3861SOL     OW12481   4.663   4.560   0.935
 3861SOL    HW112482   4.581   4.541   0.881
 3861SOL    HW212483   4.743   4.560   0.876
 3862SOL     OW12484   1.209   5.985   5.873
 3862SOL    HW112485   1.245   5.893   5.857
 3862SOL    HW212486   1.165   6.018   5.790
 3863SOL     OW12487   3.259   3.898   1.449
 3863SOL    HW112488   3.233   3.880   1.544
 3863SOL    HW212489   3.266   3.996   1.434
 3864SOL     OW12490   2.567   1.994   0.200
 3864SOL    HW112491   2.637   2.017   0.268
 3864SOL    HW212492   2.608   1.937   0.128
 3865SOL     OW12493   4.793   0.458   2.238
 3865SOL    HW112494   4.891   0.443   2.244
 3865SOL    HW212495   4.775   0.554   2.215
 3866SOL     OW12496   3.755   6.857   6.679
 3866SOL    HW112497   3.795   6.891   6.594
 3866SOL    HW212498   3.656   6.846   6.667
 3867SOL     OW12499   2.136   3.313   3.064
 3867SOL    HW112500   2.162   3.379   3.134
 3867SOL    HW212501   2.104   3.361   2.982
 3868SOL     OW12502   2.086   6.511   2.966
 3868SOL    HW112503   2.053   6.583   3.027
 3868SOL    HW212504   2.142   6.446   3.018
 3869SOL     OW12505   1.244   3.265   3.181
 3869SOL    HW112506   1.215   3.172   3.206
 3869SOL    HW212507   1.164   3.323   3.169
 3870SOL     OW12508   2.493   4.603   0.076
 3870SOL    HW112509   2.479   4.574   7.000
 3870SOL    HW212510   2.569   4.667   0.080
 3871SOL     OW12511   2.345   0.451   3.263
 3871SOL    HW112512   2.302   0.374   3.215
 3871SOL    HW212513   2.441   0.457   3.236
 3872SOL     OW12514   3.895   4.147   0.808
 3872SOL    HW112515   3.827   4.125   0.739
 3872SOL    HW212516   3.884   4.086   0.887
 3873SOL     OW12517   5.600   4.595   2.355
 3873SOL    HW112518   5.631   4.687   2.333
 3873SOL    HW212519   5.677   4.532   2.352
 3874SOL     OW12520   4.465   0.688   6.307
 3874SOL    HW112521   4.438   0.593   6.289
 3874SOL    HW212522   4.489   0.698   6.404
 3875SOL     OW12523   1.470   5.140   1.039
 3875SOL    HW112524   1.426   5.181   1.118
 3875SOL    HW212525   1.455   5.197   0.958
 3876SOL     OW12526   4.897   3.728   3.441
 3876SOL    HW112527   4.897   3.649   3.380
 3876SOL    HW212528   4.974   3.720   3.505
 3877SOL     OW12529   6.385   0.898   2.405
 3877SOL    HW112530   6.305   0.888   2.464
 3877SOL    HW212531   6.365   0.864   2.314
 3878SOL     OW12532   3.354   6.577   5.999
 3878SOL    HW112533   3.416   6.592   6.075
 3878SOL    HW212534   3.350   6.659   5.942
 3879SOL     OW12535   3.852   5.982   1.796
 3879SOL    HW112536   3.810   6.010   1.710
 3879SOL    HW212537   3.846   6.058   1.862
 3880SOL     OW12538   5.072   2.973   4.153
 3880SOL    HW112539   4.980   3.000   4.183
 3880SOL    HW212540   5.077   2.874   4.145
 3881SOL     OW12541   1.709   3.670   0.368
 3881SOL    HW112542   1.670   3.728   0.440
 3881SOL    HW212543   1.686   3.575   0.385
 3882SOL     OW12544   0.495   0.560   5.463
 3882SOL    HW112545   0.404   0.575   5.423
 3882SOL    HW212546   0.507   0.463   5.483
 3883SOL     OW12547   3.495   0.681   5.919
 3883SOL    HW112548   3.531   0.621   5.991
 3883SOL    HW212549   3.492   0.631   5.833
 3884SOL     OW12550   1.629   5.142   6.040
 3884SOL    HW112551   1.688   5.181   5.969
 3884SOL    HW212552   1.677   5.141   6.127
 3885SOL     OW12553   6.424   1.080   4.342
 3885SOL    HW112554   6.504   1.045   4.390
 3885SOL    HW212555   6.447   1.098   4.246
 3886SOL     OW12556   6.930   6.236   5.702
 3886SOL    HW112557   7.005   6.298   5.677
 3886SOL    HW212558   6.934   6.154   5.645
 3887SOL     OW12559   4.496   2.424   6.051
 3887SOL    HW112560   4.501   2.507   6.106
 3887SOL    HW212561   4.441   2.442   5.969
 3888SOL     OW12562   6.271   2.104   0.668
 3888SOL    HW112563   6.341   2.040   0.636
 3888SOL    HW212564   6.200   2.113   0.598
 3889SOL     OW12565   0.757   6.280   6.232
 3889SOL    HW112566   0.816   6.282   6.151
 3889SOL    HW212567   0.737   6.184   6.255
 3890SOL     OW12568   5.510   4.120   3.161
 3890SOL    HW112569   5.415   4.088   3.162
 3890SOL    HW212570   5.570   4.044   3.136
 3891SOL     OW12571   5.281   4.691   5.846
 3891SOL    HW112572   5.368   4.679   5.800
 3891SOL    HW212573   5.269   4.620   5.915
 3892SOL     OW12574   4.800   6.553   2.968
 3892SOL    HW112575   4.845   6.580   3.053
 3892SOL    HW212576   4.720   6.496   2.990
 3893SOL     OW12577   2.870   5.943   4.010
 3893SOL    HW112578   2.816   6.013   3.964
 3893SOL    HW212579   2.937   5.905   3.946
 3894SOL     OW12580   5.047   4.165   0.046
 3894SOL    HW112581   5.137   4.125   0.058
 3894SOL    HW212582   4.992   4.150   0.128
 3895SOL     OW12583   2.632   2.055   5.436
 3895SOL    HW112584   2.578   1.987   5.486
 3895SOL    HW212585   2.714   2.077   5.489
 3896SOL     OW12586   6.511   2.647   5.890
 3896SOL    HW112587   6.562   2.725   5.927
 3896SOL    HW212588   6.476   2.591   5.965
 3897SOL     OW12589   3.451   6.719   2.154
 3897SOL    HW112590   3.393   6.692   2.077
 3897SOL    HW212591   3.465   6.641   2.215
 3898SOL     OW12592   3.741   4.132   4.299
 3898SOL    HW112593   3.791   4.157   4.382
 3898SOL    HW212594   3.683   4.053   4.318
 3899SOL     OW12595   4.644   1.810   4.961
 3899SOL    HW112596   4.737   1.774   4.967
 3899SOL    HW212597   4.630   1.878   5.034
 3900SOL     OW12598   6.536   2.651   3.730
 3900SOL    HW112599   6.460   2.677   3.671
 3900SOL    HW212600   6.579   2.568   3.693
 3901SOL     OW12601   2.152   5.846   5.125
 3901SOL    HW112602   2.249   5.822   5.126
 3901SOL    HW212603   2.142   5.944   5.145
 3902SOL     OW12604   4.390   5.001   1.318
 3902SOL    HW112605   4.458   5.032   1.385
 3902SOL    HW212606   4.418   4.913   1.281
 3903SOL     OW12607   4.138   2.664   5.917
 3903SOL    HW112608   4.207   2.595   5.939
 3903SOL    HW212609   4.174   2.726   5.848
 3904SOL     OW12610   2.441   6.238   1.367
 3904SOL    HW112611   2.434   6.193   1.278
 3904SOL    HW212612   2.376   6.196   1.430
 3905SOL     OW12613   0.176   0.467   5.121
 3905SOL    HW112614   0.226   0.493   5.039
 3905SOL    HW212615   0.107   0.398   5.098
 3906SOL     OW12616   0.373   5.718   4.769
 3906SOL    HW112617   0.454   5.745   4.822
 3906SOL    HW212618   0.317   5.656   4.823
 3907SOL     OW12619   0.753   1.132   4.653
 3907SOL    HW112620   0.787   1.064   4.719
 3907SOL    HW212621   0.662   1.162   4.680
 3908SOL     OW12622   1.540   0.344   4.536
 3908SOL    HW112623   1.533   0.432   4.489
 3908SOL    HW212624   1.479   0.278   4.491
 3909SOL     OW12625   6.153   2.108   0.071
 3909SOL    HW112626   6.143   2.174   0.146
 3909SOL    HW212627   6.181   2.155   7.007
 3910SOL     OW12628   3.717   2.723   0.728
 3910SOL    HW112629   3.626   2.697   0.694
 3910SOL    HW212630   3.724   2.822   0.730
 3911SOL     OW12631   0.051   1.042   0.876
 3911SOL    HW112632   6.983   1.067   0.918
 3911SOL    HW212633   0.078   1.113   0.810
 3912SOL     OW12634   3.786   2.339   0.357
 3912SOL    HW112635   3.728   2.266   0.392
 3912SOL    HW212636   3.870   2.344   0.410
 3913SOL     OW12637   4.839   5.634   1.600
 3913SOL    HW112638   4.823   5.588   1.512
 3913SOL    HW212639   4.751   5.665   1.637
 3914SOL     OW12640   0.220   1.081   0.185
 3914SOL    HW112641   0.212   1.002   0.123
 3914SOL    HW212642   0.140   1.084   0.245
 3915SOL     OW12643   4.541   5.854   6.043
 3915SOL    HW112644   4.595   5.770   6.045
 3915SOL    HW212645   4.448   5.834   6.013
 3916SOL     OW12646   2.534   1.802   2.486
 3916SOL    HW112647   2.471   1.873   2.520
 3916SOL    HW212648   2.619   1.845   2.456
 3917SOL     OW12649   3.661   4.426   1.437
 3917SOL    HW112650   3.638   4.330   1.418
 3917SOL    HW212651   3.598   4.463   1.505
 3918SOL     OW12652   5.519   0.712   0.318
 3918SOL    HW112653   5.497   0.717   0.221
 3918SOL    HW212654   5.438   0.736   0.372
 3919SOL     OW12655   4.019   6.647   2.305
 3919SOL    HW112656   3.966   6.659   2.389
 3919SOL    HW212657   4.074   6.729   2.289
 3920SOL     OW12658   3.086   1.591   5.482
 3920SOL    HW112659   3.071   1.611   5.385
 3920SOL    HW212660   3.047   1.665   5.537
 3921SOL     OW12661   0.072   3.131   6.366
 3921SOL    HW112662   0.102   3.206   6.426
 3921SOL    HW212663   0.139   3.057   6.369
 3922SOL     OW12664   4.704   4.508   3.204
 3922SOL    HW112665   4.738   4.581   3.145
 3922SOL    HW212666   4.776   4.440   3.217
 3923SOL     OW12667   5.435   1.164   1.145
 3923SOL    HW112668   5.450   1.250   1.195
 3923SOL    HW212669   5.521   1.132   1.106
 3924SOL     OW12670   5.585   5.521   4.215
 3924SOL    HW112671   5.574   5.615   4.246
 3924SOL    HW212672   5.681   5.494   4.223
 3925SOL     OW12673   5.345   3.832   0.639
 3925SOL    HW112674   5.432   3.874   0.665
 3925SOL    HW212675   5.270   3.883   0.681
 3926SOL     OW12676   0.067   5.876   6.096
 3926SOL    HW112677   0.116   5.962   6.082
 3926SOL    HW212678   0.033   5.842   6.008
 3927SOL     OW12679   5.484   2.124   5.962
 3927SOL    HW112680   5.416   2.053   5.941
 3927SOL    HW212681   5.502   2.178   5.880
 3928SOL     OW12682   3.381   6.018   2.000
 3928SOL    HW112683   3.363   6.105   1.955
 3928SOL    HW212684   3.313   6.003   2.072
 3929SOL     OW12685   0.495   2.506   4.920
 3929SOL    HW112686   0.591   2.481   4.937
 3929SOL    HW212687   0.435   2.437   4.960
 3930SOL     OW12688   1.803   4.741   3.864
 3930SOL    HW112689   1.897   4.776   3.857
 3930SOL    HW212690   1.739   4.818   3.863
 3931SOL     OW12691   2.049   2.306   1.565
 3931SOL    HW112692   1.998   2.339   1.485
 3931SOL    HW212693   1.993   2.319   1.647
 3932SOL     OW12694   2.465   4.778   3.767
 3932SOL    HW112695   2.528   4.720   3.716
 3932SOL    HW212696   2.442   4.736   3.854
 3933SOL     OW12697   2.199   5.675   1.350
 3933SOL    HW112698   2.145   5.611   1.405
 3933SOL    HW212699   2.137   5.731   1.294
 3934SOL     OW12700   0.180   0.750   1.633
 3934SOL    HW112701   0.168   0.659   1.594
 3934SOL    HW212702   0.118   0.814   1.587
 3935SOL     OW12703   6.345   3.828   6.359
 3935SOL    HW112704   6.326   3.827   6.261
 3935SOL    HW212705   6.404   3.905   6.381
 3936SOL     OW12706   6.743   4.529   5.287
 3936SOL    HW112707   6.805   4.607   5.296
 3936SOL    HW212708   6.727   4.489   5.377
 3937SOL     OW12709   6.925   6.119   1.697
 3937SOL    HW112710   6.955   6.026   1.675
 3937SOL    HW212711   6.920   6.173   1.613
 3938SOL     OW12712   1.243   3.243   1.999
 3938SOL    HW112713   1.202   3.219   2.087
 3938SOL    HW212714   1.174   3.283   1.939
 3939SOL     OW12715   1.072   1.275   2.650
 3939SOL    HW112716   1.073   1.189   2.600
 3939SOL    HW212717   1.154   1.282   2.707
 3940SOL     OW12718   3.211   5.623   0.750
 3940SOL    HW112719   3.226   5.547   0.687
 3940SOL    HW212720   3.299   5.665   0.773
 3941SOL     OW12721   5.697   6.072   3.115
 3941SOL    HW112722   5.613   6.085   3.167
 3941SOL    HW212723   5.776   6.099   3.172
 3942SOL     OW12724   6.882   5.759   5.427
 3942SOL    HW112725   6.849   5.733   5.336
 3942SOL    HW212726   6.971   5.716   5.443
 3943SOL     OW12727   1.522   2.610   0.257
 3943SOL    HW112728   1.546   2.691   0.310
 3943SOL    HW212729   1.588   2.597   0.183
 3944SOL     OW12730   5.696   3.019   6.643
 3944SOL    HW112731   5.620   3.069   6.602
 3944SOL    HW212732   5.768   3.006   6.575
 3945SOL     OW12733   5.739   0.563   3.628
 3945SOL    HW112734   5.735   0.463   3.626
 3945SOL    HW212735   5.648   0.600   3.644
 3946SOL     OW12736   1.087   3.135   0.420
 3946SOL    HW112737   1.135   3.075   0.484
 3946SOL    HW212738   1.044   3.210   0.471
 3947SOL     OW12739   6.086   5.229   1.971
 3947SOL    HW112740   6.086   5.276   1.883
 3947SOL    HW212741   5.994   5.196   1.992
 3948SOL     OW12742   1.455   2.744   6.146
 3948SOL    HW112743   1.508   2.696   6.076
 3948SOL    HW212744   1.371   2.779   6.106
 3949SOL     OW12745   6.393   0.139   1.256
 3949SOL    HW112746   6.391   0.128   1.157
 3949SOL    HW212747   6.485   0.120   1.290
 3950SOL     OW12748   3.049   4.605   1.668
 3950SOL    HW112749   2.976   4.551   1.708
 3950SOL    HW212750   3.101   4.650   1.740
 3951SOL     OW12751   1.262   2.290   4.545
 3951SOL    HW112752   1.258   2.262   4.641
 3951SOL    HW212753   1.258   2.208   4.487
 3952SOL     OW12754   5.865   3.687   6.982
 3952SOL    HW112755   5.883   3.737   6.898
 3952SOL    HW212756   5.857   3.751   0.039
 3953SOL     OW12757   3.167   3.681   6.516
 3953SOL    HW112758   3.117   3.649   6.597
 3953SOL    HW212759   3.211   3.768   6.536
 3954SOL     OW12760   0.426   2.863   5.490
 3954SOL    HW112761   0.354   2.851   5.422
 3954SOL    HW212762   0.514   2.870   5.443
 3955SOL     OW12763   0.490   4.090   0.426
 3955SOL    HW112764   0.463   4.006   0.473
 3955SOL    HW212765   0.413   4.154   0.428
 3956SOL     OW12766   0.047   3.206   5.687
 3956SOL    HW112767   7.000   3.279   5.704
 3956SOL    HW212768   0.036   3.134   5.756
 3957SOL     OW12769   0.771   2.082   3.283
 3957SOL    HW112770   0.791   2.079   3.185
 3957SOL    HW212771   0.805   1.999   3.327
 3958SOL     OW12772   5.757   6.159   6.936
 3958SOL    HW112773   5.835   6.219   6.925
 3958SOL    HW212774   5.772   6.074   6.885
 3959SOL     OW12775   2.479   5.117   0.615
 3959SOL    HW112776   2.578   5.128   0.621
 3959SOL    HW212777   2.439   5.120   0.707
 3960SOL     OW12778   4.956   3.402   0.650
 3960SOL    HW112779   4.991   3.433   0.738
 3960SOL    HW212780   4.965   3.475   0.582
 3961SOL     OW12781   5.673   0.550   2.141
 3961SOL    HW112782   5.713   0.460   2.157
 3961SOL    HW212783   5.574   0.545   2.155
 3962SOL     OW12784   0.689   6.734   5.800
 3962SOL    HW112785   0.629   6.704   5.726
 3962SOL    HW212786   0.642   6.722   5.887
 3963SOL     OW12787   4.511   5.660   3.476
 3963SOL    HW112788   4.469   5.744   3.509
 3963SOL    HW212789   4.445   5.586   3.479
 3964SOL     OW12790   5.463   6.534   5.794
 3964SOL    HW112791   5.416   6.533   5.705
 3964SOL    HW212792   5.449   6.446   5.839
 3965SOL     OW12793   4.041   2.954   0.375
 3965SOL    HW112794   3.941   2.943   0.374
 3965SOL    HW212795   4.064   3.051   0.372
 3966SOL     OW12796   6.314   3.971   5.105
 3966SOL    HW112797   6.376   4.017   5.168
 3966SOL    HW212798   6.220   3.994   5.128
 3967SOL     OW12799   1.469   6.002   6.882
 3967SOL    HW112800   1.465   5.974   6.786
 3967SOL    HW212801   1.503   5.926   6.937
 3968SOL     OW12802   5.871   0.261   1.722
 3968SOL    HW112803   5.883   0.326   1.647
 3968SOL    HW212804   5.957   0.213   1.738
 3969SOL     OW12805   0.471   5.877   1.732
 3969SOL    HW112806   0.457   5.960   1.786
 3969SOL    HW212807   0.567   5.850   1.736
 3970SOL     OW12808   4.932   4.539   4.032
 3970SOL    HW112809   4.932   4.477   4.110
 3970SOL    HW212810   4.884   4.624   4.056
 3971SOL     OW12811   1.920   6.068   3.955
 3971SOL    HW112812   1.980   6.092   4.032
 3971SOL    HW212813   1.878   6.150   3.918
 3972SOL     OW12814   1.242   0.099   0.660
 3972SOL    HW112815   1.180   0.115   0.584
 3972SOL    HW212816   1.263   0.186   0.706
 3973SOL     OW12817   3.455   2.907   2.893
 3973SOL    HW112818   3.438   2.886   2.989
 3973SOL    HW212819   3.391   2.977   2.862
 3974SOL     OW12820   6.020   0.548   6.398
 3974SOL    HW112821   6.014   0.622   6.466
 3974SOL    HW212822   5.957   0.567   6.323
 3975SOL     OW12823   6.602   6.666   5.693
 3975SOL    HW112824   6.521   6.647   5.748
 3975SOL    HW212825   6.660   6.585   5.691
 3976SOL     OW12826   1.127   3.106   6.532
 3976SOL    HW112827   1.093   3.013   6.521
 3976SOL    HW212828   1.172   3.115   6.621
 3977SOL     OW12829   4.377   6.634   6.372
 3977SOL    HW112830   4.462   6.625   6.425
 3977SOL    HW212831   4.299   6.633   6.435
 3978SOL     OW12832   6.129   3.319   6.783
 3978SOL    HW112833   6.082   3.407   6.792
 3978SOL    HW212834   6.068   3.246   6.815
 3979SOL     OW12835   1.477   6.756   3.247
 3979SOL    HW112836   1.470   6.771   3.148
 3979SOL    HW212837   1.426   6.673   3.271
 3980SOL     OW12838   4.927   3.486   4.815
 3980SOL    HW112839   5.016   3.531   4.810
 3980SOL    HW212840   4.872   3.529   4.887
 3981SOL     OW12841   6.095   1.683   5.402
 3981SOL    HW112842   6.124   1.587   5.394
 3981SOL    HW212843   6.142   1.725   5.479
 3982SOL     OW12844   3.452   1.839   3.935
 3982SOL    HW112845   3.482   1.809   3.844
 3982SOL    HW212846   3.508   1.794   4.005
 3983SOL     OW12847   3.605   6.658   3.864
 3983SOL    HW112848   3.576   6.748   3.829
 3983SOL    HW212849   3.585   6.588   3.795
 3984SOL     OW12850   1.631   6.764   1.752
 3984SOL    HW112851   1.550   6.797   1.799
 3984SOL    HW212852   1.671   6.837   1.697
 3985SOL     OW12853   1.513   3.591   1.853
 3985SOL    HW112854   1.453   3.585   1.773
 3985SOL    HW212855   1.595   3.643   1.829
 3986SOL     OW12856   1.300   2.916   2.143
 3986SOL    HW112857   1.324   2.829   2.185
 3986SOL    HW212858   1.333   2.991   2.200
 3987SOL     OW12859   2.472   4.892   6.232
 3987SOL    HW112860   2.476   4.888   6.132
 3987SOL    HW212861   2.559   4.861   6.270
 3988SOL     OW12862   4.289   1.989   0.026
 3988SOL    HW112863   4.217   2.057   0.009
 3988SOL    HW212864   4.260   1.900   7.009
 3989SOL     OW12865   4.340   1.220   6.548
 3989SOL    HW112866   4.305   1.137   6.591
 3989SOL    HW212867   4.413   1.258   6.605
 3990SOL     OW12868   1.079   3.260   3.673
 3990SOL    HW112869   1.006   3.205   3.631
 3990SOL    HW212870   1.054   3.284   3.766
 3991SOL     OW12871   6.887   1.404   4.345
 3991SOL    HW112872   6.860   1.463   4.269
 3991SOL    HW212873   6.808   1.389   4.405
 3992SOL     OW12874   5.061   4.175   5.997
 3992SOL    HW112875   5.143   4.173   6.054
 3992SOL    HW212876   5.049   4.087   5.951
 3993SOL     OW12877   1.610   1.364   3.094
 3993SOL    HW112878   1.558   1.449   3.103
 3993SOL    HW212879   1.550   1.286   3.113
 3994SOL     OW12880   2.359   2.017   3.937
 3994SOL    HW112881   2.331   1.921   3.948
 3994SOL    HW212882   2.454   2.020   3.905
 3995SOL     OW12883   1.676   3.790   2.094
 3995SOL    HW112884   1.689   3.707   2.149
 3995SOL    HW212885   1.698   3.769   1.998
 3996SOL     OW12886   5.649   6.857   3.011
 3996SOL    HW112887   5.562   6.888   2.974
 3996SOL    HW212888   5.634   6.777   3.070
 3997SOL     OW12889   5.656   3.915   3.100
 3997SOL    HW112890   5.708   3.959   3.026
 3997SOL    HW212891   5.620   3.828   3.068
 3998SOL     OW12892   6.178   2.232   2.954
 3998SOL    HW112893   6.197   2.137   2.979
 3998SOL    HW212894   6.169   2.239   2.855
 3999SOL     OW12895   4.977   2.664   1.320
 3999SOL    HW112896   5.000   2.632   1.228
 3999SOL    HW212897   5.060   2.700   1.363
 4000SOL     OW12898   3.350   5.542   2.128
 4000SOL    HW112899   3.441   5.552   2.168
 4000SOL    HW212900   3.359   5.519   2.031
 4001SOL     OW12901   2.061   4.489   4.736
 4001SOL    HW112902   2.010   4.409   4.705
 4001SOL    HW212903   2.050   4.500   4.835
 4002SOL     OW12904   3.541   4.169   3.503
 4002SOL    HW112905   3.441   4.172   3.494
 4002SOL    HW212906   3.582   4.212   3.422
 4003SOL     OW12907   3.087   0.956   5.330
 4003SOL    HW112908   3.092   1.051   5.301
 4003SOL    HW212909   2.996   0.937   5.366
 4004SOL     OW12910   0.997   3.847   3.477
 4004SOL    HW112911   1.019   3.752   3.498
 4004SOL    HW212912   1.066   3.907   3.518
 4005SOL     OW12913   5.092   2.822   0.708
 4005SOL    HW112914   4.997   2.851   0.706
 4005SOL    HW212915   5.152   2.902   0.698
 4006SOL     OW12916   4.711   5.060   3.608
 4006SOL    HW112917   4.716   5.146   3.556
 4006SOL    HW212918   4.680   4.987   3.547
 4007SOL     OW12919   6.729   1.207   3.217
 4007SOL    HW112920   6.803   1.235   3.278
 4007SOL    HW212921   6.714   1.109   3.226
 4008SOL     OW12922   3.356   0.433   0.881
 4008SOL    HW112923   3.270   0.433   0.831
 4008SOL    HW212924   3.426   0.480   0.827
 4009SOL     OW12925   4.688   2.070   0.747
 4009SOL    HW112926   4.597   2.032   0.762
 4009SOL    HW212927   4.747   1.999   0.706
 4010SOL     OW12928   2.398   4.720   1.755
 4010SOL    HW112929   2.385   4.657   1.832
 4010SOL    HW212930   2.460   4.794   1.782
 4011SOL     OW12931   5.361   5.751   6.997
 4011SOL    HW112932   5.418   5.828   6.965
 4011SOL    HW212933   5.406   5.665   6.975
 4012SOL     OW12934   4.422   0.616   2.487
 4012SOL    HW112935   4.341   0.642   2.539
 4012SOL    HW212936   4.502   0.614   2.548
 4013SOL     OW12937   0.143   1.273   6.472
 4013SOL    HW112938   0.144   1.237   6.379
 4013SOL    HW212939   0.161   1.198   6.537
 4014SOL     OW12940   3.029   4.959   2.408
 4014SOL    HW112941   3.111   5.017   2.413
 4014SOL    HW212942   2.962   5.001   2.347
 4015SOL     OW12943   4.009   4.514   6.161
 4015SOL    HW112944   4.054   4.425   6.171
 4015SOL    HW212945   3.910   4.501   6.150
 4016SOL     OW12946   3.962   5.651   5.922
 4016SOL    HW112947   3.877   5.600   5.904
 4016SOL    HW212948   4.039   5.587   5.922
 4017SOL     OW12949   0.735   5.053   6.121
 4017SOL    HW112950   0.803   5.023   6.189
 4017SOL    HW212951   0.710   4.975   6.063
 4018SOL     OW12952   4.600   6.474   1.961
 4018SOL    HW112953   4.657   6.435   1.888
 4018SOL    HW212954   4.652   6.543   2.011
 4019SOL     OW12955   5.141   3.397   3.489
 4019SOL    HW112956   5.173   3.302   3.481
 4019SOL    HW212957   5.215   3.454   3.524
 4020SOL     OW12958   6.301   5.053   3.808
 4020SOL    HW112959   6.255   5.104   3.880
 4020SOL    HW212960   6.361   5.114   3.756
 4021SOL     OW12961   4.019   3.434   6.008
 4021SOL    HW112962   4.080   3.373   5.957
 4021SOL    HW212963   3.949   3.380   6.055
 4022SOL     OW12964   2.479   0.755   1.528
 4022SOL    HW112965   2.423   0.742   1.446
 4022SOL    HW212966   2.576   0.746   1.505
 4023SOL     OW12967   0.664   2.141   5.212
 4023SOL    HW112968   0.639   2.237   5.228
 4023SOL    HW212969   0.623   2.110   5.126
 4024SOL     OW12970   0.475   5.201   4.583
 4024SOL    HW112971   0.500   5.295   4.559
 4024SOL    HW212972   0.558   5.146   4.594
 4025SOL     OW12973   0.855   5.879   4.283
 4025SOL    HW112974   0.911   5.801   4.310
 4025SOL    HW212975   0.914   5.959   4.272
 4026SOL     OW12976   6.486   6.194   3.553
 4026SOL    HW112977   6.456   6.100   3.567
 4026SOL    HW212978   6.409   6.256   3.566
 4027SOL     OW12979   2.781   4.077   5.582
 4027SOL    HW112980   2.692   4.033   5.576
 4027SOL    HW212981   2.853   4.009   5.563
 4028SOL     OW12982   4.770   1.735   2.752
 4028SOL    HW112983   4.752   1.832   2.733
 4028SOL    HW212984   4.705   1.703   2.821
 4029SOL     OW12985   2.201   5.517   6.399
 4029SOL    HW112986   2.113   5.471   6.400
 4029SOL    HW212987   2.188   5.614   6.379
 4030SOL     OW12988   0.325   1.162   2.553
 4030SOL    HW112989   0.227   1.167   2.533
 4030SOL    HW212990   0.342   1.205   2.642
 4031SOL     OW12991   5.517   6.763   1.088
 4031SOL    HW112992   5.491   6.856   1.116
 4031SOL    HW212993   5.574   6.722   1.159
 4032SOL     OW12994   5.748   0.345   1.281
 4032SOL    HW112995   5.775   0.314   1.190
 4032SOL    HW212996   5.828   0.382   1.329
 4033SOL     OW12997   2.327   2.593   2.762
 4033SOL    HW112998   2.411   2.540   2.776
 4033SOL    HW212999   2.329   2.674   2.822
 4034SOL     OW13000   0.268   3.048   5.267
 4034SOL    HW113001   0.210   3.009   5.196
 4034SOL    HW213002   0.226   3.133   5.302
 4035SOL     OW13003   5.531   1.892   1.611
 4035SOL    HW113004   5.436   1.870   1.632
 4035SOL    HW213005   5.586   1.809   1.617
 4036SOL     OW13006   2.620   5.583   3.360
 4036SOL    HW113007   2.527   5.609   3.332
 4036SOL    HW213008   2.618   5.550   3.454
 4037SOL     OW13009   2.489   0.876   6.191
 4037SOL    HW113010   2.463   0.912   6.101
 4037SOL    HW213011   2.497   0.952   6.255
 4038SOL     OW13012   3.489   4.136   5.898
 4038SOL    HW113013   3.555   4.071   5.861
 4038SOL    HW213014   3.459   4.198   5.826
 4039SOL     OW13015   6.113   4.810   1.528
 4039SOL    HW113016   6.090   4.851   1.439
 4039SOL    HW213017   6.069   4.862   1.601
 4040SOL     OW13018   3.444   5.185   5.307
 4040SOL    HW113019   3.439   5.106   5.368
 4040SOL    HW213020   3.537   5.221   5.307
 4041SOL     OW13021   2.338   6.252   1.005
 4041SOL    HW113022   2.414   6.189   1.023
 4041SOL    HW213023   2.251   6.206   1.021
 4042SOL     OW13024   6.120   0.703   3.746
 4042SOL    HW113025   6.092   0.774   3.811
 4042SOL    HW213026   6.186   0.742   3.682
 4043SOL     OW13027   5.228   3.764   6.457
 4043SOL    HW113028   5.268   3.673   6.466
 4043SOL    HW213029   5.267   3.809   6.376
 4044SOL     OW13030   3.997   5.254   3.443
 4044SOL    HW113031   4.057   5.224   3.370
 4044SOL    HW213032   4.005   5.192   3.521
 4045SOL     OW13033   5.182   6.980   5.513
 4045SOL    HW113034   5.192   6.983   5.413
 4045SOL    HW213035   5.096   6.937   5.537
 4046SOL     OW13036   0.001   1.875   2.867
 4046SOL    HW113037   6.938   1.845   2.916
 4046SOL    HW213038   7.008   1.860   2.769
 4047SOL     OW13039   2.596   3.047   6.366
 4047SOL    HW113040   2.679   3.068   6.315
 4047SOL    HW213041   2.585   3.114   6.440
 4048SOL     OW13042   4.535   1.295   1.882
 4048SOL    HW113043   4.569   1.318   1.791
 4048SOL    HW213044   4.444   1.255   1.874
 4049SOL     OW13045   4.182   5.087   6.371
 4049SOL    HW113046   4.224   5.023   6.307
 4049SOL    HW213047   4.205   5.061   6.465
 4050SOL     OW13048   0.258   5.295   2.494
 4050SOL    HW113049   0.297   5.377   2.537
 4050SOL    HW213050   0.316   5.217   2.514
 4051SOL     OW13051   5.156   1.107   5.837
 4051SOL    HW113052   5.206   1.040   5.782
 4051SOL    HW213053   5.061   1.078   5.847
 4052SOL     OW13054   6.105   2.346   3.692
 4052SOL    HW113055   6.182   2.327   3.752
 4052SOL    HW213056   6.030   2.384   3.747
 4053SOL     OW13057   0.985   5.718   4.820
 4053SOL    HW113058   0.972   5.815   4.799
 4053SOL    HW213059   1.074   5.688   4.785
 4054SOL     OW13060   5.019   4.318   0.984
 4054SOL    HW113061   5.096   4.299   0.922
 4054SOL    HW213062   4.983   4.409   0.966
 4055SOL     OW13063   1.168   3.771   1.699
 4055SOL    HW113064   1.100   3.802   1.632
 4055SOL    HW213065   1.226   3.701   1.658
 4056SOL     OW13066   4.676   3.287   0.636
 4056SOL    HW113067   4.664   3.246   0.727
 4056SOL    HW213068   4.770   3.322   0.628
 4057SOL     OW13069   6.629   3.789   6.723
 4057SOL    HW113070   6.569   3.710   6.732
 4057SOL    HW213071   6.696   3.772   6.650
 4058SOL     OW13072   2.611   6.165   5.383
 4058SOL    HW113073   2.618   6.199   5.289
 4058SOL    HW213074   2.543   6.220   5.433
 4059SOL     OW13075   0.962   1.868   3.892
 4059SOL    HW113076   1.048   1.858   3.944
 4059SOL    HW213077   0.885   1.870   3.956
 4060SOL     OW13078   6.442   5.568   5.360
 4060SOL    HW113079   6.454   5.647   5.299
 4060SOL    HW213080   6.395   5.597   5.443
 4061SOL     OW13081   2.710   5.403   1.821
 4061SOL    HW113082   2.726   5.456   1.738
 4061SOL    HW213083   2.775   5.327   1.825
 4062SOL     OW13084   2.034   1.722   1.642
 4062SOL    HW113085   2.025   1.628   1.677
 4062SOL    HW213086   2.105   1.724   1.571
 4063SOL     OW13087   5.533   1.329   0.726
 4063SOL    HW113088   5.490   1.387   0.657
 4063SOL    HW213089   5.472   1.253   0.749
 4064SOL     OW13090   1.749   1.777   4.819
 4064SOL    HW113091   1.793   1.802   4.905
 4064SOL    HW213092   1.790   1.830   4.744
 4065SOL     OW13093   1.879   6.992   0.440
 4065SOL    HW113094   1.923   6.915   0.487
 4065SOL    HW213095   1.937   0.003   0.365
 4066SOL     OW13096   0.125   4.199   3.480
 4066SOL    HW113097   0.153   4.295   3.481
 4066SOL    HW213098   0.184   4.146   3.541
 4067SOL     OW13099   5.770   4.812   2.315
 4067SOL    HW113100   5.864   4.802   2.349
 4067SOL    HW213101   5.719   4.873   2.376
 4068SOL     OW13102   1.648   2.651   5.551
 4068SOL    HW113103   1.688   2.606   5.632
 4068SOL    HW213104   1.642   2.749   5.567
 4069SOL     OW13105   4.130   0.280   6.801
 4069SOL    HW113106   4.117   0.321   6.711
 4069SOL    HW213107   4.204   0.213   6.797
 4070SOL     OW13108   1.403   2.870   3.238
 4070SOL    HW113109   1.424   2.778   3.205
 4070SOL    HW213110   1.486   2.913   3.273
 4071SOL     OW13111   0.661   0.356   4.045
 4071SOL    HW113112   0.746   0.305   4.028
 4071SOL    HW213113   0.602   0.349   3.965
 4072SOL     OW13114   1.567   5.631   3.756
 4072SOL    HW113115   1.474   5.599   3.735
 4072SOL    HW213116   1.577   5.726   3.725
 4073SOL     OW13117   2.714   5.187   0.080
 4073SOL    HW113118   2.655   5.153   0.153
 4073SOL    HW213119   2.809   5.170   0.104
 4074SOL     OW13120   1.224   5.728   2.549
 4074SOL    HW113121   1.230   5.637   2.591
 4074SOL    HW213122   1.283   5.791   2.599
 4075SOL     OW13123   4.999   0.275   0.316
 4075SOL    HW113124   4.933   0.260   0.390
 4075SOL    HW213125   4.969   0.225   0.235
 4076SOL     OW13126   3.126   3.640   5.389
 4076SOL    HW113127   3.031   3.617   5.408
 4076SOL    HW213128   3.138   3.654   5.291
 4077SOL     OW13129   3.892   2.035   1.610
 4077SOL    HW113130   3.973   1.980   1.626
 4077SOL    HW213131   3.833   2.031   1.690
 4078SOL     OW13132   2.979   4.826   2.930
 4078SOL    HW113133   3.072   4.822   2.892
 4078SOL    HW213134   2.976   4.897   3.001
 4079SOL     OW13135   1.181   2.556   4.233
 4079SOL    HW113136   1.172   2.557   4.133
 4079SOL    HW213137   1.277   2.546   4.258
 4080SOL     OW13138   5.520   1.408   5.099
 4080SOL    HW113139   5.488   1.363   5.182
 4080SOL    HW213140   5.490   1.356   5.019
 4081SOL     OW13141   1.682   3.575   3.437
 4081SOL    HW113142   1.745   3.651   3.419
 4081SOL    HW213143   1.590   3.600   3.406
 4082SOL     OW13144   1.220   3.443   1.139
 4082SOL    HW113145   1.133   3.446   1.089
 4082SOL    HW213146   1.225   3.519   1.203
 4083SOL     OW13147   5.348   2.795   3.985
 4083SOL    HW113148   5.390   2.790   4.075
 4083SOL    HW213149   5.335   2.891   3.959
 4084SOL     OW13150   6.420   1.908   4.461
 4084SOL    HW113151   6.348   1.866   4.405
 4084SOL    HW213152   6.448   1.995   4.421
 4085SOL     OW13153   3.637   5.792   0.377
 4085SOL    HW113154   3.689   5.872   0.406
 4085SOL    HW213155   3.649   5.718   0.444
 4086SOL     OW13156   1.779   5.712   1.413
 4086SOL    HW113157   1.802   5.810   1.410
 4086SOL    HW213158   1.856   5.661   1.452
 4087SOL     OW13159   2.483   2.179   3.159
 4087SOL    HW113160   2.459   2.225   3.244
 4087SOL    HW213161   2.582   2.165   3.155
 4088SOL     OW13162   6.431   1.529   1.354
 4088SOL    HW113163   6.353   1.547   1.413
 4088SOL    HW213164   6.490   1.609   1.351
 4089SOL     OW13165   0.592   1.440   3.892
 4089SOL    HW113166   0.498   1.428   3.923
 4089SOL    HW213167   0.592   1.483   3.802
 4090SOL     OW13168   2.526   3.998   6.137
 4090SOL    HW113169   2.552   4.062   6.065
 4090SOL    HW213170   2.436   3.960   6.117
 4091SOL     OW13171   5.044   6.274   0.441
 4091SOL    HW113172   5.132   6.234   0.468
 4091SOL    HW213173   4.996   6.211   0.380
 4092SOL     OW13174   0.514   2.976   5.186
 4092SOL    HW113175   0.525   2.877   5.186
 4092SOL    HW213176   0.420   2.999   5.210
 4093SOL     OW13177   5.628   0.919   3.220
 4093SOL    HW113178   5.666   0.916   3.312
 4093SOL    HW213179   5.662   0.842   3.166
 4094SOL     OW13180   1.968   4.263   5.274
 4094SOL    HW113181   2.005   4.206   5.202
 4094SOL    HW213182   1.882   4.223   5.307
 4095SOL     OW13183   1.171   3.044   5.973
 4095SOL    HW113184   1.221   3.129   5.955
 4095SOL    HW213185   1.152   3.037   6.071
 4096SOL     OW13186   4.733   5.163   6.924
 4096SOL    HW113187   4.782   5.222   6.860
 4096SOL    HW213188   4.790   5.147   7.005
 4097SOL     OW13189   3.324   3.458   5.958
 4097SOL    HW113190   3.420   3.436   5.940
 4097SOL    HW213191   3.301   3.545   5.912
 4098SOL     OW13192   0.432   2.874   2.926
 4098SOL    HW113193   0.381   2.836   3.003
 4098SOL    HW213194   0.527   2.886   2.952
 4099SOL     OW13195   3.147   5.805   1.726
 4099SOL    HW113196   3.204   5.861   1.665
 4099SOL    HW213197   3.052   5.832   1.717
 4100SOL     OW13198   4.798   6.016   3.630
 4100SOL    HW113199   4.841   5.964   3.556
 4100SOL    HW213200   4.706   6.045   3.602
 4101SOL     OW13201   5.898   1.552   6.415
 4101SOL    HW113202   5.919   1.462   6.376
 4101SOL    HW213203   5.832   1.543   6.489
 4102SOL     OW13204   5.885   0.556   0.686
 4102SOL    HW113205   5.923   0.591   0.771
 4102SOL    HW213206   5.891   0.626   0.615
 4103SOL     OW13207   0.912   0.975   2.123
 4103SOL    HW113208   0.837   1.012   2.178
 4103SOL    HW213209   0.882   0.890   2.080
 4104SOL     OW13210   1.518   4.219   2.434
 4104SOL    HW113211   1.444   4.163   2.396
 4104SOL    HW213212   1.591   4.159   2.467
 4105SOL     OW13213   3.920   5.473   0.526
 4105SOL    HW113214   3.867   5.465   0.442
 4105SOL    HW213215   4.018   5.473   0.504
 4106SOL     OW13216   0.248   3.913   4.875
 4106SOL    HW113217   0.279   3.852   4.801
 4106SOL    HW213218   0.230   3.859   4.957
 4107SOL     OW13219   0.305   6.303   1.315
 4107SOL    HW113220   0.258   6.301   1.403
 4107SOL    HW213221   0.240   6.327   1.243
 4108SOL     OW13222   0.076   4.247   6.581
 4108SOL    HW113223   0.073   4.205   6.672
 4108SOL    HW213224   0.014   4.326   6.579
 4109SOL     OW13225   3.851   6.659   3.971
 4109SOL    HW113226   3.893   6.750   3.967
 4109SOL    HW213227   3.772   6.656   3.910
 4110SOL     OW13228   4.506   3.429   6.077
 4110SOL    HW113229   4.522   3.513   6.129
 4110SOL    HW213230   4.553   3.435   5.989
 4111SOL     OW13231   3.889   2.651   0.257
 4111SOL    HW113232   3.879   2.750   0.264
 4111SOL    HW213233   3.932   2.628   0.169
 4112SOL     OW13234   4.424   1.398   4.899
 4112SOL    HW113235   4.328   1.427   4.898
 4112SOL    HW213236   4.483   1.477   4.885
 4113SOL     OW13237   3.430   5.478   5.513
 4113SOL    HW113238   3.485   5.402   5.478
 4113SOL    HW213239   3.479   5.522   5.589
 4114SOL     OW13240   3.421   1.369   4.428
 4114SOL    HW113241   3.498   1.419   4.390
 4114SOL    HW213242   3.342   1.376   4.367
 4115SOL     OW13243   4.814   5.801   2.032
 4115SOL    HW113244   4.896   5.756   2.068
 4115SOL    HW213245   4.823   5.900   2.044
 4116SOL     OW13246   3.732   2.007   1.841
 4116SOL    HW113247   3.728   2.082   1.906
 4116SOL    HW213248   3.639   1.980   1.814
 4117SOL     OW13249   1.144   5.106   1.020
 4117SOL    HW113250   1.133   5.189   0.966
 4117SOL    HW213251   1.202   5.125   1.100
 4118SOL     OW13252   1.233   6.798   1.306
 4118SOL    HW113253   1.252   6.759   1.215
 4118SOL    HW213254   1.273   6.739   1.376
 4119SOL     OW13255   3.725   0.956   4.550
 4119SOL    HW113256   3.740   1.043   4.504
 4119SOL    HW213257   3.772   0.955   4.638
 4120SOL     OW13258   4.381   6.626   1.994
 4120SOL    HW113259   4.348   6.698   1.932
 4120SOL    HW213260   4.465   6.586   1.956
 4121SOL     OW13261   6.512   2.384   4.485
 4121SOL    HW113262   6.487   2.400   4.581
 4121SOL    HW213263   6.576   2.456   4.456
 4122SOL     OW13264   0.476   6.608   5.314
 4122SOL    HW113265   0.541   6.666   5.264
 4122SOL    HW213266   0.387   6.653   5.318
 4123SOL     OW13267   5.519   4.229   6.190
 4123SOL    HW113268   5.595   4.288   6.162
 4123SOL    HW213269   5.553   4.136   6.204
 4124SOL     OW13270   5.541   6.634   3.739
 4124SOL    HW113271   5.465   6.619   3.675
 4124SOL    HW213272   5.504   6.651   3.831
 4125SOL     OW13273   4.681   0.979   1.582
 4125SOL    HW113274   4.662   0.904   1.520
 4125SOL    HW213275   4.622   1.057   1.560
 4126SOL     OW13276   1.710   4.441   4.546
 4126SOL    HW113277   1.611   4.453   4.550
 4126SOL    HW213278   1.752   4.528   4.521
 4127SOL     OW13279   5.346   3.379   4.854
 4127SOL    HW113280   5.316   3.292   4.815
 4127SOL    HW213281   5.440   3.371   4.887
 4128SOL     OW13282   1.542   3.548   2.391
 4128SOL    HW113283   1.637   3.550   2.421
 4128SOL    HW213284   1.537   3.545   2.291
 4129SOL     OW13285   5.950   2.052   6.373
 4129SOL    HW113286   6.033   2.095   6.336
 4129SOL    HW213287   5.948   1.956   6.347
 4130SOL     OW13288   6.529   3.997   6.094
 4130SOL    HW113289   6.454   3.930   6.088
 4130SOL    HW213290   6.602   3.970   6.031
 4131SOL     OW13291   7.008   5.689   4.102
 4131SOL    HW113292   0.076   5.675   4.149
 4131SOL    HW213293   7.016   5.660   4.006
 4132SOL     OW13294   5.181   3.121   3.492
 4132SOL    HW113295   5.224   3.052   3.434
 4132SOL    HW213296   5.084   3.099   3.504
 4133SOL     OW13297   2.983   0.781   1.174
 4133SOL    HW113298   3.040   0.702   1.150
 4133SOL    HW213299   2.887   0.759   1.157
 4134SOL     OW13300   2.238   1.944   1.041
 4134SOL    HW113301   2.296   1.865   1.057
 4134SOL    HW213302   2.180   1.928   0.961
 4135SOL     OW13303   1.663   0.458   2.663
 4135SOL    HW113304   1.703   0.497   2.580
 4135SOL    HW213305   1.700   0.367   2.679
 4136SOL     OW13306   0.234   2.414   4.067
 4136SOL    HW113307   0.183   2.500   4.067
 4136SOL    HW213308   0.177   2.341   4.106
 4137SOL     OW13309   3.439   3.918   6.825
 4137SOL    HW113310   3.471   4.013   6.823
 4137SOL    HW213311   3.399   3.898   6.914
 4138SOL     OW13312   4.911   4.608   4.484
 4138SOL    HW113313   4.923   4.510   4.467
 4138SOL    HW213314   4.815   4.633   4.472
 4139SOL     OW13315   1.589   2.274   6.058
 4139SOL    HW113316   1.518   2.315   6.000
 4139SOL    HW213317   1.678   2.311   6.032
 4140SOL     OW13318   4.118   1.425   5.392
 4140SOL    HW113319   4.173   1.448   5.312
 4140SOL    HW213320   4.051   1.497   5.408
 4141SOL     OW13321   5.256   5.144   1.451
 4141SOL    HW113322   5.347   5.102   1.451
 4141SOL    HW213323   5.259   5.229   1.505
 4142SOL     OW13324   6.799   4.717   0.797
 4142SOL    HW113325   6.709   4.695   0.759
 4142SOL    HW213326   6.811   4.668   0.884
 4143SOL     OW13327   6.931   2.812   0.820
 4143SOL    HW113328   6.914   2.905   0.788
 4143SOL    HW213329   6.847   2.775   0.861
 4144SOL     OW13330   5.498   1.691   1.806
 4144SOL    HW113331   5.416   1.742   1.783
 4144SOL    HW213332   5.538   1.728   1.890
 4145SOL     OW13333   0.537   6.473   1.514
 4145SOL    HW113334   0.547   6.375   1.530
 4145SOL    HW213335   0.614   6.521   1.555
 4146SOL     OW13336   5.710   0.194   6.342
 4146SOL    HW113337   5.759   0.145   6.270
 4146SOL    HW213338   5.765   0.196   6.425
 4147SOL     OW13339   3.666   2.011   6.472
 4147SOL    HW113340   3.638   2.040   6.380
 4147SOL    HW213341   3.604   1.940   6.505
 4148SOL     OW13342   0.463   0.563   4.087
 4148SOL    HW113343   0.527   0.488   4.073
 4148SOL    HW213344   0.499   0.647   4.046
 4149SOL     OW13345   6.242   2.850   0.485
 4149SOL    HW113346   6.253   2.946   0.510
 4149SOL    HW213347   6.302   2.794   0.543
 4150SOL     OW13348   5.683   0.409   6.202
 4150SOL    HW113349   5.594   0.447   6.178
 4150SOL    HW213350   5.671   0.321   6.249
 4151SOL     OW13351   6.576   5.895   0.291
 4151SOL    HW113352   6.492   5.847   0.265
 4151SOL    HW213353   6.609   5.949   0.214
 4152SOL     OW13354   4.432   4.977   2.192
 4152SOL    HW113355   4.441   5.002   2.289
 4152SOL    HW213356   4.442   5.059   2.136
 4153SOL     OW13357   5.831   5.344   6.496
 4153SOL    HW113358   5.898   5.339   6.570
 4153SOL    HW213359   5.825   5.438   6.461
 4154SOL     OW13360   6.412   3.694   4.778
 4154SOL    HW113361   6.369   3.694   4.688
 4154SOL    HW213362   6.415   3.601   4.813
 4155SOL     OW13363   0.768   3.678   2.400
 4155SOL    HW113364   0.840   3.738   2.363
 4155SOL    HW213365   0.809   3.592   2.430
 4156SOL     OW13366   5.917   6.748   5.453
 4156SOL    HW113367   5.858   6.756   5.373
 4156SOL    HW213368   5.920   6.653   5.483
 4157SOL     OW13369   4.305   0.612   3.952
 4157SOL    HW113370   4.309   0.648   3.859
 4157SOL    HW213371   4.329   0.684   4.017
 4158SOL     OW13372   0.932   5.255   3.263
 4158SOL    HW113373   0.846   5.299   3.237
 4158SOL    HW213374   0.920   5.155   3.263
 4159SOL     OW13375   1.491   3.042   3.613
 4159SOL    HW113376   1.451   3.129   3.642
 4159SOL    HW213377   1.542   3.056   3.528
 4160SOL     OW13378   6.380   0.099   0.375
 4160SOL    HW113379   6.301   0.157   0.356
 4160SOL    HW213380   6.451   0.153   0.420
 4161SOL     OW13381   1.632   0.945   6.350
 4161SOL    HW113382   1.712   0.938   6.410
 4161SOL    HW213383   1.579   0.861   6.355
 4162SOL     OW13384   6.241   6.981   4.714
 4162SOL    HW113385   6.252   0.059   4.736
 4162SOL    HW213386   6.330   6.940   4.697
 4163SOL     OW13387   5.371   1.307   3.229
 4163SOL    HW113388   5.354   1.349   3.140
 4163SOL    HW213389   5.409   1.376   3.292
 4164SOL     OW13390   1.886   0.804   6.497
 4164SOL    HW113391   1.861   0.721   6.447
 4164SOL    HW213392   1.975   0.792   6.541
 4165SOL     OW13393   3.977   6.429   0.651
 4165SOL    HW113394   3.974   6.521   0.689
 4165SOL    HW213395   4.062   6.416   0.599
 4166SOL     OW13396   4.353   2.741   0.736
 4166SOL    HW113397   4.405   2.655   0.739
 4166SOL    HW213398   4.299   2.744   0.652
 4167SOL     OW13399   1.940   2.521   1.748
 4167SOL    HW113400   1.999   2.539   1.669
 4167SOL    HW213401   1.981   2.561   1.830
 4168SOL     OW13402   0.143   5.431   1.938
 4168SOL    HW113403   0.189   5.370   1.874
 4168SOL    HW213404   0.059   5.388   1.971
 4169SOL     OW13405   4.962   3.807   3.902
 4169SOL    HW113406   4.984   3.813   3.999
 4169SOL    HW213407   4.922   3.717   3.883
 4170SOL     OW13408   3.962   2.786   5.607
 4170SOL    HW113409   4.043   2.728   5.615
 4170SOL    HW213410   3.952   2.816   5.512
 4171SOL     OW13411   5.192   3.747   1.251
 4171SOL    HW113412   5.177   3.672   1.315
 4171SOL    HW213413   5.105   3.774   1.210
 4172SOL     OW13414   0.150   1.996   0.976
 4172SOL    HW113415   0.221   2.049   1.020
 4172SOL    HW213416   0.116   2.045   0.896
 4173SOL     OW13417   5.645   2.666   5.253
 4173SOL    HW113418   5.627   2.650   5.155
 4173SOL    HW213419   5.609   2.589   5.306
 4174SOL     OW13420   4.498   0.531   3.695
 4174SOL    HW113421   4.430   0.470   3.655
 4174SOL    HW213422   4.528   0.495   3.783
 4175SOL     OW13423   3.182   0.184   3.844
 4175SOL    HW113424   3.097   0.236   3.827
 4175SOL    HW213425   3.216   0.149   3.757
 4176SOL     OW13426   4.723   0.095   2.655
 4176SOL    HW113427   4.764   0.161   2.591
 4176SOL    HW213428   4.724   0.135   2.747
 4177SOL     OW13429   0.300   5.988   3.846
 4177SOL    HW113430   0.298   6.003   3.945
 4177SOL    HW213431   0.338   5.898   3.826
 4178SOL     OW13432   3.160   1.651   6.097
 4178SOL    HW113433   3.219   1.704   6.037
 4178SOL    HW213434   3.065   1.660   6.067
 4179SOL     OW13435   5.898   3.474   5.239
 4179SOL    HW113436   5.968   3.406   5.261
 4179SOL    HW213437   5.808   3.430   5.234
 4180SOL     OW13438   5.129   4.370   1.419
 4180SOL    HW113439   5.070   4.318   1.482
 4180SOL    HW213440   5.145   4.461   1.457
 4181SOL     OW13441   0.770   1.699   6.317
 4181SOL    HW113442   0.735   1.614   6.356
 4181SOL    HW213443   0.852   1.727   6.367
 4182SOL     OW13444   0.209   0.444   2.126
 4182SOL    HW113445   0.235   0.518   2.064
 4182SOL    HW213446   0.154   0.481   2.201
 4183SOL     OW13447   2.668   1.741   2.022
 4183SOL    HW113448   2.624   1.826   1.993
 4183SOL    HW213449   2.605   1.687   2.078
 4184SOL     OW13450   3.783   5.209   0.282
 4184SOL    HW113451   3.831   5.288   0.243
 4184SOL    HW213452   3.821   5.188   0.372
 4185SOL     OW13453   0.132   0.103   3.173
 4185SOL    HW113454   0.208   0.040   3.163
 4185SOL    HW213455   0.064   0.085   3.102
 4186SOL     OW13456   2.444   3.816   0.465
 4186SOL    HW113457   2.471   3.746   0.531
 4186SOL    HW213458   2.475   3.790   0.373
 4187SOL     OW13459   3.671   3.102   6.565
 4187SOL    HW113460   3.592   3.145   6.522
 4187SOL    HW213461   3.754   3.151   6.538
 4188SOL     OW13462   5.033   0.162   3.777
 4188SOL    HW113463   5.114   0.164   3.719
 4188SOL    HW213464   5.060   0.169   3.873
 4189SOL     OW13465   2.664   1.624   4.231
 4189SOL    HW113466   2.632   1.630   4.136
 4189SOL    HW213467   2.751   1.672   4.240
 4190SOL     OW13468   3.067   0.477   6.650
 4190SOL    HW113469   3.106   0.524   6.571
 4190SOL    HW213470   2.970   0.460   6.635
 4191SOL     OW13471   6.387   3.048   3.414
 4191SOL    HW113472   6.340   3.119   3.361
 4191SOL    HW213473   6.372   2.959   3.372
 4192SOL     OW13474   5.706   1.385   2.983
 4192SOL    HW113475   5.768   1.343   2.917
 4192SOL    HW213476   5.660   1.314   3.036
 4193SOL     OW13477   2.233   6.704   2.592
 4193SOL    HW113478   2.275   6.783   2.548
 4193SOL    HW213479   2.134   6.716   2.594
 4194SOL     OW13480   6.720   1.830   4.315
 4194SOL    HW113481   6.739   1.928   4.306
 4194SOL    HW213482   6.735   1.802   4.409
 4195SOL     OW13483   5.503   0.371   1.127
 4195SOL    HW113484   5.571   0.366   1.200
 4195SOL    HW213485   5.432   0.302   1.142
 4196SOL     OW13486   5.071   2.855   4.570
 4196SOL    HW113487   5.046   2.776   4.514
 4196SOL    HW213488   5.140   2.909   4.522
 4197SOL     OW13489   5.208   4.413   4.461
 4197SOL    HW113490   5.307   4.431   4.461
 4197SOL    HW213491   5.187   4.346   4.532
 4198SOL     OW13492   5.822   3.814   6.739
 4198SOL    HW113493   5.743   3.771   6.696
 4198SOL    HW213494   5.814   3.913   6.732
 4199SOL     OW13495   3.126   3.655   5.107
 4199SOL    HW113496   3.152   3.691   5.017
 4199SOL    HW213497   3.035   3.613   5.101
 4200SOL     OW13498   2.064   0.041   6.578
 4200SOL    HW113499   2.099   0.091   6.657
 4200SOL    HW213500   2.014   6.980   6.610
 4201SOL     OW13501   6.062   0.007   3.470
 4201SOL    HW113502   6.124   6.971   3.526
 4201SOL    HW213503   6.106   0.094   3.448
 4202SOL     OW13504   5.654   4.977   5.659
 4202SOL    HW113505   5.694   5.005   5.746
 4202SOL    HW213506   5.625   5.058   5.609
 4203SOL     OW13507   5.102   5.445   2.845
 4203SOL    HW113508   5.117   5.392   2.762
 4203SOL    HW213509   5.179   5.432   2.908
 4204SOL     OW13510   3.509   3.132   1.274
 4204SOL    HW113511   3.541   3.227   1.272
 4204SOL    HW213512   3.551   3.084   1.351
 4205SOL     OW13513   3.002   5.251   4.977
 4205SOL    HW113514   3.005   5.292   5.068
 4205SOL    HW213515   3.075   5.183   4.968
 4206SOL     OW13516   4.853   0.375   4.915
 4206SOL    HW113517   4.820   0.301   4.973
 4206SOL    HW213518   4.777   0.411   4.861
 4207SOL     OW13519   1.260   0.905   1.816
 4207SOL    HW113520   1.317   0.834   1.774
 4207SOL    HW213521   1.182   0.924   1.757
 4208SOL     OW13522   1.048   2.408   0.791
 4208SOL    HW113523   1.077   2.416   0.696
 4208SOL    HW213524   0.975   2.340   0.798
 4209SOL     OW13525   2.180   0.097   4.929
 4209SOL    HW113526   2.218   0.161   4.995
 4209SOL    HW213527   2.245   0.084   4.853
 4210SOL     OW13528   3.957   3.021   0.935
 4210SOL    HW113529   4.011   2.939   0.914
 4210SOL    HW213530   3.863   3.008   0.902
 4211SOL     OW13531   4.630   4.340   4.044
 4211SOL    HW113532   4.580   4.304   3.965
 4211SOL    HW213533   4.696   4.409   4.013
 4212SOL     OW13534   6.071   1.215   3.112
 4212SOL    HW113535   6.068   1.307   3.151
 4212SOL    HW213536   6.028   1.215   3.022
 4213SOL     OW13537   1.434   0.803   2.594
 4213SOL    HW113538   1.394   0.718   2.628
 4213SOL    HW213539   1.525   0.815   2.633
 4214SOL     OW13540   0.901   3.597   5.405
 4214SOL    HW113541   0.877   3.579   5.309
 4214SOL    HW213542   0.966   3.672   5.410
 4215SOL     OW13543   0.669   5.411   4.928
 4215SOL    HW113544   0.716   5.325   4.951
 4215SOL    HW213545   0.581   5.391   4.885
 4216SOL     OW13546   1.035   2.394   4.400
 4216SOL    HW113547   1.082   2.465   4.348
 4216SOL    HW213548   1.102   2.340   4.451
 4217SOL     OW13549   0.445   0.915   2.895
 4217SOL    HW113550   0.518   0.905   2.962
 4217SOL    HW213551   0.368   0.965   2.936
 4218SOL     OW13552   4.674   0.178   1.905
 4218SOL    HW113553   4.774   0.175   1.903
 4218SOL    HW213554   4.645   0.256   1.960
 4219SOL     OW13555   4.150   5.670   4.498
 4219SOL    HW113556   4.246   5.643   4.493
 4219SOL    HW213557   4.137   5.734   4.574
 4220SOL     OW13558   6.671   3.683   4.035
 4220SOL    HW113559   6.707   3.758   3.979
 4220SOL    HW213560   6.746   3.641   4.087
 4221SOL     OW13561   5.071   5.460   6.439
 4221SOL    HW113562   5.045   5.491   6.348
 4221SOL    HW213563   5.120   5.373   6.433
 4222SOL     OW13564   5.261   2.720   1.931
 4222SOL    HW113565   5.171   2.686   1.958
 4222SOL    HW213566   5.271   2.815   1.962
 4223SOL     OW13567   3.324   4.038   2.313
 4223SOL    HW113568   3.375   4.067   2.233
 4223SOL    HW213569   3.347   3.943   2.335
 4224SOL     OW13570   4.549   2.581   4.931
 4224SOL    HW113571   4.566   2.611   4.837
 4224SOL    HW213572   4.564   2.657   4.994
 4225SOL     OW13573   6.217   0.388   4.755
 4225SOL    HW113574   6.167   0.425   4.677
 4225SOL    HW213575   6.202   0.446   4.835
 4226SOL     OW13576   0.539   2.022   3.674
 4226SOL    HW113577   0.447   1.994   3.701
 4226SOL    HW213578   0.604   1.948   3.691
 4227SOL     OW13579   4.142   4.382   6.580
 4227SOL    HW113580   4.069   4.314   6.572
 4227SOL    HW213581   4.188   4.391   6.492
 4228SOL     OW13582   6.409   5.704   3.049
 4228SOL    HW113583   6.355   5.742   2.974
 4228SOL    HW213584   6.418   5.772   3.122
 4229SOL     OW13585   4.614   4.804   5.737
 4229SOL    HW113586   4.544   4.794   5.808
 4229SOL    HW213587   4.676   4.879   5.761
 4230SOL     OW13588   3.515   0.715   5.223
 4230SOL    HW113589   3.573   0.769   5.285
 4230SOL    HW213590   3.570   0.642   5.182
 4231SOL     OW13591   4.821   6.747   4.973
 4231SOL    HW113592   4.789   6.815   4.907
 4231SOL    HW213593   4.779   6.764   5.062
 4232SOL     OW13594   1.796   4.933   2.970
 4232SOL    HW113595   1.768   4.872   2.896
 4232SOL    HW213596   1.815   4.879   3.052
 4233SOL     OW13597   6.701   6.642   6.902
 4233SOL    HW113598   6.601   6.642   6.895
 4233SOL    HW213599   6.737   6.557   6.863
 4234SOL     OW13600   2.934   4.992   6.177
 4234SOL    HW113601   2.971   5.001   6.084
 4234SOL    HW213602   3.008   5.000   6.243
 4235SOL     OW13603   6.355   3.446   5.560
 4235SOL    HW113604   6.434   3.502   5.585
 4235SOL    HW213605   6.281   3.505   5.528
 4236SOL     OW13606   1.194   3.172   4.377
 4236SOL    HW113607   1.157   3.105   4.441
 4236SOL    HW213608   1.220   3.126   4.292
 4237SOL     OW13609   5.198   3.603   4.926
 4237SOL    HW113610   5.200   3.621   5.024
 4237SOL    HW213611   5.234   3.512   4.908
 4238SOL     OW13612   3.834   5.717   4.191
 4238SOL    HW113613   3.764   5.741   4.259
 4238SOL    HW213614   3.793   5.660   4.120
 4239SOL     OW13615   4.667   6.469   5.559
 4239SOL    HW113616   4.700   6.385   5.603
 4239SOL    HW213617   4.568   6.467   5.551
 4240SOL     OW13618   2.632   4.649   6.427
 4240SOL    HW113619   2.645   4.749   6.429
 4240SOL    HW213620   2.709   4.606   6.381
 4241SOL     OW13621   4.736   0.223   0.469
 4241SOL    HW113622   4.664   0.177   0.520
 4241SOL    HW213623   4.771   0.300   0.523
 4242SOL     OW13624   1.980   0.246   2.859
 4242SOL    HW113625   1.984   0.147   2.843
 4242SOL    HW213626   1.982   0.294   2.771
 4243SOL     OW13627   1.027   3.775   2.341
 4243SOL    HW113628   1.051   3.837   2.267
 4243SOL    HW213629   1.099   3.706   2.352
 4244SOL     OW13630   4.668   6.774   0.909
 4244SOL    HW113631   4.619   6.724   0.981
 4244SOL    HW213632   4.623   6.758   0.821
 4245SOL     OW13633   6.699   3.521   0.926
 4245SOL    HW113634   6.618   3.580   0.925
 4245SOL    HW213635   6.778   3.573   0.895
 4246SOL     OW13636   5.105   2.167   3.224
 4246SOL    HW113637   5.139   2.241   3.282
 4246SOL    HW213638   5.065   2.205   3.141
 4247SOL     OW13639   1.756   4.675   5.296
 4247SOL    HW113640   1.769   4.751   5.359
 4247SOL    HW213641   1.659   4.668   5.273
 4248SOL     OW13642   1.656   0.862   3.077
 4248SOL    HW113643   1.633   0.959   3.073
 4248SOL    HW213644   1.575   0.809   3.101
 4249SOL     OW13645   7.011   0.265   5.079
 4249SOL    HW113646   6.982   0.231   4.990
 4249SOL    HW213647   6.979   0.203   5.151
 4250SOL     OW13648   0.272   5.764   4.496
 4250SOL    HW113649   0.296   5.738   4.590
 4250SOL    HW213650   0.221   5.850   4.497
 4251SOL     OW13651   5.952   1.783   6.295
 4251SOL    HW113652   5.918   1.716   6.360
 4251SOL    HW213653   5.957   1.743   6.204
 4252SOL     OW13654   6.694   6.112   6.804
 4252SOL    HW113655   6.786   6.086   6.775
 4252SOL    HW213656   6.649   6.163   6.730
 4253SOL     OW13657   4.192   5.653   2.841
 4253SOL    HW113658   4.101   5.633   2.879
 4253SOL    HW213659   4.194   5.747   2.809
 4254SOL     OW13660   2.183   3.015   6.847
 4254SOL    HW113661   2.229   3.082   6.904
 4254SOL    HW213662   2.089   3.001   6.880
 4255SOL     OW13663   0.649   3.796   2.769
 4255SOL    HW113664   0.577   3.830   2.828
 4255SOL    HW213665   0.721   3.754   2.824
 4256SOL     OW13666   0.427   5.053   2.164
 4256SOL    HW113667   0.343   5.107   2.160
 4256SOL    HW213668   0.500   5.108   2.205
 4257SOL     OW13669   6.314   0.961   5.349
 4257SOL    HW113670   6.219   0.975   5.379
 4257SOL    HW213671   6.334   0.863   5.345
 4258SOL     OW13672   3.836   5.492   0.192
 4258SOL    HW113673   3.736   5.486   0.200
 4258SOL    HW213674   3.862   5.587   0.174
 4259SOL     OW13675   0.985   6.698   2.236
 4259SOL    HW113676   1.065   6.640   2.219
 4259SOL    HW213677   1.016   6.788   2.265
 4260SOL     OW13678   4.997   0.323   4.509
 4260SOL    HW113679   4.914   0.364   4.471
 4260SOL    HW213680   4.998   0.225   4.490
 4261SOL     OW13681   1.884   0.174   3.891
 4261SOL    HW113682   1.902   0.258   3.841
 4261SOL    HW213683   1.963   0.152   3.950
 4262SOL     OW13684   1.681   3.983   6.657
 4262SOL    HW113685   1.738   3.967   6.738
 4262SOL    HW213686   1.740   4.008   6.580
 4263SOL     OW13687   2.756   2.345   4.157
 4263SOL    HW113688   2.739   2.363   4.253
 4263SOL    HW213689   2.698   2.404   4.100
 4264SOL     OW13690   5.322   1.098   4.197
 4264SOL    HW113691   5.240   1.156   4.201
 4264SOL    HW213692   5.403   1.155   4.206
 4265SOL     OW13693   3.189   1.163   0.861
 4265SOL    HW113694   3.171   1.071   0.896
 4265SOL    HW213695   3.145   1.231   0.919
 4266SOL     OW13696   1.694   6.561   0.601
 4266SOL    HW113697   1.660   6.494   0.536
 4266SOL    HW213698   1.752   6.627   0.554
 4267SOL     OW13699   1.916   4.272   4.679
 4267SOL    HW113700   1.852   4.312   4.614
 4267SOL    HW213701   1.891   4.176   4.696
 4268SOL     OW13702   1.633   4.415   5.942
 4268SOL    HW113703   1.670   4.323   5.950
 4268SOL    HW213704   1.555   4.414   5.879
 4269SOL     OW13705   2.906   1.488   4.355
 4269SOL    HW113706   2.900   1.391   4.328
 4269SOL    HW213707   2.922   1.544   4.274
 4270SOL     OW13708   3.836   2.231   0.652
 4270SOL    HW113709   3.823   2.138   0.617
 4270SOL    HW213710   3.918   2.271   0.611
 4271SOL     OW13711   6.706   0.614   1.076
 4271SOL    HW113712   6.718   0.616   0.977
 4271SOL    HW213713   6.645   0.540   1.101
 4272SOL     OW13714   6.619   1.667   6.051
 4272SOL    HW113715   6.616   1.704   5.958
 4272SOL    HW213716   6.554   1.715   6.108
 4273SOL     OW13717   3.808   5.570   4.820
 4273SOL    HW113718   3.775   5.632   4.891
 4273SOL    HW213719   3.778   5.602   4.730
 4274SOL     OW13720   6.924   1.241   1.676
 4274SOL    HW113721   6.948   1.336   1.694
 4274SOL    HW213722   6.835   1.237   1.631
 4275SOL     OW13723   0.528   3.084   3.237
 4275SOL    HW113724   0.520   2.988   3.261
 4275SOL    HW213725   0.613   3.099   3.186
 4276SOL     OW13726   2.537   6.204   4.234
 4276SOL    HW113727   2.446   6.170   4.209
 4276SOL    HW213728   2.603   6.129   4.228
 4277SOL     OW13729   6.225   5.668   3.310
 4277SOL    HW113730   6.325   5.671   3.310
 4277SOL    HW213731   6.190   5.712   3.228
 4278SOL     OW13732   1.193   6.717   1.923
 4278SOL    HW113733   1.094   6.722   1.934
 4278SOL    HW213734   1.223   6.622   1.934
 4279SOL     OW13735   2.166   2.190   3.264
 4279SOL    HW113736   2.177   2.153   3.172
 4279SOL    HW213737   2.246   2.245   3.288
 4280SOL     OW13738   0.695   0.125   6.015
 4280SOL    HW113739   0.716   0.086   6.105
 4280SOL    HW213740   0.702   0.225   6.020
 4281SOL     OW13741   4.293   5.763   3.667
 4281SOL    HW113742   4.364   5.751   3.736
 4281SOL    HW213743   4.234   5.682   3.665
 4282SOL     OW13744   3.541   4.356   1.097
 4282SOL    HW113745   3.636   4.328   1.107
 4282SOL    HW213746   3.502   4.378   1.186
 4283SOL     OW13747   5.104   1.218   3.846
 4283SOL    HW113748   5.044   1.254   3.774
 4283SOL    HW213749   5.176   1.163   3.805
 4284SOL     OW13750   4.680   5.833   6.312
 4284SOL    HW113751   4.623   5.852   6.391
 4284SOL    HW213752   4.623   5.826   6.230
 4285SOL     OW13753   2.838   0.238   5.622
 4285SOL    HW113754   2.833   0.178   5.702
 4285SOL    HW213755   2.867   0.329   5.651
 4286SOL     OW13756   5.512   1.014   6.527
 4286SOL    HW113757   5.503   1.103   6.483
 4286SOL    HW213758   5.447   0.949   6.487
 4287SOL     OW13759   4.687   0.393   6.793
 4287SOL    HW113760   4.732   0.479   6.815
 4287SOL    HW213761   4.749   0.335   6.740
 4288SOL     OW13762   6.518   6.660   2.190
 4288SOL    HW113763   6.495   6.740   2.135
 4288SOL    HW213764   6.459   6.657   2.271
 4289SOL     OW13765   0.667   3.349   4.581
 4289SOL    HW113766   0.609   3.289   4.526
 4289SOL    HW213767   0.737   3.390   4.522
 4290SOL     OW13768   0.193   1.252   3.209
 4290SOL    HW113769   0.211   1.203   3.124
 4290SOL    HW213770   0.278   1.260   3.262
 4291SOL     OW13771   5.385   3.322   6.327
 4291SOL    HW113772   5.403   3.307   6.230
 4291SOL    HW213773   5.436   3.402   6.359
 4292SOL     OW13774   5.866   2.003   0.842
 4292SOL    HW113775   5.953   2.030   0.885
 4292SOL    HW213776   5.820   2.085   0.807
 4293SOL     OW13777   3.914   4.330   6.938
 4293SOL    HW113778   3.898   4.286   6.849
 4293SOL    HW213779   3.999   4.382   6.935
 4294SOL     OW13780   2.251   2.078   6.338
 4294SOL    HW113781   2.302   2.154   6.378
 4294SOL    HW213782   2.158   2.078   6.374
 4295SOL     OW13783   4.230   6.708   3.056
 4295SOL    HW113784   4.324   6.683   3.034
 4295SOL    HW213785   4.224   6.734   3.153
 4296SOL     OW13786   2.789   6.038   1.998
 4296SOL    HW113787   2.839   6.104   1.942
 4296SOL    HW213788   2.841   6.017   2.080
 4297SOL     OW13789   5.830   4.928   0.823
 4297SOL    HW113790   5.819   4.969   0.732
 4297SOL    HW213791   5.783   4.984   0.891
 4298SOL     OW13792   3.551   6.688   0.641
 4298SOL    HW113793   3.534   6.653   0.733
 4298SOL    HW213794   3.611   6.624   0.592
 4299SOL     OW13795   1.177   2.630   0.301
 4299SOL    HW113796   1.092   2.597   0.262
 4299SOL    HW213797   1.254   2.578   0.264
 4300SOL     OW13798   3.088   0.954   0.976
 4300SOL    HW113799   3.031   0.930   1.055
 4300SOL    HW213800   3.135   0.872   0.943
 4301SOL     OW13801   3.147   6.851   1.603
 4301SOL    HW113802   3.118   6.873   1.510
 4301SOL    HW213803   3.196   6.930   1.642
 4302SOL     OW13804   1.701   5.600   5.680
 4302SOL    HW113805   1.743   5.687   5.654
 4302SOL    HW213806   1.653   5.610   5.767
 4303SOL     OW13807   6.159   3.991   3.590
 4303SOL    HW113808   6.195   4.084   3.582
 4303SOL    HW213809   6.146   3.968   3.686
 4304SOL     OW13810   3.544   3.473   1.609
 4304SOL    HW113811   3.524   3.567   1.581
 4304SOL    HW213812   3.474   3.441   1.673
 4305SOL     OW13813   1.450   0.225   5.374
 4305SOL    HW113814   1.433   0.176   5.288
 4305SOL    HW213815   1.368   0.278   5.397
 4306SOL     OW13816   5.552   3.642   5.105
 4306SOL    HW113817   5.558   3.614   5.009
 4306SOL    HW213818   5.458   3.627   5.138
 4307SOL     OW13819   6.410   2.139   5.379
 4307SOL    HW113820   6.413   2.118   5.477
 4307SOL    HW213821   6.460   2.069   5.328
 4308SOL     OW13822   4.963   4.833   0.216
 4308SOL    HW113823   4.898   4.889   0.269
 4308SOL    HW213824   5.044   4.815   0.272
 4309SOL     OW13825   1.514   3.235   0.407
 4309SOL    HW113826   1.456   3.187   0.342
 4309SOL    HW213827   1.520   3.332   0.382
 4310SOL     OW13828   6.996   1.645   2.657
 4310SOL    HW113829   6.988   1.729   2.603
 4310SOL    HW213830   6.934   1.576   2.620
 4311SOL     OW13831   0.436   6.775   2.470
 4311SOL    HW113832   0.412   6.689   2.516
 4311SOL    HW213833   0.354   6.833   2.464
 4312SOL     OW13834   0.206   4.587   2.379
 4312SOL    HW113835   0.159   4.664   2.336
 4312SOL    HW213836   0.204   4.598   2.478
 4313SOL     OW13837   6.306   1.809   0.353
 4313SOL    HW113838   6.351   1.863   0.282
 4313SOL    HW213839   6.233   1.864   0.394
 4314SOL     OW13840   6.523   2.407   5.378
 4314SOL    HW113841   6.479   2.494   5.402
 4314SOL    HW213842   6.456   2.347   5.335
 4315SOL     OW13843   2.609   1.585   3.962
 4315SOL    HW113844   2.529   1.529   3.941
 4315SOL    HW213845   2.589   1.680   3.939
 4316SOL     OW13846   5.143   6.926   2.034
 4316SOL    HW113847   5.051   6.966   2.032
 4316SOL    HW213848   5.201   6.978   2.097
 4317SOL     OW13849   4.210   1.079   6.051
 4317SOL    HW113850   4.281   1.032   6.103
 4317SOL    HW213851   4.251   1.122   5.970
 4318SOL     OW13852   0.340   1.398   4.000
 4318SOL    HW113853   0.352   1.458   4.079
 4318SOL    HW213854   0.246   1.367   3.995
 4319SOL     OW13855   1.108   4.871   2.057
 4319SOL    HW113856   1.065   4.790   2.098
 4319SOL    HW213857   1.201   4.848   2.028
 4320SOL     OW13858   3.663   5.648   0.606
 4320SOL    HW113859   3.647   5.745   0.627
 4320SOL    HW213860   3.716   5.606   0.680
 4321SOL     OW13861   6.325   0.301   2.660
 4321SOL    HW113862   6.283   0.361   2.728
 4321SOL    HW213863   6.339   0.352   2.575
 4322SOL     OW13864   1.032   3.108   5.406
 4322SOL    HW113865   1.110   3.141   5.458
 4322SOL    HW213866   1.037   3.144   5.312
 4323SOL     OW13867   4.023   5.571   6.538
 4323SOL    HW113868   4.081   5.652   6.551
 4323SOL    HW213869   4.069   5.507   6.475
 4324SOL     OW13870   0.121   4.338   5.629
 4324SOL    HW113871   0.161   4.292   5.709
 4324SOL    HW213872   0.123   4.276   5.551
 4325SOL     OW13873   3.129   0.630   2.598
 4325SOL    HW113874   3.115   0.705   2.663
 4325SOL    HW213875   3.079   0.650   2.514
 4326SOL     OW13876   4.980   2.299   3.008
 4326SOL    HW113877   4.981   2.382   2.951
 4326SOL    HW213878   4.905   2.240   2.979
 4327SOL     OW13879   3.136   5.982   4.117
 4327SOL    HW113880   3.039   5.977   4.091
 4327SOL    HW213881   3.179   6.059   4.069
 4328SOL     OW13882   5.603   6.408   4.999
 4328SOL    HW113883   5.526   6.344   4.989
 4328SOL    HW213884   5.615   6.459   4.914
 4329SOL     OW13885   6.164   2.383   5.546
 4329SOL    HW113886   6.166   2.314   5.619
 4329SOL    HW213887   6.146   2.339   5.459
 4330SOL     OW13888   2.864   4.879   5.072
 4330SOL    HW113889   2.874   4.781   5.090
 4330SOL    HW213890   2.824   4.892   4.981
 4331SOL     OW13891   6.354   0.894   1.904
 4331SOL    HW113892   6.287   0.969   1.906
 4331SOL    HW213893   6.377   0.873   1.809
 4332SOL     OW13894   0.202   4.719   2.635
 4332SOL    HW113895   0.115   4.769   2.643
 4332SOL    HW213896   0.277   4.778   2.666
 4333SOL     OW13897   3.741   2.177   5.672
 4333SOL    HW113898   3.745   2.217   5.763
 4333SOL    HW213899   3.797   2.094   5.669
 4334SOL     OW13900   0.563   2.714   3.897
 4334SOL    HW113901   0.647   2.660   3.898
 4334SOL    HW213902   0.534   2.729   3.802
 4335SOL     OW13903   3.261   3.340   0.593
 4335SOL    HW113904   3.244   3.438   0.604
 4335SOL    HW213905   3.205   3.288   0.658
 4336SOL     OW13906   2.741   5.649   6.123
 4336SOL    HW113907   2.833   5.686   6.134
 4336SOL    HW213908   2.676   5.724   6.109
 4337SOL     OW13909   1.378   5.244   3.570
 4337SOL    HW113910   1.433   5.280   3.645
 4337SOL    HW213911   1.298   5.303   3.556
 4338SOL     OW13912   4.377   1.153   5.825
 4338SOL    HW113913   4.417   1.237   5.790
 4338SOL    HW213914   4.449   1.095   5.864
 4339SOL     OW13915   4.158   2.995   6.232
 4339SOL    HW113916   4.170   3.090   6.260
 4339SOL    HW213917   4.062   2.969   6.240
 4340SOL     OW13918   0.129   3.373   0.802
 4340SOL    HW113919   0.160   3.295   0.746
 4340SOL    HW213920   0.079   3.339   0.882
 4341SOL     OW13921   0.086   6.632   2.703
 4341SOL    HW113922   0.068   6.582   2.788
 4341SOL    HW213923   0.015   6.611   2.636
 4342SOL     OW13924   5.402   4.080   2.690
 4342SOL    HW113925   5.398   4.151   2.760
 4342SOL    HW213926   5.310   4.050   2.667
 4343SOL     OW13927   4.182   0.451   5.822
 4343SOL    HW113928   4.090   0.461   5.860
 4343SOL    HW213929   4.177   0.453   5.722
 4344SOL     OW13930   0.334   2.864   3.812
 4344SOL    HW113931   0.386   2.948   3.801
 4344SOL    HW213932   0.339   2.834   3.908
 4345SOL     OW13933   2.887   3.606   2.356
 4345SOL    HW113934   2.894   3.645   2.264
 4345SOL    HW213935   2.790   3.591   2.378
 4346SOL     OW13936   1.682   3.778   1.699
 4346SOL    HW113937   1.775   3.796   1.731
 4346SOL    HW213938   1.660   3.841   1.625
 4347SOL     OW13939   5.662   4.815   1.277
 4347SOL    HW113940   5.681   4.752   1.352
 4347SOL    HW213941   5.578   4.786   1.230
 4348SOL     OW13942   5.635   6.061   4.308
 4348SOL    HW113943   5.579   6.006   4.370
 4348SOL    HW213944   5.680   6.134   4.360
 4349SOL     OW13945   0.198   3.383   4.635
 4349SOL    HW113946   0.147   3.414   4.554
 4349SOL    HW213947   0.135   3.370   4.711
 4350SOL     OW13948   4.564   0.884   5.041
 4350SOL    HW113949   4.627   0.922   4.973
 4350SOL    HW213950   4.610   0.878   5.129
 4351SOL     OW13951   1.159   6.278   0.619
 4351SOL    HW113952   1.074   6.321   0.648
 4351SOL    HW213953   1.223   6.276   0.696
 4352SOL     OW13954   3.995   3.775   1.110
 4352SOL    HW113955   4.081   3.826   1.116
 4352SOL    HW213956   3.944   3.786   1.195
 4353SOL     OW13957   3.186   2.568   1.066
 4353SOL    HW113958   3.241   2.497   1.110
 4353SOL    HW213959   3.245   2.627   1.011
 4354SOL     OW13960   5.667   0.002   3.860
 4354SOL    HW113961   5.709   6.931   3.848
 4354SOL    HW213962   5.738   0.072   3.855
 4355SOL     OW13963   1.160   6.252   3.703
 4355SOL    HW113964   1.116   6.165   3.721
 4355SOL    HW213965   1.182   6.258   3.606
 4356SOL     OW13966   5.410   2.396   6.077
 4356SOL    HW113967   5.447   2.333   6.145
 4356SOL    HW213968   5.483   2.422   6.013
 4357SOL     OW13969   6.938   1.056   2.324
 4357SOL    HW113970   6.844   1.056   2.357
 4357SOL    HW213971   6.940   1.024   2.229
 4358SOL     OW13972   1.577   6.848   7.003
 4358SOL    HW113973   1.517   6.879   6.930
 4358SOL    HW213974   1.530   6.777   0.037
 4359SOL     OW13975   1.996   1.610   6.918
 4359SOL    HW113976   2.017   1.542   6.989
 4359SOL    HW213977   1.969   1.696   6.961
 4360SOL     OW13978   1.347   3.280   3.583
 4360SOL    HW113979   1.254   3.275   3.619
 4360SOL    HW213980   1.345   3.318   3.490
 4361SOL     OW13981   0.321   1.061   0.975
 4361SOL    HW113982   0.232   1.036   0.936
 4361SOL    HW213983   0.349   1.150   0.940
 4362SOL     OW13984   0.751   6.133   3.944
 4362SOL    HW113985   0.730   6.171   4.034
 4362SOL    HW213986   0.736   6.034   3.945
 4363SOL     OW13987   4.647   1.467   2.045
 4363SOL    HW113988   4.588   1.403   1.994
 4363SOL    HW213989   4.661   1.432   2.138
 4364SOL     OW13990   3.770   3.814   2.759
 4364SOL    HW113991   3.840   3.863   2.709
 4364SOL    HW213992   3.799   3.800   2.854
 4365SOL     OW13993   3.029   2.306   1.691
 4365SOL    HW113994   2.977   2.350   1.764
 4365SOL    HW213995   3.025   2.207   1.702
 4366SOL     OW13996   4.574   6.378   4.648
 4366SOL    HW113997   4.564   6.323   4.731
 4366SOL    HW213998   4.666   6.367   4.612
 4367SOL     OW13999   2.426   5.566   3.717
 4367SOL    HW114000   2.421   5.594   3.812
 4367SOL    HW214001   2.507   5.509   3.702
 4368SOL     OW14002   4.629   4.578   2.654
 4368SOL    HW114003   4.723   4.611   2.644
 4368SOL    HW214004   4.630   4.481   2.677
 4369SOL     OW14005   4.296   4.950   3.159
 4369SOL    HW114006   4.307   4.940   3.060
 4369SOL    HW214007   4.305   4.860   3.203
 4370SOL     OW14008   3.835   4.825   1.468
 4370SOL    HW114009   3.775   4.845   1.545
 4370SOL    HW214010   3.815   4.733   1.433
 4371SOL     OW14011   3.352   1.002   1.545
 4371SOL    HW114012   3.417   1.041   1.610
 4371SOL    HW214013   3.261   1.038   1.562
 4372SOL     OW14014   2.041   3.048   4.404
 4372SOL    HW114015   2.072   3.068   4.311
 4372SOL    HW214016   2.090   3.108   4.468
 4373SOL     OW14017   4.684   1.154   5.208
 4373SOL    HW114018   4.707   1.214   5.131
 4373SOL    HW214019   4.585   1.148   5.217
 4374SOL     OW14020   2.446   1.488   1.636
 4374SOL    HW114021   2.484   1.537   1.558
 4374SOL    HW214022   2.349   1.509   1.644
 4375SOL     OW14023   4.088   0.722   3.519
 4375SOL    HW114024   4.172   0.719   3.574
 4375SOL    HW214025   4.070   0.816   3.491
 4376SOL     OW14026   6.966   6.512   1.172
 4376SOL    HW114027   0.041   6.543   1.182
 4376SOL    HW214028   6.949   6.435   1.234
 4377SOL     OW14029   6.172   6.453   6.318
 4377SOL    HW114030   6.094   6.401   6.353
 4377SOL    HW214031   6.230   6.483   6.394
 4378SOL     OW14032   1.910   5.509   2.325
 4378SOL    HW114033   1.879   5.557   2.242
 4378SOL    HW214034   1.834   5.499   2.388
 4379SOL     OW14035   1.316   0.424   2.019
 4379SOL    HW114036   1.276   0.468   2.099
 4379SOL    HW214037   1.275   0.461   1.936
 4380SOL     OW14038   1.547   6.049   4.953
 4380SOL    HW114039   1.509   5.957   4.954
 4380SOL    HW214040   1.493   6.108   5.013
 4381SOL     OW14041   3.489   6.435   5.051
 4381SOL    HW114042   3.393   6.415   5.034
 4381SOL    HW214043   3.541   6.349   5.052
 4382SOL     OW14044   5.087   3.801   4.170
 4382SOL    HW114045   5.185   3.817   4.182
 4382SOL    HW214046   5.045   3.786   4.259
 4383SOL     OW14047   0.713   2.958   5.692
 4383SOL    HW114048   0.772   2.965   5.773
 4383SOL    HW214049   0.704   2.862   5.665
 4384SOL     OW14050   3.724   6.001   0.522
 4384SOL    HW114051   3.668   6.026   0.601
 4384SOL    HW214052   3.799   6.066   0.512
 4385SOL     OW14053   0.531   2.174   2.269
 4385SOL    HW114054   0.493   2.262   2.298
 4385SOL    HW214055   0.468   2.129   2.207
 4386SOL     OW14056   0.663   2.960   6.693
 4386SOL    HW114057   0.658   2.895   6.617
 4386SOL    HW214058   0.686   2.912   6.777
 4387SOL     OW14059   0.194   3.347   1.920
 4387SOL    HW114060   0.231   3.361   2.012
 4387SOL    HW214061   0.254   3.391   1.853
 4388SOL     OW14062   3.674   0.843   5.779
 4388SOL    HW114063   3.747   0.874   5.841
 4388SOL    HW214064   3.614   0.781   5.829
 4389SOL     OW14065   5.420   2.657   2.950
 4389SOL    HW114066   5.368   2.603   2.884
 4389SOL    HW214067   5.426   2.752   2.918
 4390SOL     OW14068   4.872   2.940   2.283
 4390SOL    HW114069   4.914   2.851   2.265
 4390SOL    HW214070   4.839   2.979   2.197
 4391SOL     OW14071   1.207   5.647   0.552
 4391SOL    HW114072   1.130   5.707   0.530
 4391SOL    HW214073   1.292   5.700   0.554
 4392SOL     OW14074   4.846   3.047   4.516
 4392SOL    HW114075   4.824   3.118   4.583
 4392SOL    HW214076   4.934   3.005   4.540
 4393SOL     OW14077   4.851   6.811   2.917
 4393SOL    HW114078   4.855   6.712   2.933
 4393SOL    HW214079   4.790   6.830   2.841
 4394SOL     OW14080   5.098   0.352   3.048
 4394SOL    HW114081   5.095   0.414   2.970
 4394SOL    HW214082   5.005   0.330   3.078
 4395SOL     OW14083   5.560   1.767   2.058
 4395SOL    HW114084   5.499   1.837   2.096
 4395SOL    HW214085   5.605   1.718   2.133
 4396SOL     OW14086   0.829   1.003   4.200
 4396SOL    HW114087   0.776   1.060   4.263
 4396SOL    HW214088   0.770   0.969   4.127
 4397SOL     OW14089   6.702   0.255   4.967
 4397SOL    HW114090   6.629   0.187   4.974
 4397SOL    HW214091   6.780   0.215   4.920
 4398SOL     OW14092   0.362   4.645   4.159
 4398SOL    HW114093   0.266   4.620   4.162
 4398SOL    HW214094   0.419   4.564   4.175
 4399SOL     OW14095   2.022   1.376   0.818
 4399SOL    HW114096   1.972   1.428   0.749
 4399SOL    HW214097   1.976   1.384   0.906
 4400SOL     OW14098   3.125   6.572   4.787
 4400SOL    HW114099   3.163   6.496   4.734
 4400SOL    HW214100   3.032   6.592   4.756
 4401SOL     OW14101   6.012   6.000   4.392
 4401SOL    HW114102   6.107   6.029   4.382
 4401SOL    HW214103   6.008   5.919   4.450
 4402SOL     OW14104   0.524   6.197   2.913
 4402SOL    HW114105   0.525   6.295   2.896
 4402SOL    HW214106   0.450   6.155   2.860
 4403SOL     OW14107   0.739   0.413   3.273
 4403SOL    HW114108   0.811   0.345   3.272
 4403SOL    HW214109   0.662   0.382   3.216
 4404SOL     OW14110   0.625   3.766   3.227
 4404SOL    HW114111   0.672   3.704   3.289
 4404SOL    HW214112   0.529   3.737   3.218
 4405SOL     OW14113   3.551   4.362   5.726
 4405SOL    HW114114   3.529   4.352   5.629
 4405SOL    HW214115   3.645   4.395   5.735
 4406SOL     OW14116   5.813   3.936   1.451
 4406SOL    HW114117   5.728   3.957   1.499
 4406SOL    HW214118   5.831   3.838   1.456
 4407SOL     OW14119   6.519   0.033   6.972
 4407SOL    HW114120   6.586   0.062   0.021
 4407SOL    HW214121   6.566   7.018   6.891
 4408SOL     OW14122   4.766   0.021   6.396
 4408SOL    HW114123   4.695   6.989   6.349
 4408SOL    HW214124   4.728   0.107   6.431
 4409SOL     OW14125   3.400   0.130   1.974
 4409SOL    HW114126   3.423   0.152   2.069
 4409SOL    HW214127   3.301   0.126   1.964
 4410SOL     OW14128   2.247   4.932   1.642
 4410SOL    HW114129   2.302   4.852   1.665
 4410SOL    HW214130   2.185   4.953   1.718
 4411SOL     OW14131   3.848   3.314   2.832
 4411SOL    HW114132   3.834   3.237   2.770
 4411SOL    HW214133   3.945   3.318   2.858
 4412SOL     OW14134   3.804   1.357   6.684
 4412SOL    HW114135   3.789   1.314   6.594
 4412SOL    HW214136   3.813   1.286   6.753
 4413SOL     OW14137   4.413   6.254   4.057
 4413SOL    HW114138   4.330   6.260   4.001
 4413SOL    HW214139   4.415   6.167   4.105
 4414SOL     OW14140   3.867   4.807   1.771
 4414SOL    HW114141   3.782   4.756   1.786
 4414SOL    HW214142   3.937   4.745   1.734
 4415SOL     OW14143   5.197   3.058   6.553
 4415SOL    HW114144   5.142   2.975   6.553
 4415SOL    HW214145   5.175   3.112   6.472
 4416SOL     OW14146   3.449   0.399   4.567
 4416SOL    HW114147   3.548   0.409   4.576
 4416SOL    HW214148   3.420   0.315   4.613
 4417SOL     OW14149   6.923   6.072   2.159
 4417SOL    HW114150   6.893   6.166   2.175
 4417SOL    HW214151   6.845   6.010   2.165
 4418SOL     OW14152   3.868   0.017   3.779
 4418SOL    HW114153   3.773   7.005   3.785
 4418SOL    HW214154   3.872   0.104   3.731
 4419SOL     OW14155   0.290   5.256   0.043
 4419SOL    HW114156   0.371   5.199   0.055
 4419SOL    HW214157   0.253   5.244   6.971
 4420SOL     OW14158   5.210   2.047   6.552
 4420SOL    HW114159   5.124   2.064   6.601
 4420SOL    HW214160   5.266   1.983   6.606
 4421SOL     OW14161   1.530   1.967   3.200
 4421SOL    HW114162   1.434   1.939   3.198
 4421SOL    HW214163   1.536   2.066   3.183
 4422SOL     OW14164   2.118   4.093   6.103
 4422SOL    HW114165   2.182   4.044   6.045
 4422SOL    HW214166   2.150   4.186   6.118
 4423SOL     OW14167   1.510   2.184   6.503
 4423SOL    HW114168   1.464   2.175   6.415
 4423SOL    HW214169   1.561   2.100   6.524
 4424SOL     OW14170   6.293   0.006   2.935
 4424SOL    HW114171   6.291   6.963   3.014
 4424SOL    HW214172   6.306   0.099   2.968
 4425SOL     OW14173   3.749   4.601   6.447
 4425SOL    HW114174   3.669   4.602   6.387
 4425SOL    HW214175   3.817   4.666   6.413
 4426SOL     OW14176   0.681   0.469   5.259
 4426SOL    HW114177   0.763   0.526   5.266
 4426SOL    HW214178   0.617   0.493   5.332
 4427SOL     OW14179   1.328   0.420   3.251
 4427SOL    HW114180   1.284   0.369   3.325
 4427SOL    HW214181   1.389   0.359   3.200
 4428SOL     OW14182   2.006   5.499   3.973
 4428SOL    HW114183   2.052   5.505   3.884
 4428SOL    HW214184   1.926   5.559   3.974
 4429SOL     OW14185   3.300   0.078   3.634
 4429SOL    HW114186   3.395   0.110   3.624
 4429SOL    HW214187   3.279   0.014   3.560
 4430SOL     OW14188   2.659   0.533   2.554
 4430SOL    HW114189   2.693   0.594   2.483
 4430SOL    HW214190   2.576   0.487   2.522
 4431SOL     OW14191   2.982   1.949   3.671
 4431SOL    HW114192   3.068   1.921   3.630
 4431SOL    HW214193   2.906   1.902   3.625
 4432SOL     OW14194   2.883   3.376   2.503
 4432SOL    HW114195   2.902   3.448   2.437
 4432SOL    HW214196   2.904   3.287   2.462
 4433SOL     OW14197   6.101   0.333   2.272
 4433SOL    HW114198   6.152   0.255   2.307
 4433SOL    HW214199   6.026   0.301   2.214
 4434SOL     OW14200   6.046   2.424   4.109
 4434SOL    HW114201   6.144   2.418   4.090
 4434SOL    HW214202   6.026   2.514   4.148
 4435SOL     OW14203   3.713   2.809   1.825
 4435SOL    HW114204   3.613   2.816   1.827
 4435SOL    HW214205   3.751   2.858   1.903
 4436SOL     OW14206   4.582   1.771   0.074
 4436SOL    HW114207   4.637   1.755   0.156
 4436SOL    HW214208   4.615   1.853   0.027
 4437SOL     OW14209   3.413   0.909   4.821
 4437SOL    HW114210   3.509   0.929   4.803
 4437SOL    HW214211   3.358   0.989   4.800
 4438SOL     OW14212   4.242   2.869   6.858
 4438SOL    HW114213   4.272   2.945   6.916
 4438SOL    HW214214   4.147   2.884   6.830
 4439SOL     OW14215   1.920   5.803   2.398
 4439SOL    HW114216   1.867   5.752   2.330
 4439SOL    HW214217   2.018   5.797   2.375
 4440SOL     OW14218   1.204   6.581   6.412
 4440SOL    HW114219   1.156   6.515   6.354
 4440SOL    HW214220   1.272   6.534   6.468
 4441SOL     OW14221   5.281   2.485   2.798
 4441SOL    HW114222   5.185   2.468   2.779
 4441SOL    HW214223   5.315   2.417   2.864
 4442SOL     OW14224   3.350   5.914   3.660
 4442SOL    HW114225   3.332   5.916   3.758
 4442SOL    HW214226   3.333   5.821   3.625
 4443SOL     OW14227   2.817   2.066   5.890
 4443SOL    HW114228   2.788   1.980   5.930
 4443SOL    HW214229   2.744   2.134   5.902
 4444SOL     OW14230   5.307   0.057   0.656
 4444SOL    HW114231   5.218   0.044   0.698
 4444SOL    HW214232   5.331   0.154   0.657
 4445SOL     OW14233   1.114   0.641   6.390
 4445SOL    HW114234   1.205   0.679   6.369
 4445SOL    HW214235   1.044   0.707   6.365
 4446SOL     OW14236   6.453   0.315   2.960
 4446SOL    HW114237   6.504   0.304   2.875
 4446SOL    HW214238   6.408   0.404   2.961
 4447SOL     OW14239   5.446   1.942   5.652
 4447SOL    HW114240   5.540   1.924   5.682
 4447SOL    HW214241   5.434   1.911   5.558
 4448SOL     OW14242   2.564   3.445   0.048
 4448SOL    HW114243   2.506   3.465   0.127
 4448SOL    HW214244   2.590   3.531   0.003
 4449SOL     OW14245   1.885   1.055   5.403
 4449SOL    HW114246   1.789   1.057   5.432
 4449SOL    HW214247   1.899   0.979   5.340
 4450SOL     OW14248   4.044   3.128   3.326
 4450SOL    HW114249   4.079   3.122   3.419
 4450SOL    HW214250   3.989   3.211   3.316
 4451SOL     OW14251   6.660   4.792   2.569
 4451SOL    HW114252   6.730   4.725   2.594
 4451SOL    HW214253   6.607   4.758   2.492
 4452SOL     OW14254   6.363   6.550   6.468
 4452SOL    HW114255   6.397   6.636   6.431
 4452SOL    HW214256   6.438   6.502   6.515
 4453SOL     OW14257   5.228   2.429   1.285
 4453SOL    HW114258   5.270   2.440   1.195
 4453SOL    HW214259   5.143   2.377   1.275
 4454SOL     OW14260   5.381   2.691   1.403
 4454SOL    HW114261   5.392   2.593   1.420
 4454SOL    HW214262   5.466   2.738   1.427
 4455SOL     OW14263   3.629   1.043   2.588
 4455SOL    HW114264   3.533   1.048   2.617
 4455SOL    HW214265   3.634   1.061   2.489
 4456SOL     OW14266   1.354   4.951   3.511
 4456SOL    HW114267   1.338   4.912   3.602
 4456SOL    HW214268   1.354   5.051   3.517
 4457SOL     OW14269   5.330   1.938   6.310
 4457SOL    HW114270   5.308   1.842   6.330
 4457SOL    HW214271   5.266   1.997   6.358
 4458SOL     OW14272   3.441   2.303   6.473
 4458SOL    HW114273   3.480   2.383   6.427
 4458SOL    HW214274   3.486   2.220   6.440
 4459SOL     OW14275   4.853   6.589   4.554
 4459SOL    HW114276   4.835   6.492   4.541
 4459SOL    HW214277   4.879   6.630   4.466
 4460SOL     OW14278   2.936   2.377   6.213
 4460SOL    HW114279   2.868   2.308   6.191
 4460SOL    HW214280   3.021   2.333   6.243
 4461SOL     OW14281   2.069   6.930   2.336
 4461SOL    HW114282   2.019   6.844   2.345
 4461SOL    HW214283   2.151   6.927   2.393
 4462SOL     OW14284   6.690   5.397   0.934
 4462SOL    HW114285   6.724   5.324   0.992
 4462SOL    HW214286   6.740   5.396   0.847
 4463SOL     OW14287   1.601   3.528   6.314
 4463SOL    HW114288   1.630   3.451   6.258
 4463SOL    HW214289   1.680   3.568   6.361
 4464SOL     OW14290   5.719   3.348   6.203
 4464SOL    HW114291   5.763   3.297   6.130
 4464SOL    HW214292   5.636   3.392   6.168
 4465SOL     OW14293   1.401   5.816   1.687
 4465SOL    HW114294   1.399   5.916   1.678
 4465SOL    HW214295   1.445   5.792   1.773
 4466SOL     OW14296   0.970   1.872   2.816
 4466SOL    HW114297   0.974   1.969   2.842
 4466SOL    HW214298   1.062   1.833   2.819
 4467SOL     OW14299   1.330   6.547   3.338
 4467SOL    HW114300   1.236   6.581   3.339
 4467SOL    HW214301   1.338   6.474   3.271
 4468SOL     OW14302   1.300   2.691   0.559
 4468SOL    HW114303   1.246   2.727   0.635
 4468SOL    HW214304   1.241   2.675   0.480
 4469SOL     OW14305   4.245   6.977   0.570
 4469SOL    HW114306   4.152   6.945   0.550
 4469SOL    HW214307   4.253   0.055   0.547
 4470SOL     OW14308   4.928   3.953   1.325
 4470SOL    HW114309   4.935   3.863   1.281
 4470SOL    HW214310   4.993   3.959   1.401
 4471SOL     OW14311   6.894   2.831   1.610
 4471SOL    HW114312   6.848   2.893   1.675
 4471SOL    HW214313   6.952   2.768   1.661
 4472SOL     OW14314   1.818   4.027   2.150
 4472SOL    HW114315   1.803   4.119   2.113
 4472SOL    HW214316   1.763   3.961   2.098
 4473SOL     OW14317   6.677   7.015   4.363
 4473SOL    HW114318   6.714   6.924   4.347
 4473SOL    HW214319   6.719   0.061   4.299
 4474SOL     OW14320   4.639   0.612   2.695
 4474SOL    HW114321   4.634   0.530   2.753
 4474SOL    HW214322   4.631   0.694   2.752
 4475SOL     OW14323   1.966   4.386   0.227
 4475SOL    HW114324   1.879   4.337   0.222
 4475SOL    HW214325   2.028   4.353   0.157
 4476SOL     OW14326   4.993   6.602   2.139
 4476SOL    HW114327   4.972   6.534   2.209
 4476SOL    HW214328   5.031   6.557   2.058
 4477SOL     OW14329   1.313   1.255   0.464
 4477SOL    HW114330   1.269   1.337   0.500
 4477SOL    HW214331   1.400   1.280   0.421
 4478SOL     OW14332   2.133   6.448   2.679
 4478SOL    HW114333   2.103   6.448   2.774
 4478SOL    HW214334   2.187   6.530   2.661
 4479SOL     OW14335   1.187   0.356   5.910
 4479SOL    HW114336   1.262   0.349   5.844
 4479SOL    HW214337   1.164   0.265   5.944
 4480SOL     OW14338   1.061   5.151   4.730
 4480SOL    HW114339   1.068   5.099   4.645
 4480SOL    HW214340   1.147   5.145   4.780
 4481SOL     OW14341   0.700   6.297   4.171
 4481SOL    HW114342   0.781   6.348   4.199
 4481SOL    HW214343   0.623   6.320   4.231
 4482SOL     OW14344   0.149   4.706   3.864
 4482SOL    HW114345   0.237   4.729   3.822
 4482SOL    HW214346   0.135   4.763   3.945
 4483SOL     OW14347   5.421   3.481   1.824
 4483SOL    HW114348   5.323   3.473   1.838
 4483SOL    HW214349   5.439   3.522   1.735
 4484SOL     OW14350   3.773   2.477   5.707
 4484SOL    HW114351   3.830   2.483   5.789
 4484SOL    HW214352   3.688   2.527   5.722
 4485SOL     OW14353   5.153   1.652   6.580
 4485SOL    HW114354   5.070   1.606   6.614
 4485SOL    HW214355   5.179   1.725   6.643
 4486SOL     OW14356   6.429   3.422   4.860
 4486SOL    HW114357   6.354   3.412   4.925
 4486SOL    HW214358   6.456   3.332   4.826
 4487SOL     OW14359   3.263   3.043   6.084
 4487SOL    HW114360   3.200   2.975   6.122
 4487SOL    HW214361   3.214   3.104   6.022
 4488SOL     OW14362   6.651   1.701   4.984
 4488SOL    HW114363   6.715   1.658   5.048
 4488SOL    HW214364   6.702   1.737   4.906
 4489SOL     OW14365   5.813   6.165   4.516
 4489SOL    HW114366   5.788   6.130   4.606
 4489SOL    HW214367   5.851   6.091   4.460
 4490SOL     OW14368   6.564   1.698   3.091
 4490SOL    HW114369   6.482   1.755   3.098
 4490SOL    HW214370   6.590   1.687   2.995
 4491SOL     OW14371   0.832   3.970   2.648
 4491SOL    HW114372   0.764   3.896   2.650
 4491SOL    HW214373   0.821   4.028   2.729
 4492SOL     OW14374   4.833   2.802   0.025
 4492SOL    HW114375   4.795   2.750   6.968
 4492SOL    HW214376   4.781   2.783   0.108
 4493SOL     OW14377   5.669   5.978   4.793
 4493SOL    HW114378   5.624   5.935   4.871
 4493SOL    HW214379   5.767   5.989   4.813
 4494SOL     OW14380   0.173   4.231   5.320
 4494SOL    HW114381   0.209   4.296   5.253
 4494SOL    HW214382   0.087   4.193   5.287
 4495SOL     OW14383   4.886   6.551   1.636
 4495SOL    HW114384   4.903   6.621   1.705
 4495SOL    HW214385   4.958   6.481   1.640
 4496SOL     OW14386   5.405   3.695   5.456
 4496SOL    HW114387   5.365   3.655   5.538
 4496SOL    HW214388   5.350   3.773   5.426
 4497SOL     OW14389   6.019   5.199   0.240
 4497SOL    HW114390   6.007   5.138   0.161
 4497SOL    HW214391   6.017   5.145   0.324
 4498SOL     OW14392   0.280   3.372   6.933
 4498SOL    HW114393   0.278   3.356   6.834
 4498SOL    HW214394   0.201   3.428   6.958
 4499SOL     OW14395   0.048   3.217   6.102
 4499SOL    HW114396   0.080   3.177   6.188
 4499SOL    HW214397   7.007   3.294   6.122
 4500SOL     OW14398   2.905   3.643   4.548
 4500SOL    HW114399   2.912   3.628   4.647
 4500SOL    HW214400   2.821   3.601   4.514
 4501SOL     OW14401   6.947   4.714   5.282
 4501SOL    HW114402   6.987   4.651   5.349
 4501SOL    HW214403   6.936   4.804   5.323
 4502SOL     OW14404   1.150   1.999   0.030
 4502SOL    HW114405   1.065   1.998   0.083
 4502SOL    HW214406   1.128   2.004   6.951
 4503SOL     OW14407   1.238   1.740   3.588
 4503SOL    HW114408   1.253   1.798   3.669
 4503SOL    HW214409   1.288   1.654   3.599
 4504SOL     OW14410   5.739   2.582   4.934
 4504SOL    HW114411   5.829   2.609   4.900
 4504SOL    HW214412   5.694   2.524   4.866
 4505SOL     OW14413   1.509   6.354   5.132
 4505SOL    HW114414   1.586   6.324   5.187
 4505SOL    HW214415   1.428   6.363   5.191
 4506SOL     OW14416   3.951   0.540   5.396
 4506SOL    HW114417   3.934   0.593   5.479
 4506SOL    HW214418   3.865   0.498   5.366
 4507SOL     OW14419   5.341   4.431   0.626
 4507SOL    HW114420   5.439   4.412   0.612
 4507SOL    HW214421   5.288   4.388   0.553
 4508SOL     OW14422   1.394   3.618   0.053
 4508SOL    HW114423   1.301   3.587   0.033
 4508SOL    HW214424   1.452   3.606   6.992
 4509SOL     OW14425   3.090   1.869   4.482
 4509SOL    HW114426   3.176   1.908   4.448
 4509SOL    HW214427   3.103   1.772   4.500
 4510SOL     OW14428   5.043   0.279   5.159
 4510SOL    HW114429   4.950   0.260   5.127
 4510SOL    HW214430   5.105   0.208   5.125
 4511SOL     OW14431   6.422   2.559   0.538
 4511SOL    HW114432   6.329   2.537   0.569
 4511SOL    HW214433   6.480   2.478   0.550
 4512SOL     OW14434   2.799   5.818   6.605
 4512SOL    HW114435   2.771   5.837   6.511
 4512SOL    HW214436   2.804   5.904   6.657
 4513SOL     OW14437   5.052   0.472   1.544
 4513SOL    HW114438   4.956   0.498   1.536
 4513SOL    HW214439   5.109   0.545   1.508
 4514SOL     OW14440   3.141   1.225   5.252
 4514SOL    HW114441   3.174   1.169   5.176
 4514SOL    HW214442   3.109   1.313   5.218
 4515SOL     OW14443   0.144   5.027   0.554
 4515SOL    HW114444   0.201   4.991   0.481
 4515SOL    HW214445   0.092   4.952   0.596
 4516SOL     OW14446   1.094   1.365   5.394
 4516SOL    HW114447   1.105   1.464   5.387
 4516SOL    HW214448   1.139   1.332   5.477
 4517SOL     OW14449   3.740   6.886   5.853
 4517SOL    HW114450   3.781   6.795   5.849
 4517SOL    HW214451   3.668   6.887   5.924
 4518SOL     OW14452   0.770   2.428   3.590
 4518SOL    HW114453   0.775   2.482   3.507
 4518SOL    HW214454   0.715   2.346   3.574
 4519SOL     OW14455   0.255   3.260   3.514
 4519SOL    HW114456   0.186   3.214   3.570
 4519SOL    HW214457   0.259   3.218   3.424
 4520SOL     OW14458   0.157   5.056   3.065
 4520SOL    HW114459   0.129   4.965   3.036
 4520SOL    HW214460   0.171   5.057   3.164
 4521SOL     OW14461   5.382   2.833   6.741
 4521SOL    HW114462   5.460   2.840   6.802
 4521SOL    HW214463   5.337   2.922   6.734
 4522SOL     OW14464   6.567   6.979   3.996
 4522SOL    HW114465   6.611   6.891   3.977
 4522SOL    HW214466   6.531   6.980   4.089
 4523SOL     OW14467   3.267   4.128   0.126
 4523SOL    HW114468   3.327   4.049   0.136
 4523SOL    HW214469   3.289   4.196   0.196
 4524SOL     OW14470   5.192   0.765   4.835
 4524SOL    HW114471   5.110   0.776   4.892
 4524SOL    HW214472   5.243   0.685   4.865
 4525SOL     OW14473   6.091   1.486   4.963
 4525SOL    HW114474   6.030   1.412   4.992
 4525SOL    HW214475   6.185   1.453   4.963
 4526SOL     OW14476   4.746   6.904   0.146
 4526SOL    HW114477   4.652   6.938   0.147
 4526SOL    HW214478   4.764   6.853   0.230
 4527SOL     OW14479   4.997   0.694   2.617
 4527SOL    HW114480   4.904   0.729   2.610
 4527SOL    HW214481   5.062   0.770   2.608
 4528SOL     OW14482   5.731   0.117   0.597
 4528SOL    HW114483   5.691   0.026   0.586
 4528SOL    HW214484   5.769   0.148   0.510
 4529SOL     OW14485   3.042   0.161   2.751
 4529SOL    HW114486   2.960   0.203   2.714
 4529SOL    HW214487   3.096   0.229   2.799
 4530SOL     OW14488   0.285   3.294   5.589
 4530SOL    HW114489   0.204   3.257   5.635
 4530SOL    HW214490   0.359   3.227   5.593
 4531SOL     OW14491   0.308   3.275   3.831
 4531SOL    HW114492   0.280   3.276   3.927
 4531SOL    HW214493   0.266   3.353   3.783
 4532SOL     OW14494   6.282   1.421   0.715
 4532SOL    HW114495   6.309   1.466   0.629
 4532SOL    HW214496   6.329   1.333   0.722
 4533SOL     OW14497   1.886   5.917   2.885
 4533SOL    HW114498   1.884   6.014   2.857
 4533SOL    HW214499   1.915   5.861   2.807
 4534SOL     OW14500   6.516   3.861   4.965
 4534SOL    HW114501   6.489   3.792   4.898
 4534SOL    HW214502   6.434   3.903   5.004
 4535SOL     OW14503   4.902   3.336   2.160
 4535SOL    HW114504   4.886   3.363   2.255
 4535SOL    HW214505   4.853   3.251   2.141
 4536SOL     OW14506   5.788   1.391   4.853
 4536SOL    HW114507   5.767   1.305   4.808
 4536SOL    HW214508   5.810   1.374   4.950
 4537SOL     OW14509   4.015   2.619   0.035
 4537SOL    HW114510   4.075   2.541   0.021
 4537SOL    HW214511   3.956   2.631   6.974
 4538SOL     OW14512   3.085   1.742   3.191
 4538SOL    HW114513   3.128   1.740   3.101
 4538SOL    HW214514   3.068   1.649   3.222
 4539SOL     OW14515   2.347   1.933   3.259
 4539SOL    HW114516   2.389   2.016   3.224
 4539SOL    HW214517   2.324   1.873   3.182
 4540SOL     OW14518   3.969   3.121   4.718
 4540SOL    HW114519   3.904   3.179   4.768
 4540SOL    HW214520   4.059   3.165   4.717
 4541SOL     OW14521   5.251   1.773   1.350
 4541SOL    HW114522   5.193   1.737   1.423
 4541SOL    HW214523   5.293   1.859   1.379
 4542SOL     OW14524   5.954   6.862   2.220
 4542SOL    HW114525   6.053   6.874   2.212
 4542SOL    HW214526   5.931   6.766   2.201
 4543SOL     OW14527   5.653   1.844   1.148
 4543SOL    HW114528   5.720   1.814   1.080
 4543SOL    HW214529   5.606   1.765   1.186
 4544SOL     OW14530   3.414   5.602   6.546
 4544SOL    HW114531   3.324   5.646   6.556
 4544SOL    HW214532   3.418   5.554   6.458
 4545SOL     OW14533   4.046   2.292   5.566
 4545SOL    HW114534   4.087   2.223   5.626
 4545SOL    HW214535   4.100   2.299   5.482
 4546SOL     OW14536   0.434   6.799   6.406
 4546SOL    HW114537   0.455   6.809   6.308
 4546SOL    HW214538   0.496   6.732   6.447
 4547SOL     OW14539   5.291   2.349   1.558
 4547SOL    HW114540   5.264   2.382   1.468
 4547SOL    HW214541   5.258   2.412   1.628
 4548SOL     OW14542   0.354   4.057   3.576
 4548SOL    HW114543   0.405   4.110   3.508
 4548SOL    HW214544   0.416   3.994   3.623
 4549SOL     OW14545   6.608   3.394   3.048
 4549SOL    HW114546   6.530   3.389   3.110
 4549SOL    HW214547   6.688   3.355   3.092
 4550SOL     OW14548   0.767   5.769   3.487
 4550SOL    HW114549   0.727   5.814   3.567
 4550SOL    HW214550   0.693   5.732   3.430
 4551SOL     OW14551   0.851   3.214   5.129
 4551SOL    HW114552   0.837   3.172   5.040
 4551SOL    HW214553   0.773   3.193   5.188
 4552SOL     OW14554   0.645   3.075   4.435
 4552SOL    HW114555   0.673   2.983   4.406
 4552SOL    HW214556   0.590   3.068   4.518
 4553SOL     OW14557   4.600   5.183   0.450
 4553SOL    HW114558   4.660   5.119   0.402
 4553SOL    HW214559   4.539   5.227   0.383
 4554SOL     OW14560   4.245   0.088   2.569
 4554SOL    HW114561   4.326   0.133   2.534
 4554SOL    HW214562   4.239   7.014   2.532
 4555SOL     OW14563   5.119   2.627   6.714
 4555SOL    HW114564   5.178   2.644   6.636
 4555SOL    HW214565   5.036   2.682   6.707
 4556SOL     OW14566   4.301   0.727   3.698
 4556SOL    HW114567   4.387   0.678   3.684
 4556SOL    HW214568   4.320   0.819   3.733
 4557SOL     OW14569   5.869   0.257   5.991
 4557SOL    HW114570   5.830   0.327   6.051
 4557SOL    HW214571   5.969   0.258   6.000
 4558SOL     OW14572   6.471   3.530   6.766
 4558SOL    HW114573   6.458   3.474   6.848
 4558SOL    HW214574   6.433   3.483   6.687
 4559SOL     OW14575   2.073   6.387   1.540
 4559SOL    HW114576   2.122   6.366   1.456
 4559SOL    HW214577   2.005   6.316   1.559
 4560SOL     OW14578   5.188   3.188   3.050
 4560SOL    HW114579   5.109   3.132   3.072
 4560SOL    HW214580   5.158   3.272   3.006
 4561SOL     OW14581   3.568   0.526   6.652
 4561SOL    HW114582   3.488   0.519   6.712
 4561SOL    HW214583   3.614   0.438   6.647
 4562SOL     OW14584   2.932   5.574   6.655
 4562SOL    HW114585   2.888   5.657   6.622
 4562SOL    HW214586   2.943   5.509   6.580
 4563SOL     OW14587   5.623   1.716   7.015
 4563SOL    HW114588   5.637   1.703   0.094
 4563SOL    HW214589   5.569   1.799   6.999
 4564SOL     OW14590   1.241   6.161   6.964
 4564SOL    HW114591   1.251   6.259   6.982
 4564SOL    HW214592   1.328   6.123   6.934
 4565SOL     OW14593   0.981   1.100   5.221
 4565SOL    HW114594   0.944   1.145   5.140
 4565SOL    HW214595   0.919   1.114   5.298
 4566SOL     OW14596   0.086   0.699   6.774
 4566SOL    HW114597   7.006   0.709   6.780
 4566SOL    HW214598   0.130   0.774   6.823
 4567SOL     OW14599   6.690   1.560   0.798
 4567SOL    HW114600   6.673   1.497   0.873
 4567SOL    HW214601   6.616   1.628   0.794
 4568SOL     OW14602   3.285   4.472   5.715
 4568SOL    HW114603   3.379   4.438   5.712
 4568SOL    HW214604   3.234   4.435   5.637
 4569SOL     OW14605   1.161   1.875   4.123
 4569SOL    HW114606   1.209   1.959   4.098
 4569SOL    HW214607   1.152   1.869   4.222
 4570SOL     OW14608   6.902   5.979   3.521
 4570SOL    HW114609   6.863   5.901   3.471
 4570SOL    HW214610   6.871   5.975   3.616
 4571SOL     OW14611   3.290   3.534   4.538
 4571SOL    HW114612   3.256   3.464   4.601
 4571SOL    HW214613   3.381   3.508   4.505
 4572SOL     OW14614   1.583   6.839   1.199
 4572SOL    HW114615   1.578   6.898   1.118
 4572SOL    HW214616   1.556   6.892   1.280
 4573SOL     OW14617   5.825   5.579   1.088
 4573SOL    HW114618   5.831   5.640   1.167
 4573SOL    HW214619   5.812   5.633   1.005
 4574SOL     OW14620   6.935   4.280   1.993
 4574SOL    HW114621   6.855   4.221   2.000
 4574SOL    HW214622   6.989   4.274   2.077
 4575SOL     OW14623   6.498   1.113   1.519
 4575SOL    HW114624   6.422   1.091   1.580
 4575SOL    HW214625   6.464   1.127   1.426
 4576SOL     OW14626   3.120   5.598   6.363
 4576SOL    HW114627   3.144   5.660   6.438
 4576SOL    HW214628   3.021   5.598   6.349
 4577SOL     OW14629   1.438   3.614   3.336
 4577SOL    HW114630   1.458   3.525   3.294
 4577SOL    HW214631   1.414   3.679   3.265
 4578SOL     OW14632   0.099   3.796   4.133
 4578SOL    HW114633   0.099   3.715   4.075
 4578SOL    HW214634   0.156   3.779   4.214
 4579SOL     OW14635   5.333   2.013   3.249
 4579SOL    HW114636   5.247   2.058   3.226
 4579SOL    HW214637   5.407   2.080   3.244
 4580SOL     OW14638   5.785   6.051   0.712
 4580SOL    HW114639   5.686   6.038   0.719
 4580SOL    HW214640   5.807   6.146   0.731
 4581SOL     OW14641   3.322   5.631   3.597
 4581SOL    HW114642   3.370   5.545   3.580
 4581SOL    HW214643   3.230   5.627   3.558
 4582SOL     OW14644   5.154   6.363   3.031
 4582SOL    HW114645   5.091   6.408   2.967
 4582SOL    HW214646   5.236   6.333   2.982
 4583SOL     OW14647   3.152   2.089   5.642
 4583SOL    HW114648   3.160   2.095   5.741
 4583SOL    HW214649   3.172   2.179   5.602
 4584SOL     OW14650   0.741   5.346   5.607
 4584SOL    HW114651   0.656   5.315   5.649
 4584SOL    HW214652   0.814   5.350   5.676
 4585SOL     OW14653   3.073   5.877   3.339
 4585SOL    HW114654   3.144   5.932   3.296
 4585SOL    HW214655   2.985   5.897   3.295
 4586SOL     OW14656   3.817   5.738   1.880
 4586SOL    HW114657   3.898   5.710   1.932
 4586SOL    HW214658   3.828   5.834   1.852
 4587SOL     OW14659   3.008   3.260   1.158
 4587SOL    HW114660   3.068   3.275   1.237
 4587SOL    HW214661   3.020   3.166   1.126
 4588SOL     OW14662   3.848   3.479   5.444
 4588SOL    HW114663   3.944   3.451   5.456
 4588SOL    HW214664   3.814   3.517   5.530
 4589SOL     OW14665   5.825   2.235   4.082
 4589SOL    HW114666   5.773   2.299   4.025
 4589SOL    HW214667   5.907   2.280   4.115
 4590SOL     OW14668   4.790   4.961   2.713
 4590SOL    HW114669   4.739   5.038   2.752
 4590SOL    HW214670   4.750   4.875   2.746
 4591SOL     OW14671   5.931   5.295   5.644
 4591SOL    HW114672   5.833   5.286   5.666
 4591SOL    HW214673   5.941   5.309   5.546
 4592SOL     OW14674   3.817   2.392   0.099
 4592SOL    HW114675   3.796   2.407   0.196
 4592SOL    HW214676   3.890   2.324   0.091
 4593SOL     OW14677   3.729   6.517   2.425
 4593SOL    HW114678   3.741   6.421   2.452
 4593SOL    HW214679   3.795   6.574   2.474
 4594SOL     OW14680   2.335   1.764   1.987
 4594SOL    HW114681   2.237   1.747   1.988
 4594SOL    HW214682   2.378   1.717   2.064
 4595SOL     OW14683   4.352   3.080   6.454
 4595SOL    HW114684   4.343   3.086   6.355
 4595SOL    HW214685   4.440   3.037   6.476
 4596SOL     OW14686   5.713   6.999   1.967
 4596SOL    HW114687   5.717   6.977   2.064
 4596SOL    HW214688   5.673   0.071   1.955
 4597SOL     OW14689   5.265   4.202   6.136
 4597SOL    HW114690   5.365   4.206   6.143
 4597SOL    HW214691   5.224   4.234   6.222
 4598SOL     OW14692   2.306   5.576   6.747
 4598SOL    HW114693   2.222   5.600   6.697
 4598SOL    HW214694   2.344   5.492   6.709
 4599SOL     OW14695   1.404   4.815   1.280
 4599SOL    HW114696   1.489   4.858   1.309
 4599SOL    HW214697   1.337   4.821   1.354
 4600SOL     OW14698   3.017   5.860   0.709
 4600SOL    HW114699   2.968   5.903   0.785
 4600SOL    HW214700   2.967   5.779   0.679
 4601SOL     OW14701   2.212   0.692   5.079
 4601SOL    HW114702   2.260   0.714   5.164
 4601SOL    HW214703   2.249   0.606   5.042
 4602SOL     OW14704   1.592   0.071   2.191
 4602SOL    HW114705   1.611   0.169   2.200
 4602SOL    HW214706   1.593   0.028   2.281
 4603SOL     OW14707   3.330   0.041   1.651
 4603SOL    HW114708   3.397   6.989   1.628
 4603SOL    HW214709   3.377   0.119   1.692
 4604SOL     OW14710   3.435   6.968   2.342
 4604SOL    HW114711   3.385   6.913   2.275
 4604SOL    HW214712   3.437   0.044   2.312
 4605SOL     OW14713   5.277   0.476   4.897
 4605SOL    HW114714   5.233   0.501   4.983
 4605SOL    HW214715   5.222   0.406   4.850
 4606SOL     OW14716   6.129   6.271   5.130
 4606SOL    HW114717   6.175   6.316   5.054
 4606SOL    HW214718   6.151   6.174   5.131
 4607SOL     OW14719   3.128   1.134   1.639
 4607SOL    HW114720   3.190   1.209   1.616
 4607SOL    HW214721   3.036   1.171   1.655
 4608SOL     OW14722   1.994   4.555   5.266
 4608SOL    HW114723   1.995   4.457   5.281
 4608SOL    HW214724   1.905   4.592   5.294
 4609SOL     OW14725   4.887   6.710   0.005
 4609SOL    HW114726   4.977   6.736   0.039
 4609SOL    HW214727   4.817   6.768   0.045
 4610SOL     OW14728   0.052   2.733   6.699
 4610SOL    HW114729   0.003   2.818   6.718
 4610SOL    HW214730   0.080   2.691   6.786
 4611SOL     OW14731   0.620   4.058   0.154
 4611SOL    HW114732   0.560   4.072   0.233
 4611SOL    HW214733   0.603   3.968   0.115
 4612SOL     OW14734   1.987   6.306   6.250
 4612SOL    HW114735   2.050   6.233   6.278
 4612SOL    HW214736   2.026   6.395   6.275
 4613SOL     OW14737   3.355   5.287   2.735
 4613SOL    HW114738   3.257   5.294   2.714
 4613SOL    HW214739   3.366   5.269   2.833
 4614SOL     OW14740   1.728   5.560   0.270
 4614SOL    HW114741   1.746   5.478   0.324
 4614SOL    HW214742   1.694   5.633   0.331
 4615SOL     OW14743   1.644   1.890   0.305
 4615SOL    HW114744   1.676   1.906   0.211
 4615SOL    HW214745   1.634   1.977   0.352
 4616SOL     OW14746   6.000   0.983   6.596
 4616SOL    HW114747   5.928   0.964   6.529
 4616SOL    HW214748   5.962   0.974   6.688
 4617SOL     OW14749   0.699   2.568   1.747
 4617SOL    HW114750   0.755   2.563   1.665
 4617SOL    HW214751   0.726   2.648   1.801
 4618SOL     OW14752   0.853   2.383   5.953
 4618SOL    HW114753   0.762   2.369   5.914
 4618SOL    HW214754   0.855   2.349   6.047
 4619SOL     OW14755   4.425   0.945   3.791
 4619SOL    HW114756   4.506   0.973   3.843
 4619SOL    HW214757   4.345   0.995   3.823
 4620SOL     OW14758   2.629   4.182   6.500
 4620SOL    HW114759   2.694   4.107   6.515
 4620SOL    HW214760   2.648   4.224   6.411
 4621SOL     OW14761   0.493   0.608   4.931
 4621SOL    HW114762   0.552   0.527   4.930
 4621SOL    HW214763   0.463   0.627   4.837
 4622SOL     OW14764   1.835   2.949   0.581
 4622SOL    HW114765   1.813   2.871   0.522
 4622SOL    HW214766   1.782   3.028   0.551
 4623SOL     OW14767   6.745   4.929   1.360
 4623SOL    HW114768   6.834   4.900   1.395
 4623SOL    HW214769   6.740   4.910   1.262
 4624SOL     OW14770   4.759   0.296   4.113
 4624SOL    HW114771   4.729   0.202   4.100
 4624SOL    HW214772   4.744   0.348   4.029
 4625SOL     OW14773   0.848   3.695   6.769
 4625SOL    HW114774   0.921   3.698   6.838
 4625SOL    HW214775   0.790   3.776   6.779
 4626SOL     OW14776   6.338   5.250   1.453
 4626SOL    HW114777   6.383   5.186   1.392
 4626SOL    HW214778   6.257   5.206   1.493
 4627SOL     OW14779   3.549   6.125   5.524
 4627SOL    HW114780   3.523   6.219   5.504
 4627SOL    HW214781   3.613   6.124   5.601
 4628SOL     OW14782   6.215   4.622   1.992
 4628SOL    HW114783   6.165   4.617   2.079
 4628SOL    HW214784   6.159   4.585   1.919
 4629SOL     OW14785   2.089   4.599   5.580
 4629SOL    HW114786   2.104   4.523   5.517
 4629SOL    HW214787   2.053   4.677   5.529
 4630SOL     OW14788   2.288   5.769   3.013
 4630SOL    HW114789   2.277   5.781   2.915
 4630SOL    HW214790   2.365   5.709   3.031
 4631SOL     OW14791   2.879   6.521   2.828
 4631SOL    HW114792   2.875   6.422   2.812
 4631SOL    HW214793   2.880   6.569   2.740
 4632SOL     OW14794   4.580   5.598   4.188
 4632SOL    HW114795   4.555   5.641   4.101
 4632SOL    HW214796   4.633   5.515   4.170
 4633SOL     OW14797   6.588   2.055   4.793
 4633SOL    HW114798   6.620   2.114   4.720
 4633SOL    HW214799   6.488   2.046   4.789
 4634SOL     OW14800   2.728   4.455   0.829
 4634SOL    HW114801   2.702   4.453   0.925
 4634SOL    HW214802   2.698   4.540   0.787
 4635SOL     OW14803   5.332   3.127   2.386
 4635SOL    HW114804   5.235   3.105   2.383
 4635SOL    HW214805   5.380   3.080   2.312
 4636SOL     OW14806   2.941   5.578   0.393
 4636SOL    HW114807   2.977   5.496   0.349
 4636SOL    HW214808   2.871   5.619   0.336
 4637SOL     OW14809   1.237   1.014   5.376
 4637SOL    HW114810   1.154   1.053   5.336
 4637SOL    HW214811   1.317   1.052   5.330
 4638SOL     OW14812   4.807   3.304   5.762
 4638SOL    HW114813   4.762   3.393   5.753
 4638SOL    HW214814   4.838   3.293   5.857
 4639SOL     OW14815   0.874   3.873   6.066
 4639SOL    HW114816   0.785   3.918   6.057
 4639SOL    HW214817   0.861   3.777   6.089
 4640SOL     OW14818   5.271   4.370   3.052
 4640SOL    HW114819   5.202   4.304   3.082
 4640SOL    HW214820   5.225   4.454   3.021
 4641SOL     OW14821   2.634   4.867   4.388
 4641SOL    HW114822   2.617   4.771   4.410
 4641SOL    HW214823   2.619   4.923   4.470
 4642SOL     OW14824   6.696   6.258   4.370
 4642SOL    HW114825   6.637   6.278   4.448
 4642SOL    HW214826   6.661   6.305   4.289
 4643SOL     OW14827   3.877   2.284   1.686
 4643SOL    HW114828   3.875   2.190   1.652
 4643SOL    HW214829   3.796   2.300   1.742
 4644SOL     OW14830   1.451   5.944   4.332
 4644SOL    HW114831   1.541   5.974   4.365
 4644SOL    HW214832   1.420   6.007   4.260
 4645SOL     OW14833   1.786   6.577   4.482
 4645SOL    HW114834   1.726   6.557   4.405
 4645SOL    HW214835   1.745   6.542   4.567
 4646SOL     OW14836   2.806   0.221   2.186
 4646SOL    HW114837   2.815   0.275   2.102
 4646SOL    HW214838   2.803   0.124   2.164
 4647SOL     OW14839   6.326   0.413   3.711
 4647SOL    HW114840   6.313   0.506   3.677
 4647SOL    HW214841   6.305   0.410   3.809
 4648SOL     OW14842   2.551   5.940   2.332
 4648SOL    HW114843   2.524   5.897   2.245
 4648SOL    HW214844   2.511   6.032   2.337
 4649SOL     OW14845   4.925   0.722   5.459
 4649SOL    HW114846   4.907   0.628   5.429
 4649SOL    HW214847   5.001   0.721   5.525
 4650SOL     OW14848   5.102   5.327   2.581
 4650SOL    HW114849   5.141   5.335   2.490
 4650SOL    HW214850   5.013   5.372   2.583
 4651SOL     OW14851   0.416   2.060   1.617
 4651SOL    HW114852   0.480   1.990   1.586
 4651SOL    HW214853   0.433   2.145   1.567
 4652SOL     OW14854   6.593   0.219   5.221
 4652SOL    HW114855   6.645   0.142   5.258
 4652SOL    HW214856   6.634   0.249   5.135
 4653SOL     OW14857   0.034   6.311   6.886
 4653SOL    HW114858   0.063   6.406   6.875
 4653SOL    HW214859   0.050   6.283   6.981
 4654SOL     OW14860   1.031   0.168   0.450
 4654SOL    HW114861   1.030   0.162   0.351
 4654SOL    HW214862   0.938   0.159   0.486
 4655SOL     OW14863   0.496   4.484   3.194
 4655SOL    HW114864   0.443   4.566   3.170
 4655SOL    HW214865   0.581   4.483   3.142
 4656SOL     OW14866   1.038   0.792   3.704
 4656SOL    HW114867   1.129   0.832   3.699
 4656SOL    HW214868   0.999   0.786   3.612
 4657SOL     OW14869   5.030   6.990   1.639
 4657SOL    HW114870   5.069   0.063   1.636
 4657SOL    HW214871   5.096   6.925   1.603
 4658SOL     OW14872   4.397   0.194   3.065
 4658SOL    HW114873   4.430   0.276   3.111
 4658SOL    HW214874   4.297   0.197   3.059
 4659SOL     OW14875   2.085   2.586   4.840
 4659SOL    HW114876   2.019   2.552   4.773
 4659SOL    HW214877   2.037   2.635   4.912
 4660SOL     OW14878   0.448   1.319   6.188
 4660SOL    HW114879   0.426   1.223   6.175
 4660SOL    HW214880   0.505   1.351   6.112
 4661SOL     OW14881   3.499   4.040   4.492
 4661SOL    HW114882   3.446   4.088   4.422
 4661SOL    HW214883   3.478   3.942   4.488
 4662SOL     OW14884   4.994   0.436   5.406
 4662SOL    HW114885   5.070   0.413   5.468
 4662SOL    HW214886   4.998   0.376   5.326
 4663SOL     OW14887   6.657   2.535   2.554
 4663SOL    HW114888   6.598   2.455   2.548
 4663SOL    HW214889   6.707   2.533   2.641
 4664SOL     OW14890   3.185   2.386   0.178
 4664SOL    HW114891   3.149   2.294   0.194
 4664SOL    HW214892   3.276   2.378   0.136
 4665SOL     OW14893   5.050   0.120   6.747
 4665SOL    HW114894   4.988   0.043   6.759
 4665SOL    HW214895   5.143   0.086   6.736
 4666SOL     OW14896   2.339   1.587   0.584
 4666SOL    HW114897   2.306   1.559   0.675
 4666SOL    HW214898   2.341   1.686   0.579
 4667SOL     OW14899   0.132   4.886   6.639
 4667SOL    HW114900   0.127   4.958   6.569
 4667SOL    HW214901   0.223   4.845   6.637
 4668SOL     OW14902   6.590   1.712   4.567
 4668SOL    HW114903   6.527   1.771   4.518
 4668SOL    HW214904   6.633   1.764   4.641
 4669SOL     OW14905   1.238   6.886   0.402
 4669SOL    HW114906   1.199   6.921   0.487
 4669SOL    HW214907   1.324   6.840   0.422
 4670SOL     OW14908   2.480   2.196   4.743
 4670SOL    HW114909   2.408   2.246   4.792
 4670SOL    HW214910   2.466   2.207   4.644
 4671SOL     OW14911   5.744   3.177   1.671
 4671SOL    HW114912   5.684   3.125   1.610
 4671SOL    HW214913   5.693   3.207   1.751
 4672SOL     OW14914   2.294   3.776   6.416
 4672SOL    HW114915   2.254   3.863   6.444
 4672SOL    HW214916   2.223   3.717   6.378
 4673SOL     OW14917   3.164   1.006   2.307
 4673SOL    HW114918   3.227   0.990   2.383
 4673SOL    HW214919   3.145   1.104   2.299
 4674SOL     OW14920   4.621   5.779   5.096
 4674SOL    HW114921   4.689   5.709   5.072
 4674SOL    HW214922   4.663   5.870   5.087
 4675SOL     OW14923   1.254   4.117   0.030
 4675SOL    HW114924   1.332   4.056   0.018
 4675SOL    HW214925   1.277   4.189   0.096
 4676SOL     OW14926   1.501   5.589   3.164
 4676SOL    HW114927   1.402   5.578   3.175
 4676SOL    HW214928   1.546   5.500   3.176
 4677SOL     OW14929   1.695   2.525   0.066
 4677SOL    HW114930   1.700   2.563   6.993
 4677SOL    HW214931   1.653   2.434   0.062
 4678SOL     OW14932   1.867   4.432   2.852
 4678SOL    HW114933   1.816   4.511   2.817
 4678SOL    HW214934   1.821   4.348   2.825
 4679SOL     OW14935   5.480   6.991   1.255
 4679SOL    HW114936   5.385   0.003   1.246
 4679SOL    HW214937   5.520   0.008   1.339
 4680SOL     OW14938   2.507   1.251   1.777
 4680SOL    HW114939   2.492   1.328   1.715
 4680SOL    HW214940   2.553   1.177   1.729
 4681SOL     OW14941   5.606   3.893   1.069
 4681SOL    HW114942   5.680   3.846   1.020
 4681SOL    HW214943   5.572   3.834   1.142
 4682SOL     OW14944   4.784   3.665   6.553
 4682SOL    HW114945   4.857   3.624   6.499
 4682SOL    HW214946   4.704   3.605   6.551
 4683SOL     OW14947   6.155   4.024   3.870
 4683SOL    HW114948   6.142   4.121   3.889
 4683SOL    HW214949   6.211   3.983   3.942
 4684SOL     OW14950   4.688   6.464   0.141
 4684SOL    HW114951   4.736   6.493   0.059
 4684SOL    HW214952   4.751   6.468   0.219
 4685SOL     OW14953   2.574   3.594   5.868
 4685SOL    HW114954   2.629   3.676   5.851
 4685SOL    HW214955   2.507   3.613   5.940
 4686SOL     OW14956   3.171   5.703   0.481
 4686SOL    HW114957   3.157   5.722   0.578
 4686SOL    HW214958   3.087   5.668   0.441
 4687SOL     OW14959   3.063   0.853   2.732
 4687SOL    HW114960   3.131   0.883   2.799
 4687SOL    HW214961   2.989   0.804   2.778
 4688SOL     OW14962   5.653   2.897   5.825
 4688SOL    HW114963   5.587   2.928   5.893
 4688SOL    HW214964   5.659   2.964   5.751
 4689SOL     OW14965   5.550   0.430   0.452
 4689SOL    HW114966   5.623   0.385   0.401
 4689SOL    HW214967   5.530   0.519   0.410
 4690SOL     OW14968   2.358   1.203   0.853
 4690SOL    HW114969   2.414   1.131   0.895
 4690SOL    HW214970   2.265   1.170   0.843
 4691SOL     OW14971   5.757   4.596   0.653
 4691SOL    HW114972   5.764   4.677   0.710
 4691SOL    HW214973   5.712   4.523   0.706
 4692SOL     OW14974   6.780   4.519   3.310
 4692SOL    HW114975   6.717   4.472   3.372
 4692SOL    HW214976   6.769   4.483   3.218
 4693SOL     OW14977   1.669   1.136   3.603
 4693SOL    HW114978   1.641   1.215   3.658
 4693SOL    HW214979   1.588   1.089   3.568
 4694SOL     OW14980   2.669   1.078   0.661
 4694SOL    HW114981   2.706   1.016   0.730
 4694SOL    HW214982   2.743   1.113   0.605
 4695SOL     OW14983   1.447   5.918   0.678
 4695SOL    HW114984   1.464   5.819   0.669
 4695SOL    HW214985   1.460   5.945   0.773
 4696SOL     OW14986   1.470   5.415   6.070
 4696SOL    HW114987   1.468   5.315   6.069
 4696SOL    HW214988   1.471   5.448   6.165
 4697SOL     OW14989   2.348   4.538   0.929
 4697SOL    HW114990   2.414   4.497   0.991
 4697SOL    HW214991   2.369   4.511   0.835
 4698SOL     OW14992   4.778   0.781   3.378
 4698SOL    HW114993   4.744   0.722   3.451
 4698SOL    HW214994   4.764   0.877   3.403
 4699SOL     OW14995   0.987   0.694   1.746
 4699SOL    HW114996   0.908   0.727   1.797
 4699SOL    HW214997   1.041   0.633   1.804
 4700SOL     OW14998   5.885   2.356   2.792
 4700SOL    HW114999   5.838   2.310   2.868
 4700SOL    HW215000   5.825   2.425   2.753
 4701SOL     OW15001   3.485   2.007   2.141
 4701SOL    HW115002   3.530   2.093   2.117
 4701SOL    HW215003   3.551   1.944   2.180
 4702SOL     OW15004   5.032   4.842   6.357
 4702SOL    HW115005   5.027   4.833   6.457
 4702SOL    HW215006   4.985   4.925   6.328
 4703SOL     OW15007   1.114   4.742   2.858
 4703SOL    HW115008   1.161   4.655   2.846
 4703SOL    HW215009   1.043   4.752   2.788
 4704SOL     OW15010   0.240   5.795   5.681
 4704SOL    HW115011   0.218   5.857   5.605
 4704SOL    HW215012   0.338   5.800   5.700
 4705SOL     OW15013   3.089   2.798   1.486
 4705SOL    HW115014   3.039   2.745   1.554
 4705SOL    HW215015   3.065   2.895   1.495
 4706SOL     OW15016   1.396   0.618   0.474
 4706SOL    HW115017   1.351   0.653   0.392
 4706SOL    HW215018   1.442   0.531   0.453
 4707SOL     OW15019   1.494   6.681   1.502
 4707SOL    HW115020   1.564   6.661   1.570
 4707SOL    HW215021   1.505   6.775   1.468
 4708SOL     OW15022   0.774   2.542   3.862
 4708SOL    HW115023   0.820   2.483   3.928
 4708SOL    HW215024   0.773   2.499   3.772
 4709SOL     OW15025   4.837   4.014   5.020
 4709SOL    HW115026   4.816   4.035   4.924
 4709SOL    HW215027   4.892   3.930   5.024
 4710SOL     OW15028   5.839   6.386   4.020
 4710SOL    HW115029   5.866   6.326   3.944
 4710SOL    HW215030   5.797   6.331   4.092
 4711SOL     OW15031   6.091   3.344   3.279
 4711SOL    HW115032   6.047   3.259   3.251
 4711SOL    HW215033   6.142   3.381   3.201
 4712SOL     OW15034   4.534   4.229   5.403
 4712SOL    HW115035   4.528   4.247   5.305
 4712SOL    HW215036   4.550   4.314   5.452
 4713SOL     OW15037   5.534   4.168   0.931
 4713SOL    HW115038   5.547   4.079   0.975
 4713SOL    HW215039   5.489   4.231   0.995
 4714SOL     OW15040   6.382   1.006   6.142
 4714SOL    HW115041   6.322   1.021   6.064
 4714SOL    HW215042   6.330   1.018   6.227
 4715SOL     OW15043   6.172   2.079   2.341
 4715SOL    HW115044   6.149   1.998   2.288
 4715SOL    HW215045   6.092   2.110   2.391
 4716SOL     OW15046   3.948   4.730   5.733
 4716SOL    HW115047   4.027   4.790   5.724
 4716SOL    HW215048   3.898   4.728   5.646
 4717SOL     OW15049   3.283   5.147   5.584
 4717SOL    HW115050   3.248   5.135   5.491
 4717SOL    HW215051   3.341   5.069   5.608
 4718SOL     OW15052   5.289   3.570   0.990
 4718SOL    HW115053   5.286   3.667   1.015
 4718SOL    HW215054   5.363   3.525   1.039
 4719SOL     OW15055   6.279   3.454   3.846
 4719SOL    HW115056   6.284   3.408   3.934
 4719SOL    HW215057   6.191   3.435   3.803
 4720SOL     OW15058   2.828   4.427   6.830
 4720SOL    HW115059   2.875   4.428   6.741
 4720SOL    HW215060   2.737   4.388   6.820
 4721SOL     OW15061   6.363   3.424   2.712
 4721SOL    HW115062   6.389   3.351   2.776
 4721SOL    HW215063   6.321   3.499   2.763
 4722SOL     OW15064   1.206   4.337   6.149
 4722SOL    HW115065   1.123   4.283   6.132
 4722SOL    HW215066   1.183   4.434   6.150
 4723SOL     OW15067   3.774   3.826   6.044
 4723SOL    HW115068   3.675   3.822   6.033
 4723SOL    HW215069   3.814   3.881   5.971
 4724SOL     OW15070   0.487   6.408   4.315
 4724SOL    HW115071   0.418   6.338   4.294
 4724SOL    HW215072   0.448   6.498   4.298
 4725SOL     OW15073   5.718   5.170   0.390
 4725SOL    HW115074   5.657   5.137   0.318
 4725SOL    HW215075   5.808   5.188   0.350
 4726SOL     OW15076   2.101   3.206   5.844
 4726SOL    HW115077   2.137   3.118   5.811
 4726SOL    HW215078   2.150   3.232   5.928
 4727SOL     OW15079   0.709   5.873   0.573
 4727SOL    HW115080   0.611   5.882   0.590
 4727SOL    HW215081   0.742   5.788   0.613
 4728SOL     OW15082   6.040   0.884   3.947
 4728SOL    HW115083   6.028   0.834   4.032
 4728SOL    HW215084   5.972   0.957   3.941
 4729SOL     OW15085   6.246   0.635   0.339
 4729SOL    HW115086   6.290   0.720   0.311
 4729SOL    HW215087   6.232   0.577   0.258
 4730SOL     OW15088   3.190   6.462   5.014
 4730SOL    HW115089   3.147   6.496   4.930
 4730SOL    HW215090   3.199   6.537   5.079
 4731SOL     OW15091   2.914   0.036   0.805
 4731SOL    HW115092   2.874   7.004   0.729
 4731SOL    HW215093   3.011   0.052   0.787
 4732SOL     OW15094   0.282   3.621   4.369
 4732SOL    HW115095   0.241   3.685   4.434
 4732SOL    HW215096   0.259   3.527   4.396
 4733SOL     OW15097   2.056   3.480   2.856
 4733SOL    HW115098   1.959   3.502   2.865
 4733SOL    HW215099   2.097   3.541   2.788
 4734SOL     OW15100   5.291   3.873   6.204
 4734SOL    HW115101   5.193   3.883   6.190
 4734SOL    HW215102   5.339   3.945   6.155
 4735SOL     OW15103   6.963   6.473   4.930
 4735SOL    HW115104   7.013   6.449   5.013
 4735SOL    HW215105   6.964   6.395   4.867
 4736SOL     OW15106   6.578   2.021   3.347
 4736SOL    HW115107   6.532   2.110   3.342
 4736SOL    HW215108   6.668   2.032   3.389
 4737SOL     OW15109   2.042   5.257   1.288
 4737SOL    HW115110   2.081   5.182   1.340
 4737SOL    HW215111   1.992   5.221   1.209
 4738SOL     OW15112   2.075   0.657   3.843
 4738SOL    HW115113   2.024   0.742   3.832
 4738SOL    HW215114   2.173   0.677   3.847
 4739SOL     OW15115   6.220   3.504   4.997
 4739SOL    HW115116   6.212   3.517   5.096
 4739SOL    HW215117   6.174   3.579   4.950
 4740SOL     OW15118   0.392   1.157   1.815
 4740SOL    HW115119   0.330   1.185   1.742
 4740SOL    HW215120   0.414   1.237   1.872
 4741SOL     OW15121   4.414   4.767   1.225
 4741SOL    HW115122   4.439   4.696   1.159
 4741SOL    HW215123   4.365   4.726   1.301
 4742SOL     OW15124   2.850   5.977   0.881
 4742SOL    HW115125   2.907   6.056   0.904
 4742SOL    HW215126   2.768   6.008   0.833
 4743SOL     OW15127   2.173   1.746   6.712
 4743SOL    HW115128   2.241   1.775   6.780
 4743SOL    HW215129   2.106   1.687   6.756
 4744SOL     OW15130   1.860   3.578   5.495
 4744SOL    HW115131   1.904   3.545   5.412
 4744SOL    HW215132   1.779   3.632   5.470
 4745SOL     OW15133   3.737   5.239   5.172
 4745SOL    HW115134   3.750   5.145   5.140
 4745SOL    HW215135   3.820   5.270   5.217
 4746SOL     OW15136   6.211   5.998   0.648
 4746SOL    HW115137   6.142   6.025   0.581
 4746SOL    HW215138   6.179   6.018   0.740
 4747SOL     OW15139   6.881   2.163   0.513
 4747SOL    HW115140   6.946   2.156   0.589
 4747SOL    HW215141   6.804   2.101   0.530
 4748SOL     OW15142   1.212   0.516   1.796
 4748SOL    HW115143   1.190   0.451   1.723
 4748SOL    HW215144   1.253   0.598   1.756
 4749SOL     OW15145   2.199   6.441   0.011
 4749SOL    HW115146   2.206   6.509   6.958
 4749SOL    HW215147   2.113   6.452   0.060
 4750SOL     OW15148   6.924   1.061   4.528
 4750SOL    HW115149   6.892   1.050   4.433
 4750SOL    HW215150   6.959   0.974   4.562
 4751SOL     OW15151   1.413   4.948   6.391
 4751SOL    HW115152   1.452   4.905   6.310
 4751SOL    HW215153   1.411   4.882   6.466
 4752SOL     OW15154   3.055   6.426   1.709
 4752SOL    HW115155   3.082   6.381   1.794
 4752SOL    HW215156   3.102   6.514   1.701
 4753SOL     OW15157   5.699   6.827   5.144
 4753SOL    HW115158   5.603   6.825   5.169
 4753SOL    HW215159   5.708   6.847   5.046
 4754SOL     OW15160   0.163   6.745   5.820
 4754SOL    HW115161   0.078   6.777   5.779
 4754SOL    HW215162   0.161   6.763   5.919
 4755SOL     OW15163   2.477   1.760   6.138
 4755SOL    HW115164   2.461   1.858   6.145
 4755SOL    HW215165   2.474   1.719   6.230
 4756SOL     OW15166   4.809   2.839   1.501
 4756SOL    HW115167   4.856   2.794   1.425
 4756SOL    HW215168   4.711   2.822   1.496
 4757SOL     OW15169   2.171   2.255   1.946
 4757SOL    HW115170   2.124   2.188   1.889
 4757SOL    HW215171   2.269   2.251   1.928
 4758SOL     OW15172   4.982   4.892   5.199
 4758SOL    HW115173   5.028   4.924   5.117
 4758SOL    HW215174   5.036   4.917   5.280
 4759SOL     OW15175   5.629   6.001   6.161
 4759SOL    HW115176   5.549   5.944   6.179
 4759SOL    HW215177   5.615   6.054   6.078
 4760SOL     OW15178   2.050   0.907   1.592
 4760SOL    HW115179   2.143   0.934   1.619
 4760SOL    HW215180   2.051   0.877   1.497
 4761SOL     OW15181   6.686   0.259   6.332
 4761SOL    HW115182   6.724   0.167   6.335
 4761SOL    HW215183   6.587   0.254   6.316
 4762SOL     OW15184   2.878   5.145   2.231
 4762SOL    HW115185   2.932   5.228   2.246
 4762SOL    HW215186   2.840   5.146   2.139
 4763SOL     OW15187   6.114   6.436   3.007
 4763SOL    HW115188   6.116   6.474   3.100
 4763SOL    HW215189   6.061   6.497   2.948
 4764SOL     OW15190   4.279   3.485   5.262
 4764SOL    HW115191   4.260   3.562   5.201
 4764SOL    HW215192   4.378   3.474   5.272
 4765SOL     OW15193   4.605   6.075   4.892
 4765SOL    HW115194   4.656   6.041   4.971
 4765SOL    HW215195   4.508   6.083   4.916
 4766SOL     OW15196   2.353   0.271   3.487
 4766SOL    HW115197   2.398   0.185   3.464
 4766SOL    HW215198   2.343   0.327   3.404
 4767SOL     OW15199   3.892   6.798   0.101
 4767SOL    HW115200   3.887   6.779   0.003
 4767SOL    HW215201   3.801   6.792   0.141
 4768SOL     OW15202   5.762   0.672   4.651
 4768SOL    HW115203   5.744   0.748   4.588
 4768SOL    HW215204   5.791   0.592   4.599
 4769SOL     OW15205   4.156   6.373   1.598
 4769SOL    HW115206   4.191   6.287   1.561
 4769SOL    HW215207   4.056   6.372   1.596
 4770SOL     OW15208   2.240   0.662   3.435
 4770SOL    HW115209   2.148   0.636   3.464
 4770SOL    HW215210   2.274   0.596   3.368
 4771SOL     OW15211   3.599   4.253   6.116
 4771SOL    HW115212   3.539   4.290   6.188
 4771SOL    HW215213   3.543   4.222   6.040
 4772SOL     OW15214   2.872   1.281   1.635
 4772SOL    HW115215   2.793   1.227   1.664
 4772SOL    HW215216   2.872   1.369   1.683
 4773SOL     OW15217   0.317   5.851   3.372
 4773SOL    HW115218   0.319   5.763   3.419
 4773SOL    HW215219   0.258   5.914   3.421
 4774SOL     OW15220   1.082   3.411   1.875
 4774SOL    HW115221   0.989   3.385   1.847
 4774SOL    HW215222   1.086   3.511   1.885
 4775SOL     OW15223   4.484   0.409   3.196
 4775SOL    HW115224   4.403   0.459   3.227
 4775SOL    HW215225   4.556   0.416   3.265
 4776SOL     OW15226   3.113   6.154   2.605
 4776SOL    HW115227   3.131   6.076   2.546
 4776SOL    HW215228   3.093   6.122   2.698
 4777SOL     OW15229   2.670   4.447   1.101
 4777SOL    HW115230   2.621   4.360   1.101
 4777SOL    HW215231   2.661   4.490   1.191
 4778SOL     OW15232   4.743   3.620   1.801
 4778SOL    HW115233   4.757   3.627   1.702
 4778SOL    HW215234   4.685   3.541   1.821
 4779SOL     OW15235   6.717   0.348   3.171
 4779SOL    HW115236   6.765   0.435   3.170
 4779SOL    HW215237   6.667   0.336   3.086
 4780SOL     OW15238   0.998   6.559   6.164
 4780SOL    HW115239   0.985   6.465   6.133
 4780SOL    HW215240   1.091   6.589   6.141
 4781SOL     OW15241   1.973   5.235   0.866
 4781SOL    HW115242   1.993   5.140   0.889
 4781SOL    HW215243   2.035   5.296   0.916
 4782SOL     OW15244   5.244   6.441   6.567
 4782SOL    HW115245   5.144   6.442   6.566
 4782SOL    HW215246   5.275   6.353   6.603
 4783SOL     OW15247   5.302   3.932   1.030
 4783SOL    HW115248   5.395   3.900   1.048
 4783SOL    HW215249   5.272   3.991   1.104
 4784SOL     OW15250   5.645   5.274   5.572
 4784SOL    HW115251   5.566   5.323   5.609
 4784SOL    HW215252   5.628   5.250   5.476
 4785SOL     OW15253   6.880   6.232   0.575
 4785SOL    HW115254   6.798   6.177   0.569
 4785SOL    HW215255   6.863   6.323   0.537
 4786SOL     OW15256   1.861   3.071   1.980
 4786SOL    HW115257   1.936   3.086   2.044
 4786SOL    HW215258   1.885   2.996   1.919
 4787SOL     OW15259   3.176   2.092   3.432
 4787SOL    HW115260   3.224   2.006   3.412
 4787SOL    HW215261   3.169   2.146   3.348
 4788SOL     OW15262   0.759   5.049   5.125
 4788SOL    HW115263   0.716   5.112   5.190
 4788SOL    HW215264   0.831   5.098   5.075
 4789SOL     OW15265   5.776   0.402   6.642
 4789SOL    HW115266   5.802   0.498   6.653
 4789SOL    HW215267   5.853   0.351   6.603
 4790SOL     OW15268   5.865   2.547   6.514
 4790SOL    HW115269   5.841   2.623   6.574
 4790SOL    HW215270   5.878   2.464   6.568
 4791SOL     OW15271   5.423   6.937   2.139
 4791SOL    HW115272   5.523   6.934   2.141
 4791SOL    HW215273   5.387   6.926   2.231
 4792SOL     OW15274   2.239   2.911   2.843
 4792SOL    HW115275   2.183   2.949   2.917
 4792SOL    HW215276   2.313   2.975   2.822
 4793SOL     OW15277   1.367   0.192   6.503
 4793SOL    HW115278   1.396   0.128   6.432
 4793SOL    HW215279   1.321   0.270   6.461
 4794SOL     OW15280   2.384   6.408   3.331
 4794SOL    HW115281   2.431   6.436   3.415
 4794SOL    HW215282   2.338   6.321   3.346
 4795SOL     OW15283   6.224   3.089   4.525
 4795SOL    HW115284   6.170   3.110   4.607
 4795SOL    HW215285   6.320   3.111   4.542
 4796SOL     OW15286   5.718   3.862   0.353
 4796SOL    HW115287   5.700   3.948   0.401
 4796SOL    HW215288   5.765   3.880   0.267
 4797SOL     OW15289   0.809   4.829   5.742
 4797SOL    HW115290   0.887   4.887   5.767
 4797SOL    HW215291   0.837   4.765   5.670
 4798SOL     OW15292   0.325   4.421   3.927
 4798SOL    HW115293   0.277   4.500   3.967
 4798SOL    HW215294   0.321   4.427   3.828
 4799SOL     OW15295   5.075   1.282   4.767
 4799SOL    HW115296   5.080   1.302   4.669
 4799SOL    HW215297   5.110   1.191   4.785
 4800SOL     OW15298   2.750   2.721   5.617
 4800SOL    HW115299   2.671   2.660   5.609
 4800SOL    HW215300   2.784   2.743   5.526
 4801SOL     OW15301   1.759   1.623   0.608
 4801SOL    HW115302   1.727   1.529   0.619
 4801SOL    HW215303   1.817   1.629   0.527
 4802SOL     OW15304   2.633   6.824   1.644
 4802SOL    HW115305   2.633   6.913   1.598
 4802SOL    HW215306   2.622   6.752   1.576
 4803SOL     OW15307   0.609   6.684   0.777
 4803SOL    HW115308   0.568   6.594   0.767
 4803SOL    HW215309   0.593   6.737   0.694
 4804SOL     OW15310   4.295   4.874   6.260
 4804SOL    HW115311   4.285   4.793   6.318
 4804SOL    HW215312   4.278   4.850   6.165
 4805SOL     OW15313   0.008   1.562   7.008
 4805SOL    HW115314   0.107   1.551   7.018
 4805SOL    HW215315   7.006   1.659   6.996
 4806SOL     OW15316   0.293   3.791   2.935
 4806SOL    HW115317   0.320   3.707   2.887
 4806SOL    HW215318   0.252   3.767   3.023
 4807SOL     OW15319   0.750   5.819   1.605
 4807SOL    HW115320   0.717   5.883   1.536
 4807SOL    HW215321   0.731   5.725   1.576
 4808SOL     OW15322   5.175   3.568   1.465
 4808SOL    HW115323   5.120   3.508   1.523
 4808SOL    HW215324   5.258   3.594   1.514
 4809SOL     OW15325   3.249   4.955   6.694
 4809SOL    HW115326   3.215   5.036   6.647
 4809SOL    HW215327   3.324   4.981   6.755
 4810SOL     OW15328   0.745   5.553   1.498
 4810SOL    HW115329   0.699   5.586   1.416
 4810SOL    HW215330   0.844   5.563   1.487
 4811SOL     OW15331   3.712   5.230   1.846
 4811SOL    HW115332   3.746   5.148   1.893
 4811SOL    HW215333   3.680   5.205   1.755
 4812SOL     OW15334   0.201   5.663   4.251
 4812SOL    HW115335   0.222   5.693   4.344
 4812SOL    HW215336   0.240   5.573   4.235
 4813SOL     OW15337   4.758   1.560   2.521
 4813SOL    HW115338   4.806   1.625   2.462
 4813SOL    HW215339   4.771   1.584   2.617
 4814SOL     OW15340   0.063   3.992   1.223
 4814SOL    HW115341   0.001   4.042   1.162
 4814SOL    HW215342   0.034   4.006   1.318
 4815SOL     OW15343   4.622   5.640   1.757
 4815SOL    HW115344   4.644   5.543   1.766
 4815SOL    HW215345   4.552   5.652   1.686
 4816SOL     OW15346   5.386   4.962   2.673
 4816SOL    HW115347   5.392   4.863   2.660
 4816SOL    HW215348   5.298   4.995   2.638
 4817SOL     OW15349   1.519   2.318   5.694
 4817SOL    HW115350   1.527   2.414   5.719
 4817SOL    HW215351   1.426   2.287   5.714
 4818SOL     OW15352   6.921   6.889   4.000
 4818SOL    HW115353   6.978   6.819   3.956
 4818SOL    HW215354   6.928   6.879   4.099
 4819SOL     OW15355   1.517   3.202   6.812
 4819SOL    HW115356   1.521   3.239   6.719
 4819SOL    HW215357   1.582   3.127   6.821
 4820SOL     OW15358   6.481   3.341   2.304
 4820SOL    HW115359   6.472   3.245   2.330
 4820SOL    HW215360   6.523   3.348   2.213
 4821SOL     OW15361   6.818   5.885   2.503
 4821SOL    HW115362   6.767   5.892   2.417
 4821SOL    HW215363   6.910   5.852   2.485
 4822SOL     OW15364   1.292   3.968   4.083
 4822SOL    HW115365   1.254   3.917   4.160
 4822SOL    HW215366   1.333   4.053   4.117
 4823SOL     OW15367   1.685   2.713   2.018
 4823SOL    HW115368   1.639   2.802   2.027
 4823SOL    HW215369   1.740   2.696   2.099
 4824SOL     OW15370   5.184   0.495   5.168
 4824SOL    HW115371   5.170   0.557   5.245
 4824SOL    HW215372   5.125   0.414   5.180
 4825SOL     OW15373   1.542   0.580   4.423
 4825SOL    HW115374   1.500   0.643   4.358
 4825SOL    HW215375   1.513   0.604   4.516
 4826SOL     OW15376   4.361   0.170   1.302
 4826SOL    HW115377   4.449   0.196   1.342
 4826SOL    HW215378   4.366   0.175   1.203
 4827SOL     OW15379   6.697   1.939   0.915
 4827SOL    HW115380   6.768   2.007   0.936
 4827SOL    HW215381   6.696   1.869   0.986
 4828SOL     OW15382   4.560   0.832   2.372
 4828SOL    HW115383   4.528   0.753   2.424
 4828SOL    HW215384   4.484   0.896   2.359
 4829SOL     OW15385   3.719   0.005   5.623
 4829SOL    HW115386   3.739   6.982   5.712
 4829SOL    HW215387   3.743   0.102   5.626
 4830SOL     OW15388   3.037   5.828   3.835
 4830SOL    HW115389   3.108   5.763   3.859
 4830SOL    HW215390   3.019   5.824   3.737
 4831SOL     OW15391   3.485   5.083   6.103
 4831SOL    HW115392   3.526   5.101   6.193
 4831SOL    HW215393   3.394   5.124   6.100
 4832SOL     OW15394   3.261   3.216   4.562
 4832SOL    HW115395   3.282   3.254   4.652
 4832SOL    HW215396   3.162   3.207   4.552
 4833SOL     OW15397   6.419   2.707   4.486
 4833SOL    HW115398   6.466   2.697   4.398
 4833SOL    HW215399   6.334   2.654   4.485
 4834SOL     OW15400   2.267   5.599   1.652
 4834SOL    HW115401   2.182   5.652   1.651
 4834SOL    HW215402   2.290   5.576   1.746
 4835SOL     OW15403   0.056   2.955   5.102
 4835SOL    HW115404   6.996   2.896   5.086
 4835SOL    HW215405   0.078   3.005   5.018
 4836SOL     OW15406   5.160   1.049   4.861
 4836SOL    HW115407   5.085   1.033   4.924
 4836SOL    HW215408   5.216   0.966   4.854
 4837SOL     OW15409   6.919   3.734   4.724
 4837SOL    HW115410   6.991   3.789   4.682
 4837SOL    HW215411   6.957   3.645   4.751
 4838SOL     OW15412   1.300   4.686   6.321
 4838SOL    HW115413   1.389   4.653   6.350
 4838SOL    HW215414   1.240   4.696   6.400
 4839SOL     OW15415   2.541   1.875   0.762
 4839SOL    HW115416   2.565   1.912   0.852
 4839SOL    HW215417   2.494   1.787   0.774
 4840SOL     OW15418   5.666   3.381   5.188
 4840SOL    HW115419   5.621   3.464   5.155
 4840SOL    HW215420   5.639   3.303   5.131
 4841SOL     OW15421   3.305   5.280   3.227
 4841SOL    HW115422   3.282   5.239   3.315
 4841SOL    HW215423   3.294   5.379   3.232
 4842SOL     OW15424   2.865   5.350   3.084
 4842SOL    HW115425   2.794   5.406   3.041
 4842SOL    HW215426   2.823   5.267   3.122
 4843SOL     OW15427   0.335   2.472   2.556
 4843SOL    HW115428   0.266   2.495   2.487
 4843SOL    HW215429   0.385   2.391   2.527
 4844SOL     OW15430   0.874   5.595   5.068
 4844SOL    HW115431   0.805   5.532   5.032
 4844SOL    HW215432   0.919   5.642   4.992
 4845SOL     OW15433   4.775   4.088   4.768
 4845SOL    HW115434   4.730   4.052   4.687
 4845SOL    HW215435   4.738   4.179   4.789
 4846SOL     OW15436   6.911   3.820   5.269
 4846SOL    HW115437   6.983   3.860   5.213
 4846SOL    HW215438   6.946   3.738   5.315
 4847SOL     OW15439   2.302   6.260   6.018
 4847SOL    HW115440   2.248   6.177   5.999
 4847SOL    HW215441   2.244   6.340   6.006
 4848SOL     OW15442   2.722   0.764   4.094
 4848SOL    HW115443   2.804   0.747   4.039
 4848SOL    HW215444   2.652   0.809   4.037
 4849SOL     OW15445   1.926   6.699   1.214
 4849SOL    HW115446   1.850   6.733   1.158
 4849SOL    HW215447   2.008   6.753   1.196
 4850SOL     OW15448   4.511   0.751   0.592
 4850SOL    HW115449   4.461   0.706   0.517
 4850SOL    HW215450   4.601   0.709   0.602
 4851SOL     OW15451   3.631   5.609   6.772
 4851SOL    HW115452   3.570   5.626   6.694
 4851SOL    HW215453   3.656   5.512   6.775
 4852SOL     OW15454   4.342   5.069   4.632
 4852SOL    HW115455   4.248   5.101   4.621
 4852SOL    HW215456   4.351   5.022   4.719
 4853SOL     OW15457   3.717   1.034   3.458
 4853SOL    HW115458   3.678   1.127   3.459
 4853SOL    HW215459   3.763   1.019   3.371
 4854SOL     OW15460   6.154   6.162   1.567
 4854SOL    HW115461   6.203   6.109   1.636
 4854SOL    HW215462   6.207   6.164   1.482
 4855SOL     OW15463   6.235   4.888   4.521
 4855SOL    HW115464   6.198   4.804   4.561
 4855SOL    HW215465   6.216   4.965   4.581
 4856SOL     OW15466   0.122   3.986   2.699
 4856SOL    HW115467   0.067   4.028   2.771
 4856SOL    HW215468   0.189   3.923   2.740
 4857SOL     OW15469   2.624   1.928   4.589
 4857SOL    HW115470   2.602   1.840   4.547
 4857SOL    HW215471   2.547   1.992   4.576
 4858SOL     OW15472   0.255   6.165   4.670
 4858SOL    HW115473   0.264   6.087   4.732
 4858SOL    HW215474   0.346   6.199   4.647
 4859SOL     OW15475   0.642   5.824   2.259
 4859SOL    HW115476   0.742   5.820   2.268
 4859SOL    HW215477   0.602   5.854   2.345
 4860SOL     OW15478   4.955   5.391   0.787
 4860SOL    HW115479   4.899   5.433   0.858
 4860SOL    HW215480   4.995   5.306   0.822
 4861SOL     OW15481   0.594   4.823   6.617
 4861SOL    HW115482   0.688   4.846   6.644
 4861SOL    HW215483   0.591   4.808   6.518
 4862SOL     OW15484   2.742   4.680   5.332
 4862SOL    HW115485   2.655   4.692   5.285
 4862SOL    HW215486   2.814   4.661   5.265
 4863SOL     OW15487   4.556   2.331   3.078
 4863SOL    HW115488   4.654   2.347   3.090
 4863SOL    HW215489   4.529   2.247   3.124
 4864SOL     OW15490   3.218   1.243   1.903
 4864SOL    HW115491   3.180   1.241   1.811
 4864SOL    HW215492   3.153   1.202   1.967
 4865SOL     OW15493   3.862   5.717   5.471
 4865SOL    HW115494   3.949   5.682   5.434
 4865SOL    HW215495   3.869   5.816   5.484
 4866SOL     OW15496   5.656   4.553   1.041
 4866SOL    HW115497   5.571   4.586   1.080
 4866SOL    HW215498   5.644   4.536   0.943
 4867SOL     OW15499   4.854   6.023   2.587
 4867SOL    HW115500   4.767   5.982   2.614
 4867SOL    HW215501   4.924   6.001   2.656
 4868SOL     OW15502   0.535   5.621   1.282
 4868SOL    HW115503   0.555   5.719   1.284
 4868SOL    HW215504   0.438   5.606   1.301
 4869SOL     OW15505   0.020   1.310   0.082
 4869SOL    HW115506   0.034   1.263   7.014
 4869SOL    HW215507   7.006   1.403   0.065
 4870SOL     OW15508   5.893   6.596   2.274
 4870SOL    HW115509   5.863   6.587   2.369
 4870SOL    HW215510   5.843   6.531   2.217
 4871SOL     OW15511   1.166   3.458   4.038
 4871SOL    HW115512   1.206   3.529   4.097
 4871SOL    HW215513   1.234   3.429   3.971
 4872SOL     OW15514   1.087   0.698   2.801
 4872SOL    HW115515   1.180   0.727   2.819
 4872SOL    HW215516   1.034   0.701   2.886
 4873SOL     OW15517   0.098   5.464   5.250
 4873SOL    HW115518   0.197   5.456   5.265
 4873SOL    HW215519   0.051   5.465   5.339
 4874SOL     OW15520   5.306   3.630   3.120
 4874SOL    HW115521   5.343   3.552   3.171
 4874SOL    HW215522   5.248   3.684   3.181
 4875SOL     OW15523   5.757   2.199   0.618
 4875SOL    HW115524   5.738   2.288   0.659
 4875SOL    HW215525   5.854   2.194   0.591
 4876SOL     OW15526   0.308   1.346   0.216
 4876SOL    HW115527   0.296   1.246   0.212
 4876SOL    HW215528   0.218   1.389   0.222
 4877SOL     OW15529   6.123   1.203   1.258
 4877SOL    HW115530   6.148   1.109   1.283
 4877SOL    HW215531   6.160   1.267   1.326
 4878SOL     OW15532   7.019   2.025   2.097
 4878SOL    HW115533   0.038   1.935   2.081
 4878SOL    HW215534   6.974   2.058   2.014
 4879SOL     OW15535   4.632   5.277   3.475
 4879SOL    HW115536   4.533   5.284   3.488
 4879SOL    HW215537   4.659   5.322   3.390
 4880SOL     OW15538   5.701   1.970   6.448
 4880SOL    HW115539   5.792   1.999   6.418
 4880SOL    HW215540   5.632   2.012   6.390
 4881SOL     OW15541   3.847   6.401   6.422
 4881SOL    HW115542   3.865   6.394   6.324
 4881SOL    HW215543   3.806   6.316   6.455
 4882SOL     OW15544   5.575   0.686   5.532
 4882SOL    HW115545   5.631   0.606   5.515
 4882SOL    HW215546   5.519   0.672   5.614
 4883SOL     OW15547   6.824   4.652   1.846
 4883SOL    HW115548   6.809   4.739   1.894
 4883SOL    HW215549   6.912   4.614   1.874
 4884SOL     OW15550   3.377   6.320   1.560
 4884SOL    HW115551   3.347   6.408   1.597
 4884SOL    HW215552   3.341   6.310   1.467
 4885SOL     OW15553   2.036   6.965   1.671
 4885SOL    HW115554   2.029   6.932   1.766
 4885SOL    HW215555   2.110   0.013   1.665
 4886SOL     OW15556   6.432   0.322   0.138
 4886SOL    HW115557   6.445   0.237   0.188
 4886SOL    HW215558   6.512   0.381   0.152
 4887SOL     OW15559   0.070   2.194   3.573
 4887SOL    HW115560   0.084   2.132   3.495
 4887SOL    HW215561   0.027   2.278   3.541
 4888SOL     OW15562   2.535   5.586   2.766
 4888SOL    HW115563   2.453   5.541   2.730
 4888SOL    HW215564   2.535   5.682   2.738
 4889SOL     OW15565   0.829   1.837   0.412
 4889SOL    HW115566   0.882   1.907   0.461
 4889SOL    HW215567   0.741   1.824   0.458
 4890SOL     OW15568   1.318   0.929   4.339
 4890SOL    HW115569   1.229   0.932   4.294
 4890SOL    HW215570   1.314   0.979   4.425
 4891SOL     OW15571   0.721   4.970   0.455
 4891SOL    HW115572   0.797   5.012   0.506
 4891SOL    HW215573   0.721   4.871   0.472
 4892SOL     OW15574   0.618   5.619   0.743
 4892SOL    HW115575   0.561   5.538   0.728
 4892SOL    HW215576   0.559   5.696   0.769
 4893SOL     OW15577   0.566   3.451   6.478
 4893SOL    HW115578   0.529   3.445   6.385
 4893SOL    HW215579   0.619   3.369   6.498
 4894SOL     OW15580   2.265   1.638   3.194
 4894SOL    HW115581   2.357   1.619   3.229
 4894SOL    HW215582   2.205   1.560   3.212
 4895SOL     OW15583   0.978   2.959   0.267
 4895SOL    HW115584   1.027   3.030   0.316
 4895SOL    HW215585   0.887   2.992   0.242
 4896SOL     OW15586   3.570   5.083   4.783
 4896SOL    HW115587   3.505   5.085   4.708
 4896SOL    HW215588   3.553   5.161   4.844
 4897SOL     OW15589   3.686   5.793   6.336
 4897SOL    HW115590   3.704   5.711   6.282
 4897SOL    HW215591   3.598   5.784   6.382
 4898SOL     OW15592   5.364   1.665   5.286
 4898SOL    HW115593   5.298   1.595   5.261
 4898SOL    HW215594   5.424   1.631   5.358
 4899SOL     OW15595   5.939   4.478   3.771
 4899SOL    HW115596   5.858   4.426   3.745
 4899SOL    HW215597   5.997   4.492   3.691
 4900SOL     OW15598   1.033   6.718   5.517
 4900SOL    HW115599   1.055   6.648   5.449
 4900SOL    HW215600   1.101   6.791   5.512
 4901SOL     OW15601   0.864   0.208   3.925
 4901SOL    HW115602   0.933   0.153   3.970
 4901SOL    HW215603   0.869   0.195   3.826
 4902SOL     OW15604   2.157   4.384   1.574
 4902SOL    HW115605   2.080   4.326   1.546
 4902SOL    HW215606   2.237   4.327   1.591
 4903SOL     OW15607   4.918   6.873   6.537
 4903SOL    HW115608   4.899   6.874   6.635
 4903SOL    HW215609   4.863   6.943   6.492
 4904SOL     OW15610   2.683   5.960   4.215
 4904SOL    HW115611   2.716   5.900   4.288
 4904SOL    HW215612   2.751   5.964   4.142
 4905SOL     OW15613   4.888   3.220   1.821
 4905SOL    HW115614   4.815   3.159   1.790
 4905SOL    HW215615   4.901   3.209   1.920
 4906SOL     OW15616   5.192   0.315   6.878
 4906SOL    HW115617   5.206   0.283   6.971
 4906SOL    HW215618   5.129   0.253   6.830
 4907SOL     OW15619   3.308   0.910   3.707
 4907SOL    HW115620   3.344   0.942   3.620
 4907SOL    HW215621   3.219   0.952   3.725
 4908SOL     OW15622   3.433   6.493   6.533
 4908SOL    HW115623   3.498   6.448   6.595
 4908SOL    HW215624   3.393   6.425   6.472
 4909SOL     OW15625   6.501   6.524   5.442
 4909SOL    HW115626   6.525   6.428   5.458
 4909SOL    HW215627   6.510   6.575   5.527
 4910SOL     OW15628   5.601   0.303   5.204
 4910SOL    HW115629   5.689   0.296   5.251
 4910SOL    HW215630   5.607   0.258   5.114
 4911SOL     OW15631   6.810   2.750   6.201
 4911SOL    HW115632   6.770   2.841   6.202
 4911SOL    HW215633   6.879   2.742   6.273
 4912SOL     OW15634   2.833   2.159   2.629
 4912SOL    HW115635   2.771   2.088   2.596
 4912SOL    HW215636   2.882   2.198   2.552
 4913SOL     OW15637   3.233   3.850   3.069
 4913SOL    HW115638   3.271   3.938   3.097
 4913SOL    HW215639   3.255   3.832   2.973
 4914SOL     OW15640   2.733   6.745   3.689
 4914SOL    HW115641   2.674   6.695   3.625
 4914SOL    HW215642   2.829   6.723   3.669
 4915SOL     OW15643   3.236   5.731   4.038
 4915SOL    HW115644   3.310   5.731   4.105
 4915SOL    HW215645   3.188   5.818   4.041
 4916SOL     OW15646   2.120   1.517   2.793
 4916SOL    HW115647   2.047   1.478   2.848
 4916SOL    HW215648   2.081   1.568   2.717
 4917SOL     OW15649   2.133   5.013   0.905
 4917SOL    HW115650   2.126   4.976   0.997
 4917SOL    HW215651   2.228   5.040   0.887
 4918SOL     OW15652   2.249   0.154   2.246
 4918SOL    HW115653   2.347   0.158   2.231
 4918SOL    HW215654   2.202   0.133   2.160
 4919SOL     OW15655   2.343   2.694   1.882
 4919SOL    HW115656   2.391   2.650   1.806
 4919SOL    HW215657   2.315   2.625   1.949
 4920SOL     OW15658   4.323   0.775   0.276
 4920SOL    HW115659   4.223   0.781   0.281
 4920SOL    HW215660   4.364   0.856   0.317
 4921SOL     OW15661   0.972   4.611   1.585
 4921SOL    HW115662   0.893   4.562   1.551
 4921SOL    HW215663   0.979   4.700   1.540
 4922SOL     OW15664   1.402   2.766   5.233
 4922SOL    HW115665   1.470   2.806   5.171
 4922SOL    HW215666   1.441   2.686   5.278
 4923SOL     OW15667   4.801   0.971   1.250
 4923SOL    HW115668   4.708   1.000   1.225
 4923SOL    HW215669   4.810   0.873   1.235
 4924SOL     OW15670   0.678   4.061   4.702
 4924SOL    HW115671   0.704   3.977   4.751
 4924SOL    HW215672   0.589   4.092   4.734
 4925SOL     OW15673   4.762   6.055   0.003
 4925SOL    HW115674   4.677   6.043   6.972
 4925SOL    HW215675   4.804   5.965   0.020
 4926SOL     OW15676   4.857   2.508   1.728
 4926SOL    HW115677   4.828   2.540   1.638
 4926SOL    HW215678   4.804   2.556   1.799
 4927SOL     OW15679   3.511   2.921   3.462
 4927SOL    HW115680   3.524   2.878   3.551
 4927SOL    HW215681   3.597   2.957   3.429
 4928SOL     OW15682   0.275   5.836   0.012
 4928SOL    HW115683   0.340   5.902   6.995
 4928SOL    HW215684   0.209   5.811   6.960
 4929SOL     OW15685   1.169   5.198   4.165
 4929SOL    HW115686   1.243   5.150   4.212
 4929SOL    HW215687   1.186   5.196   4.066
 4930SOL     OW15688   0.455   2.095   0.840
 4930SOL    HW115689   0.458   2.001   0.807
 4930SOL    HW215690   0.532   2.111   0.902
 4931SOL     OW15691   0.165   0.810   0.144
 4931SOL    HW115692   0.075   0.797   0.103
 4931SOL    HW215693   0.220   0.728   0.130
 4932SOL     OW15694   2.800   2.331   1.533
 4932SOL    HW115695   2.881   2.325   1.592
 4932SOL    HW215696   2.792   2.424   1.498
 4933SOL     OW15697   2.512   0.921   3.951
 4933SOL    HW115698   2.566   1.003   3.934
 4933SOL    HW215699   2.441   0.941   4.018
 4934SOL     OW15700   1.123   5.934   4.570
 4934SOL    HW115701   1.061   5.856   4.564
 4934SOL    HW215702   1.103   5.986   4.653
 4935SOL     OW15703   1.359   1.006   0.395
 4935SOL    HW115704   1.340   1.096   0.434
 4935SOL    HW215705   1.288   0.941   0.423
 4936SOL     OW15706   3.943   5.477   0.984
 4936SOL    HW115707   3.954   5.397   1.043
 4936SOL    HW215708   3.890   5.453   0.903
 4937SOL     OW15709   0.761   2.781   6.221
 4937SOL    HW115710   0.724   2.693   6.191
 4937SOL    HW215711   0.861   2.776   6.223
 4938SOL     OW15712   3.476   4.510   1.602
 4938SOL    HW115713   3.480   4.559   1.689
 4938SOL    HW215714   3.382   4.508   1.569
 4939SOL     OW15715   1.451   1.680   1.728
 4939SOL    HW115716   1.427   1.763   1.780
 4939SOL    HW215717   1.411   1.600   1.773
 4940SOL     OW15718   0.254   2.879   4.347
 4940SOL    HW115719   0.323   2.811   4.371
 4940SOL    HW215720   0.171   2.863   4.400
 4941SOL     OW15721   3.844   2.515   5.361
 4941SOL    HW115722   3.768   2.576   5.335
 4941SOL    HW215723   3.928   2.547   5.317
 4942SOL     OW15724   5.792   1.956   4.122
 4942SOL    HW115725   5.822   2.051   4.107
 4942SOL    HW215726   5.696   1.956   4.150
 4943SOL     OW15727   5.921   2.992   6.452
 4943SOL    HW115728   5.878   3.080   6.430
 4943SOL    HW215729   5.906   2.929   6.375
 4944SOL     OW15730   1.361   5.643   1.129
 4944SOL    HW115731   1.386   5.639   1.225
 4944SOL    HW215732   1.433   5.603   1.073
 4945SOL     OW15733   1.912   0.838   5.251
 4945SOL    HW115734   1.927   0.781   5.170
 4945SOL    HW215735   1.896   0.779   5.330
 4946SOL     OW15736   2.142   5.258   0.370
 4946SOL    HW115737   2.057   5.243   0.421
 4946SOL    HW215738   2.199   5.177   0.375
 4947SOL     OW15739   1.771   0.862   1.570
 4947SOL    HW115740   1.868   0.882   1.580
 4947SOL    HW215741   1.737   0.900   1.484
 4948SOL     OW15742   1.311   2.413   1.778
 4948SOL    HW115743   1.315   2.405   1.679
 4948SOL    HW215744   1.403   2.425   1.815
 4949SOL     OW15745   6.623   3.677   0.341
 4949SOL    HW115746   6.672   3.661   0.255
 4949SOL    HW215747   6.527   3.651   0.330
 4950SOL     OW15748   2.063   4.027   5.150
 4950SOL    HW115749   2.025   3.966   5.081
 4950SOL    HW215750   2.156   4.053   5.125
 4951SOL     OW15751   5.055   5.648   3.457
 4951SOL    HW115752   4.956   5.633   3.463
 4951SOL    HW215753   5.095   5.646   3.548
 4952SOL     OW15754   0.607   6.349   5.775
 4952SOL    HW115755   0.584   6.252   5.760
 4952SOL    HW215756   0.525   6.405   5.761
 4953SOL     OW15757   1.464   2.073   4.553
 4953SOL    HW115758   1.526   2.149   4.533
 4953SOL    HW215759   1.384   2.079   4.494
 4954SOL     OW15760   3.140   4.055   4.816
 4954SOL    HW115761   3.125   4.138   4.869
 4954SOL    HW215762   3.059   3.996   4.823
 4955SOL     OW15763   3.238   5.713   0.004
 4955SOL    HW115764   3.150   5.690   6.983
 4955SOL    HW215765   3.225   5.778   0.079
 4956SOL     OW15766   2.525   6.833   4.805
 4956SOL    HW115767   2.546   6.931   4.797
 4956SOL    HW215768   2.426   6.820   4.810
 4957SOL     OW15769   6.358   4.391   0.149
 4957SOL    HW115770   6.316   4.382   0.058
 4957SOL    HW215771   6.321   4.322   0.210
 4958SOL     OW15772   3.051   6.606   0.483
 4958SOL    HW115773   3.029   6.514   0.515
 4958SOL    HW215774   2.985   6.633   0.413
 4959SOL     OW15775   0.522   3.236   2.330
 4959SOL    HW115776   0.481   3.162   2.278
 4959SOL    HW215777   0.569   3.299   2.268
 4960SOL     OW15778   4.189   6.023   4.421
 4960SOL    HW115779   4.252   5.956   4.459
 4960SOL    HW215780   4.113   6.038   4.484
 4961SOL     OW15781   3.651   1.165   0.561
 4961SOL    HW115782   3.652   1.065   0.552
 4961SOL    HW215783   3.564   1.194   0.600
 4962SOL     OW15784   0.940   4.326   1.173
 4962SOL    HW115785   0.968   4.418   1.198
 4962SOL    HW215786   0.993   4.259   1.226
 4963SOL     OW15787   1.039   4.077   6.160
 4963SOL    HW115788   1.087   4.047   6.242
 4963SOL    HW215789   0.998   3.998   6.115
 4964SOL     OW15790   3.017   0.009   4.839
 4964SOL    HW115791   3.100   6.973   4.840
 4964SOL    HW215792   2.980   0.012   4.746
 4965SOL     OW15793   1.465   6.219   2.720
 4965SOL    HW115794   1.409   6.273   2.784
 4965SOL    HW215795   1.506   6.142   2.769
 4966SOL     OW15796   3.703   6.025   4.087
 4966SOL    HW115797   3.706   5.941   4.031
 4966SOL    HW215798   3.668   6.004   4.178
 4967SOL     OW15799   4.207   4.830   5.007
 4967SOL    HW115800   4.292   4.874   4.977
 4967SOL    HW215801   4.215   4.731   4.995
 4968SOL     OW15802   0.176   1.675   4.063
 4968SOL    HW115803   0.094   1.656   4.117
 4968SOL    HW215804   0.257   1.647   4.115
 4969SOL     OW15805   0.661   5.942   2.825
 4969SOL    HW115806   0.647   6.040   2.840
 4969SOL    HW215807   0.628   5.892   2.905
 4970SOL     OW15808   1.827   1.396   1.677
 4970SOL    HW115809   1.824   1.382   1.776
 4970SOL    HW215810   1.814   1.309   1.630
 4971SOL     OW15811   6.439   6.532   3.036
 4971SOL    HW115812   6.422   6.461   2.968
 4971SOL    HW215813   6.474   6.489   3.120
 4972SOL     OW15814   1.786   4.226   1.360
 4972SOL    HW115815   1.706   4.270   1.400
 4972SOL    HW215816   1.756   4.151   1.300
 4973SOL     OW15817   0.050   0.595   1.215
 4973SOL    HW115818   0.139   0.621   1.251
 4973SOL    HW215819   0.056   0.503   1.174
 4974SOL     OW15820   3.773   4.988   5.063
 4974SOL    HW115821   3.719   4.955   4.985
 4974SOL    HW215822   3.853   4.929   5.075
 4975SOL     OW15823   6.081   3.255   0.561
 4975SOL    HW115824   5.997   3.249   0.507
 4975SOL    HW215825   6.122   3.345   0.549
 4976SOL     OW15826   1.434   6.774   4.427
 4976SOL    HW115827   1.430   6.702   4.497
 4976SOL    HW215828   1.427   6.732   4.336
 4977SOL     OW15829   2.544   5.179   6.485
 4977SOL    HW115830   2.612   5.201   6.415
 4977SOL    HW215831   2.590   5.142   6.565
 4978SOL     OW15832   4.958   4.642   5.061
 4978SOL    HW115833   5.046   4.605   5.091
 4978SOL    HW215834   4.918   4.697   5.134
 4979SOL     OW15835   1.827   6.565   6.407
 4979SOL    HW115836   1.841   6.613   6.320
 4979SOL    HW215837   1.730   6.543   6.418
 4980SOL     OW15838   6.147   4.204   3.094
 4980SOL    HW115839   6.051   4.219   3.119
 4980SOL    HW215840   6.165   4.106   3.091
 4981SOL     OW15841   3.760   4.991   1.972
 4981SOL    HW115842   3.833   4.952   1.915
 4981SOL    HW215843   3.689   4.922   1.987
 4982SOL     OW15844   4.554   1.134   6.785
 4982SOL    HW115845   4.619   1.075   6.738
 4982SOL    HW215846   4.543   1.219   6.734
 4983SOL     OW15847   0.037   5.337   2.723
 4983SOL    HW115848   0.117   5.396   2.710
 4983SOL    HW215849   6.975   5.393   2.732
 4984SOL     OW15850   5.023   4.661   2.901
 4984SOL    HW115851   5.096   4.614   2.951
 4984SOL    HW215852   4.945   4.677   2.963
 4985SOL     OW15853   6.001   5.603   2.892
 4985SOL    HW115854   5.948   5.522   2.868
 4985SOL    HW215855   5.964   5.683   2.846
 4986SOL     OW15856   1.052   5.133   2.025
 4986SOL    HW115857   1.134   5.185   2.048
 4986SOL    HW215858   1.069   5.036   2.042
 4987SOL     OW15859   0.817   0.735   2.010
 4987SOL    HW115860   0.848   0.714   2.103
 4987SOL    HW215861   0.782   0.652   1.967
 4988SOL     OW15862   5.856   0.178   3.361
 4988SOL    HW115863   5.922   0.110   3.392
 4988SOL    HW215864   5.792   0.136   3.297
 4989SOL     OW15865   4.113   1.233   2.542
 4989SOL    HW115866   4.127   1.159   2.607
 4989SOL    HW215867   4.093   1.318   2.591
 4990SOL     OW15868   4.807   1.648   5.265
 4990SOL    HW115869   4.899   1.687   5.264
 4990SOL    HW215870   4.796   1.591   5.347
 4991SOL     OW15871   0.940   5.526   5.330
 4991SOL    HW115872   0.985   5.502   5.244
 4991SOL    HW215873   0.852   5.569   5.310
 4992SOL     OW15874   6.793   1.516   3.650
 4992SOL    HW115875   6.869   1.569   3.687
 4992SOL    HW215876   6.787   1.531   3.551
 4993SOL     OW15877   4.342   6.248   4.505
 4993SOL    HW115878   4.383   6.171   4.455
 4993SOL    HW215879   4.411   6.288   4.566
 4994SOL     OW15880   2.978   5.446   6.097
 4994SOL    HW115881   2.931   5.381   6.037
 4994SOL    HW215882   3.044   5.498   6.044
 4995SOL     OW15883   0.759   0.711   4.956
 4995SOL    HW115884   0.778   0.636   4.893
 4995SOL    HW215885   0.660   0.715   4.974
 4996SOL     OW15886   6.623   1.026   4.583
 4996SOL    HW115887   6.594   1.040   4.678
 4996SOL    HW215888   6.715   0.987   4.582
 4997SOL     OW15889   3.195   2.054   1.618
 4997SOL    HW115890   3.136   1.982   1.583
 4997SOL    HW215891   3.284   2.050   1.573
 4998SOL     OW15892   0.997   3.245   3.928
 4998SOL    HW115893   1.028   3.326   3.978
 4998SOL    HW215894   0.935   3.192   3.985
 4999SOL     OW15895   0.814   3.850   4.847
 4999SOL    HW115896   0.802   3.830   4.945
 4999SOL    HW215897   0.853   3.771   4.801
 5000SOL     OW15898   2.931   5.873   3.564
 5000SOL    HW115899   2.878   5.958   3.567
 5000SOL    HW215900   2.993   5.876   3.485
 5001SOL     OW15901   0.934   5.279   2.337
 5001SOL    HW115902   0.952   5.243   2.245
 5001SOL    HW215903   0.983   5.366   2.348
 5002SOL     OW15904   0.864   3.757   3.007
 5002SOL    HW115905   0.806   3.730   3.084
 5002SOL    HW215906   0.951   3.707   3.012
 5003SOL     OW15907   4.292   6.112   3.729
 5003SOL    HW115908   4.238   6.196   3.738
 5003SOL    HW215909   4.288   6.080   3.634
 5004SOL     OW15910   2.696   6.098   6.396
 5004SOL    HW115911   2.690   6.109   6.496
 5004SOL    HW215912   2.769   6.157   6.361
 5005SOL     OW15913   2.978   2.883   6.092
 5005SOL    HW115914   2.993   2.932   6.006
 5005SOL    HW215915   2.933   2.795   6.073
 5006SOL     OW15916   5.219   1.738   1.973
 5006SOL    HW115917   5.239   1.791   2.055
 5006SOL    HW215918   5.234   1.794   1.892
 5007SOL     OW15919   6.383   0.265   1.714
 5007SOL    HW115920   6.298   0.274   1.767
 5007SOL    HW215921   6.381   0.331   1.639
 5008SOL     OW15922   6.336   6.698   1.797
 5008SOL    HW115923   6.428   6.729   1.775
 5008SOL    HW215924   6.284   6.683   1.713
 5009SOL     OW15925   1.205   2.260   0.465
 5009SOL    HW115926   1.119   2.309   0.455
 5009SOL    HW215927   1.281   2.322   0.444
 5010SOL     OW15928   3.873   2.608   0.932
 5010SOL    HW115929   3.858   2.511   0.947
 5010SOL    HW215930   3.798   2.646   0.879
 5011SOL     OW15931   2.264   3.724   6.950
 5011SOL    HW115932   2.198   3.667   6.902
 5011SOL    HW215933   2.226   3.815   6.965
 5012SOL     OW15934   5.844   1.664   5.563
 5012SOL    HW115935   5.908   1.659   5.486
 5012SOL    HW215936   5.774   1.594   5.553
 5013SOL     OW15937   6.260   7.018   5.763
 5013SOL    HW115938   6.176   6.964   5.765
 5013SOL    HW215939   6.320   6.985   5.690
 5014SOL     OW15940   6.259   3.286   1.649
 5014SOL    HW115941   6.355   3.294   1.620
 5014SOL    HW215942   6.211   3.225   1.587
 5015SOL     OW15943   5.566   0.080   4.286
 5015SOL    HW115944   5.594   0.152   4.349
 5015SOL    HW215945   5.635   0.008   4.284
 5016SOL     OW15946   1.338   3.053   5.093
 5016SOL    HW115947   1.269   2.987   5.064
 5016SOL    HW215948   1.429   3.014   5.079
 5017SOL     OW15949   0.621   2.429   1.202
 5017SOL    HW115950   0.712   2.405   1.169
 5017SOL    HW215951   0.628   2.493   1.278
 5018SOL     OW15952   0.603   5.323   1.479
 5018SOL    HW115953   0.684   5.380   1.466
 5018SOL    HW215954   0.557   5.348   1.564
 5019SOL     OW15955   1.560   5.387   5.359
 5019SOL    HW115956   1.625   5.426   5.294
 5019SOL    HW215957   1.606   5.318   5.415
 5020SOL     OW15958   0.339   6.723   4.490
 5020SOL    HW115959   0.345   6.822   4.478
 5020SOL    HW215960   0.321   6.679   4.402
 5021SOL     OW15961   1.919   0.905   0.888
 5021SOL    HW115962   1.995   0.964   0.860
 5021SOL    HW215963   1.954   0.813   0.909
 5022SOL     OW15964   0.512   3.167   1.457
 5022SOL    HW115965   0.500   3.169   1.556
 5022SOL    HW215966   0.574   3.093   1.432
 5023SOL     OW15967   0.588   4.220   1.877
 5023SOL    HW115968   0.586   4.316   1.851
 5023SOL    HW215969   0.676   4.181   1.851
 5024SOL     OW15970   5.461   3.754   1.231
 5024SOL    HW115971   5.487   3.658   1.248
 5024SOL    HW215972   5.363   3.765   1.246
 5025SOL     OW15973   4.053   1.264   3.873
 5025SOL    HW115974   4.098   1.339   3.824
 5025SOL    HW215975   4.011   1.300   3.957
 5026SOL     OW15976   5.853   6.203   5.069
 5026SOL    HW115977   5.809   6.291   5.090
 5026SOL    HW215978   5.945   6.202   5.108
 5027SOL     OW15979   5.060   0.632   6.924
 5027SOL    HW115980   5.088   0.705   6.986
 5027SOL    HW215981   5.138   0.573   6.904
 5028SOL     OW15982   0.062   2.255   2.578
 5028SOL    HW115983   0.071   2.355   2.570
 5028SOL    HW215984   0.039   2.216   2.488
 5029SOL     OW15985   6.346   2.501   2.374
 5029SOL    HW115986   6.441   2.481   2.352
 5029SOL    HW215987   6.293   2.508   2.289
 5030SOL     OW15988   0.073   5.068   6.437
 5030SOL    HW115989   7.008   5.062   6.491
 5030SOL    HW215990   0.050   5.059   6.340
 5031SOL     OW15991   0.047   0.805   5.319
 5031SOL    HW115992   6.971   0.808   5.347
 5031SOL    HW215993   0.097   0.879   5.364
 5032SOL     OW15994   3.660   2.734   5.602
 5032SOL    HW115995   3.630   2.774   5.515
 5032SOL    HW215996   3.757   2.712   5.596
 5033SOL     OW15997   2.074   1.099   0.793
 5033SOL    HW115998   2.064   1.197   0.809
 5033SOL    HW215999   2.072   1.081   0.695
 5034SOL     OW16000   4.677   6.297   3.912
 5034SOL    HW116001   4.611   6.276   3.985
 5034SOL    HW216002   4.647   6.254   3.827
 5035SOL     OW16003   0.559   4.528   4.343
 5035SOL    HW116004   0.632   4.580   4.300
 5035SOL    HW216005   0.572   4.528   4.442
 5036SOL     OW16006   6.368   3.807   5.371
 5036SOL    HW116007   6.315   3.765   5.297
 5036SOL    HW216008   6.387   3.902   5.349
 5037SOL     OW16009   4.493   4.355   1.301
 5037SOL    HW116010   4.563   4.373   1.370
 5037SOL    HW216011   4.402   4.360   1.343
 5038SOL     OW16012   3.211   3.454   4.269
 5038SOL    HW116013   3.206   3.447   4.369
 5038SOL    HW216014   3.248   3.369   4.231
 5039SOL     OW16015   2.044   3.244   6.163
 5039SOL    HW116016   2.106   3.196   6.101
 5039SOL    HW216017   2.052   3.343   6.148
 5040SOL     OW16018   1.085   4.938   5.567
 5040SOL    HW116019   1.058   4.960   5.661
 5040SOL    HW216020   1.005   4.944   5.507
 5041SOL     OW16021   0.741   3.341   2.171
 5041SOL    HW116022   0.816   3.407   2.166
 5041SOL    HW216023   0.770   3.255   2.129
 5042SOL     OW16024   0.069   3.969   6.278
 5042SOL    HW116025   0.167   3.950   6.289
 5042SOL    HW216026   0.052   4.067   6.291
 5043SOL     OW16027   4.066   0.557   0.372
 5043SOL    HW116028   4.067   0.654   0.347
 5043SOL    HW216029   4.066   0.548   0.471
 5044SOL     OW16030   6.819   5.354   0.669
 5044SOL    HW116031   6.822   5.255   0.681
 5044SOL    HW216032   6.787   5.376   0.577
 5045SOL     OW16033   6.178   4.318   6.541
 5045SOL    HW116034   6.157   4.385   6.612
 5045SOL    HW216035   6.267   4.340   6.501
 5046SOL     OW16036   3.483   3.556   3.656
 5046SOL    HW116037   3.481   3.459   3.681
 5046SOL    HW216038   3.436   3.569   3.569
 5047SOL     OW16039   1.823   3.593   2.939
 5047SOL    HW116040   1.820   3.652   3.019
 5047SOL    HW216041   1.818   3.649   2.856
 5048SOL     OW16042   1.758   1.170   5.681
 5048SOL    HW116043   1.821   1.247   5.666
 5048SOL    HW216044   1.685   1.199   5.742
 5049SOL     OW16045   6.283   0.480   5.959
 5049SOL    HW116046   6.262   0.536   5.879
 5049SOL    HW216047   6.313   0.539   6.033
 5050SOL     OW16048   1.845   1.197   0.081
 5050SOL    HW116049   1.789   1.224   0.002
 5050SOL    HW216050   1.917   1.265   0.095
 5051SOL     OW16051   3.763   4.620   1.281
 5051SOL    HW116052   3.735   4.533   1.322
 5051SOL    HW216053   3.812   4.602   1.196
 5052SOL     OW16054   3.488   2.271   5.746
 5052SOL    HW116055   3.479   2.172   5.740
 5052SOL    HW216056   3.571   2.300   5.699
 5053SOL     OW16057   0.439   5.089   2.522
 5053SOL    HW116058   0.433   4.995   2.557
 5053SOL    HW216059   0.525   5.099   2.471
 5054SOL     OW16060   4.031   4.620   5.319
 5054SOL    HW116061   4.021   4.696   5.254
 5054SOL    HW216062   3.943   4.602   5.362
 5055SOL     OW16063   6.891   3.470   6.226
 5055SOL    HW116064   6.978   3.511   6.254
 5055SOL    HW216065   6.835   3.452   6.308
 5056SOL     OW16066   5.316   3.873   4.848
 5056SOL    HW116067   5.279   3.781   4.862
 5056SOL    HW216068   5.395   3.887   4.909
 5057SOL     OW16069   0.919   6.665   1.975
 5057SOL    HW116070   0.829   6.688   1.937
 5057SOL    HW216071   0.916   6.676   2.075
 5058SOL     OW16072   2.946   4.891   6.611
 5058SOL    HW116073   3.026   4.913   6.555
 5058SOL    HW216074   2.957   4.799   6.649
 5059SOL     OW16075   0.342   0.253   2.965
 5059SOL    HW116076   0.262   0.195   2.948
 5059SOL    HW216077   0.405   0.245   2.889
 5060SOL     OW16078   6.389   1.716   6.165
 5060SOL    HW116079   6.341   1.772   6.233
 5060SOL    HW216080   6.336   1.633   6.147
 5061SOL     OW16081   4.549   2.861   0.206
 5061SOL    HW116082   4.488   2.940   0.199
 5061SOL    HW216083   4.503   2.787   0.256
 5062SOL     OW16084   0.528   6.968   1.577
 5062SOL    HW116085   0.491   7.005   1.491
 5062SOL    HW216086   0.602   0.007   1.609
 5063SOL     OW16087   0.650   6.818   1.918
 5063SOL    HW116088   0.685   6.912   1.925
 5063SOL    HW216089   0.637   6.780   2.009
 5064SOL     OW16090   4.562   3.060   0.488
 5064SOL    HW116091   4.621   3.023   0.416
 5064SOL    HW216092   4.596   3.150   0.516
 5065SOL     OW16093   2.326   6.911   5.251
 5065SOL    HW116094   2.386   6.839   5.285
 5065SOL    HW216095   2.380   6.977   5.199
 5066SOL     OW16096   5.385   4.244   1.423
 5066SOL    HW116097   5.286   4.233   1.416
 5066SOL    HW216098   5.407   4.339   1.442
 5067SOL     OW16099   5.386   1.019   0.073
 5067SOL    HW116100   5.399   1.114   0.045
 5067SOL    HW216101   5.314   1.015   0.143
 5068SOL     OW16102   3.236   4.636   0.557
 5068SOL    HW116103   3.227   4.719   0.613
 5068SOL    HW216104   3.144   4.602   0.534
 5069SOL     OW16105   0.575   4.673   2.919
 5069SOL    HW116106   0.535   4.620   2.844
 5069SOL    HW216107   0.645   4.619   2.965
 5070SOL     OW16108   4.865   3.370   4.147
 5070SOL    HW116109   4.961   3.394   4.162
 5070SOL    HW216110   4.827   3.428   4.076
 5071SOL     OW16111   4.283   2.052   5.597
 5071SOL    HW116112   4.373   2.085   5.626
 5071SOL    HW216113   4.294   1.990   5.519
 5072SOL     OW16114   0.166   4.762   0.763
 5072SOL    HW116115   0.134   4.745   0.856
 5072SOL    HW216116   0.088   4.786   0.705
 5073SOL     OW16117   6.209   6.611   2.251
 5073SOL    HW116118   6.131   6.631   2.310
 5073SOL    HW216119   6.186   6.634   2.156
 5074SOL     OW16120   2.768   4.054   6.785
 5074SOL    HW116121   2.802   3.962   6.806
 5074SOL    HW216122   2.844   4.111   6.754
 5075SOL     OW16123   0.234   6.007   5.493
 5075SOL    HW116124   0.243   5.996   5.394
 5075SOL    HW216125   0.153   6.062   5.514
 5076SOL     OW16126   2.956   0.495   0.789
 5076SOL    HW116127   3.026   0.466   0.724
 5076SOL    HW216128   2.912   0.414   0.829
 5077SOL     OW16129   1.599   2.534   3.752
 5077SOL    HW116130   1.620   2.624   3.790
 5077SOL    HW216131   1.676   2.504   3.696
 5078SOL     OW16132   1.521   1.801   4.483
 5078SOL    HW116133   1.457   1.769   4.553
 5078SOL    HW216134   1.548   1.895   4.503
 5079SOL     OW16135   3.509   4.931   5.441
 5079SOL    HW116136   3.558   4.884   5.368
 5079SOL    HW216137   3.428   4.878   5.467
 5080SOL     OW16138   5.826   6.575   5.185
 5080SOL    HW116139   5.776   6.661   5.176
 5080SOL    HW216140   5.764   6.503   5.213
 5081SOL     OW16141   3.342   3.544   3.418
 5081SOL    HW116142   3.329   3.501   3.329
 5081SOL    HW216143   3.298   3.634   3.418
 5082SOL     OW16144   5.472   5.731   5.787
 5082SOL    HW116145   5.381   5.699   5.758
 5082SOL    HW216146   5.461   5.798   5.860
 5083SOL     OW16147   1.311   6.462   1.977
 5083SOL    HW116148   1.356   6.448   2.065
 5083SOL    HW216149   1.226   6.409   1.974
 5084SOL     OW16150   1.471   5.386   3.958
 5084SOL    HW116151   1.509   5.324   3.889
 5084SOL    HW216152   1.484   5.347   4.049
 5085SOL     OW16153   5.711   1.420   6.610
 5085SOL    HW116154   5.699   1.503   6.664
 5085SOL    HW216155   5.802   1.382   6.628
 5086SOL     OW16156   6.528   4.938   3.516
 5086SOL    HW116157   6.570   4.880   3.446
 5086SOL    HW216158   6.479   4.882   3.583
 5087SOL     OW16159   6.384   5.672   4.948
 5087SOL    HW116160   6.337   5.653   4.862
 5087SOL    HW216161   6.344   5.753   4.991
 5088SOL     OW16162   6.260   0.449   5.412
 5088SOL    HW116163   6.167   0.456   5.377
 5088SOL    HW216164   6.257   0.427   5.510
 5089SOL     OW16165   6.092   3.276   2.763
 5089SOL    HW116166   6.036   3.312   2.688
 5089SOL    HW216167   6.152   3.204   2.729
 5090SOL     OW16168   2.231   4.981   1.179
 5090SOL    HW116169   2.218   5.044   1.255
 5090SOL    HW216170   2.174   4.899   1.194
 5091SOL     OW16171   1.196   6.294   2.536
 5091SOL    HW116172   1.137   6.367   2.503
 5091SOL    HW216173   1.220   6.310   2.632
 5092SOL     OW16174   3.674   2.085   0.967
 5092SOL    HW116175   3.754   2.028   0.986
 5092SOL    HW216176   3.678   2.118   0.873
 5093SOL     OW16177   1.350   1.873   2.449
 5093SOL    HW116178   1.288   1.906   2.378
 5093SOL    HW216179   1.334   1.923   2.534
 5094SOL     OW16180   1.004   6.206   4.654
 5094SOL    HW116181   0.950   6.136   4.701
 5094SOL    HW216182   0.960   6.229   4.567
 5095SOL     OW16183   2.213   0.421   4.914
 5095SOL    HW116184   2.273   0.424   4.835
 5095SOL    HW216185   2.117   0.423   4.884
 5096SOL     OW16186   5.023   3.486   0.889
 5096SOL    HW116187   4.969   3.570   0.887
 5096SOL    HW216188   5.117   3.507   0.918
 5097SOL     OW16189   1.673   6.743   5.767
 5097SOL    HW116190   1.591   6.692   5.740
 5097SOL    HW216191   1.693   6.725   5.863
 5098SOL     OW16192   0.153   1.396   2.684
 5098SOL    HW116193   0.122   1.476   2.735
 5098SOL    HW216194   0.229   1.353   2.732
 5099SOL     OW16195   1.144   0.026   5.123
 5099SOL    HW116196   1.122   0.112   5.077
 5099SOL    HW216197   1.066   7.016   5.178
 5100SOL     OW16198   5.715   6.210   0.331
 5100SOL    HW116199   5.743   6.306   0.327
 5100SOL    HW216200   5.664   6.187   0.249
 5101SOL     OW16201   4.339   6.291   6.738
 5101SOL    HW116202   4.401   6.363   6.769
 5101SOL    HW216203   4.283   6.261   6.815
 5102SOL     OW16204   4.381   7.009   5.116
 5102SOL    HW116205   4.340   0.079   5.136
 5102SOL    HW216206   4.349   6.942   5.183
 5103SOL     OW16207   0.571   0.761   3.939
 5103SOL    HW116208   0.666   0.758   3.907
 5103SOL    HW216209   0.528   0.846   3.909
 5104SOL     OW16210   1.749   0.928   1.990
 5104SOL    HW116211   1.841   0.936   1.954
 5104SOL    HW216212   1.688   0.889   1.920
 5105SOL     OW16213   3.562   3.727   6.360
 5105SOL    HW116214   3.639   3.726   6.424
 5105SOL    HW216215   3.555   3.818   6.318
 5106SOL     OW16216   3.662   0.217   2.554
 5106SOL    HW116217   3.590   0.252   2.615
 5106SOL    HW216218   3.637   0.125   2.523
 5107SOL     OW16219   2.405   6.960   6.045
 5107SOL    HW116220   2.429   0.016   5.984
 5107SOL    HW216221   2.344   6.993   6.117
 5108SOL     OW16222   2.877   3.541   3.938
 5108SOL    HW116223   2.778   3.544   3.951
 5108SOL    HW216224   2.897   3.521   3.843
 5109SOL     OW16225   0.817   1.024   1.069
 5109SOL    HW116226   0.718   1.012   1.073
 5109SOL    HW216227   0.850   1.064   1.154
 5110SOL     OW16228   1.844   6.010   5.339
 5110SOL    HW116229   1.891   6.008   5.251
 5110SOL    HW216230   1.749   5.983   5.327
 5111SOL     OW16231   1.505   1.158   6.597
 5111SOL    HW116232   1.531   1.165   6.501
 5111SOL    HW216233   1.405   1.148   6.604
 5112SOL     OW16234   0.422   6.235   4.055
 5112SOL    HW116235   0.516   6.267   4.062
 5112SOL    HW216236   0.412   6.148   4.103
 5113SOL     OW16237   1.289   0.677   0.178
 5113SOL    HW116238   1.253   0.764   0.211
 5113SOL    HW216239   1.375   0.692   0.130
 5114SOL     OW16240   3.551   4.853   6.696
 5114SOL    HW116241   3.559   4.867   6.597
 5114SOL    HW216242   3.503   4.930   6.737
 5115SOL     OW16243   1.573   3.626   5.588
 5115SOL    HW116244   1.474   3.633   5.602
 5115SOL    HW216245   1.605   3.537   5.619
 5116SOL     OW16246   5.973   4.882   0.290
 5116SOL    HW116247   5.957   4.856   0.194
 5116SOL    HW216248   5.973   4.799   0.347
 5117SOL     OW16249   2.396   4.557   4.766
 5117SOL    HW116250   2.318   4.503   4.734
 5117SOL    HW216251   2.370   4.605   4.850
 5118SOL     OW16252   3.909   5.716   0.092
 5118SOL    HW116253   3.824   5.757   0.059
 5118SOL    HW216254   3.985   5.778   0.070
 5119SOL     OW16255   6.121   0.600   1.820
 5119SOL    HW116256   6.094   0.686   1.863
 5119SOL    HW216257   6.180   0.549   1.882
 5120SOL     OW16258   4.966   1.312   2.556
 5120SOL    HW116259   4.959   1.224   2.508
 5120SOL    HW216260   4.891   1.372   2.528
 5121SOL     OW16261   0.276   3.533   5.707
 5121SOL    HW116262   0.291   3.440   5.676
 5121SOL    HW216263   0.281   3.596   5.629
 5122SOL     OW16264   2.062   6.959   3.562
 5122SOL    HW116265   2.096   0.030   3.587
 5122SOL    HW216266   2.140   6.897   3.550
 5123SOL     OW16267   4.694   4.306   2.662
 5123SOL    HW116268   4.736   4.298   2.753
 5123SOL    HW216269   4.765   4.325   2.595
 5124SOL     OW16270   3.160   6.739   6.780
 5124SOL    HW116271   3.119   6.657   6.740
 5124SOL    HW216272   3.222   6.713   6.853
 5125SOL     OW16273   6.850   3.277   4.348
 5125SOL    HW116274   6.840   3.210   4.274
 5125SOL    HW216275   6.762   3.323   4.363
 5126SOL     OW16276   6.168   4.718   6.238
 5126SOL    HW116277   6.196   4.629   6.204
 5126SOL    HW216278   6.173   4.786   6.165
 5127SOL     OW16279   5.500   3.355   6.781
 5127SOL    HW116280   5.432   3.281   6.773
 5127SOL    HW216281   5.482   3.407   6.864
 5128SOL     OW16282   0.216   0.557   6.579
 5128SOL    HW116283   0.146   0.564   6.508
 5128SOL    HW216284   0.187   0.606   6.661
 5129SOL     OW16285   4.391   1.581   2.122
 5129SOL    HW116286   4.475   1.549   2.078
 5129SOL    HW216287   4.337   1.503   2.153
 5130SOL     OW16288   1.241   5.222   3.909
 5130SOL    HW116289   1.167   5.250   3.849
 5130SOL    HW216290   1.318   5.285   3.899
 5131SOL     OW16291   3.100   5.052   3.053
 5131SOL    HW116292   3.176   5.094   3.103
 5131SOL    HW216293   3.097   5.088   2.960
 5132SOL     OW16294   3.743   1.549   0.056
 5132SOL    HW116295   3.742   1.453   0.084
 5132SOL    HW216296   3.650   1.577   0.032
 5133SOL     OW16297   4.245   4.679   6.470
 5133SOL    HW116298   4.201   4.639   6.551
 5133SOL    HW216299   4.272   4.605   6.408
 5134SOL     OW16300   6.644   6.272   1.635
 5134SOL    HW116301   6.647   6.196   1.700
 5134SOL    HW216302   6.608   6.240   1.548
 5135SOL     OW16303   6.023   3.133   1.962
 5135SOL    HW116304   5.966   3.215   1.970
 5135SOL    HW216305   6.006   3.073   2.040
 5136SOL     OW16306   1.002   0.687   5.983
 5136SOL    HW116307   1.043   0.655   5.897
 5136SOL    HW216308   0.902   0.685   5.975
 5137SOL     OW16309   5.403   1.222   5.285
 5137SOL    HW116310   5.462   1.209   5.364
 5137SOL    HW216311   5.374   1.132   5.251
 5138SOL     OW16312   3.553   2.899   4.322
 5138SOL    HW116313   3.622   2.879   4.392
 5138SOL    HW216314   3.467   2.923   4.367
 5139SOL     OW16315   1.748   0.257   4.696
 5139SOL    HW116316   1.677   0.293   4.635
 5139SOL    HW216317   1.838   0.272   4.655
 5140SOL     OW16318   4.523   2.394   6.477
 5140SOL    HW116319   4.565   2.335   6.409
 5140SOL    HW216320   4.425   2.374   6.483
 5141SOL     OW16321   6.539   2.792   2.054
 5141SOL    HW116322   6.443   2.819   2.048
 5141SOL    HW216323   6.582   2.837   2.132
 5142SOL     OW16324   6.813   0.064   2.685
 5142SOL    HW116325   6.885   0.100   2.627
 5142SOL    HW216326   6.830   6.986   2.702
 5143SOL     OW16327   0.542   5.260   4.207
 5143SOL    HW116328   0.607   5.206   4.259
 5143SOL    HW216329   0.538   5.227   4.113
 5144SOL     OW16330   2.361   3.132   6.278
 5144SOL    HW116331   2.448   3.105   6.320
 5144SOL    HW216332   2.292   3.062   6.296
 5145SOL     OW16333   2.952   6.257   6.908
 5145SOL    HW116334   2.983   6.337   6.960
 5145SOL    HW216335   2.989   6.262   6.816
 5146SOL     OW16336   5.331   4.971   6.071
 5146SOL    HW116337   5.388   4.903   6.025
 5146SOL    HW216338   5.274   4.926   6.139
 5147SOL     OW16339   4.694   2.705   3.530
 5147SOL    HW116340   4.681   2.694   3.629
 5147SOL    HW216341   4.623   2.763   3.493
 5148SOL     OW16342   0.579   6.607   1.092
 5148SOL    HW116343   0.590   6.665   1.173
 5148SOL    HW216344   0.588   6.511   1.119
 5149SOL     OW16345   5.759   4.559   3.288
 5149SOL    HW116346   5.831   4.570   3.219
 5149SOL    HW216347   5.687   4.500   3.251
 5150SOL     OW16348   0.655   5.909   4.108
 5150SOL    HW116349   0.575   5.951   4.149
 5150SOL    HW216350   0.720   5.883   4.180
 5151SOL     OW16351   5.690   4.719   1.533
 5151SOL    HW116352   5.601   4.762   1.524
 5151SOL    HW216353   5.715   4.713   1.630
 5152SOL     OW16354   1.345   0.842   6.434
 5152SOL    HW116355   1.288   0.887   6.503
 5152SOL    HW216356   1.371   0.910   6.365
 5153SOL     OW16357   1.002   1.694   1.148
 5153SOL    HW116358   0.986   1.739   1.060
 5153SOL    HW216359   1.027   1.599   1.133
 5154SOL     OW16360   0.228   2.698   6.952
 5154SOL    HW116361   0.216   2.600   6.966
 5154SOL    HW216362   0.152   2.748   6.994
 5155SOL     OW16363   1.683   1.326   0.841
 5155SOL    HW116364   1.732   1.376   0.912
 5155SOL    HW216365   1.691   1.228   0.856
 5156SOL     OW16366   4.963   5.306   5.404
 5156SOL    HW116367   4.890   5.242   5.379
 5156SOL    HW216368   5.038   5.297   5.338
 5157SOL     OW16369   3.985   0.156   1.693
 5157SOL    HW116370   4.074   0.161   1.737
 5157SOL    HW216371   3.967   0.241   1.644
 5158SOL     OW16372   2.732   1.346   2.453
 5158SOL    HW116373   2.761   1.250   2.446
 5158SOL    HW216374   2.655   1.362   2.391
 5159SOL     OW16375   6.316   2.977   5.586
 5159SOL    HW116376   6.370   2.904   5.545
 5159SOL    HW216377   6.253   2.938   5.654
 5160SOL     OW16378   6.740   6.171   3.391
 5160SOL    HW116379   6.659   6.165   3.449
 5160SOL    HW216380   6.811   6.111   3.426
 5161SOL     OW16381   0.936   3.347   0.255
 5161SOL    HW116382   0.879   3.391   0.325
 5161SOL    HW216383   1.027   3.389   0.253
 5162SOL     OW16384   6.848   6.579   2.988
 5162SOL    HW116385   6.947   6.568   2.996
 5162SOL    HW216386   6.827   6.633   2.906
 5163SOL     OW16387   2.562   6.731   2.679
 5163SOL    HW116388   2.563   6.717   2.580
 5163SOL    HW216389   2.537   6.826   2.698
 5164SOL     OW16390   3.449   3.426   0.907
 5164SOL    HW116391   3.414   3.454   0.817
 5164SOL    HW216392   3.517   3.493   0.938
 5165SOL     OW16393   1.427   4.528   6.781
 5165SOL    HW116394   1.390   4.620   6.766
 5165SOL    HW216395   1.352   4.465   6.801
 5166SOL     OW16396   1.742   5.681   1.754
 5166SOL    HW116397   1.655   5.633   1.746
 5166SOL    HW216398   1.726   5.779   1.753
 5167SOL     OW16399   4.837   2.337   5.127
 5167SOL    HW116400   4.834   2.424   5.176
 5167SOL    HW216401   4.811   2.351   5.032
 5168SOL     OW16402   4.595   2.272   2.515
 5168SOL    HW116403   4.539   2.243   2.593
 5168SOL    HW216404   4.540   2.268   2.431
 5169SOL     OW16405   3.982   6.722   3.392
 5169SOL    HW116406   3.942   6.631   3.397
 5169SOL    HW216407   3.992   6.759   3.484
 5170SOL     OW16408   0.844   3.142   6.180
 5170SOL    HW116409   0.904   3.221   6.197
 5170SOL    HW216410   0.791   3.121   6.262
 5171SOL     OW16411   1.989   5.632   5.092
 5171SOL    HW116412   2.041   5.717   5.096
 5171SOL    HW216413   1.946   5.624   5.002
 5172SOL     OW16414   0.061   5.611   3.759
 5172SOL    HW116415   0.128   5.539   3.742
 5172SOL    HW216416   0.000   5.620   3.680
 5173SOL     OW16417   4.607   3.978   5.743
 5173SOL    HW116418   4.654   3.915   5.681
 5173SOL    HW216419   4.636   4.072   5.725
 5174SOL     OW16420   2.651   6.404   3.224
 5174SOL    HW116421   2.635   6.432   3.129
 5174SOL    HW216422   2.573   6.432   3.280
 5175SOL     OW16423   2.664   4.112   0.021
 5175SOL    HW116424   2.695   4.177   0.089
 5175SOL    HW216425   2.716   4.124   6.956
 5176SOL     OW16426   5.553   5.520   0.743
 5176SOL    HW116427   5.588   5.484   0.656
 5176SOL    HW216428   5.471   5.575   0.726
 5177SOL     OW16429   5.353   0.779   6.810
 5177SOL    HW116430   5.344   0.684   6.837
 5177SOL    HW216431   5.418   0.825   6.871
 5178SOL     OW16432   1.170   3.974   1.878
 5178SOL    HW116433   1.175   3.903   1.808
 5178SOL    HW216434   1.236   4.046   1.857
 5179SOL     OW16435   6.207   4.404   2.943
 5179SOL    HW116436   6.177   4.327   3.000
 5179SOL    HW216437   6.298   4.432   2.971
 5180SOL     OW16438   2.179   6.876   2.107
 5180SOL    HW116439   2.260   6.928   2.081
 5180SOL    HW216440   2.150   6.903   2.199
 5181SOL     OW16441   0.796   7.002   5.802
 5181SOL    HW116442   0.791   6.905   5.825
 5181SOL    HW216443   0.760   0.037   5.878
 5182SOL     OW16444   3.662   5.520   3.296
 5182SOL    HW116445   3.565   5.504   3.276
 5182SOL    HW216446   3.698   5.589   3.234
 5183SOL     OW16447   4.441   1.563   3.931
 5183SOL    HW116448   4.404   1.487   3.984
 5183SOL    HW216449   4.432   1.648   3.982
 5184SOL     OW16450   2.296   1.094   4.024
 5184SOL    HW116451   2.264   1.093   3.929
 5184SOL    HW216452   2.317   1.188   4.050
 5185SOL     OW16453   5.967   0.933   1.630
 5185SOL    HW116454   5.898   1.000   1.604
 5185SOL    HW216455   5.964   0.918   1.729
 5186SOL     OW16456   6.743   3.685   6.505
 5186SOL    HW116457   6.722   3.596   6.464
 5186SOL    HW216458   6.762   3.751   6.432
 5187SOL     OW16459   2.111   4.910   5.189
 5187SOL    HW116460   2.211   4.909   5.201
 5187SOL    HW216461   2.090   4.911   5.091
 5188SOL     OW16462   6.436   6.883   2.450
 5188SOL    HW116463   6.355   6.881   2.391
 5188SOL    HW216464   6.420   6.945   2.527
 5189SOL     OW16465   5.175   6.884   5.938
 5189SOL    HW116466   5.132   6.974   5.949
 5189SOL    HW216467   5.229   6.883   5.855
 5190SOL     OW16468   1.693   3.998   1.250
 5190SOL    HW116469   1.670   3.918   1.305
 5190SOL    HW216470   1.653   3.988   1.158
 5191SOL     OW16471   3.266   5.118   2.415
 5191SOL    HW116472   3.324   5.196   2.439
 5191SOL    HW216473   3.306   5.034   2.451
 5192SOL     OW16474   2.371   4.999   2.442
 5192SOL    HW116475   2.420   5.032   2.362
 5192SOL    HW216476   2.432   4.940   2.496
 5193SOL     OW16477   6.125   0.597   6.705
 5193SOL    HW116478   6.221   0.626   6.711
 5193SOL    HW216479   6.096   0.560   6.793
 5194SOL     OW16480   4.859   2.391   6.617
 5194SOL    HW116481   4.785   2.450   6.583
 5194SOL    HW216482   4.940   2.404   6.561
 5195SOL     OW16483   6.692   0.487   4.853
 5195SOL    HW116484   6.693   0.390   4.874
 5195SOL    HW216485   6.623   0.533   4.909
 5196SOL     OW16486   5.606   6.159   2.664
 5196SOL    HW116487   5.521   6.204   2.635
 5196SOL    HW216488   5.593   6.060   2.666
 5197SOL     OW16489   1.262   4.098   5.970
 5197SOL    HW116490   1.224   4.020   6.020
 5197SOL    HW216491   1.251   4.181   6.025
 5198SOL     OW16492   5.537   5.554   2.622
 5198SOL    HW116493   5.634   5.550   2.599
 5198SOL    HW216494   5.489   5.477   2.580
 5199SOL     OW16495   6.714   4.908   1.083
 5199SOL    HW116496   6.776   4.830   1.084
 5199SOL    HW216497   6.631   4.884   1.032
 5200SOL     OW16498   0.430   3.917   5.315
 5200SOL    HW116499   0.502   3.949   5.253
 5200SOL    HW216500   0.456   3.828   5.352
 5201SOL     OW16501   1.551   5.209   4.141
 5201SOL    HW116502   1.476   5.188   4.203
 5201SOL    HW216503   1.583   5.125   4.097
 5202SOL     OW16504   6.973   4.122   0.696
 5202SOL    HW116505   0.002   4.046   0.739
 5202SOL    HW216506   6.898   4.152   0.756
 5203SOL     OW16507   1.022   2.623   6.770
 5203SOL    HW116508   1.080   2.613   6.850
 5203SOL    HW216509   0.932   2.657   6.798
 5204SOL     OW16510   4.335   5.215   0.013
 5204SOL    HW116511   4.308   5.301   6.988
 5204SOL    HW216512   4.255   5.155   0.020
 5205SOL     OW16513   1.645   0.361   2.240
 5205SOL    HW116514   1.733   0.399   2.211
 5205SOL    HW216515   1.573   0.389   2.176
 5206SOL     OW16516   0.693   4.376   6.750
 5206SOL    HW116517   0.661   4.331   6.833
 5206SOL    HW216518   0.748   4.312   6.696
 5207SOL     OW16519   1.390   5.087   4.328
 5207SOL    HW116520   1.378   4.999   4.282
 5207SOL    HW216521   1.453   5.076   4.404
 5208SOL     OW16522   3.919   1.311   0.275
 5208SOL    HW116523   3.997   1.267   0.229
 5208SOL    HW216524   3.836   1.291   0.224
 5209SOL     OW16525   5.959   5.973   3.324
 5209SOL    HW116526   6.008   5.913   3.261
 5209SOL    HW216527   6.024   6.011   3.391
 5210SOL     OW16528   5.268   4.983   3.823
 5210SOL    HW116529   5.230   5.035   3.898
 5210SOL    HW216530   5.196   4.928   3.780
 5211SOL     OW16531   3.713   3.190   3.675
 5211SOL    HW116532   3.772   3.115   3.646
 5211SOL    HW216533   3.644   3.208   3.604
 5212SOL     OW16534   0.861   2.183   0.827
 5212SOL    HW116535   0.784   2.225   0.778
 5212SOL    HW216536   0.840   2.182   0.925
 5213SOL     OW16537   4.713   2.632   5.813
 5213SOL    HW116538   4.761   2.568   5.873
 5213SOL    HW216539   4.692   2.716   5.864
 5214SOL     OW16540   5.316   1.599   5.896
 5214SOL    HW116541   5.262   1.535   5.951
 5214SOL    HW216542   5.338   1.680   5.951
 5215SOL     OW16543   4.849   4.986   3.266
 5215SOL    HW116544   4.933   5.035   3.243
 5215SOL    HW216545   4.771   5.029   3.221
 5216SOL     OW16546   4.946   5.073   0.638
 5216SOL    HW116547   4.879   5.000   0.628
 5216SOL    HW216548   4.963   5.115   0.548
 5217SOL     OW16549   3.202   5.472   3.965
 5217SOL    HW116550   3.125   5.448   4.023
 5217SOL    HW216551   3.230   5.566   3.984
 5218SOL     OW16552   1.455   6.331   3.496
 5218SOL    HW116553   1.447   6.428   3.521
 5218SOL    HW216554   1.380   6.307   3.434
 5219SOL     OW16555   3.231   6.865   6.470
 5219SOL    HW116556   3.304   6.847   6.536
 5219SOL    HW216557   3.146   6.886   6.519
 5220SOL     OW16558   0.284   6.090   2.837
 5220SOL    HW116559   0.242   6.025   2.774
 5220SOL    HW216560   0.306   6.043   2.923
 5221SOL     OW16561   5.521   1.107   4.691
 5221SOL    HW116562   5.510   1.008   4.700
 5221SOL    HW216563   5.517   1.133   4.595
 5222SOL     OW16564   1.765   0.624   3.742
 5222SOL    HW116565   1.779   0.715   3.781
 5222SOL    HW216566   1.849   0.570   3.754
 5223SOL     OW16567   4.852   0.656   1.528
 5223SOL    HW116568   4.911   0.691   1.455
 5223SOL    HW216569   4.760   0.691   1.516
 5224SOL     OW16570   6.318   1.989   2.650
 5224SOL    HW116571   6.385   1.940   2.595
 5224SOL    HW216572   6.262   2.046   2.591
 5225SOL     OW16573   6.131   6.182   4.082
 5225SOL    HW116574   6.192   6.237   4.140
 5225SOL    HW216575   6.036   6.198   4.109
 5226SOL     OW16576   0.623   6.640   4.160
 5226SOL    HW116577   0.701   6.579   4.149
 5226SOL    HW216578   0.564   6.633   4.079
 5227SOL     OW16579   6.360   4.633   3.385
 5227SOL    HW116580   6.309   4.556   3.347
 5227SOL    HW216581   6.455   4.607   3.398
 5228SOL     OW16582   5.698   1.675   0.577
 5228SOL    HW116583   5.627   1.645   0.642
 5228SOL    HW216584   5.722   1.600   0.517
 5229SOL     OW16585   1.384   3.637   5.945
 5229SOL    HW116586   1.318   3.566   5.971
 5229SOL    HW216587   1.412   3.687   6.026
 5230SOL     OW16588   0.132   0.351   0.147
 5230SOL    HW116589   0.145   0.411   0.226
 5230SOL    HW216590   0.095   0.404   0.071
 5231SOL     OW16591   3.990   3.298   4.116
 5231SOL    HW116592   3.959   3.281   4.023
 5231SOL    HW216593   3.994   3.212   4.167
 5232SOL     OW16594   4.731   2.352   7.011
 5232SOL    HW116595   4.719   2.281   0.061
 5232SOL    HW216596   4.691   2.321   6.924
 5233SOL     OW16597   0.152   6.253   2.246
 5233SOL    HW116598   0.100   6.333   2.216
 5233SOL    HW216599   0.171   6.194   2.167
 5234SOL     OW16600   3.348   6.989   0.561
 5234SOL    HW116601   3.447   6.995   0.576
 5234SOL    HW216602   3.330   6.920   0.491
 5235SOL     OW16603   1.367   3.110   0.867
 5235SOL    HW116604   1.418   3.028   0.891
 5235SOL    HW216605   1.275   3.105   0.906
 5236SOL     OW16606   4.918   3.717   1.190
 5236SOL    HW116607   4.864   3.651   1.243
 5236SOL    HW216608   4.893   3.710   1.093
 5237SOL     OW16609   2.529   1.762   5.259
 5237SOL    HW116610   2.607   1.706   5.287
 5237SOL    HW216611   2.470   1.779   5.338
 5238SOL     OW16612   1.654   4.802   0.665
 5238SOL    HW116613   1.620   4.708   0.661
 5238SOL    HW216614   1.708   4.814   0.748
 5239SOL     OW16615   3.252   2.970   3.767
 5239SOL    HW116616   3.262   3.004   3.674
 5239SOL    HW216617   3.170   2.914   3.773
 5240SOL     OW16618   3.385   2.166   5.303
 5240SOL    HW116619   3.305   2.107   5.315
 5240SOL    HW216620   3.356   2.254   5.267
 5241SOL     OW16621   1.182   6.311   6.083
 5241SOL    HW116622   1.264   6.254   6.069
 5241SOL    HW216623   1.183   6.348   6.176
 5242SOL     OW16624   5.957   1.082   5.947
 5242SOL    HW116625   5.955   1.037   6.037
 5242SOL    HW216626   5.917   1.022   5.879
 5243SOL     OW16627   1.130   5.323   0.847
 5243SOL    HW116628   1.048   5.367   0.885
 5243SOL    HW216629   1.153   5.367   0.760
 5244SOL     OW16630   4.509   4.449   5.829
 5244SOL    HW116631   4.446   4.394   5.883
 5244SOL    HW216632   4.459   4.499   5.758
 5245SOL     OW16633   4.300   3.740   6.652
 5245SOL    HW116634   4.340   3.826   6.620
 5245SOL    HW216635   4.290   3.677   6.575
 5246SOL     OW16636   0.842   3.412   2.464
 5246SOL    HW116637   0.830   3.338   2.397
 5246SOL    HW216638   0.840   3.373   2.556
 5247SOL     OW16639   6.893   5.085   0.752
 5247SOL    HW116640   6.816   5.032   0.788
 5247SOL    HW216641   6.958   5.023   0.706
 5248SOL     OW16642   5.494   0.833   6.106
 5248SOL    HW116643   5.399   0.833   6.136
 5248SOL    HW216644   5.536   0.921   6.130
 5249SOL     OW16645   0.923   4.750   5.236
 5249SOL    HW116646   0.873   4.747   5.150
 5249SOL    HW216647   0.863   4.718   5.310
 5250SOL     OW16648   0.220   1.976   5.728
 5250SOL    HW116649   0.307   1.925   5.734
 5250SOL    HW216650   0.226   2.057   5.786
 5251SOL     OW16651   6.158   3.389   1.266
 5251SOL    HW116652   6.062   3.392   1.235
 5251SOL    HW216653   6.176   3.300   1.308
 5252SOL     OW16654   3.576   6.657   0.925
 5252SOL    HW116655   3.637   6.730   0.895
 5252SOL    HW216656   3.630   6.583   0.966
 5253SOL     OW16657   5.645   3.718   4.435
 5253SOL    HW116658   5.557   3.708   4.482
 5253SOL    HW216659   5.691   3.800   4.469
 5254SOL     OW16660   4.397   0.744   4.196
 5254SOL    HW116661   4.351   0.689   4.265
 5254SOL    HW216662   4.463   0.805   4.239
 5255SOL     OW16663   3.121   6.593   5.381
 5255SOL    HW116664   3.172   6.516   5.421
 5255SOL    HW216665   3.165   6.621   5.296
 5256SOL     OW16666   5.046   0.676   3.411
 5256SOL    HW116667   5.080   0.658   3.318
 5256SOL    HW216668   4.979   0.750   3.407
 5257SOL     OW16669   3.651   6.828   0.223
 5257SOL    HW116670   3.645   6.914   0.172
 5257SOL    HW216671   3.588   6.761   0.186
 5258SOL     OW16672   4.872   4.413   2.436
 5258SOL    HW116673   4.870   4.482   2.509
 5258SOL    HW216674   4.813   4.441   2.361
 5259SOL     OW16675   4.135   6.251   2.732
 5259SOL    HW116676   4.127   6.336   2.680
 5259SOL    HW216677   4.209   6.260   2.799
 5260SOL     OW16678   5.848   3.406   1.185
 5260SOL    HW116679   5.773   3.358   1.140
 5260SOL    HW216680   5.811   3.481   1.240
 5261SOL     OW16681   0.288   2.666   4.547
 5261SOL    HW116682   0.307   2.660   4.645
 5261SOL    HW216683   0.318   2.582   4.502
 5262SOL     OW16684   2.662   6.611   2.358
 5262SOL    HW116685   2.664   6.695   2.304
 5262SOL    HW216686   2.567   6.586   2.376
 5263SOL     OW16687   1.647   0.020   6.448
 5263SOL    HW116688   1.671   7.017   6.542
 5263SOL    HW216689   1.655   0.119   6.434
 5264SOL     OW16690   6.899   1.415   1.406
 5264SOL    HW116691   6.951   1.446   1.486
 5264SOL    HW216692   6.810   1.381   1.436
 5265SOL     OW16693   5.472   4.982   2.143
 5265SOL    HW116694   5.553   4.931   2.171
 5265SOL    HW216695   5.399   4.918   2.119
 5266SOL     OW16696   1.435   6.459   1.727
 5266SOL    HW116697   1.383   6.463   1.813
 5266SOL    HW216698   1.406   6.533   1.667
 5267SOL     OW16699   4.767   5.071   5.199
 5267SOL    HW116700   4.822   5.122   5.132
 5267SOL    HW216701   4.828   5.020   5.260
 5268SOL     OW16702   6.764   5.114   5.594
 5268SOL    HW116703   6.847   5.073   5.630
 5268SOL    HW216704   6.733   5.187   5.655
 5269SOL     OW16705   1.623   5.305   4.449
 5269SOL    HW116706   1.549   5.301   4.381
 5269SOL    HW216707   1.700   5.249   4.417
 5270SOL     OW16708   6.022   2.816   2.096
 5270SOL    HW116709   5.989   2.869   2.174
 5270SOL    HW216710   5.945   2.794   2.036
 5271SOL     OW16711   4.946   4.697   4.816
 5271SOL    HW116712   5.039   4.686   4.780
 5271SOL    HW216713   4.945   4.680   4.914
 5272SOL     OW16714   6.969   6.249   4.741
 5272SOL    HW116715   0.047   6.243   4.719
 5272SOL    HW216716   6.934   6.158   4.762
 5273SOL     OW16717   0.516   1.994   4.056
 5273SOL    HW116718   0.529   2.074   3.997
 5273SOL    HW216719   0.425   1.956   4.042
 5274SOL     OW16720   6.861   4.762   3.927
 5274SOL    HW116721   6.850   4.663   3.921
 5274SOL    HW216722   6.824   4.804   3.844
 5275SOL     OW16723   2.252   0.032   6.263
 5275SOL    HW116724   2.262   0.085   6.347
 5275SOL    HW216725   2.160   0.045   6.226
 5276SOL     OW16726   6.844   6.960   1.659
 5276SOL    HW116727   6.928   7.015   1.653
 5276SOL    HW216728   6.849   6.884   1.594
 5277SOL     OW16729   1.174   1.656   3.318
 5277SOL    HW116730   1.075   1.661   3.309
 5277SOL    HW216731   1.202   1.700   3.404
 5278SOL     OW16732   0.469   6.116   6.145
 5278SOL    HW116733   0.476   6.099   6.047
 5278SOL    HW216734   0.554   6.085   6.190
 5279SOL     OW16735   1.630   5.946   6.080
 5279SOL    HW116736   1.656   5.940   5.983
 5279SOL    HW216737   1.712   5.960   6.135
 5280SOL     OW16738   3.413   6.489   4.638
 5280SOL    HW116739   3.482   6.416   4.635
 5280SOL    HW216740   3.327   6.454   4.602
 5281SOL     OW16741   1.248   1.178   4.113
 5281SOL    HW116742   1.190   1.143   4.187
 5281SOL    HW216743   1.207   1.156   4.025
 5282SOL     OW16744   1.713   0.148   2.641
 5282SOL    HW116745   1.696   0.106   2.731
 5282SOL    HW216746   1.749   0.078   2.579
 5283SOL     OW16747   0.379   0.636   3.752
 5283SOL    HW116748   0.460   0.622   3.810
 5283SOL    HW216749   0.299   0.652   3.809
 5284SOL     OW16750   5.350   1.945   2.115
 5284SOL    HW116751   5.321   1.993   2.198
 5284SOL    HW216752   5.359   2.011   2.040
 5285SOL     OW16753   0.899   3.082   3.583
 5285SOL    HW116754   0.975   3.027   3.548
 5285SOL    HW216755   0.814   3.029   3.579
 5286SOL     OW16756   6.431   2.805   0.882
 5286SOL    HW116757   6.405   2.896   0.851
 5286SOL    HW216758   6.351   2.745   0.879
 5287SOL     OW16759   3.461   5.328   1.473
 5287SOL    HW116760   3.494   5.422   1.480
 5287SOL    HW216761   3.471   5.296   1.379
 5288SOL     OW16762   5.379   0.162   1.462
 5288SOL    HW116763   5.420   0.237   1.411
 5288SOL    HW216764   5.438   0.138   1.539
 5289SOL     OW16765   1.873   5.161   6.833
 5289SOL    HW116766   1.818   5.079   6.852
 5289SOL    HW216767   1.921   5.150   6.746
 5290SOL     OW16768   1.894   3.832   5.838
 5290SOL    HW116769   1.961   3.899   5.806
 5290SOL    HW216770   1.812   3.838   5.781
 5291SOL     OW16771   3.050   3.913   5.524
 5291SOL    HW116772   3.098   3.825   5.520
 5291SOL    HW216773   3.091   3.976   5.458
 5292SOL     OW16774   6.917   4.453   6.569
 5292SOL    HW116775   6.962   4.527   6.519
 5292SOL    HW216776   6.829   4.485   6.604
 5293SOL     OW16777   2.210   5.429   4.647
 5293SOL    HW116778   2.119   5.454   4.680
 5293SOL    HW216779   2.278   5.486   4.693
 5294SOL     OW16780   4.220   0.532   5.192
 5294SOL    HW116781   4.316   0.560   5.183
 5294SOL    HW216782   4.174   0.591   5.258
 5295SOL     OW16783   3.036   1.007   3.073
 5295SOL    HW116784   2.946   1.040   3.045
 5295SOL    HW216785   3.027   0.917   3.116
 5296SOL     OW16786   3.656   4.423   0.775
 5296SOL    HW116787   3.745   4.421   0.821
 5296SOL    HW216788   3.652   4.501   0.714
 5297SOL     OW16789   2.779   3.616   0.686
 5297SOL    HW116790   2.683   3.591   0.676
 5297SOL    HW216791   2.787   3.716   0.685
 5298SOL     OW16792   2.471   6.836   0.090
 5298SOL    HW116793   2.495   6.933   0.087
 5298SOL    HW216794   2.481   6.796   7.018
 5299SOL     OW16795   2.955   1.860   0.798
 5299SOL    HW116796   3.027   1.890   0.861
 5299SOL    HW216797   2.938   1.762   0.810
 5300SOL     OW16798   1.396   4.505   0.398
 5300SOL    HW116799   1.426   4.428   0.455
 5300SOL    HW216800   1.303   4.530   0.422
 5301SOL     OW16801   4.485   0.619   6.799
 5301SOL    HW116802   4.540   0.536   6.795
 5301SOL    HW216803   4.469   0.644   6.895
 5302SOL     OW16804   4.642   5.919   3.375
 5302SOL    HW116805   4.738   5.894   3.382
 5302SOL    HW216806   4.615   5.923   3.279
 5303SOL     OW16807   6.743   5.237   6.272
 5303SOL    HW116808   6.752   5.333   6.247
 5303SOL    HW216809   6.747   5.181   6.189
 5304SOL     OW16810   5.983   1.396   0.778
 5304SOL    HW116811   5.976   1.495   0.770
 5304SOL    HW216812   6.074   1.367   0.747
 5305SOL     OW16813   1.249   5.481   2.642
 5305SOL    HW116814   1.203   5.395   2.621
 5305SOL    HW216815   1.284   5.479   2.735
 5306SOL     OW16816   0.211   4.184   5.884
 5306SOL    HW116817   0.231   4.272   5.926
 5306SOL    HW216818   0.114   4.162   5.896
 5307SOL     OW16819   4.702   2.361   0.401
 5307SOL    HW116820   4.681   2.279   0.347
 5307SOL    HW216821   4.679   2.443   0.348
 5308SOL     OW16822   1.443   4.807   2.771
 5308SOL    HW116823   1.497   4.830   2.851
 5308SOL    HW216824   1.464   4.713   2.742
 5309SOL     OW16825   3.774   5.726   2.834
 5309SOL    HW116826   3.769   5.639   2.785
 5309SOL    HW216827   3.831   5.790   2.782
 5310SOL     OW16828   5.868   3.226   2.577
 5310SOL    HW116829   5.819   3.282   2.510
 5310SOL    HW216830   5.917   3.152   2.530
 5311SOL     OW16831   5.845   0.126   0.026
 5311SOL    HW116832   5.779   0.143   0.100
 5311SOL    HW216833   5.796   0.090   6.965
 5312SOL     OW16834   0.209   5.969   1.583
 5312SOL    HW116835   0.117   5.940   1.609
 5312SOL    HW216836   0.275   5.932   1.648
 5313SOL     OW16837   6.940   4.948   5.397
 5313SOL    HW116838   6.910   5.029   5.347
 5313SOL    HW216839   6.962   4.973   5.491
 5314SOL     OW16840   5.576   6.643   0.832
 5314SOL    HW116841   5.553   6.680   0.922
 5314SOL    HW216842   5.503   6.583   0.801
 5315SOL     OW16843   4.491   2.083   3.566
 5315SOL    HW116844   4.535   2.109   3.651
 5315SOL    HW216845   4.554   2.029   3.510
 5316SOL     OW16846   0.824   3.541   5.144
 5316SOL    HW116847   0.827   3.441   5.147
 5316SOL    HW216848   0.729   3.571   5.132
 5317SOL     OW16849   0.008   1.503   5.771
 5317SOL    HW116850   7.003   1.453   5.853
 5317SOL    HW216851   7.005   1.449   5.690
 5318SOL     OW16852   0.214   2.943   0.389
 5318SOL    HW116853   0.252   2.857   0.422
 5318SOL    HW216854   0.122   2.955   0.427
 5319SOL     OW16855   4.677   6.472   0.554
 5319SOL    HW116856   4.673   6.373   0.563
 5319SOL    HW216857   4.718   6.496   0.466
 5320SOL     OW16858   4.177   5.710   1.194
 5320SOL    HW116859   4.079   5.705   1.213
 5320SOL    HW216860   4.226   5.645   1.251
 5321SOL     OW16861   1.702   4.310   4.986
 5321SOL    HW116862   1.640   4.326   4.909
 5321SOL    HW216863   1.788   4.358   4.969
 5322SOL     OW16864   5.566   0.235   0.824
 5322SOL    HW116865   5.598   0.189   0.741
 5322SOL    HW216866   5.574   0.172   0.901
 5323SOL     OW16867   4.333   1.477   6.064
 5323SOL    HW116868   4.303   1.406   6.129
 5323SOL    HW216869   4.378   1.434   5.986
 5324SOL     OW16870   2.690   2.262   6.903
 5324SOL    HW116871   2.619   2.236   6.837
 5324SOL    HW216872   2.648   2.281   6.991
 5325SOL     OW16873   2.750   1.587   5.285
 5325SOL    HW116874   2.707   1.513   5.232
 5325SOL    HW216875   2.836   1.614   5.240
 5326SOL     OW16876   6.283   6.047   3.330
 5326SOL    HW116877   6.242   6.095   3.408
 5326SOL    HW216878   6.237   6.076   3.246
 5327SOL     OW16879   5.454   2.295   4.797
 5327SOL    HW116880   5.405   2.269   4.880
 5327SOL    HW216881   5.545   2.253   4.797
 5328SOL     OW16882   4.214   3.855   5.836
 5328SOL    HW116883   4.155   3.789   5.789
 5328SOL    HW216884   4.253   3.813   5.917
 5329SOL     OW16885   1.221   5.349   6.421
 5329SOL    HW116886   1.227   5.426   6.358
 5329SOL    HW216887   1.203   5.382   6.513
 5330SOL     OW16888   3.741   4.105   0.547
 5330SOL    HW116889   3.795   4.021   0.554
 5330SOL    HW216890   3.665   4.090   0.485
 5331SOL     OW16891   6.165   1.917   6.790
 5331SOL    HW116892   6.152   2.015   6.801
 5331SOL    HW216893   6.234   1.900   6.720
 5332SOL     OW16894   1.663   4.018   1.537
 5332SOL    HW116895   1.568   4.051   1.536
 5332SOL    HW216896   1.699   4.018   1.444
 5333SOL     OW16897   1.081   1.011   2.910
 5333SOL    HW116898   1.127   1.064   2.982
 5333SOL    HW216899   0.983   1.004   2.932
 5334SOL     OW16900   3.005   0.583   5.302
 5334SOL    HW116901   3.054   0.647   5.362
 5334SOL    HW216902   3.012   0.616   5.207
 5335SOL     OW16903   6.324   5.951   0.966
 5335SOL    HW116904   6.228   5.928   0.954
 5335SOL    HW216905   6.376   5.868   0.988
 5336SOL     OW16906   1.774   3.366   2.103
 5336SOL    HW116907   1.828   3.296   2.149
 5336SOL    HW216908   1.765   3.342   2.006
 5337SOL     OW16909   4.683   3.919   1.454
 5337SOL    HW116910   4.756   3.954   1.394
 5337SOL    HW216911   4.667   3.983   1.528
 5338SOL     OW16912   5.909   1.841   6.818
 5338SOL    HW116913   6.003   1.876   6.822
 5338SOL    HW216914   5.910   1.745   6.792
 5339SOL     OW16915   6.443   2.088   3.806
 5339SOL    HW116916   6.486   2.056   3.891
 5339SOL    HW216917   6.442   2.014   3.739
 5340SOL     OW16918   5.872   3.048   0.235
 5340SOL    HW116919   5.905   2.964   0.192
 5340SOL    HW216920   5.869   3.036   0.334
 5341SOL     OW16921   3.958   2.456   5.939
 5341SOL    HW116922   4.026   2.520   5.903
 5341SOL    HW216923   3.975   2.439   6.036
 5342SOL     OW16924   3.710   0.425   5.383
 5342SOL    HW116925   3.617   0.415   5.417
 5342SOL    HW216926   3.750   0.335   5.366
 5343SOL     OW16927   3.654   3.625   3.236
 5343SOL    HW116928   3.592   3.701   3.217
 5343SOL    HW216929   3.604   3.539   3.230
 5344SOL     OW16930   1.566   2.769   2.719
 5344SOL    HW116931   1.644   2.826   2.747
 5344SOL    HW216932   1.559   2.691   2.781
 5345SOL     OW16933   4.659   6.186   0.795
 5345SOL    HW116934   4.644   6.107   0.855
 5345SOL    HW216935   4.601   6.177   0.714
 5346SOL     OW16936   3.192   6.405   3.678
 5346SOL    HW116937   3.097   6.421   3.706
 5346SOL    HW216938   3.197   6.320   3.625
 5347SOL     OW16939   7.013   2.155   2.344
 5347SOL    HW116940   6.931   2.212   2.349
 5347SOL    HW216941   7.006   2.093   2.266
 5348SOL     OW16942   1.092   1.475   0.525
 5348SOL    HW116943   1.162   1.546   0.525
 5348SOL    HW216944   1.073   1.447   0.619
 5349SOL     OW16945   0.837   2.258   0.359
 5349SOL    HW116946   0.788   2.338   0.392
 5349SOL    HW216947   0.861   2.199   0.436
 5350SOL     OW16948   2.562   0.458   6.282
 5350SOL    HW116949   2.619   0.519   6.338
 5350SOL    HW216950   2.563   0.490   6.188
 5351SOL     OW16951   4.926   5.912   1.528
 5351SOL    HW116952   4.846   5.853   1.532
 5351SOL    HW216953   4.966   5.919   1.620
 5352SOL     OW16954   2.456   6.114   3.824
 5352SOL    HW116955   2.392   6.189   3.807
 5352SOL    HW216956   2.405   6.030   3.841
 5353SOL     OW16957   4.191   6.443   4.374
 5353SOL    HW116958   4.253   6.385   4.426
 5353SOL    HW216959   4.099   6.405   4.376
 5354SOL     OW16960   2.419   4.593   2.548
 5354SOL    HW116961   2.478   4.674   2.540
 5354SOL    HW216962   2.333   4.619   2.591
 5355SOL     OW16963   4.580   2.165   3.799
 5355SOL    HW116964   4.619   2.159   3.891
 5355SOL    HW216965   4.488   2.204   3.804
 5356SOL     OW16966   6.045   3.869   1.650
 5356SOL    HW116967   6.022   3.834   1.741
 5356SOL    HW216968   5.976   3.936   1.622
 5357SOL     OW16969   3.443   1.204   1.004
 5357SOL    HW116970   3.377   1.181   0.932
 5357SOL    HW216971   3.440   1.135   1.076
 5358SOL     OW16972   4.307   2.300   0.504
 5358SOL    HW116973   4.391   2.336   0.547
 5358SOL    HW216974   4.299   2.203   0.524
 5359SOL     OW16975   2.267   1.506   0.831
 5359SOL    HW116976   2.336   1.434   0.830
 5359SOL    HW216977   2.177   1.466   0.848
 5360SOL     OW16978   3.842   6.700   5.271
 5360SOL    HW116979   3.897   6.774   5.309
 5360SOL    HW216980   3.872   6.682   5.177
 5361SOL     OW16981   2.371   1.186   4.547
 5361SOL    HW116982   2.326   1.161   4.632
 5361SOL    HW216983   2.463   1.221   4.566
 5362SOL     OW16984   5.085   4.469   3.316
 5362SOL    HW116985   5.069   4.559   3.276
 5362SOL    HW216986   5.180   4.462   3.346
 5363SOL     OW16987   0.859   6.089   5.865
 5363SOL    HW116988   0.859   6.175   5.915
 5363SOL    HW216989   0.934   6.088   5.799
 5364SOL     OW16990   6.178   5.217   1.021
 5364SOL    HW116991   6.248   5.185   1.085
 5364SOL    HW216992   6.206   5.305   0.982
 5365SOL     OW16993   4.615   3.005   6.295
 5365SOL    HW116994   4.542   2.967   6.238
 5365SOL    HW216995   4.697   2.949   6.284
 5366SOL     OW16996   4.755   4.864   0.945
 5366SOL    HW116997   4.744   4.769   0.976
 5366SOL    HW216998   4.713   4.926   1.011
 5367SOL     OW16999   0.634   5.171   0.301
 5367SOL    HW117000   0.555   5.177   0.362
 5367SOL    HW217001   0.707   5.118   0.345
 5368SOL     OW17002   5.498   1.625   2.673
 5368SOL    HW117003   5.527   1.629   2.769
 5368SOL    HW217004   5.406   1.588   2.667
 5369SOL     OW17005   2.335   5.613   3.353
 5369SOL    HW117006   2.348   5.575   3.262
 5369SOL    HW217007   2.237   5.614   3.375
 5370SOL     OW17008   4.205   2.965   1.546
 5370SOL    HW117009   4.229   2.908   1.468
 5370SOL    HW217010   4.236   3.059   1.530
 5371SOL     OW17011   2.080   4.378   4.319
 5371SOL    HW117012   2.016   4.432   4.373
 5371SOL    HW217013   2.042   4.286   4.304
 5372SOL     OW17014   2.894   5.653   2.084
 5372SOL    HW117015   2.808   5.640   2.035
 5372SOL    HW217016   2.938   5.736   2.052
 5373SOL     OW17017   2.974   4.863   4.281
 5373SOL    HW117018   2.893   4.894   4.231
 5373SOL    HW217019   2.947   4.829   4.371
 5374SOL     OW17020   1.285   3.448   6.759
 5374SOL    HW117021   1.299   3.352   6.736
 5374SOL    HW217022   1.335   3.506   6.695
 5375SOL     OW17023   0.925   4.551   4.935
 5375SOL    HW117024   0.866   4.623   4.971
 5375SOL    HW217025   0.921   4.471   4.995
 5376SOL     OW17026   1.353   3.297   1.547
 5376SOL    HW117027   1.409   3.278   1.466
 5376SOL    HW217028   1.366   3.225   1.615
 5377SOL     OW17029   6.709   0.202   1.597
 5377SOL    HW117030   6.778   0.243   1.656
 5377SOL    HW217031   6.666   0.125   1.645
 5378SOL     OW17032   6.423   0.738   0.802
 5378SOL    HW117033   6.455   0.812   0.743
 5378SOL    HW217034   6.354   0.773   0.865
 5379SOL     OW17035   0.188   5.054   3.863
 5379SOL    HW117036   0.114   5.043   3.797
 5379SOL    HW217037   0.178   4.986   3.936
 5380SOL     OW17038   2.086   1.248   3.386
 5380SOL    HW117039   2.049   1.175   3.443
 5380SOL    HW217040   2.130   1.208   3.305
 5381SOL     OW17041   6.595   3.894   0.829
 5381SOL    HW117042   6.551   3.983   0.825
 5381SOL    HW217043   6.527   3.824   0.848
 5382SOL     OW17044   2.955   0.136   1.645
 5382SOL    HW117045   2.960   0.040   1.617
 5382SOL    HW217046   3.019   0.190   1.591
 5383SOL     OW17047   2.956   2.248   5.371
 5383SOL    HW117048   2.885   2.189   5.332
 5383SOL    HW217049   3.030   2.259   5.305
 5384SOL     OW17050   6.401   6.674   3.976
 5384SOL    HW117051   6.493   6.670   3.937
 5384SOL    HW217052   6.402   6.729   4.059
 5385SOL     OW17053   2.913   3.666   2.894
 5385SOL    HW117054   2.941   3.576   2.859
 5385SOL    HW217055   2.903   3.730   2.818
 5386SOL     OW17056   4.914   6.461   4.124
 5386SOL    HW117057   4.961   6.435   4.040
 5386SOL    HW217058   4.949   6.406   4.200
 5387SOL     OW17059   2.696   5.866   2.555
 5387SOL    HW117060   2.778   5.817   2.523
 5387SOL    HW217061   2.635   5.882   2.478
 5388SOL     OW17062   5.336   6.288   2.811
 5388SOL    HW117063   5.323   6.319   2.716
 5388SOL    HW217064   5.332   6.188   2.814
 5389SOL     OW17065   5.051   1.051   1.351
 5389SOL    HW117066   5.055   1.060   1.450
 5389SOL    HW217067   4.959   1.027   1.323
 5390SOL     OW17068   4.523   5.254   4.077
 5390SOL    HW117069   4.501   5.346   4.110
 5390SOL    HW217070   4.611   5.255   4.030
 5391SOL     OW17071   2.624   3.032   0.395
 5391SOL    HW117072   2.598   2.989   0.481
 5391SOL    HW217073   2.572   3.116   0.382
 5392SOL     OW17074   6.316   3.490   1.049
 5392SOL    HW117075   6.249   3.492   1.123
 5392SOL    HW217076   6.311   3.403   1.001
 5393SOL     OW17077   6.783   6.780   0.207
 5393SOL    HW117078   6.713   6.850   0.218
 5393SOL    HW217079   6.767   6.729   0.123
 5394SOL     OW17080   0.346   3.652   6.525
 5394SOL    HW117081   0.426   3.613   6.571
 5394SOL    HW217082   0.364   3.747   6.501
 5395SOL     OW17083   4.841   0.712   1.221
 5395SOL    HW117084   4.936   0.718   1.190
 5395SOL    HW217085   4.786   0.667   1.151
 5396SOL     OW17086   5.254   3.718   2.756
 5396SOL    HW117087   5.350   3.743   2.747
 5396SOL    HW217088   5.240   3.625   2.722
 5397SOL     OW17089   0.108   3.007   2.146
 5397SOL    HW117090   0.110   3.091   2.201
 5397SOL    HW217091   0.198   2.992   2.106
 5398SOL     OW17092   3.409   2.608   1.632
 5398SOL    HW117093   3.356   2.524   1.641
 5398SOL    HW217094   3.506   2.584   1.626
 5399SOL     OW17095   2.490   6.481   0.982
 5399SOL    HW117096   2.432   6.400   0.994
 5399SOL    HW217097   2.559   6.462   0.913
 5400SOL     OW17098   2.846   4.204   0.780
 5400SOL    HW117099   2.784   4.137   0.740
 5400SOL    HW217100   2.803   4.295   0.776
 5401SOL     OW17101   5.767   3.173   2.137
 5401SOL    HW117102   5.839   3.114   2.175
 5401SOL    HW217103   5.733   3.233   2.209
 5402SOL     OW17104   2.599   5.643   1.979
 5402SOL    HW117105   2.611   5.727   1.927
 5402SOL    HW217106   2.629   5.565   1.924
 5403SOL     OW17107   6.761   3.487   6.708
 5403SOL    HW117108   6.734   3.540   6.628
 5403SOL    HW217109   6.679   3.458   6.758
 5404SOL     OW17110   1.043   2.814   3.798
 5404SOL    HW117111   0.950   2.845   3.818
 5404SOL    HW217112   1.042   2.753   3.718
 5405SOL     OW17113   6.825   5.420   6.898
 5405SOL    HW117114   6.776   5.499   6.860
 5405SOL    HW217115   6.812   5.418   6.997
 5406SOL     OW17116   2.365   1.837   6.899
 5406SOL    HW117117   2.461   1.864   6.890
 5406SOL    HW217118   2.321   1.896   6.967
 5407SOL     OW17119   4.335   3.070   0.336
 5407SOL    HW117120   4.368   3.049   0.428
 5407SOL    HW217121   4.270   3.145   0.340
 5408SOL     OW17122   2.398   1.210   5.361
 5408SOL    HW117123   2.434   1.118   5.346
 5408SOL    HW217124   2.304   1.215   5.328
 5409SOL     OW17125   5.465   0.197   3.029
 5409SOL    HW117126   5.438   0.293   3.019
 5409SOL    HW217127   5.564   0.192   3.043
 5410SOL     OW17128   2.509   2.497   1.607
 5410SOL    HW117129   2.553   2.454   1.528
 5410SOL    HW217130   2.565   2.481   1.689
 5411SOL     OW17131   6.311   5.118   6.117
 5411SOL    HW117132   6.239   5.163   6.169
 5411SOL    HW217133   6.381   5.186   6.093
 5412SOL     OW17134   5.288   2.734   0.369
 5412SOL    HW117135   5.257   2.682   0.449
 5412SOL    HW217136   5.233   2.709   0.289
 5413SOL     OW17137   2.837   1.538   1.807
 5413SOL    HW117138   2.856   1.636   1.813
 5413SOL    HW217139   2.767   1.513   1.874
 5414SOL     OW17140   5.196   1.874   4.601
 5414SOL    HW117141   5.117   1.862   4.540
 5414SOL    HW217142   5.179   1.953   4.661
 5415SOL     OW17143   0.591   5.870   1.333
 5415SOL    HW117144   0.506   5.924   1.330
 5415SOL    HW217145   0.651   5.899   1.258
 5416SOL     OW17146   4.308   5.127   5.362
 5416SOL    HW117147   4.389   5.171   5.323
 5416SOL    HW217148   4.324   5.029   5.369
 5417SOL     OW17149   3.760   6.611   5.855
 5417SOL    HW117150   3.672   6.593   5.811
 5417SOL    HW217151   3.746   6.621   5.954
 5418SOL     OW17152   3.114   0.392   2.859
 5418SOL    HW117153   3.053   0.464   2.827
 5418SOL    HW217154   3.163   0.423   2.940
 5419SOL     OW17155   3.545   4.889   0.029
 5419SOL    HW117156   3.623   4.927   0.079
 5419SOL    HW217157   3.566   4.796   7.019
 5420SOL     OW17158   2.051   3.042   3.040
 5420SOL    HW117159   2.032   2.980   3.116
 5420SOL    HW217160   2.082   3.130   3.075
 5421SOL     OW17161   1.705   3.755   1.382
 5421SOL    HW117162   1.755   3.669   1.369
 5421SOL    HW217163   1.612   3.735   1.414
 5422SOL     OW17164   0.703   4.798   0.823
 5422SOL    HW117165   0.710   4.775   0.726
 5422SOL    HW217166   0.742   4.888   0.840
 5423SOL     OW17167   6.600   3.352   0.070
 5423SOL    HW117168   6.513   3.367   0.023
 5423SOL    HW217169   6.586   3.353   0.169
 5424SOL     OW17170   5.184   3.100   4.405
 5424SOL    HW117171   5.140   3.085   4.317
 5424SOL    HW217172   5.129   3.163   4.459
 5425SOL     OW17173   4.119   1.123   4.958
 5425SOL    HW117174   4.128   1.075   5.046
 5425SOL    HW217175   4.210   1.140   4.921
 5426SOL     OW17176   5.875   6.122   4.199
 5426SOL    HW117177   5.786   6.085   4.227
 5426SOL    HW217178   5.944   6.100   4.268
 5427SOL     OW17179   4.547   5.991   6.679
 5427SOL    HW117180   4.564   5.951   6.769
 5427SOL    HW217181   4.589   6.081   6.674
 5428SOL     OW17182   0.675   7.011   1.187
 5428SOL    HW117183   0.664   6.962   1.100
 5428SOL    HW217184   0.682   0.090   1.169
 5429SOL     OW17185   1.640   1.915   0.015
 5429SOL    HW117186   1.549   1.876   7.018
 5429SOL    HW217187   1.664   1.975   6.957
 5430SOL     OW17188   0.249   2.264   5.770
 5430SOL    HW117189   0.323   2.294   5.710
 5430SOL    HW217190   0.211   2.343   5.818
 5431SOL     OW17191   3.564   6.387   6.975
 5431SOL    HW117192   3.594   6.292   6.973
 5431SOL    HW217193   3.634   6.445   6.931
 5432SOL     OW17194   5.561   6.982   6.653
 5432SOL    HW117195   5.517   6.912   6.596
 5432SOL    HW217196   5.655   6.955   6.672
 5433SOL     OW17197   0.282   2.046   4.588
 5433SOL    HW117198   0.229   2.013   4.511
 5433SOL    HW217199   0.284   2.146   4.587
 5434SOL     OW17200   2.886   0.485   5.727
 5434SOL    HW117201   2.878   0.583   5.708
 5434SOL    HW217202   2.981   0.456   5.715
 5435SOL     OW17203   5.211   0.464   1.785
 5435SOL    HW117204   5.137   0.436   1.724
 5435SOL    HW217205   5.297   0.426   1.754
 5436SOL     OW17206   4.990   4.118   3.932
 5436SOL    HW117207   4.935   4.130   4.014
 5436SOL    HW217208   4.999   4.021   3.911
 5437SOL     OW17209   2.601   4.250   0.275
 5437SOL    HW117210   2.672   4.181   0.292
 5437SOL    HW217211   2.542   4.220   0.200
 5438SOL     OW17212   6.868   2.393   1.783
 5438SOL    HW117213   6.950   2.445   1.757
 5438SOL    HW217214   6.836   2.425   1.872
 5439SOL     OW17215   1.404   1.695   1.454
 5439SOL    HW117216   1.427   1.672   1.549
 5439SOL    HW217217   1.465   1.767   1.421
 5440SOL     OW17218   1.538   1.128   1.278
 5440SOL    HW117219   1.454   1.097   1.321
 5440SOL    HW217220   1.553   1.224   1.298
 5441SOL     OW17221   3.944   1.610   3.991
 5441SOL    HW117222   4.010   1.567   3.929
 5441SOL    HW217223   3.991   1.678   4.047
 5442SOL     OW17224   4.274   6.810   2.508
 5442SOL    HW117225   4.315   6.777   2.423
 5442SOL    HW217226   4.304   6.754   2.584
 5443SOL     OW17227   3.575   6.701   4.969
 5443SOL    HW117228   3.559   6.717   4.872
 5443SOL    HW217229   3.522   6.622   4.999
 5444SOL     OW17230   1.101   0.931   4.149
 5444SOL    HW117231   1.063   0.839   4.144
 5444SOL    HW217232   1.027   0.998   4.154
 5445SOL     OW17233   6.627   4.186   3.391
 5445SOL    HW117234   6.601   4.124   3.465
 5445SOL    HW217235   6.721   4.168   3.364
 5446SOL     OW17236   6.504   5.544   4.576
 5446SOL    HW117237   6.454   5.608   4.518
 5446SOL    HW217238   6.447   5.517   4.654
 5447SOL     OW17239   2.940   2.400   6.867
 5447SOL    HW117240   2.949   2.455   6.784
 5447SOL    HW217241   2.848   2.360   6.870
 5448SOL     OW17242   4.233   2.701   5.421
 5448SOL    HW117243   4.195   2.657   5.340
 5448SOL    HW217244   4.292   2.777   5.395
 5449SOL     OW17245   1.649   2.569   6.006
 5449SOL    HW117246   1.698   2.544   6.089
 5449SOL    HW217247   1.698   2.642   5.959
 5450SOL     OW17248   2.366   0.619   1.912
 5450SOL    HW117249   2.438   0.578   1.967
 5450SOL    HW217250   2.374   0.588   1.817
 5451SOL     OW17251   1.942   6.098   3.461
 5451SOL    HW117252   1.964   6.103   3.363
 5451SOL    HW217253   1.851   6.137   3.477
 5452SOL     OW17254   2.142   4.611   6.819
 5452SOL    HW117255   2.130   4.512   6.810
 5452SOL    HW217256   2.150   4.652   6.728
 5453SOL     OW17257   6.379   4.075   0.804
 5453SOL    HW117258   6.438   4.131   0.862
 5453SOL    HW217259   6.381   4.110   0.711
 5454SOL     OW17260   0.321   4.302   6.890
 5454SOL    HW117261   0.293   4.349   6.974
 5454SOL    HW217262   0.289   4.354   6.811
 5455SOL     OW17263   6.400   3.069   0.833
 5455SOL    HW117264   6.384   3.077   0.735
 5455SOL    HW217265   6.314   3.081   0.882
 5456SOL     OW17266   3.305   0.369   6.328
 5456SOL    HW117267   3.294   0.293   6.392
 5456SOL    HW217268   3.402   0.396   6.324
 5457SOL     OW17269   5.510   2.291   1.031
 5457SOL    HW117270   5.484   2.195   1.018
 5457SOL    HW217271   5.475   2.346   0.955
 5458SOL     OW17272   1.076   4.818   6.947
 5458SOL    HW117273   1.161   4.848   6.990
 5458SOL    HW217274   1.030   4.751   7.007
 5459SOL     OW17275   1.750   5.288   0.432
 5459SOL    HW117276   1.829   5.256   0.483
 5459SOL    HW217277   1.760   5.263   0.336
 5460SOL     OW17278   3.023   6.954   1.865
 5460SOL    HW117279   2.977   6.884   1.919
 5460SOL    HW217280   3.052   6.916   1.778
 5461SOL     OW17281   5.584   6.421   5.278
 5461SOL    HW117282   5.656   6.361   5.313
 5461SOL    HW217283   5.586   6.422   5.178
 5462SOL     OW17284   1.790   0.512   0.992
 5462SOL    HW117285   1.883   0.549   0.994
 5462SOL    HW217286   1.742   0.548   0.911
 5463SOL     OW17287   6.199   2.241   0.350
 5463SOL    HW117288   6.293   2.243   0.384
 5463SOL    HW217289   6.177   2.328   0.306
 5464SOL     OW17290   1.519   1.001   4.163
 5464SOL    HW117291   1.475   1.012   4.252
 5464SOL    HW217292   1.457   0.954   4.100
 5465SOL     OW17293   3.674   0.066   3.524
 5465SOL    HW117294   3.739   0.130   3.564
 5465SOL    HW217295   3.719   0.014   3.452
 5466SOL     OW17296   5.340   5.070   4.807
 5466SOL    HW117297   5.407   5.145   4.801
 5466SOL    HW217298   5.388   4.984   4.824
 5467SOL     OW17299   5.243   2.200   2.750
 5467SOL    HW117300   5.224   2.106   2.781
 5467SOL    HW217301   5.159   2.253   2.753
 5468SOL     OW17302   4.883   1.622   4.257
 5468SOL    HW117303   4.909   1.704   4.307
 5468SOL    HW217304   4.817   1.646   4.186
 5469SOL     OW17305   3.491   4.646   6.270
 5469SOL    HW117306   3.477   4.551   6.243
 5469SOL    HW217307   3.500   4.703   6.189
 5470SOL     OW17308   1.806   5.027   3.331
 5470SOL    HW117309   1.801   4.947   3.271
 5470SOL    HW217310   1.885   5.083   3.306
 5471SOL     OW17311   5.494   6.393   1.273
 5471SOL    HW117312   5.586   6.360   1.292
 5471SOL    HW217313   5.478   6.394   1.175
 5472SOL     OW17314   4.703   3.853   6.159
 5472SOL    HW117315   4.763   3.866   6.081
 5472SOL    HW217316   4.755   3.866   6.244
 5473SOL     OW17317   0.805   3.589   3.396
 5473SOL    HW117318   0.902   3.571   3.378
 5473SOL    HW217319   0.795   3.630   3.487
 5474SOL     OW17320   1.663   4.886   4.688
 5474SOL    HW117321   1.752   4.843   4.671
 5474SOL    HW217322   1.671   4.947   4.767
 5475SOL     OW17323   3.716   2.595   1.288
 5475SOL    HW117324   3.783   2.541   1.339
 5475SOL    HW217325   3.733   2.692   1.303
 5476SOL     OW17326   2.394   3.554   6.240
 5476SOL    HW117327   2.457   3.626   6.210
 5476SOL    HW217328   2.360   3.505   6.160
 5477SOL     OW17329   2.146   3.510   3.274
 5477SOL    HW117330   2.242   3.508   3.300
 5477SOL    HW217331   2.089   3.502   3.356
 5478SOL     OW17332   5.689   5.971   6.450
 5478SOL    HW117333   5.787   5.976   6.431
 5478SOL    HW217334   5.638   5.981   6.365
 5479SOL     OW17335   4.691   0.510   5.208
 5479SOL    HW117336   4.643   0.494   5.294
 5479SOL    HW217337   4.728   0.423   5.174
 5480SOL     OW17338   1.008   4.049   4.418
 5480SOL    HW117339   0.937   4.118   4.431
 5480SOL    HW217340   0.967   3.962   4.392
 5481SOL     OW17341   2.849   0.217   4.699
 5481SOL    HW117342   2.787   0.179   4.629
 5481SOL    HW217343   2.799   0.227   4.785
 5482SOL     OW17344   3.822   4.535   1.658
 5482SOL    HW117345   3.757   4.583   1.716
 5482SOL    HW217346   3.774   4.472   1.597
 5483SOL     OW17347   0.723   2.688   5.591
 5483SOL    HW117348   0.815   2.705   5.554
 5483SOL    HW217349   0.688   2.602   5.556
 5484SOL     OW17350   4.408   0.206   4.753
 5484SOL    HW117351   4.313   0.185   4.777
 5484SOL    HW217352   4.423   0.304   4.760
 5485SOL     OW17353   2.852   6.554   5.403
 5485SOL    HW117354   2.802   6.640   5.405
 5485SOL    HW217355   2.951   6.573   5.403
 5486SOL     OW17356   2.720   5.875   5.154
 5486SOL    HW117357   2.806   5.906   5.194
 5486SOL    HW217358   2.655   5.951   5.153
 5487SOL     OW17359   2.739   4.383   5.880
 5487SOL    HW117360   2.772   4.471   5.915
 5487SOL    HW217361   2.784   4.364   5.792
 5488SOL     OW17362   6.402   1.265   0.216
 5488SOL    HW117363   6.345   1.238   0.139
 5488SOL    HW217364   6.387   1.361   0.237
 5489SOL     OW17365   6.620   3.149   2.055
 5489SOL    HW117366   6.654   3.242   2.076
 5489SOL    HW217367   6.521   3.151   2.048
 5490SOL     OW17368   1.250   6.822   2.283
 5490SOL    HW117369   1.268   6.865   2.194
 5490SOL    HW217370   1.285   6.881   2.356
 5491SOL     OW17371   6.828   3.147   0.590
 5491SOL    HW117372   6.836   3.134   0.689
 5491SOL    HW217373   6.782   3.233   0.571
 5492SOL     OW17374   0.684   2.423   5.492
 5492SOL    HW117375   0.688   2.350   5.561
 5492SOL    HW217376   0.770   2.425   5.442
 5493SOL     OW17377   4.164   3.631   1.832
 5493SOL    HW117378   4.151   3.636   1.931
 5493SOL    HW217379   4.175   3.536   1.804
 5494SOL     OW17380   5.956   4.342   4.925
 5494SOL    HW117381   6.040   4.289   4.910
 5494SOL    HW217382   5.911   4.358   4.837
 5495SOL     OW17383   6.451   0.519   0.551
 5495SOL    HW117384   6.367   0.513   0.496
 5495SOL    HW217385   6.430   0.497   0.646
 5496SOL     OW17386   4.467   0.465   4.241
 5496SOL    HW117387   4.520   0.381   4.234
 5496SOL    HW217388   4.474   0.516   4.155
 5497SOL     OW17389   0.625   0.735   5.834
 5497SOL    HW117390   0.534   0.740   5.793
 5497SOL    HW217391   0.621   0.681   5.918
 5498SOL     OW17392   0.264   4.595   1.778
 5498SOL    HW117393   0.262   4.688   1.814
 5498SOL    HW217394   0.253   4.597   1.679
 5499SOL     OW17395   0.045   0.521   4.491
 5499SOL    HW117396   0.135   0.564   4.494
 5499SOL    HW217397   6.996   0.589   4.462
 5500SOL     OW17398   1.926   0.672   0.304
 5500SOL    HW117399   1.896   0.740   0.372
 5500SOL    HW217400   2.025   0.660   0.310
 5501SOL     OW17401   4.041   1.867   0.219
 5501SOL    HW117402   3.981   1.791   0.247
 5501SOL    HW217403   4.130   1.830   0.190
 5502SOL     OW17404   5.184   3.420   6.457
 5502SOL    HW117405   5.206   3.379   6.545
 5502SOL    HW217406   5.241   3.378   6.386
 5503SOL     OW17407   0.520   3.479   0.314
 5503SOL    HW117408   0.563   3.557   0.269
 5503SOL    HW217409   0.457   3.511   0.385
 5504SOL     OW17410   3.840   1.176   6.858
 5504SOL    HW117411   3.939   1.167   6.852
 5504SOL    HW217412   3.797   1.091   6.826
 5505SOL     OW17413   2.381   4.340   3.926
 5505SOL    HW117414   2.313   4.308   3.991
 5505SOL    HW217415   2.446   4.401   3.972
 5506SOL     OW17416   0.230   3.604   6.074
 5506SOL    HW117417   0.303   3.628   6.011
 5506SOL    HW217418   0.146   3.585   6.022
 5507SOL     OW17419   3.179   0.143   6.155
 5507SOL    HW117420   3.106   0.157   6.221
 5507SOL    HW217421   3.265   0.129   6.202
 5508SOL     OW17422   0.980   1.053   6.966
 5508SOL    HW117423   1.004   0.974   6.909
 5508SOL    HW217424   0.999   1.032   0.043
 5509SOL     OW17425   0.111   5.418   1.016
 5509SOL    HW117426   0.139   5.395   1.109
 5509SOL    HW217427   0.112   5.517   1.005
 5510SOL     OW17428   4.040   5.255   6.624
 5510SOL    HW117429   4.048   5.316   6.545
 5510SOL    HW217430   4.097   5.175   6.610
 5511SOL     OW17431   0.639   1.600   5.749
 5511SOL    HW117432   0.682   1.514   5.778
 5511SOL    HW217433   0.641   1.606   5.649
 5512SOL     OW17434   3.748   0.909   1.886
 5512SOL    HW117435   3.694   0.891   1.968
 5512SOL    HW217436   3.688   0.931   1.810
 5513SOL     OW17437   4.293   4.592   6.761
 5513SOL    HW117438   4.280   4.507   6.711
 5513SOL    HW217439   4.377   4.587   6.815
 5514SOL     OW17440   2.889   6.655   5.679
 5514SOL    HW117441   2.919   6.570   5.635
 5514SOL    HW217442   2.790   6.663   5.673
 5515SOL     OW17443   2.053   5.828   2.041
 5515SOL    HW117444   2.152   5.814   2.035
 5515SOL    HW217445   2.007   5.740   2.036
 5516SOL     OW17446   2.587   2.875   5.345
 5516SOL    HW117447   2.541   2.788   5.329
 5516SOL    HW217448   2.527   2.950   5.319
 5517SOL     OW17449   1.690   3.990   2.600
 5517SOL    HW117450   1.760   3.940   2.549
 5517SOL    HW217451   1.608   3.933   2.608
 5518SOL     OW17452   4.850   4.408   5.358
 5518SOL    HW117453   4.897   4.434   5.443
 5518SOL    HW217454   4.901   4.334   5.313
 5519SOL     OW17455   4.427   2.462   3.758
 5519SOL    HW117456   4.445   2.453   3.660
 5519SOL    HW217457   4.366   2.388   3.787
 5520SOL     OW17458   5.533   6.500   2.430
 5520SOL    HW117459   5.583   6.467   2.350
 5520SOL    HW217460   5.557   6.595   2.448
 5521SOL     OW17461   5.538   5.465   1.785
 5521SOL    HW117462   5.439   5.458   1.779
 5521SOL    HW217463   5.580   5.411   1.712
 5522SOL     OW17464   5.506   5.248   0.781
 5522SOL    HW117465   5.519   5.347   0.783
 5522SOL    HW217466   5.560   5.209   0.706
 5523SOL     OW17467   6.032   1.434   2.316
 5523SOL    HW117468   5.965   1.361   2.301
 5523SOL    HW217469   6.087   1.446   2.234
 5524SOL     OW17470   3.004   0.721   4.778
 5524SOL    HW117471   2.974   0.648   4.717
 5524SOL    HW217472   3.055   0.789   4.726
 5525SOL     OW17473   6.510   2.533   1.381
 5525SOL    HW117474   6.502   2.624   1.339
 5525SOL    HW217475   6.490   2.540   1.478
 5526SOL     OW17476   4.642   4.842   3.448
 5526SOL    HW117477   4.686   4.754   3.464
 5526SOL    HW217478   4.656   4.870   3.353
 5527SOL     OW17479   5.226   2.375   3.911
 5527SOL    HW117480   5.278   2.447   3.957
 5527SOL    HW217481   5.267   2.286   3.932
 5528SOL     OW17482   1.124   1.804   1.391
 5528SOL    HW117483   1.096   1.765   1.304
 5528SOL    HW217484   1.208   1.759   1.423
 5529SOL     OW17485   3.382   0.713   2.424
 5529SOL    HW117486   3.285   0.689   2.419
 5529SOL    HW217487   3.408   0.730   2.519
 5530SOL     OW17488   6.701   2.244   1.594
 5530SOL    HW117489   6.624   2.298   1.626
 5530SOL    HW217490   6.783   2.269   1.646
 5531SOL     OW17491   3.619   3.698   1.207
 5531SOL    HW117492   3.521   3.716   1.213
 5531SOL    HW217493   3.634   3.608   1.167
 5532SOL     OW17494   1.668   3.163   1.114
 5532SOL    HW117495   1.631   3.146   1.023
 5532SOL    HW217496   1.614   3.112   1.182
 5533SOL     OW17497   3.996   1.796   4.447
 5533SOL    HW117498   3.899   1.779   4.434
 5533SOL    HW217499   4.009   1.871   4.512
 5534SOL     OW17500   1.213   1.644   5.760
 5534SOL    HW117501   1.137   1.623   5.698
 5534SOL    HW217502   1.240   1.739   5.749
 5535SOL     OW17503   0.877   2.350   3.230
 5535SOL    HW117504   0.976   2.337   3.240
 5535SOL    HW217505   0.829   2.269   3.262
 5536SOL     OW17506   3.202   0.517   4.468
 5536SOL    HW117507   3.283   0.465   4.497
 5536SOL    HW217508   3.192   0.509   4.369
 5537SOL     OW17509   2.779   0.923   2.736
 5537SOL    HW117510   2.843   0.913   2.661
 5537SOL    HW217511   2.806   0.999   2.794
 5538SOL     OW17512   4.940   5.889   4.614
 5538SOL    HW117513   4.848   5.923   4.636
 5538SOL    HW217514   4.936   5.791   4.596
 5539SOL     OW17515   2.682   2.717   1.050
 5539SOL    HW117516   2.588   2.750   1.034
 5539SOL    HW217517   2.726   2.700   0.963
 5540SOL     OW17518   4.785   4.741   3.052
 5540SOL    HW117519   4.690   4.759   3.027
 5540SOL    HW217520   4.822   4.819   3.103
 5541SOL     OW17521   4.829   1.082   5.480
 5541SOL    HW117522   4.776   1.154   5.525
 5541SOL    HW217523   4.804   1.077   5.384
 5542SOL     OW17524   4.161   4.286   6.154
 5542SOL    HW117525   4.231   4.308   6.086
 5542SOL    HW217526   4.132   4.191   6.141
 5543SOL     OW17527   6.454   2.715   6.256
 5543SOL    HW117528   6.502   2.799   6.229
 5543SOL    HW217529   6.370   2.740   6.304
 5544SOL     OW17530   6.059   0.810   5.678
 5544SOL    HW117531   5.996   0.838   5.605
 5544SOL    HW217532   6.009   0.801   5.764
 5545SOL     OW17533   3.007   2.063   2.131
 5545SOL    HW117534   3.000   1.999   2.054
 5545SOL    HW217535   2.977   2.154   2.101
 5546SOL     OW17536   1.835   5.240   5.855
 5546SOL    HW117537   1.825   5.287   5.767
 5546SOL    HW217538   1.882   5.153   5.842
 5547SOL     OW17539   3.550   5.457   5.142
 5547SOL    HW117540   3.602   5.378   5.175
 5547SOL    HW217541   3.511   5.436   5.052
 5548SOL     OW17542   6.420   3.461   5.223
 5548SOL    HW117543   6.338   3.409   5.246
 5548SOL    HW217544   6.402   3.558   5.237
 5549SOL     OW17545   2.609   4.916   6.978
 5549SOL    HW117546   2.635   5.012   6.972
 5549SOL    HW217547   2.545   4.893   6.904
 5550SOL     OW17548   4.332   6.489   1.254
 5550SOL    HW117549   4.396   6.480   1.331
 5550SOL    HW217550   4.265   6.560   1.275
 5551SOL     OW17551   0.862   1.798   3.054
 5551SOL    HW117552   0.802   1.867   3.094
 5551SOL    HW217553   0.893   1.829   2.964
 5552SOL     OW17554   0.049   2.503   1.591
 5552SOL    HW117555   0.094   2.566   1.655
 5552SOL    HW217556   0.005   2.556   1.518
 5553SOL     OW17557   5.076   5.892   0.967
 5553SOL    HW117558   5.061   5.945   0.883
 5553SOL    HW217559   5.097   5.797   0.944
 5554SOL     OW17560   2.976   2.119   4.730
 5554SOL    HW117561   3.051   2.059   4.702
 5554SOL    HW217562   2.954   2.182   4.656
 5555SOL     OW17563   0.296   5.823   2.964
 5555SOL    HW117564   0.271   5.882   3.041
 5555SOL    HW217565   0.213   5.800   2.912
 5556SOL     OW17566   0.346   1.992   5.155
 5556SOL    HW117567   0.427   1.934   5.169
 5556SOL    HW217568   0.291   1.954   5.080
 5557SOL     OW17569   2.231   0.245   3.753
 5557SOL    HW117570   2.276   0.241   3.664
 5557SOL    HW217571   2.134   0.268   3.740
 5558SOL     OW17572   5.123   3.220   5.203
 5558SOL    HW117573   5.103   3.152   5.274
 5558SOL    HW217574   5.056   3.294   5.208
 5559SOL     OW17575   2.046   0.417   1.546
 5559SOL    HW117576   1.955   0.375   1.546
 5559SOL    HW217577   2.044   0.502   1.600
 5560SOL     OW17578   0.100   1.259   4.050
 5560SOL    HW117579   0.177   1.199   4.031
 5560SOL    HW217580   0.108   1.296   4.143
 5561SOL     OW17581   1.730   2.740   3.417
 5561SOL    HW117582   1.636   2.764   3.439
 5561SOL    HW217583   1.736   2.642   3.399
 5562SOL     OW17584   2.513   2.592   5.913
 5562SOL    HW117585   2.466   2.675   5.942
 5562SOL    HW217586   2.609   2.596   5.941
 5563SOL     OW17587   4.467   5.831   1.857
 5563SOL    HW117588   4.557   5.789   1.870
 5563SOL    HW217589   4.396   5.762   1.868
 5564SOL     OW17590   5.658   3.941   1.828
 5564SOL    HW117591   5.600   3.860   1.838
 5564SOL    HW217592   5.617   4.003   1.761
 5565SOL     OW17593   3.450   3.479   5.430
 5565SOL    HW117594   3.517   3.406   5.420
 5565SOL    HW217595   3.427   3.515   5.339
 5566SOL     OW17596   1.653   4.887   1.378
 5566SOL    HW117597   1.692   4.853   1.463
 5566SOL    HW217598   1.721   4.880   1.305
 5567SOL     OW17599   1.519   5.521   1.691
 5567SOL    HW117600   1.439   5.515   1.751
 5567SOL    HW217601   1.590   5.459   1.723
 5568SOL     OW17602   3.268   2.383   1.591
 5568SOL    HW117603   3.255   2.318   1.516
 5568SOL    HW217604   3.201   2.365   1.663
 5569SOL     OW17605   5.265   1.720   6.909
 5569SOL    HW117606   5.291   1.692   7.002
 5569SOL    HW217607   5.210   1.803   6.914
 5570SOL     OW17608   6.927   4.550   5.710
 5570SOL    HW117609   7.004   4.488   5.696
 5570SOL    HW217610   6.866   4.546   5.630
 5571SOL     OW17611   6.827   4.804   5.819
 5571SOL    HW117612   6.884   4.723   5.833
 5571SOL    HW217613   6.880   4.873   5.770
 5572SOL     OW17614   5.182   2.279   5.960
 5572SOL    HW117615   5.258   2.331   5.998
 5572SOL    HW217616   5.208   2.241   5.871
 5573SOL     OW17617   0.918   3.769   0.371
 5573SOL    HW117618   0.938   3.719   0.287
 5573SOL    HW217619   0.940   3.866   0.358
 5574SOL     OW17620   0.717   5.960   4.747
 5574SOL    HW117621   0.672   5.881   4.790
 5574SOL    HW217622   0.686   5.967   4.652
 5575SOL     OW17623   1.703   1.058   0.853
 5575SOL    HW117624   1.641   1.001   0.799
 5575SOL    HW217625   1.790   1.011   0.866
 5576SOL     OW17626   6.037   5.742   0.099
 5576SOL    HW117627   5.937   5.736   0.094
 5576SOL    HW217628   6.073   5.771   0.010
 5577SOL     OW17629   2.119   3.707   5.175
 5577SOL    HW117630   2.185   3.639   5.207
 5577SOL    HW217631   2.155   3.755   5.095
 5578SOL     OW17632   3.883   2.662   6.812
 5578SOL    HW117633   3.843   2.754   6.815
 5578SOL    HW217634   3.850   2.613   6.731
 5579SOL     OW17635   4.803   4.359   0.173
 5579SOL    HW117636   4.791   4.327   0.079
 5579SOL    HW217637   4.887   4.413   0.179
 5580SOL     OW17638   6.106   1.443   0.458
 5580SOL    HW117639   6.071   1.350   0.449
 5580SOL    HW217640   6.068   1.485   0.540
 5581SOL     OW17641   2.423   2.174   6.790
 5581SOL    HW117642   2.402   2.253   6.733
 5581SOL    HW217643   2.369   2.179   6.874
 5582SOL     OW17644   3.904   3.595   3.140
 5582SOL    HW117645   3.811   3.581   3.172
 5582SOL    HW217646   3.968   3.580   3.215
 5583SOL     OW17647   4.185   6.977   1.175
 5583SOL    HW117648   4.259   0.014   1.138
 5583SOL    HW217649   4.175   6.995   1.273
 5584SOL     OW17650   6.389   3.155   3.696
 5584SOL    HW117651   6.386   3.106   3.610
 5584SOL    HW217652   6.375   3.253   3.680
 5585SOL     OW17653   6.219   6.927   3.894
 5585SOL    HW117654   6.268   6.958   3.812
 5585SOL    HW217655   6.282   6.925   3.972
 5586SOL     OW17656   2.000   1.149   6.534
 5586SOL    HW117657   1.918   1.140   6.591
 5586SOL    HW217658   1.980   1.119   6.441
 5587SOL     OW17659   3.679   6.981   4.439
 5587SOL    HW117660   3.696   6.910   4.370
 5587SOL    HW217661   3.600   0.016   4.412
 5588SOL     OW17662   4.007   0.335   6.528
 5588SOL    HW117663   3.908   0.318   6.525
 5588SOL    HW217664   4.047   0.316   6.438
 5589SOL     OW17665   4.329   3.177   6.840
 5589SOL    HW117666   4.230   3.186   6.856
 5589SOL    HW217667   4.350   3.206   6.747
 5590SOL     OW17668   0.537   6.443   3.376
 5590SOL    HW117669   0.500   6.423   3.467
 5590SOL    HW217670   0.516   6.367   3.315
 5591SOL     OW17671   4.753   0.984   0.162
 5591SOL    HW117672   4.680   0.996   0.096
 5591SOL    HW217673   4.786   0.889   0.159
 5592SOL     OW17674   1.918   2.676   2.600
 5592SOL    HW117675   1.974   2.632   2.671
 5592SOL    HW217676   1.943   2.639   2.511
 5593SOL     OW17677   1.800   3.311   5.365
 5593SOL    HW117678   1.879   3.358   5.326
 5593SOL    HW217679   1.730   3.379   5.390
 5594SOL     OW17680   2.496   0.767   0.134
 5594SOL    HW117681   2.425   0.749   0.202
 5594SOL    HW217682   2.464   0.738   0.044
 5595SOL     OW17683   0.052   1.937   5.524
 5595SOL    HW117684   0.124   1.968   5.587
 5595SOL    HW217685   7.002   1.886   5.575
 5596SOL     OW17686   5.042   1.200   3.082
 5596SOL    HW117687   5.036   1.294   3.115
 5596SOL    HW217688   5.034   1.199   2.982
 5597SOL     OW17689   0.090   1.210   6.181
 5597SOL    HW117690   0.012   1.149   6.188
 5597SOL    HW217691   0.059   1.303   6.162
 5598SOL     OW17692   6.652   2.190   4.103
 5598SOL    HW117693   6.588   2.196   4.180
 5598SOL    HW217694   6.648   2.099   4.063
 5599SOL     OW17695   5.095   2.670   3.240
 5599SOL    HW117696   5.004   2.698   3.270
 5599SOL    HW217697   5.118   2.582   3.282
 5600SOL     OW17698   2.659   1.410   1.966
 5600SOL    HW117699   2.621   1.348   1.898
 5600SOL    HW217700   2.643   1.374   2.058
 5601SOL     OW17701   5.973   3.063   5.480
 5601SOL    HW117702   6.034   3.057   5.401
 5601SOL    HW217703   5.940   2.972   5.504
 5602SOL     OW17704   6.415   2.370   2.843
 5602SOL    HW117705   6.443   2.465   2.829
 5602SOL    HW217706   6.392   2.329   2.755
 5603SOL     OW17707   4.316   1.462   5.220
 5603SOL    HW117708   4.237   1.472   5.159
 5603SOL    HW217709   4.377   1.541   5.209
 5604SOL     OW17710   1.261   0.566   4.360
 5604SOL    HW117711   1.170   0.608   4.359
 5604SOL    HW217712   1.309   0.589   4.276
 5605SOL     OW17713   3.621   6.302   4.414
 5605SOL    HW117714   3.581   6.230   4.357
 5605SOL    HW217715   3.608   6.391   4.370
 5606SOL     OW17716   4.867   2.682   0.292
 5606SOL    HW117717   4.798   2.619   0.257
 5606SOL    HW217718   4.944   2.685   0.228
 5607SOL     OW17719   6.209   2.535   2.596
 5607SOL    HW117720   6.259   2.541   2.509
 5607SOL    HW217721   6.188   2.439   2.615
 5608SOL     OW17722   4.845   0.342   3.121
 5608SOL    HW117723   4.807   0.434   3.130
 5608SOL    HW217724   4.802   0.296   3.043
 5609SOL     OW17725   0.334   0.290   0.427
 5609SOL    HW117726   0.387   0.312   0.345
 5609SOL    HW217727   0.387   0.229   0.486
 5610SOL     OW17728   5.296   4.718   0.607
 5610SOL    HW117729   5.282   4.774   0.689
 5610SOL    HW217730   5.273   4.623   0.627
 5611SOL     OW17731   6.322   4.702   1.653
 5611SOL    HW117732   6.252   4.766   1.620
 5611SOL    HW217733   6.322   4.701   1.753
 5612SOL     OW17734   3.148   1.594   0.687
 5612SOL    HW117735   3.230   1.584   0.743
 5612SOL    HW217736   3.159   1.541   0.603
 5613SOL     OW17737   5.901   4.942   6.081
 5613SOL    HW117738   5.853   5.001   6.015
 5613SOL    HW217739   5.999   4.944   6.061
 5614SOL     OW17740   5.267   3.211   4.124
 5614SOL    HW117741   5.229   3.303   4.134
 5614SOL    HW217742   5.192   3.145   4.113
 5615SOL     OW17743   0.261   2.721   3.057
 5615SOL    HW117744   0.231   2.625   3.059
 5615SOL    HW217745   0.181   2.781   3.062
 5616SOL     OW17746   1.460   3.171   2.407
 5616SOL    HW117747   1.466   3.165   2.307
 5616SOL    HW217748   1.399   3.099   2.440
 5617SOL     OW17749   2.242   5.092   6.083
 5617SOL    HW117750   2.289   5.086   6.171
 5617SOL    HW217751   2.165   5.029   6.081
 5618SOL     OW17752   6.238   5.912   2.912
 5618SOL    HW117753   6.171   5.986   2.903
 5618SOL    HW217754   6.328   5.945   2.884
 5619SOL     OW17755   3.883   3.052   3.920
 5619SOL    HW117756   3.850   3.017   4.008
 5619SOL    HW217757   3.863   3.150   3.914
 5620SOL     OW17758   5.279   4.184   4.901
 5620SOL    HW117759   5.223   4.235   4.836
 5620SOL    HW217760   5.307   4.097   4.860
 5621SOL     OW17761   1.560   2.037   5.383
 5621SOL    HW117762   1.585   2.132   5.362
 5621SOL    HW217763   1.623   1.976   5.335
 5622SOL     OW17764   4.780   5.810   4.231
 5622SOL    HW117765   4.833   5.826   4.148
 5622SOL    HW217766   4.743   5.717   4.230
 5623SOL     OW17767   4.759   5.535   3.763
 5623SOL    HW117768   4.759   5.546   3.664
 5623SOL    HW217769   4.747   5.625   3.806
 5624SOL     OW17770   6.182   5.486   3.090
 5624SOL    HW117771   6.129   5.536   3.021
 5624SOL    HW217772   6.146   5.507   3.181
 5625SOL     OW17773   1.281   6.081   5.019
 5625SOL    HW117774   1.271   6.144   4.942
 5625SOL    HW217775   1.197   6.028   5.030
 5626SOL     OW17776   0.726   4.341   6.330
 5626SOL    HW117777   0.629   4.331   6.308
 5626SOL    HW217778   0.765   4.251   6.347
 5627SOL     OW17779   0.451   6.032   6.955
 5627SOL    HW117780   0.536   6.016   7.005
 5627SOL    HW217781   0.413   6.120   6.981
 5628SOL     OW17782   2.305   2.349   1.501
 5628SOL    HW117783   2.208   2.333   1.520
 5628SOL    HW217784   2.340   2.421   1.561
 5629SOL     OW17785   5.669   3.599   2.478
 5629SOL    HW117786   5.703   3.689   2.502
 5629SOL    HW217787   5.689   3.534   2.551
 5630SOL     OW17788   1.382   3.887   7.007
 5630SOL    HW117789   1.346   3.815   0.048
 5630SOL    HW217790   1.477   3.907   0.013
 5631SOL     OW17791   3.778   1.609   2.027
 5631SOL    HW117792   3.823   1.609   2.116
 5631SOL    HW217793   3.713   1.684   2.022
 5632SOL     OW17794   5.327   6.878   5.731
 5632SOL    HW117795   5.292   6.891   5.638
 5632SOL    HW217796   5.418   6.836   5.727
 5633SOL     OW17797   0.629   4.991   5.530
 5633SOL    HW117798   0.634   4.965   5.626
 5633SOL    HW217799   0.559   5.061   5.518
 5634SOL     OW17800   2.372   6.998   1.239
 5634SOL    HW117801   2.304   0.033   1.189
 5634SOL    HW217802   2.462   7.015   1.201
 5635SOL     OW17803   2.678   0.687   0.436
 5635SOL    HW117804   2.707   0.757   0.370
 5635SOL    HW217805   2.609   0.726   0.497
 5636SOL     OW17806   5.598   1.532   5.493
 5636SOL    HW117807   5.571   1.549   5.588
 5636SOL    HW217808   5.575   1.438   5.468
 5637SOL     OW17809   4.945   6.723   4.319
 5637SOL    HW117810   4.857   6.684   4.293
 5637SOL    HW217811   4.990   6.761   4.239
 5638SOL     OW17812   6.007   5.396   1.179
 5638SOL    HW117813   5.925   5.443   1.146
 5638SOL    HW217814   6.054   5.354   1.102
 5639SOL     OW17815   1.853   0.236   1.477
 5639SOL    HW117816   1.772   0.255   1.421
 5639SOL    HW217817   1.904   0.160   1.438
 5640SOL     OW17818   2.847   6.185   2.998
 5640SOL    HW117819   2.859   6.133   2.914
 5640SOL    HW217820   2.936   6.201   3.041
 5641SOL     OW17821   0.695   4.356   4.070
 5641SOL    HW117822   0.719   4.280   4.130
 5641SOL    HW217823   0.673   4.436   4.124
 5642SOL     OW17824   1.954   4.825   0.043
 5642SOL    HW117825   1.891   4.811   0.119
 5642SOL    HW217826   1.993   4.738   0.015
 5643SOL     OW17827   4.425   2.351   5.110
 5643SOL    HW117828   4.333   2.388   5.094
 5643SOL    HW217829   4.484   2.373   5.033
 5644SOL     OW17830   4.383   1.132   4.907
 5644SOL    HW117831   4.402   1.230   4.916
 5644SOL    HW217832   4.435   1.082   4.977
 5645SOL     OW17833   6.193   5.784   4.123
 5645SOL    HW117834   6.236   5.849   4.185
 5645SOL    HW217835   6.218   5.690   4.149
 5646SOL     OW17836   0.521   5.846   4.390
 5646SOL    HW117837   0.439   5.810   4.434
 5646SOL    HW217838   0.582   5.771   4.366
 5647SOL     OW17839   5.482   5.275   6.107
 5647SOL    HW117840   5.445   5.183   6.089
 5647SOL    HW217841   5.582   5.269   6.117
 5648SOL     OW17842   1.890   1.929   4.997
 5648SOL    HW117843   1.977   1.884   5.017
 5648SOL    HW217844   1.907   2.015   4.949
 5649SOL     OW17845   0.842   0.771   5.421
 5649SOL    HW117846   0.816   0.734   5.510
 5649SOL    HW217847   0.789   0.854   5.403
 5650SOL     OW17848   6.078   4.991   6.805
 5650SOL    HW117849   6.150   5.055   6.831
 5650SOL    HW217850   6.113   4.898   6.810
 5651SOL     OW17851   6.954   0.628   2.999
 5651SOL    HW117852   6.906   0.661   2.918
 5651SOL    HW217853   0.034   0.640   2.986
 5652SOL     OW17854   4.739   4.902   0.651
 5652SOL    HW117855   4.663   4.856   0.606
 5652SOL    HW217856   4.738   4.881   0.749
 5653SOL     OW17857   1.374   6.128   6.032
 5653SOL    HW117858   1.329   6.100   5.947
 5653SOL    HW217859   1.453   6.069   6.049
 5654SOL     OW17860   6.848   5.945   5.854
 5654SOL    HW117861   6.851   6.004   5.934
 5654SOL    HW217862   6.902   5.986   5.780
 5655SOL     OW17863   6.923   3.482   3.668
 5655SOL    HW117864   6.908   3.578   3.690
 5655SOL    HW217865   6.949   3.473   3.572
 5656SOL     OW17866   3.568   4.581   0.019
 5656SOL    HW117867   3.582   4.537   6.950
 5656SOL    HW217868   3.656   4.590   0.066
 5657SOL     OW17869   4.086   6.697   1.822
 5657SOL    HW117870   4.053   6.771   1.881
 5657SOL    HW217871   4.108   6.734   1.732
 5658SOL     OW17872   4.259   0.227   5.472
 5658SOL    HW117873   4.186   0.170   5.511
 5658SOL    HW217874   4.339   0.223   5.532
 5659SOL     OW17875   3.311   3.811   2.807
 5659SOL    HW117876   3.364   3.726   2.802
 5659SOL    HW217877   3.373   3.889   2.807
 5660SOL     OW17878   5.863   6.414   0.049
 5660SOL    HW117879   5.928   6.479   0.010
 5660SOL    HW217880   5.772   6.431   0.009
 5661SOL     OW17881   6.287   5.534   4.217
 5661SOL    HW117882   6.275   5.467   4.290
 5661SOL    HW217883   6.384   5.560   4.210
 5662SOL     OW17884   2.566   4.636   4.531
 5662SOL    HW117885   2.625   4.664   4.607
 5662SOL    HW217886   2.499   4.569   4.564
 5663SOL     OW17887   1.706   4.329   0.221
 5663SOL    HW117888   1.638   4.304   0.151
 5663SOL    HW217889   1.677   4.294   0.310
 5664SOL     OW17890   0.368   4.505   2.716
 5664SOL    HW117891   0.291   4.567   2.699
 5664SOL    HW217892   0.345   4.414   2.682
 5665SOL     OW17893   2.325   2.493   6.087
 5665SOL    HW117894   2.408   2.512   6.034
 5665SOL    HW217895   2.329   2.542   6.173
 5666SOL     OW17896   5.338   5.153   0.588
 5666SOL    HW117897   5.390   5.204   0.656
 5666SOL    HW217898   5.297   5.217   0.523
 5667SOL     OW17899   0.169   5.316   3.488
 5667SOL    HW117900   0.189   5.310   3.585
 5667SOL    HW217901   0.132   5.406   3.466
 5668SOL     OW17902   5.988   2.302   5.970
 5668SOL    HW117903   5.938   2.278   6.053
 5668SOL    HW217904   5.928   2.294   5.891
 5669SOL     OW17905   0.328   4.320   6.553
 5669SOL    HW117906   0.381   4.255   6.608
 5669SOL    HW217907   0.231   4.296   6.557
 5670SOL     OW17908   0.810   3.981   3.630
 5670SOL    HW117909   0.726   3.927   3.631
 5670SOL    HW217910   0.884   3.928   3.590
 5671SOL     OW17911   1.859   0.890   6.043
 5671SOL    HW117912   1.935   0.923   5.987
 5671SOL    HW217913   1.885   0.805   6.088
 5672SOL     OW17914   4.423   5.126   5.856
 5672SOL    HW117915   4.505   5.160   5.901
 5672SOL    HW217916   4.358   5.093   5.925
 5673SOL     OW17917   0.511   0.496   2.475
 5673SOL    HW117918   0.523   0.404   2.439
 5673SOL    HW217919   0.488   0.559   2.401
 5674SOL     OW17920   6.887   3.300   1.701
 5674SOL    HW117921   6.898   3.378   1.762
 5674SOL    HW217922   6.962   3.235   1.716
 5675SOL     OW17923   4.189   2.536   5.624
 5675SOL    HW117924   4.126   2.459   5.619
 5675SOL    HW217925   4.212   2.566   5.532
 5676SOL     OW17926   2.103   0.484   2.015
 5676SOL    HW117927   2.131   0.406   1.959
 5676SOL    HW217928   2.180   0.515   2.070
 5677SOL     OW17929   6.571   0.714   3.704
 5677SOL    HW117930   6.568   0.798   3.649
 5677SOL    HW217931   6.666   0.686   3.716
 5678SOL     OW17932   2.644   6.386   2.955
 5678SOL    HW117933   2.717   6.318   2.965
 5678SOL    HW217934   2.677   6.463   2.900
 5679SOL     OW17935   2.103   6.377   4.902
 5679SOL    HW117936   2.184   6.434   4.912
 5679SOL    HW217937   2.097   6.314   4.979
 5680SOL     OW17938   2.225   6.339   6.488
 5680SOL    HW117939   2.203   6.278   6.565
 5680SOL    HW217940   2.302   6.302   6.437
 5681SOL     OW17941   1.226   2.563   6.970
 5681SOL    HW117942   1.254   2.504   0.026
 5681SOL    HW217943   1.301   2.627   6.949
 5682SOL     OW17944   1.333   3.463   5.039
 5682SOL    HW117945   1.352   3.410   4.956
 5682SOL    HW217946   1.260   3.419   5.091
 5683SOL     OW17947   3.375   2.119   6.066
 5683SOL    HW117948   3.453   2.147   6.010
 5683SOL    HW217949   3.297   2.097   6.006
 5684SOL     OW17950   3.351   4.110   4.074
 5684SOL    HW117951   3.397   4.032   4.116
 5684SOL    HW217952   3.413   4.154   4.008
 5685SOL     OW17953   6.923   5.301   1.998
 5685SOL    HW117954   6.875   5.254   2.073
 5685SOL    HW217955   6.928   5.240   1.919
 5686SOL     OW17956   3.055   6.864   0.185
 5686SOL    HW117957   2.963   6.829   0.204
 5686SOL    HW217958   3.050   6.961   0.164
 5687SOL     OW17959   5.359   4.977   5.296
 5687SOL    HW117960   5.365   4.960   5.395
 5687SOL    HW217961   5.348   4.891   5.248
 5688SOL     OW17962   5.791   2.003   1.344
 5688SOL    HW117963   5.853   1.927   1.365
 5688SOL    HW217964   5.725   1.973   1.275
 5689SOL     OW17965   3.603   2.360   0.752
 5689SOL    HW117966   3.531   2.309   0.705
 5689SOL    HW217967   3.691   2.317   0.733
 5690SOL     OW17968   4.911   6.526   1.011
 5690SOL    HW117969   4.973   6.604   1.023
 5690SOL    HW217970   4.898   6.509   0.914
 5691SOL     OW17971   1.510   0.271   1.992
 5691SOL    HW117972   1.427   0.326   2.007
 5691SOL    HW217973   1.504   0.226   1.903
 5692SOL     OW17974   6.608   2.692   0.031
 5692SOL    HW117975   6.557   2.639   6.982
 5692SOL    HW217976   6.588   2.656   0.122
 5693SOL     OW17977   5.155   2.903   2.733
 5693SOL    HW117978   5.088   2.893   2.806
 5693SOL    HW217979   5.108   2.911   2.645
 5694SOL     OW17980   0.005   1.758   3.659
 5694SOL    HW117981   0.056   1.844   3.665
 5694SOL    HW217982   0.040   1.693   3.727
 5695SOL     OW17983   1.862   3.158   3.251
 5695SOL    HW117984   1.847   3.206   3.164
 5695SOL    HW217985   1.949   3.188   3.291
 5696SOL     OW17986   2.763   0.488   4.874
 5696SOL    HW117987   2.807   0.422   4.934
 5696SOL    HW217988   2.674   0.512   4.911
 5697SOL     OW17989   6.622   2.992   0.429
 5697SOL    HW117990   6.575   2.926   0.487
 5697SOL    HW217991   6.688   3.044   0.483
 5698SOL     OW17992   0.893   3.708   1.866
 5698SOL    HW117993   0.958   3.687   1.939
 5698SOL    HW217994   0.915   3.797   1.827
 5699SOL     OW17995   6.282   0.685   5.169
 5699SOL    HW117996   6.226   0.746   5.113
 5699SOL    HW217997   6.224   0.636   5.234
 5700SOL     OW17998   1.642   5.645   4.177
 5700SOL    HW117999   1.559   5.648   4.120
 5700SOL    HW218000   1.711   5.589   4.131
 5701SOL     OW18001   6.109   5.578   1.550
 5701SOL    HW118002   6.170   5.534   1.485
 5701SOL    HW218003   6.113   5.678   1.537
 5702SOL     OW18004   2.218   0.724   6.266
 5702SOL    HW118005   2.199   0.813   6.309
 5702SOL    HW218006   2.306   0.728   6.219
 5703SOL     OW18007   4.343   4.715   0.666
 5703SOL    HW118008   4.275   4.732   0.737
 5703SOL    HW218009   4.393   4.631   0.688
 5704SOL     OW18010   4.303   5.262   3.738
 5704SOL    HW118011   4.323   5.236   3.644
 5704SOL    HW218012   4.380   5.314   3.775
 5705SOL     OW18013   5.973   0.667   1.457
 5705SOL    HW118014   5.978   0.755   1.504
 5705SOL    HW218015   6.059   0.651   1.408
 5706SOL     OW18016   1.101   1.316   6.696
 5706SOL    HW118017   1.034   1.310   6.769
 5706SOL    HW218018   1.170   1.385   6.718
 5707SOL     OW18019   2.209   2.066   0.006
 5707SOL    HW118020   2.157   2.011   0.072
 5707SOL    HW218021   2.237   2.152   0.049
 5708SOL     OW18022   4.991   6.885   2.333
 5708SOL    HW118023   4.948   6.929   2.255
 5708SOL    HW218024   5.006   6.788   2.312
 5709SOL     OW18025   1.063   0.226   2.622
 5709SOL    HW118026   1.074   0.126   2.621
 5709SOL    HW218027   0.974   0.249   2.661
 5710SOL     OW18028   3.272   3.342   6.215
 5710SOL    HW118029   3.318   3.401   6.282
 5710SOL    HW218030   3.275   3.385   6.125
 5711SOL     OW18031   4.224   0.898   4.419
 5711SOL    HW118032   4.208   0.800   4.432
 5711SOL    HW218033   4.217   0.945   4.506
 5712SOL     OW18034   0.009   5.823   6.355
 5712SOL    HW118035   0.025   5.911   6.398
 5712SOL    HW218036   0.009   5.834   6.255
 5713SOL     OW18037   0.064   2.786   2.396
 5713SOL    HW118038   0.038   2.864   2.453
 5713SOL    HW218039   0.008   2.785   2.313
 5714SOL     OW18040   1.725   0.584   6.393
 5714SOL    HW118041   1.663   0.610   6.468
 5714SOL    HW218042   1.675   0.588   6.307
 5715SOL     OW18043   1.313   6.628   2.662
 5715SOL    HW118044   1.326   6.546   2.717
 5715SOL    HW218045   1.223   6.667   2.682
 5716SOL     OW18046   2.320   3.670   5.950
 5716SOL    HW118047   2.335   3.672   5.852
 5716SOL    HW218048   2.237   3.618   5.970
 5717SOL     OW18049   1.279   4.073   0.361
 5717SOL    HW118050   1.340   4.146   0.330
 5717SOL    HW218051   1.329   3.987   0.366
 5718SOL     OW18052   2.876   4.567   6.353
 5718SOL    HW118053   2.906   4.550   6.447
 5718SOL    HW218054   2.947   4.617   6.303
 5719SOL     OW18055   3.422   0.765   6.505
 5719SOL    HW118056   3.376   0.689   6.552
 5719SOL    HW218057   3.499   0.729   6.452
 5720SOL     OW18058   1.310   5.070   5.307
 5720SOL    HW118059   1.398   5.083   5.261
 5720SOL    HW218060   1.317   5.097   5.403
 5721SOL     OW18061   0.744   3.992   1.396
 5721SOL    HW118062   0.716   3.899   1.372
 5721SOL    HW218063   0.750   4.047   1.312
 5722SOL     OW18064   5.691   6.668   4.343
 5722SOL    HW118065   5.755   6.648   4.417
 5722SOL    HW218066   5.601   6.688   4.381
 5723SOL     OW18067   3.184   5.088   0.354
 5723SOL    HW118068   3.184   5.160   0.422
 5723SOL    HW218069   3.249   5.110   0.281
 5724SOL     OW18070   5.396   1.651   6.324
 5724SOL    HW118071   5.299   1.632   6.306
 5724SOL    HW218072   5.452   1.576   6.289
 5725SOL     OW18073   5.194   5.230   5.266
 5725SOL    HW118074   5.253   5.297   5.312
 5725SOL    HW218075   5.236   5.140   5.271
 5726SOL     OW18076   5.481   3.595   5.915
 5726SOL    HW118077   5.462   3.561   5.823
 5726SOL    HW218078   5.485   3.519   5.979
 5727SOL     OW18079   5.657   2.040   3.696
 5727SOL    HW118080   5.752   2.033   3.729
 5727SOL    HW218081   5.627   1.951   3.663
 5728SOL     OW18082   6.483   0.664   5.384
 5728SOL    HW118083   6.562   0.671   5.323
 5728SOL    HW218084   6.429   0.584   5.359
 5729SOL     OW18085   0.706   1.929   6.730
 5729SOL    HW118086   0.785   1.975   6.689
 5729SOL    HW218087   0.622   1.973   6.699
 5730SOL     OW18088   4.240   4.768   6.021
 5730SOL    HW118089   4.143   4.781   6.043
 5730SOL    HW218090   4.255   4.787   5.924
 5731SOL     OW18091   3.070   1.090   4.072
 5731SOL    HW118092   3.028   1.053   4.155
 5731SOL    HW218093   3.148   1.032   4.045
 5732SOL     OW18094   5.956   5.312   5.360
 5732SOL    HW118095   5.877   5.279   5.310
 5732SOL    HW218096   6.035   5.252   5.343
 5733SOL     OW18097   3.366   1.043   0.037
 5733SOL    HW118098   3.380   1.137   0.006
 5733SOL    HW218099   3.278   1.036   0.084
 5734SOL     OW18100   1.842   6.367   6.030
 5734SOL    HW118101   1.880   6.359   6.122
 5734SOL    HW218102   1.841   6.277   5.986
 5735SOL     OW18103   4.087   0.517   2.150
 5735SOL    HW118104   4.149   0.583   2.192
 5735SOL    HW218105   4.131   0.427   2.148
 5736SOL     OW18106   4.566   4.189   6.597
 5736SOL    HW118107   4.663   4.167   6.606
 5736SOL    HW218108   4.550   4.229   6.507
 5737SOL     OW18109   4.380   5.257   1.202
 5737SOL    HW118110   4.400   5.178   1.260
 5737SOL    HW218111   4.460   5.317   1.197
 5738SOL     OW18112   3.245   1.190   6.316
 5738SOL    HW118113   3.265   1.177   6.219
 5738SOL    HW218114   3.154   1.232   6.325
 5739SOL     OW18115   2.480   0.391   5.570
 5739SOL    HW118116   2.470   0.465   5.636
 5739SOL    HW218117   2.466   0.303   5.617
 5740SOL     OW18118   5.348   3.913   1.797
 5740SOL    HW118119   5.304   3.993   1.755
 5740SOL    HW218120   5.320   3.906   1.892
 5741SOL     OW18121   0.407   3.697   4.137
 5741SOL    HW118122   0.435   3.613   4.091
 5741SOL    HW218123   0.356   3.673   4.221
 5742SOL     OW18124   4.678   0.440   3.362
 5742SOL    HW118125   4.622   0.430   3.444
 5742SOL    HW218126   4.750   0.370   3.362
 5743SOL     OW18127   3.764   3.966   5.331
 5743SOL    HW118128   3.803   4.008   5.249
 5743SOL    HW218129   3.758   3.867   5.318
 5744SOL     OW18130   5.814   6.563   2.549
 5744SOL    HW118131   5.816   6.511   2.635
 5744SOL    HW218132   5.753   6.642   2.559
 5745SOL     OW18133   2.089   2.558   3.451
 5745SOL    HW118134   2.030   2.480   3.429
 5745SOL    HW218135   2.044   2.615   3.520
 5746SOL     OW18136   4.288   0.565   3.368
 5746SOL    HW118137   4.308   0.478   3.413
 5746SOL    HW218138   4.205   0.604   3.407
 5747SOL     OW18139   0.978   6.041   1.774
 5747SOL    HW118140   0.974   6.033   1.675
 5747SOL    HW218141   0.986   5.950   1.815
 5748SOL     OW18142   0.591   5.787   0.322
 5748SOL    HW118143   0.649   5.805   0.402
 5748SOL    HW218144   0.649   5.782   0.240
 5749SOL     OW18145   1.960   6.240   5.124
 5749SOL    HW118146   1.905   6.162   5.094
 5749SOL    HW218147   2.035   6.208   5.181
 5750SOL     OW18148   6.752   4.476   4.017
 5750SOL    HW118149   6.713   4.391   4.051
 5750SOL    HW218150   6.800   4.523   4.091
 5751SOL     OW18151   2.170   3.755   4.260
 5751SOL    HW118152   2.248   3.816   4.245
 5751SOL    HW218153   2.128   3.776   4.348
 5752SOL     OW18154   5.327   0.678   0.682
 5752SOL    HW118155   5.400   0.610   0.681
 5752SOL    HW218156   5.323   0.722   0.772
 5753SOL     OW18157   3.140   4.010   4.449
 5753SOL    HW118158   3.149   3.923   4.497
 5753SOL    HW218159   3.152   4.085   4.514
 5754SOL     OW18160   0.844   6.108   1.509
 5754SOL    HW118161   0.853   6.206   1.492
 5754SOL    HW218162   0.928   6.061   1.482
 5755SOL     OW18163   1.907   2.203   0.254
 5755SOL    HW118164   1.854   2.258   0.318
 5755SOL    HW218165   1.939   2.260   0.179
 5756SOL     OW18166   5.741   6.051   1.681
 5756SOL    HW118167   5.798   6.030   1.760
 5756SOL    HW218168   5.706   5.966   1.641
 5757SOL     OW18169   6.959   0.188   3.678
 5757SOL    HW118170   0.022   0.245   3.678
 5757SOL    HW218171   6.895   0.223   3.609
 5758SOL     OW18172   1.050   6.805   3.054
 5758SOL    HW118173   1.090   6.896   3.038
 5758SOL    HW218174   1.044   6.757   2.966
 5759SOL     OW18175   3.711   6.712   1.387
 5759SOL    HW118176   3.777   6.787   1.386
 5759SOL    HW218177   3.710   6.670   1.478
 5760SOL     OW18178   0.070   3.098   1.832
 5760SOL    HW118179   0.077   3.012   1.883
 5760SOL    HW218180   0.104   3.173   1.889
 5761SOL     OW18181   5.590   5.302   5.087
 5761SOL    HW118182   5.585   5.261   5.178
 5761SOL    HW218183   5.647   5.384   5.091
 5762SOL     OW18184   5.257   4.549   6.887
 5762SOL    HW118185   5.329   4.566   6.819
 5762SOL    HW218186   5.199   4.630   6.894
 5763SOL     OW18187   5.386   0.286   0.161
 5763SOL    HW118188   5.368   0.300   0.259
 5763SOL    HW218189   5.429   0.369   0.124
 5764SOL     OW18190   4.296   5.476   3.486
 5764SOL    HW118191   4.247   5.477   3.573
 5764SOL    HW218192   4.322   5.382   3.464
 5765SOL     OW18193   5.929   4.575   1.390
 5765SOL    HW118194   5.910   4.583   1.292
 5765SOL    HW218195   5.935   4.666   1.430
 5766SOL     OW18196   0.551   1.884   4.599
 5766SOL    HW118197   0.571   1.809   4.536
 5766SOL    HW218198   0.458   1.917   4.583
 5767SOL     OW18199   2.217   0.094   1.055
 5767SOL    HW118200   2.274   0.117   0.976
 5767SOL    HW218201   2.170   0.177   1.087
 5768SOL     OW18202   6.917   6.075   4.392
 5768SOL    HW118203   6.834   6.115   4.431
 5768SOL    HW218204   6.932   6.113   4.301
 5769SOL     OW18205   1.189   4.869   6.153
 5769SOL    HW118206   1.228   4.795   6.208
 5769SOL    HW218207   1.251   4.892   6.079
 5770SOL     OW18208   1.131   6.184   0.995
 5770SOL    HW118209   1.119   6.091   0.959
 5770SOL    HW218210   1.206   6.229   0.948
 5771SOL     OW18211   2.427   5.172   3.934
 5771SOL    HW118212   2.519   5.132   3.931
 5771SOL    HW218213   2.408   5.206   4.026
 5772SOL     OW18214   4.566   0.358   2.091
 5772SOL    HW118215   4.502   0.393   2.160
 5772SOL    HW218216   4.657   0.394   2.109
 5773SOL     OW18217   4.490   2.196   2.259
 5773SOL    HW118218   4.547   2.214   2.179
 5773SOL    HW218219   4.394   2.212   2.235
 5774SOL     OW18220   0.531   6.380   3.661
 5774SOL    HW118221   0.512   6.282   3.649
 5774SOL    HW218222   0.627   6.392   3.687
 5775SOL     OW18223   0.461   5.452   2.408
 5775SOL    HW118224   0.394   5.378   2.405
 5775SOL    HW218225   0.540   5.429   2.351
 5776SOL     OW18226   1.830   0.375   3.055
 5776SOL    HW118227   1.852   0.318   2.976
 5776SOL    HW218228   1.832   0.471   3.028
 5777SOL     OW18229   1.648   0.447   3.306
 5777SOL    HW118230   1.697   0.404   3.230
 5777SOL    HW218231   1.596   0.378   3.356
 5778SOL     OW18232   0.902   1.641   6.653
 5778SOL    HW118233   0.928   1.576   6.582
 5778SOL    HW218234   0.925   1.734   6.623
 5779SOL     OW18235   5.117   2.132   6.204
 5779SOL    HW118236   5.173   2.055   6.235
 5779SOL    HW218237   5.145   2.158   6.111
 5780SOL     OW18238   5.229   4.604   3.748
 5780SOL    HW118239   5.210   4.687   3.799
 5780SOL    HW218240   5.149   4.544   3.749
 5781SOL     OW18241   0.697   3.849   5.100
 5781SOL    HW118242   0.655   3.940   5.102
 5781SOL    HW218243   0.767   3.843   5.171
 5782SOL     OW18244   0.598   1.117   0.764
 5782SOL    HW118245   0.616   1.042   0.827
 5782SOL    HW218246   0.684   1.151   0.725
 5783SOL     OW18247   1.721   1.935   2.211
 5783SOL    HW118248   1.696   1.857   2.268
 5783SOL    HW218249   1.726   1.906   2.115
 5784SOL     OW18250   0.602   6.515   6.773
 5784SOL    HW118251   0.511   6.480   6.797
 5784SOL    HW218252   0.612   6.608   6.809
 5785SOL     OW18253   2.348   1.355   1.239
 5785SOL    HW118254   2.268   1.410   1.264
 5785SOL    HW218255   2.352   1.274   1.298
 5786SOL     OW18256   0.400   3.847   0.494
 5786SOL    HW118257   0.416   3.753   0.462
 5786SOL    HW218258   0.393   3.848   0.594
 5787SOL     OW18259   2.543   1.849   5.602
 5787SOL    HW118260   2.473   1.795   5.556
 5787SOL    HW218261   2.507   1.886   5.687
 5788SOL     OW18262   2.634   0.435   3.185
 5788SOL    HW118263   2.587   0.478   3.107
 5788SOL    HW218264   2.700   0.499   3.224
 5789SOL     OW18265   3.938   5.152   6.286
 5789SOL    HW118266   3.890   5.069   6.257
 5789SOL    HW218267   4.031   5.128   6.315
 5790SOL     OW18268   0.855   3.088   4.105
 5790SOL    HW118269   0.827   3.023   4.034
 5790SOL    HW218270   0.814   3.063   4.192
 5791SOL     OW18271   2.639   0.150   3.197
 5791SOL    HW118272   2.626   0.246   3.219
 5791SOL    HW218273   2.709   0.141   3.126
 5792SOL     OW18274   6.807   1.879   3.092
 5792SOL    HW118275   6.708   1.869   3.092
 5792SOL    HW218276   6.849   1.796   3.129
 5793SOL     OW18277   6.354   1.047   3.739
 5793SOL    HW118278   6.341   1.000   3.826
 5793SOL    HW218279   6.279   1.111   3.724
 5794SOL     OW18280   3.733   3.026   0.539
 5794SOL    HW118281   3.737   3.124   0.523
 5794SOL    HW218282   3.730   2.978   0.452
 5795SOL     OW18283   5.586   4.835   5.989
 5795SOL    HW118284   5.519   4.789   6.047
 5795SOL    HW218285   5.625   4.769   5.924
 5796SOL     OW18286   3.201   1.443   0.461
 5796SOL    HW118287   3.259   1.382   0.515
 5796SOL    HW218288   3.131   1.389   0.414
 5797SOL     OW18289   3.377   2.100   4.633
 5797SOL    HW118290   3.361   2.073   4.728
 5797SOL    HW218291   3.459   2.157   4.627
 5798SOL     OW18292   0.307   4.378   4.831
 5798SOL    HW118293   0.241   4.307   4.858
 5798SOL    HW218294   0.278   4.466   4.869
 5799SOL     OW18295   5.006   0.018   3.369
 5799SOL    HW118296   4.949   7.010   3.291
 5799SOL    HW218297   5.101   7.014   3.351
 5800SOL     OW18298   5.414   4.680   1.207
 5800SOL    HW118299   5.342   4.611   1.196
 5800SOL    HW218300   5.428   4.727   1.120
 5801SOL     OW18301   0.149   1.453   3.517
 5801SOL    HW118302   0.247   1.459   3.500
 5801SOL    HW218303   0.125   1.362   3.551
 5802SOL     OW18304   0.545   3.962   6.521
 5802SOL    HW118305   0.601   3.879   6.529
 5802SOL    HW218306   0.535   4.004   6.611
 5803SOL     OW18307   1.079   4.662   1.012
 5803SOL    HW118308   1.038   4.752   1.028
 5803SOL    HW218309   1.149   4.670   0.940
 5804SOL     OW18310   6.705   3.913   4.737
 5804SOL    HW118311   6.645   3.906   4.816
 5804SOL    HW218312   6.760   3.830   4.729
 5805SOL     OW18313   4.158   4.007   6.069
 5805SOL    HW118314   4.206   3.962   5.993
 5805SOL    HW218315   4.099   3.940   6.115
 5806SOL     OW18316   0.694   6.905   0.332
 5806SOL    HW118317   0.739   6.988   0.364
 5806SOL    HW218318   0.752   6.862   0.262
 5807SOL     OW18319   1.720   3.951   0.803
 5807SOL    HW118320   1.797   4.007   0.773
 5807SOL    HW218321   1.751   3.856   0.814
 5808SOL     OW18322   5.479   4.104   2.409
 5808SOL    HW118323   5.387   4.082   2.376
 5808SOL    HW218324   5.488   4.075   2.504
 5809SOL     OW18325   6.881   3.223   4.744
 5809SOL    HW118326   6.887   3.190   4.650
 5809SOL    HW218327   6.833   3.156   4.800
 5810SOL     OW18328   3.166   1.725   3.518
 5810SOL    HW118329   3.090   1.678   3.564
 5810SOL    HW218330   3.175   1.688   3.425
 5811SOL     OW18331   2.896   0.257   5.006
 5811SOL    HW118332   2.867   0.215   5.092
 5811SOL    HW218333   2.980   0.213   4.974
 5812SOL     OW18334   4.857   0.262   3.467
 5812SOL    HW118335   4.828   0.227   3.556
 5812SOL    HW218336   4.918   0.195   3.423
 5813SOL     OW18337   1.120   1.228   5.776
 5813SOL    HW118338   1.032   1.182   5.769
 5813SOL    HW218339   1.167   1.225   5.688
 5814SOL     OW18340   0.045   4.502   0.294
 5814SOL    HW118341   0.065   4.451   0.378
 5814SOL    HW218342   0.130   4.541   0.259
 5815SOL     OW18343   4.189   2.154   2.892
 5815SOL    HW118344   4.183   2.131   2.989
 5815SOL    HW218345   4.097   2.152   2.852
 5816SOL     OW18346   5.605   0.119   0.175
 5816SOL    HW118347   5.640   0.035   0.133
 5816SOL    HW218348   5.507   0.125   0.160
 5817SOL     OW18349   6.118   2.967   6.209
 5817SOL    HW118350   6.113   2.928   6.117
 5817SOL    HW218351   6.125   3.066   6.204
 5818SOL     OW18352   5.900   6.476   5.531
 5818SOL    HW118353   5.946   6.397   5.490
 5818SOL    HW218354   5.836   6.445   5.601
 5819SOL     OW18355   4.989   0.626   0.886
 5819SOL    HW118356   5.031   0.594   0.801
 5819SOL    HW218357   4.959   0.548   0.940
 5820SOL     OW18358   4.828   7.012   3.152
 5820SOL    HW118359   4.808   0.085   3.118
 5820SOL    HW218360   4.805   6.945   3.083
 5821SOL     OW18361   2.862   0.336   1.928
 5821SOL    HW118362   2.940   0.397   1.919
 5821SOL    HW218363   2.865   0.267   1.855
 5822SOL     OW18364   0.441   2.574   1.701
 5822SOL    HW118365   0.534   2.571   1.738
 5822SOL    HW218366   0.444   2.562   1.602
 5823SOL     OW18367   1.103   0.845   5.123
 5823SOL    HW118368   1.051   0.926   5.151
 5823SOL    HW218369   1.061   0.763   5.162
 5824SOL     OW18370   6.465   6.699   3.399
 5824SOL    HW118371   6.407   6.619   3.413
 5824SOL    HW218372   6.532   6.681   3.327
 5825SOL     OW18373   2.505   1.641   6.390
 5825SOL    HW118374   2.415   1.679   6.410
 5825SOL    HW218375   2.526   1.568   6.455
 5826SOL     OW18376   6.014   6.270   5.393
 5826SOL    HW118377   6.049   6.298   5.303
 5826SOL    HW218378   6.092   6.252   5.454
 5827SOL     OW18379   0.424   5.384   4.808
 5827SOL    HW118380   0.330   5.383   4.842
 5827SOL    HW218381   0.432   5.321   4.731
 5828SOL     OW18382   0.501   3.776   1.984
 5828SOL    HW118383   0.533   3.681   1.978
 5828SOL    HW218384   0.527   3.814   2.073
 5829SOL     OW18385   2.817   1.078   2.439
 5829SOL    HW118386   2.742   1.020   2.470
 5829SOL    HW218387   2.893   1.072   2.505
 5830SOL     OW18388   3.839   1.163   5.890
 5830SOL    HW118389   3.742   1.187   5.878
 5830SOL    HW218390   3.868   1.186   5.982
 5831SOL     OW18391   6.075   6.106   2.815
 5831SOL    HW118392   6.089   6.104   2.716
 5831SOL    HW218393   6.000   6.170   2.837
 5832SOL     OW18394   4.161   4.231   5.489
 5832SOL    HW118395   4.212   4.174   5.554
 5832SOL    HW218396   4.222   4.297   5.446
 5833SOL     OW18397   2.948   3.417   4.186
 5833SOL    HW118398   3.036   3.444   4.225
 5833SOL    HW218399   2.925   3.478   4.110
 5834SOL     OW18400   6.333   1.516   0.349
 5834SOL    HW118401   6.324   1.616   0.353
 5834SOL    HW218402   6.242   1.474   0.350
 5835SOL     OW18403   4.977   1.972   3.567
 5835SOL    HW118404   5.017   1.885   3.597
 5835SOL    HW218405   5.000   2.044   3.632
 5836SOL     OW18406   3.201   6.336   2.840
 5836SOL    HW118407   3.272   6.266   2.833
 5836SOL    HW218408   3.190   6.382   2.752
 5837SOL     OW18409   4.554   4.466   0.163
 5837SOL    HW118410   4.652   4.453   0.179
 5837SOL    HW218411   4.536   4.464   0.065
 5838SOL     OW18412   1.574   1.484   6.153
 5838SOL    HW118413   1.653   1.544   6.141
 5838SOL    HW218414   1.542   1.491   6.248
 5839SOL     OW18415   6.643   2.954   2.244
 5839SOL    HW118416   6.560   2.969   2.298
 5839SOL    HW218417   6.652   3.027   2.176
 5840SOL     OW18418   1.277   5.792   6.388
 5840SOL    HW118419   1.236   5.866   6.335
 5840SOL    HW218420   1.316   5.724   6.325
 5841SOL     OW18421   5.769   3.315   3.060
 5841SOL    HW118422   5.863   3.286   3.078
 5841SOL    HW218423   5.752   3.314   2.962
 5842SOL     OW18424   3.709   3.003   0.830
 5842SOL    HW118425   3.659   3.075   0.878
 5842SOL    HW218426   3.704   3.018   0.732
 5843SOL     OW18427   1.789   3.631   2.442
 5843SOL    HW118428   1.829   3.722   2.428
 5843SOL    HW218429   1.861   3.562   2.435
 5844SOL     OW18430   0.188   5.557   6.367
 5844SOL    HW118431   0.241   5.589   6.446
 5844SOL    HW218432   0.101   5.606   6.364
 5845SOL     OW18433   1.063   2.626   3.577
 5845SOL    HW118434   1.150   2.602   3.536
 5845SOL    HW218435   0.991   2.625   3.508
 5846SOL     OW18436   6.799   3.003   5.551
 5846SOL    HW118437   6.878   3.039   5.502
 5846SOL    HW218438   6.818   2.911   5.583
 5847SOL     OW18439   2.398   2.294   2.552
 5847SOL    HW118440   2.300   2.291   2.571
 5847SOL    HW218441   2.414   2.271   2.456
 5848SOL     OW18442   2.227   4.958   3.536
 5848SOL    HW118443   2.271   4.885   3.589
 5848SOL    HW218444   2.220   4.929   3.440
 5849SOL     OW18445   1.177   0.129   5.626
 5849SOL    HW118446   1.219   0.094   5.711
 5849SOL    HW218447   1.208   0.222   5.610
 5850SOL     OW18448   1.479   3.845   2.271
 5850SOL    HW118449   1.558   3.854   2.210
 5850SOL    HW218450   1.414   3.781   2.232
 5851SOL     OW18451   6.100   3.977   2.599
 5851SOL    HW118452   6.024   4.024   2.554
 5851SOL    HW218453   6.181   4.036   2.599
 5852SOL     OW18454   3.868   6.486   2.746
 5852SOL    HW118455   3.850   6.387   2.745
 5852SOL    HW218456   3.781   6.535   2.743
 5853SOL     OW18457   3.231   5.194   6.085
 5853SOL    HW118458   3.150   5.238   6.123
 5853SOL    HW218459   3.203   5.128   6.015
 5854SOL     OW18460   6.868   2.597   5.802
 5854SOL    HW118461   6.790   2.541   5.773
 5854SOL    HW218462   6.870   2.681   5.749
 5855SOL     OW18463   1.313   1.096   4.605
 5855SOL    HW118464   1.223   1.136   4.591
 5855SOL    HW218465   1.356   1.136   4.686
 5856SOL     OW18466   2.285   5.155   3.234
 5856SOL    HW118467   2.238   5.068   3.222
 5856SOL    HW218468   2.219   5.230   3.225
 5857SOL     OW18469   6.317   2.724   5.123
 5857SOL    HW118470   6.327   2.815   5.162
 5857SOL    HW218471   6.252   2.671   5.178
 5858SOL     OW18472   3.125   1.267   2.339
 5858SOL    HW118473   3.192   1.341   2.327
 5858SOL    HW218474   3.035   1.299   2.311
 5859SOL     OW18475   6.409   6.199   0.590
 5859SOL    HW118476   6.366   6.171   0.505
 5859SOL    HW218477   6.413   6.122   0.653
 5860SOL     OW18478   1.712   4.788   1.975
 5860SOL    HW118479   1.678   4.774   1.882
 5860SOL    HW218480   1.797   4.737   1.988
 5861SOL     OW18481   5.419   2.174   3.982
 5861SOL    HW118482   5.466   2.187   4.069
 5861SOL    HW218483   5.454   2.240   3.915
 5862SOL     OW18484   3.945   5.017   3.069
 5862SOL    HW118485   4.022   5.018   3.133
 5862SOL    HW218486   3.882   4.944   3.094
 5863SOL     OW18487   2.169   0.996   6.348
 5863SOL    HW118488   2.219   1.077   6.315
 5863SOL    HW218489   2.076   0.997   6.311
 5864SOL     OW18490   4.295   4.097   1.690
 5864SOL    HW118491   4.293   3.998   1.705
 5864SOL    HW218492   4.370   4.137   1.742
 5865SOL     OW18493   5.322   0.663   3.483
 5865SOL    HW118494   5.223   0.667   3.468
 5865SOL    HW218495   5.357   0.573   3.455
 5866SOL     OW18496   4.323   6.603   5.743
 5866SOL    HW118497   4.362   6.525   5.792
 5866SOL    HW218498   4.225   6.608   5.761
 5867SOL     OW18499   0.309   3.003   1.316
 5867SOL    HW118500   0.324   3.101   1.331
 5867SOL    HW218501   0.263   2.964   1.396
 5868SOL     OW18502   0.771   0.127   5.090
 5868SOL    HW118503   0.751   0.070   5.010
 5868SOL    HW218504   0.868   0.150   5.090
 5869SOL     OW18505   2.520   4.447   4.242
 5869SOL    HW118506   2.615   4.429   4.264
 5869SOL    HW218507   2.509   4.544   4.218
 5870SOL     OW18508   5.426   5.458   4.708
 5870SOL    HW118509   5.342   5.491   4.750
 5870SOL    HW218510   5.403   5.392   4.636
 5871SOL     OW18511   3.602   3.148   0.172
 5871SOL    HW118512   3.586   3.142   0.074
 5871SOL    HW218513   3.519   3.121   0.221
 5872SOL     OW18514   4.352   5.854   6.530
 5872SOL    HW118515   4.277   5.914   6.504
 5872SOL    HW218516   4.412   5.902   6.595
 5873SOL     OW18517   2.319   2.973   0.466
 5873SOL    HW118518   2.344   2.947   0.373
 5873SOL    HW218519   2.355   2.905   0.530
 5874SOL     OW18520   2.491   3.379   1.484
 5874SOL    HW118521   2.485   3.467   1.532
 5874SOL    HW218522   2.462   3.306   1.546
 5875SOL     OW18523   3.336   1.913   0.329
 5875SOL    HW118524   3.341   1.964   0.244
 5875SOL    HW218525   3.241   1.885   0.346
 5876SOL     OW18526   3.353   3.197   6.794
 5876SOL    HW118527   3.312   3.271   6.740
 5876SOL    HW218528   3.291   3.173   6.868
 5877SOL     OW18529   6.502   0.454   1.154
 5877SOL    HW118530   6.508   0.358   1.183
 5877SOL    HW218531   6.407   0.477   1.134
 5878SOL     OW18532   4.593   5.618   2.137
 5878SOL    HW118533   4.680   5.610   2.089
 5878SOL    HW218534   4.586   5.710   2.176
 5879SOL     OW18535   3.891   2.964   6.346
 5879SOL    HW118536   3.899   3.064   6.342
 5879SOL    HW218537   3.823   2.934   6.280
 5880SOL     OW18538   5.227   3.376   5.562
 5880SOL    HW118539   5.190   3.307   5.623
 5880SOL    HW218540   5.152   3.421   5.512
 5881SOL     OW18541   0.981   6.487   2.489
 5881SOL    HW118542   1.003   6.584   2.476
 5881SOL    HW218543   0.907   6.479   2.556
 5882SOL     OW18544   1.098   6.403   5.651
 5882SOL    HW118545   1.092   6.429   5.554
 5882SOL    HW218546   1.015   6.431   5.698
 5883SOL     OW18547   0.132   4.022   0.895
 5883SOL    HW118548   0.222   3.991   0.861
 5883SOL    HW218549   0.090   3.949   0.948
 5884SOL     OW18550   5.676   1.681   3.993
 5884SOL    HW118551   5.722   1.731   3.920
 5884SOL    HW218552   5.658   1.742   4.070
 5885SOL     OW18553   0.491   5.475   0.258
 5885SOL    HW118554   0.496   5.385   0.301
 5885SOL    HW218555   0.423   5.531   0.306
 5886SOL     OW18556   1.528   3.519   2.990
 5886SOL    HW118557   1.464   3.489   2.920
 5886SOL    HW218558   1.613   3.551   2.947
 5887SOL     OW18559   2.084   2.051   1.455
 5887SOL    HW118560   2.084   2.137   1.507
 5887SOL    HW218561   2.173   2.007   1.463
 5888SOL     OW18562   2.677   6.744   1.901
 5888SOL    HW118563   2.661   6.646   1.902
 5888SOL    HW218564   2.651   6.782   1.812
 5889SOL     OW18565   0.458   0.659   1.066
 5889SOL    HW118566   0.415   0.748   1.077
 5889SOL    HW218567   0.467   0.614   1.155
 5890SOL     OW18568   2.915   6.221   2.444
 5890SOL    HW118569   3.000   6.203   2.495
 5890SOL    HW218570   2.896   6.144   2.383
 5891SOL     OW18571   2.859   3.174   0.805
 5891SOL    HW118572   2.945   3.177   0.857
 5891SOL    HW218573   2.785   3.146   0.865
 5892SOL     OW18574   0.817   3.492   0.448
 5892SOL    HW118575   0.806   3.588   0.424
 5892SOL    HW218576   0.728   3.446   0.445
 5893SOL     OW18577   0.869   5.608   1.979
 5893SOL    HW118578   0.868   5.589   2.077
 5893SOL    HW218579   0.786   5.570   1.937
 5894SOL     OW18580   1.279   5.752   5.782
 5894SOL    HW118581   1.368   5.745   5.738
 5894SOL    HW218582   1.218   5.680   5.749
 5895SOL     OW18583   5.629   3.284   4.853
 5895SOL    HW118584   5.640   3.299   4.754
 5895SOL    HW218585   5.628   3.185   4.871
 5896SOL     OW18586   6.025   1.691   1.654
 5896SOL    HW118587   6.029   1.669   1.752
 5896SOL    HW218588   6.097   1.756   1.631
 5897SOL     OW18589   4.754   1.469   1.255
 5897SOL    HW118590   4.674   1.466   1.195
 5897SOL    HW218591   4.739   1.537   1.327
 5898SOL     OW18592   1.885   1.409   5.635
 5898SOL    HW118593   1.880   1.407   5.735
 5898SOL    HW218594   1.978   1.435   5.607
 5899SOL     OW18595   6.970   5.227   5.986
 5899SOL    HW118596   6.953   5.324   6.003
 5899SOL    HW218597   0.010   5.190   6.057
 5900SOL     OW18598   6.823   6.305   3.093
 5900SOL    HW118599   6.815   6.383   3.031
 5900SOL    HW218600   6.851   6.338   3.183
 5901SOL     OW18601   1.800   0.255   6.715
 5901SOL    HW118602   1.848   0.183   6.764
 5901SOL    HW218603   1.701   0.238   6.718
 5902SOL     OW18604   5.673   4.629   4.659
 5902SOL    HW118605   5.734   4.645   4.582
 5902SOL    HW218606   5.719   4.654   4.744
 5903SOL     OW18607   6.422   2.264   6.866
 5903SOL    HW118608   6.464   2.191   6.811
 5903SOL    HW218609   6.436   2.245   6.963
 5904SOL     OW18610   2.092   4.503   3.005
 5904SOL    HW118611   2.156   4.534   2.935
 5904SOL    HW218612   2.012   4.460   2.962
 5905SOL     OW18613   5.579   0.873   4.076
 5905SOL    HW118614   5.567   0.970   4.094
 5905SOL    HW218615   5.547   0.820   4.156
 5906SOL     OW18616   5.111   1.044   5.544
 5906SOL    HW118617   5.102   1.138   5.576
 5906SOL    HW218618   5.020   1.006   5.526
 5907SOL     OW18619   1.726   1.660   6.742
 5907SOL    HW118620   1.787   1.739   6.742
 5907SOL    HW218621   1.775   1.580   6.706
 5908SOL     OW18622   4.585   3.467   6.461
 5908SOL    HW118623   4.511   3.528   6.432
 5908SOL    HW218624   4.650   3.456   6.385
 5909SOL     OW18625   6.922   4.704   5.022
 5909SOL    HW118626   6.977   4.698   5.105
 5909SOL    HW218627   6.875   4.793   5.018
 5910SOL     OW18628   2.220   3.826   1.329
 5910SOL    HW118629   2.137   3.865   1.289
 5910SOL    HW218630   2.273   3.898   1.373
 5911SOL     OW18631   6.154   5.258   6.332
 5911SOL    HW118632   6.070   5.227   6.377
 5911SOL    HW218633   6.143   5.354   6.306
 5912SOL     OW18634   6.222   3.724   6.872
 5912SOL    HW118635   6.321   3.712   6.878
 5912SOL    HW218636   6.192   3.701   6.779
 5913SOL     OW18637   2.022   2.070   5.879
 5913SOL    HW118638   2.096   2.125   5.917
 5913SOL    HW218639   2.057   1.981   5.850
 5914SOL     OW18640   2.664   5.408   0.618
 5914SOL    HW118641   2.643   5.359   0.533
 5914SOL    HW218642   2.704   5.497   0.596
 5915SOL     OW18643   5.040   3.104   2.422
 5915SOL    HW118644   5.003   3.091   2.514
 5915SOL    HW218645   4.985   3.053   2.356
 5916SOL     OW18646   4.047   0.108   5.567
 5916SOL    HW118647   3.975   0.165   5.606
 5916SOL    HW218648   4.009   0.049   5.496
 5917SOL     OW18649   3.521   3.383   3.170
 5917SOL    HW118650   3.437   3.333   3.190
 5917SOL    HW218651   3.531   3.392   3.071
 5918SOL     OW18652   1.789   3.382   3.777
 5918SOL    HW118653   1.876   3.428   3.792
 5918SOL    HW218654   1.798   3.319   3.700
 5919SOL     OW18655   2.230   2.317   0.094
 5919SOL    HW118656   2.141   2.343   0.058
 5919SOL    HW218657   2.228   2.319   0.194
 5920SOL     OW18658   3.763   0.680   6.759
 5920SOL    HW118659   3.679   0.640   6.722
 5920SOL    HW218660   3.815   0.611   6.808
 5921SOL     OW18661   3.726   4.897   5.613
 5921SOL    HW118662   3.790   4.974   5.610
 5921SOL    HW218663   3.644   4.920   5.561
 5922SOL     OW18664   6.563   4.726   3.115
 5922SOL    HW118665   6.491   4.790   3.086
 5922SOL    HW218666   6.580   4.737   3.212
 5923SOL     OW18667   6.900   0.245   3.382
 5923SOL    HW118668   6.821   0.266   3.325
 5923SOL    HW218669   6.960   0.325   3.386
 5924SOL     OW18670   5.208   2.294   4.500
 5924SOL    HW118671   5.261   2.321   4.420
 5924SOL    HW218672   5.223   2.360   4.574
 5925SOL     OW18673   5.402   5.731   1.352
 5925SOL    HW118674   5.307   5.705   1.335
 5925SOL    HW218675   5.424   5.812   1.297
 5926SOL     OW18676   3.718   5.116   1.611
 5926SOL    HW118677   3.673   5.029   1.593
 5926SOL    HW218678   3.688   5.184   1.543
 5927SOL     OW18679   2.649   5.883   1.831
 5927SOL    HW118680   2.577   5.945   1.802
 5927SOL    HW218681   2.709   5.929   1.897
 5928SOL     OW18682   1.359   6.989   2.470
 5928SOL    HW118683   1.419   0.028   2.416
 5928SOL    HW218684   1.347   0.011   2.561
 5929SOL     OW18685   1.291   6.603   6.136
 5929SOL    HW118686   1.302   6.629   6.231
 5929SOL    HW218687   1.381   6.586   6.096
 5930SOL     OW18688   6.341   1.369   4.987
 5930SOL    HW118689   6.438   1.372   4.962
 5930SOL    HW218690   6.300   1.285   4.953
 5931SOL     OW18691   5.833   5.535   1.456
 5931SOL    HW118692   5.933   5.530   1.452
 5931SOL    HW218693   5.803   5.623   1.421
 5932SOL     OW18694   2.242   6.442   1.323
 5932SOL    HW118695   2.266   6.539   1.322
 5932SOL    HW218696   2.326   6.388   1.322
 5933SOL     OW18697   0.024   4.133   2.927
 5933SOL    HW118698   0.044   4.168   3.018
 5933SOL    HW218699   6.953   4.090   2.926
 5934SOL     OW18700   3.610   3.393   2.930
 5934SOL    HW118701   3.607   3.493   2.918
 5934SOL    HW218702   3.697   3.358   2.896
 5935SOL     OW18703   3.826   3.966   4.713
 5935SOL    HW118704   3.809   3.910   4.632
 5935SOL    HW218705   3.802   4.061   4.694
 5936SOL     OW18706   4.713   4.680   6.685
 5936SOL    HW118707   4.785   4.624   6.726
 5936SOL    HW218708   4.683   4.749   6.751
 5937SOL     OW18709   1.311   3.782   0.767
 5937SOL    HW118710   1.223   3.748   0.732
 5937SOL    HW218711   1.295   3.842   0.845
 5938SOL     OW18712   2.417   4.352   3.228
 5938SOL    HW118713   2.438   4.444   3.197
 5938SOL    HW218714   2.397   4.293   3.149
 5939SOL     OW18715   2.839   0.259   2.959
 5939SOL    HW118716   2.926   0.271   2.911
 5939SOL    HW218717   2.841   0.312   3.043
 5940SOL     OW18718   4.175   0.148   2.913
 5940SOL    HW118719   4.191   0.190   2.824
 5940SOL    HW218720   4.133   0.058   2.900
 5941SOL     OW18721   6.407   4.963   2.279
 5941SOL    HW118722   6.390   5.051   2.323
 5941SOL    HW218723   6.405   4.891   2.348
 5942SOL     OW18724   4.223   3.532   6.501
 5942SOL    HW118725   4.272   3.451   6.533
 5942SOL    HW218726   4.126   3.510   6.492
 5943SOL     OW18727   1.828   5.885   0.624
 5943SOL    HW118728   1.921   5.914   0.602
 5943SOL    HW218729   1.786   5.951   0.687
 5944SOL     OW18730   4.948   1.420   2.259
 5944SOL    HW118731   4.851   1.407   2.275
 5944SOL    HW218732   4.962   1.466   2.171
 5945SOL     OW18733   6.396   4.761   5.896
 5945SOL    HW118734   6.352   4.747   5.807
 5945SOL    HW218735   6.326   4.756   5.968
 5946SOL     OW18736   4.696   3.294   6.245
 5946SOL    HW118737   4.626   3.332   6.184
 5946SOL    HW218738   4.700   3.195   6.233
 5947SOL     OW18739   4.262   3.380   1.750
 5947SOL    HW118740   4.196   3.384   1.676
 5947SOL    HW218741   4.285   3.285   1.770
 5948SOL     OW18742   3.629   5.026   2.924
 5948SOL    HW118743   3.698   5.031   2.852
 5948SOL    HW218744   3.667   4.981   3.005
 5949SOL     OW18745   4.056   4.726   1.112
 5949SOL    HW118746   4.048   4.683   1.202
 5949SOL    HW218747   3.995   4.680   1.048
 5950SOL     OW18748   5.876   2.011   4.503
 5950SOL    HW118749   5.931   1.958   4.439
 5950SOL    HW218750   5.880   1.969   4.593
 5951SOL     OW18751   2.222   6.172   4.282
 5951SOL    HW118752   2.150   6.216   4.337
 5951SOL    HW218753   2.187   6.086   4.246
 5952SOL     OW18754   6.523   6.270   3.911
 5952SOL    HW118755   6.447   6.293   3.850
 5952SOL    HW218756   6.605   6.253   3.856
 5953SOL     OW18757   6.855   3.378   5.815
 5953SOL    HW118758   6.812   3.289   5.829
 5953SOL    HW218759   6.783   3.447   5.800
 5954SOL     OW18760   6.984   4.754   6.462
 5954SOL    HW118761   0.037   4.823   6.462
 5954SOL    HW218762   6.896   4.799   6.476
 5955SOL     OW18763   5.210   5.004   1.771
 5955SOL    HW118764   5.229   5.102   1.778
 5955SOL    HW218765   5.120   4.991   1.729
 5956SOL     OW18766   4.056   2.131   6.991
 5956SOL    HW118767   4.006   2.118   0.058
 5956SOL    HW218768   4.002   2.188   6.930
 5957SOL     OW18769   5.832   5.993   5.796
 5957SOL    HW118770   5.748   6.044   5.777
 5957SOL    HW218771   5.863   5.948   5.712
 5958SOL     OW18772   6.637   5.718   1.912
 5958SOL    HW118773   6.573   5.652   1.872
 5958SOL    HW218774   6.588   5.778   1.976
 5959SOL     OW18775   2.965   1.702   5.888
 5959SOL    HW118776   2.902   1.633   5.851
 5959SOL    HW218777   3.034   1.725   5.819
 5960SOL     OW18778   2.645   0.282   3.491
 5960SOL    HW118779   2.652   0.186   3.466
 5960SOL    HW218780   2.550   0.304   3.513
 5961SOL     OW18781   3.242   0.834   5.135
 5961SOL    HW118782   3.179   0.855   5.210
 5961SOL    HW218783   3.327   0.796   5.173
 5962SOL     OW18784   4.706   5.525   2.406
 5962SOL    HW118785   4.708   5.567   2.315
 5962SOL    HW218786   4.712   5.426   2.398
 5963SOL     OW18787   4.038   3.787   2.471
 5963SOL    HW118788   4.019   3.733   2.390
 5963SOL    HW218789   4.081   3.730   2.541
 5964SOL     OW18790   0.365   4.875   6.453
 5964SOL    HW118791   0.411   4.903   6.537
 5964SOL    HW218792   0.385   4.941   6.381
 5965SOL     OW18793   2.261   2.852   6.297
 5965SOL    HW118794   2.204   2.858   6.379
 5965SOL    HW218795   2.297   2.759   6.288
 5966SOL     OW18796   3.272   5.813   4.667
 5966SOL    HW118797   3.328   5.766   4.736
 5966SOL    HW218798   3.274   5.760   4.582
 5967SOL     OW18799   4.447   6.921   2.910
 5967SOL    HW118800   4.359   6.952   2.874
 5967SOL    HW218801   4.440   6.908   3.009
 5968SOL     OW18802   6.331   2.602   3.539
 5968SOL    HW118803   6.382   2.516   3.537
 5968SOL    HW218804   6.237   2.585   3.510
 5969SOL     OW18805   5.468   3.689   3.834
 5969SOL    HW118806   5.512   3.609   3.792
 5969SOL    HW218807   5.447   3.756   3.763
 5970SOL     OW18808   1.231   3.500   2.719
 5970SOL    HW118809   1.323   3.539   2.715
 5970SOL    HW218810   1.164   3.573   2.702
 5971SOL     OW18811   1.813   6.403   3.211
 5971SOL    HW118812   1.893   6.345   3.191
 5971SOL    HW218813   1.840   6.477   3.271
 5972SOL     OW18814   5.120   6.805   0.116
 5972SOL    HW118815   5.113   6.903   0.132
 5972SOL    HW218816   5.194   6.787   0.051
 5973SOL     OW18817   1.609   4.387   2.639
 5973SOL    HW118818   1.557   4.340   2.567
 5973SOL    HW218819   1.672   4.322   2.682
 5974SOL     OW18820   0.040   3.751   0.405
 5974SOL    HW118821   0.065   3.736   0.309
 5974SOL    HW218822   0.047   3.665   0.455
 5975SOL     OW18823   3.585   2.843   1.040
 5975SOL    HW118824   3.626   2.898   0.969
 5975SOL    HW218825   3.656   2.807   1.101
 5976SOL     OW18826   3.260   3.183   5.193
 5976SOL    HW118827   3.312   3.268   5.208
 5976SOL    HW218828   3.210   3.190   5.107
 5977SOL     OW18829   1.721   5.045   2.065
 5977SOL    HW118830   1.703   4.949   2.041
 5977SOL    HW218831   1.816   5.055   2.093
 5978SOL     OW18832   5.172   4.463   2.510
 5978SOL    HW118833   5.263   4.422   2.505
 5978SOL    HW218834   5.129   4.437   2.597
 5979SOL     OW18835   6.377   0.917   3.397
 5979SOL    HW118836   6.304   0.981   3.375
 5979SOL    HW218837   6.442   0.961   3.460
 5980SOL     OW18838   4.977   4.281   0.511
 5980SOL    HW118839   5.013   4.316   0.597
 5980SOL    HW218840   4.907   4.213   0.530
 5981SOL     OW18841   6.036   1.681   2.424
 5981SOL    HW118842   6.038   1.672   2.523
 5981SOL    HW218843   6.031   1.590   2.382
 5982SOL     OW18844   6.846   2.086   6.633
 5982SOL    HW118845   6.826   1.988   6.636
 5982SOL    HW218846   6.944   2.101   6.635
 5983SOL     OW18847   1.947   1.675   4.189
 5983SOL    HW118848   1.900   1.672   4.101
 5983SOL    HW218849   2.046   1.674   4.175
 5984SOL     OW18850   6.748   5.854   4.447
 5984SOL    HW118851   6.818   5.920   4.421
 5984SOL    HW218852   6.717   5.874   4.540
 5985SOL     OW18853   5.067   1.975   3.985
 5985SOL    HW118854   5.030   1.892   3.941
 5985SOL    HW218855   5.065   1.963   4.084
 5986SOL     OW18856   3.620   3.131   3.069
 5986SOL    HW118857   3.657   3.224   3.077
 5986SOL    HW218858   3.568   3.123   2.984
 5987SOL     OW18859   4.441   6.656   4.912
 5987SOL    HW118860   4.419   6.589   4.841
 5987SOL    HW218861   4.439   6.748   4.872
 5988SOL     OW18862   4.322   0.075   3.901
 5988SOL    HW118863   4.356   7.002   3.916
 5988SOL    HW218864   4.273   0.106   3.982
 5989SOL     OW18865   2.607   0.173   6.144
 5989SOL    HW118866   2.580   0.256   6.193
 5989SOL    HW218867   2.593   0.185   6.046
 5990SOL     OW18868   3.432   4.808   0.663
 5990SOL    HW118869   3.458   4.858   0.746
 5990SOL    HW218870   3.486   4.724   0.656
 5991SOL     OW18871   3.157   5.471   4.518
 5991SOL    HW118872   3.075   5.413   4.519
 5991SOL    HW218873   3.223   5.435   4.585
 5992SOL     OW18874   3.567   0.753   3.800
 5992SOL    HW118875   3.493   0.712   3.854
 5992SOL    HW218876   3.654   0.737   3.846
 5993SOL     OW18877   2.295   6.083   5.753
 5993SOL    HW118878   2.386   6.041   5.754
 5993SOL    HW218879   2.305   6.183   5.749
 5994SOL     OW18880   5.966   2.682   2.544
 5994SOL    HW118881   6.058   2.644   2.553
 5994SOL    HW218882   5.913   2.627   2.479
 5995SOL     OW18883   6.684   5.182   1.312
 5995SOL    HW118884   6.709   5.089   1.338
 5995SOL    HW218885   6.739   5.211   1.234
 5996SOL     OW18886   0.734   5.281   6.462
 5996SOL    HW118887   0.723   5.269   6.561
 5996SOL    HW218888   0.817   5.235   6.432
 5997SOL     OW18889   0.334   6.551   1.711
 5997SOL    HW118890   0.346   6.649   1.729
 5997SOL    HW218891   0.400   6.521   1.642
 5998SOL     OW18892   5.531   1.885   2.610
 5998SOL    HW118893   5.510   1.797   2.652
 5998SOL    HW218894   5.577   1.944   2.677
 5999SOL     OW18895   1.611   1.839   2.927
 5999SOL    HW118896   1.585   1.910   2.992
 5999SOL    HW218897   1.602   1.875   2.834
 6000SOL     OW18898   4.344   5.299   2.547
 6000SOL    HW118899   4.392   5.222   2.504
 6000SOL    HW218900   4.375   5.384   2.505
 6001SOL     OW18901   6.757   2.884   6.932
 6001SOL    HW118902   6.721   2.806   6.983
 6001SOL    HW218903   6.723   2.969   6.972
 6002SOL     OW18904   1.658   0.732   1.759
 6002SOL    HW118905   1.716   0.788   1.699
 6002SOL    HW218906   1.712   0.656   1.796
 6003SOL     OW18907   5.520   4.045   4.629
 6003SOL    HW118908   5.524   4.139   4.596
 6003SOL    HW218909   5.450   3.995   4.577
 6004SOL     OW18910   0.340   3.568   2.772
 6004SOL    HW118911   0.411   3.617   2.721
 6004SOL    HW218912   0.263   3.550   2.711
 6005SOL     OW18913   3.459   5.663   4.186
 6005SOL    HW118914   3.518   5.699   4.114
 6005SOL    HW218915   3.514   5.608   4.249
 6006SOL     OW18916   2.713   6.882   6.577
 6006SOL    HW118917   2.660   6.967   6.587
 6006SOL    HW218918   2.754   6.879   6.486
 6007SOL     OW18919   5.698   2.578   4.102
 6007SOL    HW118920   5.701   2.534   4.192
 6007SOL    HW218921   5.788   2.616   4.081
 6008SOL     OW18922   3.252   4.762   5.907
 6008SOL    HW118923   3.213   4.734   5.819
 6008SOL    HW218924   3.277   4.681   5.960
 6009SOL     OW18925   2.947   1.653   4.141
 6009SOL    HW118926   2.919   1.619   4.051
 6009SOL    HW218927   2.991   1.742   4.131
 6010SOL     OW18928   1.648   4.436   2.259
 6010SOL    HW118929   1.634   4.379   2.340
 6010SOL    HW218930   1.656   4.378   2.178
 6011SOL     OW18931   5.289   2.984   1.971
 6011SOL    HW118932   5.325   3.015   1.883
 6011SOL    HW218933   5.189   2.996   1.972
 6012SOL     OW18934   0.028   2.749   0.596
 6012SOL    HW118935   7.009   2.824   0.542
 6012SOL    HW218936   6.998   2.744   0.683
 6013SOL     OW18937   6.285   0.820   2.175
 6013SOL    HW118938   6.336   0.839   2.091
 6013SOL    HW218939   6.232   0.736   2.163
 6014SOL     OW18940   6.016   0.810   0.146
 6014SOL    HW118941   6.071   0.890   0.172
 6014SOL    HW218942   6.026   0.739   0.216
 6015SOL     OW18943   5.773   2.117   4.824
 6015SOL    HW118944   5.771   2.118   4.924
 6015SOL    HW218945   5.857   2.162   4.793
 6016SOL     OW18946   1.943   0.655   5.073
 6016SOL    HW118947   2.035   0.651   5.033
 6016SOL    HW218948   1.931   0.580   5.137
 6017SOL     OW18949   6.304   5.206   3.152
 6017SOL    HW118950   6.316   5.285   3.092
 6017SOL    HW218951   6.373   5.208   3.224
 6018SOL     OW18952   2.885   3.320   0.568
 6018SOL    HW118953   2.903   3.289   0.662
 6018SOL    HW218954   2.931   3.407   0.552
 6019SOL     OW18955   3.765   0.919   4.133
 6019SOL    HW118956   3.748   0.835   4.185
 6019SOL    HW218957   3.786   0.994   4.196
 6020SOL     OW18958   3.886   0.628   2.633
 6020SOL    HW118959   3.841   0.568   2.566
 6020SOL    HW218960   3.937   0.699   2.586
 6021SOL     OW18961   4.009   1.186   2.292
 6021SOL    HW118962   4.029   1.206   2.388
 6021SOL    HW218963   4.006   1.087   2.279
 6022SOL     OW18964   4.559   1.434   3.352
 6022SOL    HW118965   4.494   1.510   3.355
 6022SOL    HW218966   4.593   1.423   3.258
 6023SOL     OW18967   0.237   1.787   3.279
 6023SOL    HW118968   0.292   1.765   3.198
 6023SOL    HW218969   0.140   1.774   3.258
 6024SOL     OW18970   0.520   5.029   1.574
 6024SOL    HW118971   0.553   4.936   1.592
 6024SOL    HW218972   0.574   5.094   1.627
 6025SOL     OW18973   4.418   1.421   1.656
 6025SOL    HW118974   4.375   1.490   1.715
 6025SOL    HW218975   4.501   1.459   1.616
 6026SOL     OW18976   6.385   4.930   5.249
 6026SOL    HW118977   6.464   4.901   5.195
 6026SOL    HW218978   6.416   4.991   5.322
 6027SOL     OW18979   2.603   2.532   6.480
 6027SOL    HW118980   2.673   2.604   6.488
 6027SOL    HW218981   2.541   2.537   6.559
 6028SOL     OW18982   1.894   4.327   6.646
 6028SOL    HW118983   1.866   4.243   6.601
 6028SOL    HW218984   1.815   4.389   6.653
 6029SOL     OW18985   2.210   5.960   0.750
 6029SOL    HW118986   2.159   6.035   0.791
 6029SOL    HW218987   2.265   5.915   0.821
 6030SOL     OW18988   2.363   0.557   1.656
 6030SOL    HW118989   2.272   0.599   1.663
 6030SOL    HW218990   2.424   0.619   1.606
 6031SOL     OW18991   4.971   6.422   5.953
 6031SOL    HW118992   4.894   6.370   5.991
 6031SOL    HW218993   4.941   6.473   5.873
 6032SOL     OW18994   1.498   3.228   2.140
 6032SOL    HW118995   1.412   3.201   2.098
 6032SOL    HW218996   1.503   3.328   2.145
 6033SOL     OW18997   1.293   2.131   3.031
 6033SOL    HW118998   1.388   2.162   3.038
 6033SOL    HW218999   1.290   2.032   3.046
 6034SOL     OW19000   2.280   4.560   5.228
 6034SOL    HW119001   2.342   4.618   5.281
 6034SOL    HW219002   2.188   4.563   5.269
 6035SOL     OW19003   5.451   0.555   4.532
 6035SOL    HW119004   5.464   0.518   4.624
 6035SOL    HW219005   5.353   0.552   4.509
 6036SOL     OW19006   0.678   6.840   5.214
 6036SOL    HW119007   0.765   6.852   5.260
 6036SOL    HW219008   0.620   6.920   5.230
 6037SOL     OW19009   5.521   5.575   5.246
 6037SOL    HW119010   5.421   5.571   5.248
 6037SOL    HW219011   5.552   5.590   5.152
 6038SOL     OW19012   6.454   4.335   5.827
 6038SOL    HW119013   6.507   4.257   5.796
 6038SOL    HW219014   6.397   4.308   5.905
 6039SOL     OW19015   3.431   3.474   2.290
 6039SOL    HW119016   3.382   3.540   2.234
 6039SOL    HW219017   3.370   3.399   2.315
 6040SOL     OW19018   0.744   2.369   6.737
 6040SOL    HW119019   0.754   2.329   6.646
 6040SOL    HW219020   0.802   2.320   6.802
 6041SOL     OW19021   1.042   1.699   0.166
 6041SOL    HW119022   0.988   1.637   0.223
 6041SOL    HW219023   1.032   1.793   0.200
 6042SOL     OW19024   5.145   4.943   2.962
 6042SOL    HW119025   5.122   4.990   2.877
 6042SOL    HW219026   5.120   4.847   2.955
 6043SOL     OW19027   1.094   5.078   4.466
 6043SOL    HW119028   1.024   5.058   4.397
 6043SOL    HW219029   1.182   5.091   4.421
 6044SOL     OW19030   0.705   0.496   1.202
 6044SOL    HW119031   0.773   0.456   1.264
 6044SOL    HW219032   0.751   0.542   1.127
 6045SOL     OW19033   5.698   5.125   0.657
 6045SOL    HW119034   5.720   5.113   0.560
 6045SOL    HW219035   5.749   5.204   0.693
 6046SOL     OW19036   2.923   2.401   0.430
 6046SOL    HW119037   2.971   2.488   0.420
 6046SOL    HW219038   2.830   2.409   0.394
 6047SOL     OW19039   6.677   0.239   3.908
 6047SOL    HW119040   6.745   0.173   3.877
 6047SOL    HW219041   6.597   0.235   3.849
 6048SOL     OW19042   3.733   0.446   3.738
 6048SOL    HW119043   3.676   0.499   3.675
 6048SOL    HW219044   3.813   0.500   3.764
 6049SOL     OW19045   4.813   3.788   6.798
 6049SOL    HW119046   4.827   3.770   6.700
 6049SOL    HW219047   4.893   3.833   6.836
 6050SOL     OW19048   4.491   4.684   5.274
 6050SOL    HW119049   4.530   4.769   5.309
 6050SOL    HW219050   4.511   4.610   5.338
 6051SOL     OW19051   2.338   2.005   2.535
 6051SOL    HW119052   2.289   1.981   2.619
 6051SOL    HW219053   2.403   2.078   2.554
 6052SOL     OW19054   6.955   1.768   0.791
 6052SOL    HW119055   6.860   1.736   0.788
 6052SOL    HW219056   7.016   1.694   0.761
 6053SOL     OW19057   2.441   0.033   6.945
 6053SOL    HW119058   2.369   0.004   6.882
 6053SOL    HW219059   2.519   0.067   6.892
 6054SOL     OW19060   1.449   5.324   0.827
 6054SOL    HW119061   1.447   5.409   0.881
 6054SOL    HW219062   1.505   5.338   0.745
 6055SOL     OW19063   4.791   0.965   4.842
 6055SOL    HW119064   4.856   0.974   4.918
 6055SOL    HW219065   4.806   1.040   4.777
 6056SOL     OW19066   3.851   1.479   6.347
 6056SOL    HW119067   3.757   1.511   6.355
 6056SOL    HW219068   3.911   1.558   6.331
 6057SOL     OW19069   3.753   0.914   5.337
 6057SOL    HW119070   3.678   0.981   5.339
 6057SOL    HW219071   3.830   0.952   5.287
 6058SOL     OW19072   5.495   2.522   4.630
 6058SOL    HW119073   5.567   2.469   4.585
 6058SOL    HW219074   5.434   2.460   4.680
 6059SOL     OW19075   5.063   4.514   6.480
 6059SOL    HW119076   5.136   4.446   6.488
 6059SOL    HW219077   5.035   4.521   6.384
 6060SOL     OW19078   4.478   5.285   5.629
 6060SOL    HW119079   4.432   5.217   5.685
 6060SOL    HW219080   4.474   5.374   5.674
 6061SOL     OW19081   2.830   2.027   6.966
 6061SOL    HW119082   2.783   2.112   6.945
 6061SOL    HW219083   2.822   1.964   6.888
 6062SOL     OW19084   1.662   1.182   4.681
 6062SOL    HW119085   1.604   1.160   4.759
 6062SOL    HW219086   1.758   1.171   4.706
 6063SOL     OW19087   4.112   1.161   6.821
 6063SOL    HW119088   4.119   1.087   6.754
 6063SOL    HW219089   4.201   1.176   6.863
 6064SOL     OW19090   1.416   5.721   2.902
 6064SOL    HW119091   1.502   5.744   2.948
 6064SOL    HW219092   1.382   5.634   2.935
 6065SOL     OW19093   6.264   6.695   0.828
 6065SOL    HW119094   6.325   6.764   0.865
 6065SOL    HW219095   6.317   6.614   0.801
 6066SOL     OW19096   4.730   2.019   1.050
 6066SOL    HW119097   4.715   2.056   1.142
 6066SOL    HW219098   4.698   2.085   0.982
 6067SOL     OW19099   6.284   1.445   6.097
 6067SOL    HW119100   6.374   1.423   6.134
 6067SOL    HW219101   6.263   1.384   6.020
 6068SOL     OW19102   4.813   2.928   4.857
 6068SOL    HW119103   4.811   3.020   4.895
 6068SOL    HW219104   4.908   2.896   4.851
 6069SOL     OW19105   6.829   4.163   5.611
 6069SOL    HW119106   6.858   4.124   5.523
 6069SOL    HW219107   6.894   4.137   5.682
 6070SOL     OW19108   4.416   2.513   6.887
 6070SOL    HW119109   4.405   2.570   6.806
 6070SOL    HW219110   4.335   2.520   6.945
 6071SOL     OW19111   4.234   6.106   5.251
 6071SOL    HW119112   4.264   6.157   5.171
 6071SOL    HW219113   4.136   6.089   5.246
 6072SOL     OW19114   1.112   1.697   2.077
 6072SOL    HW119115   1.014   1.709   2.063
 6072SOL    HW219116   1.152   1.651   1.998
 6073SOL     OW19117   6.644   2.837   1.189
 6073SOL    HW119118   6.677   2.930   1.207
 6073SOL    HW219119   6.686   2.803   1.106
 6074SOL     OW19120   0.638   0.020   4.831
 6074SOL    HW119121   0.572   6.971   4.863
 6074SOL    HW219122   0.649   0.013   4.732
 6075SOL     OW19123   6.029   3.339   0.258
 6075SOL    HW119124   6.057   3.381   0.172
 6075SOL    HW219125   5.930   3.351   0.270
 6076SOL     OW19126   1.933   6.738   3.709
 6076SOL    HW119127   1.973   6.800   3.641
 6076SOL    HW219128   1.835   6.755   3.716
 6077SOL     OW19129   5.765   6.124   2.277
 6077SOL    HW119130   5.758   6.161   2.370
 6077SOL    HW219131   5.860   6.104   2.256
 6078SOL     OW19132   2.825   4.718   3.788
 6078SOL    HW119133   2.920   4.693   3.807
 6078SOL    HW219134   2.810   4.718   3.690
 6079SOL     OW19135   2.381   2.926   0.192
 6079SOL    HW119136   2.334   2.875   0.120
 6079SOL    HW219137   2.479   2.926   0.175
 6080SOL     OW19138   6.251   2.113   1.627
 6080SOL    HW119139   6.186   2.172   1.580
 6080SOL    HW219140   6.208   2.025   1.646
 6081SOL     OW19141   6.401   3.672   3.936
 6081SOL    HW119142   6.356   3.583   3.945
 6081SOL    HW219143   6.498   3.662   3.959
 6082SOL     OW19144   4.635   0.937   2.810
 6082SOL    HW119145   4.623   0.976   2.901
 6082SOL    HW219146   4.599   1.001   2.742
 6083SOL     OW19147   1.460   5.887   6.605
 6083SOL    HW119148   1.522   5.825   6.558
 6083SOL    HW219149   1.452   5.972   6.553
 6084SOL     OW19150   6.593   5.326   5.241
 6084SOL    HW119151   6.655   5.311   5.164
 6084SOL    HW219152   6.567   5.423   5.244
 6085SOL     OW19153   6.363   3.347   6.966
 6085SOL    HW119154   6.298   3.324   6.893
 6085SOL    HW219155   6.314   3.352   0.034
 6086SOL     OW19156   4.056   1.319   4.398
 6086SOL    HW119157   4.089   1.247   4.337
 6086SOL    HW219158   4.066   1.288   4.493
 6087SOL     OW19159   5.730   6.254   6.510
 6087SOL    HW119160   5.713   6.344   6.550
 6087SOL    HW219161   5.658   6.191   6.540
 6088SOL     OW19162   0.887   0.509   4.768
 6088SOL    HW119163   0.970   0.546   4.808
 6088SOL    HW219164   0.876   0.414   4.796
 6089SOL     OW19165   0.902   3.358   0.879
 6089SOL    HW119166   0.903   3.268   0.836
 6089SOL    HW219167   0.937   3.426   0.814
 6090SOL     OW19168   0.641   6.055   5.493
 6090SOL    HW119169   0.652   5.958   5.516
 6090SOL    HW219170   0.593   6.063   5.405
 6091SOL     OW19171   6.373   1.754   2.169
 6091SOL    HW119172   6.294   1.809   2.197
 6091SOL    HW219173   6.455   1.813   2.165
 6092SOL     OW19174   2.052   1.104   2.376
 6092SOL    HW119175   2.024   1.035   2.309
 6092SOL    HW219176   1.973   1.126   2.434
 6093SOL     OW19177   1.672   2.767   1.131
 6093SOL    HW119178   1.738   2.823   1.082
 6093SOL    HW219179   1.581   2.782   1.093
 6094SOL     OW19180   1.162   1.343   1.675
 6094SOL    HW119181   1.122   1.272   1.732
 6094SOL    HW219182   1.195   1.418   1.732
 6095SOL     OW19183   5.738   3.513   6.750
 6095SOL    HW119184   5.742   3.578   6.826
 6095SOL    HW219185   5.691   3.430   6.779
 6096SOL     OW19186   4.076   1.571   4.268
 6096SOL    HW119187   4.027   1.648   4.307
 6096SOL    HW219188   4.041   1.486   4.307
 6097SOL     OW19189   2.434   0.794   2.414
 6097SOL    HW119190   2.390   0.883   2.425
 6097SOL    HW219191   2.369   0.728   2.377
 6098SOL     OW19192   2.544   2.364   5.469
 6098SOL    HW119193   2.630   2.356   5.418
 6098SOL    HW219194   2.469   2.379   5.405
 6099SOL     OW19195   5.825   5.933   5.071
 6099SOL    HW119196   5.871   5.869   5.009
 6099SOL    HW219197   5.837   6.026   5.037
 6100SOL     OW19198   6.639   3.288   0.377
 6100SOL    HW119199   6.651   3.319   0.472
 6100SOL    HW219200   6.564   3.221   0.374
 6101SOL     OW19201   6.909   1.728   5.645
 6101SOL    HW119202   6.812   1.747   5.660
 6101SOL    HW219203   6.931   1.638   5.683
 6102SOL     OW19204   3.279   1.120   5.036
 6102SOL    HW119205   3.292   1.021   5.040
 6102SOL    HW219206   3.289   1.152   4.942
 6103SOL     OW19207   6.438   0.130   4.934
 6103SOL    HW119208   6.492   0.047   4.943
 6103SOL    HW219209   6.345   0.114   4.967
 6104SOL     OW19210   6.058   1.568   6.931
 6104SOL    HW119211   5.966   1.582   6.967
 6104SOL    HW219212   6.057   1.582   6.832
 6105SOL     OW19213   3.335   5.770   5.810
 6105SOL    HW119214   3.378   5.766   5.720
 6105SOL    HW219215   3.381   5.838   5.866
 6106SOL     OW19216   2.970   4.624   5.952
 6106SOL    HW119217   2.969   4.670   6.040
 6106SOL    HW219218   2.919   4.679   5.885
 6107SOL     OW19219   2.339   4.971   4.730
 6107SOL    HW119220   2.301   4.879   4.720
 6107SOL    HW219221   2.269   5.039   4.711
 6108SOL     OW19222   0.837   2.190   4.275
 6108SOL    HW119223   0.903   2.251   4.318
 6108SOL    HW219224   0.746   2.231   4.278
 6109SOL     OW19225   5.571   3.186   0.828
 6109SOL    HW119226   5.585   3.091   0.803
 6109SOL    HW219227   5.497   3.225   0.773
 6110SOL     OW19228   3.409   1.520   5.492
 6110SOL    HW119229   3.481   1.503   5.425
 6110SOL    HW219230   3.338   1.450   5.484
 6111SOL     OW19231   1.349   4.824   3.062
 6111SOL    HW119232   1.395   4.735   3.059
 6111SOL    HW219233   1.402   4.888   3.117
 6112SOL     OW19234   1.220   1.800   2.856
 6112SOL    HW119235   1.269   1.727   2.809
 6112SOL    HW219236   1.250   1.889   2.820
 6113SOL     OW19237   1.560   6.995   5.876
 6113SOL    HW119238   1.554   0.024   5.789
 6113SOL    HW219239   1.587   6.900   5.859
 6114SOL     OW19240   4.922   5.708   0.619
 6114SOL    HW119241   5.010   5.753   0.605
 6114SOL    HW219242   4.925   5.616   0.579
 6115SOL     OW19243   4.834   5.347   2.607
 6115SOL    HW119244   4.811   5.300   2.521
 6115SOL    HW219245   4.771   5.318   2.679
 6116SOL     OW19246   3.604   0.936   2.135
 6116SOL    HW119247   3.592   0.975   2.227
 6116SOL    HW219248   3.534   0.972   2.074
 6117SOL     OW19249   5.816   6.859   4.880
 6117SOL    HW119250   5.885   6.924   4.850
 6117SOL    HW219251   5.855   6.767   4.883
 6118SOL     OW19252   6.180   1.117   3.333
 6118SOL    HW119253   6.127   1.127   3.248
 6118SOL    HW219254   6.226   1.204   3.353
 6119SOL     OW19255   0.529   5.521   4.563
 6119SOL    HW119256   0.470   5.528   4.643
 6119SOL    HW219257   0.599   5.592   4.567
 6120SOL     OW19258   2.809   6.787   2.880
 6120SOL    HW119259   2.852   6.698   2.889
 6120SOL    HW219260   2.726   6.779   2.824
 6121SOL     OW19261   6.947   2.540   3.550
 6121SOL    HW119262   6.901   2.618   3.594
 6121SOL    HW219263   6.879   2.476   3.515
 6122SOL     OW19264   3.995   6.253   3.134
 6122SOL    HW119265   3.994   6.331   3.071
 6122SOL    HW219266   4.060   6.185   3.101
 6123SOL     OW19267   6.521   1.209   1.893
 6123SOL    HW119268   6.476   1.224   1.982
 6123SOL    HW219269   6.528   1.110   1.876
 6124SOL     OW19270   2.910   0.344   5.996
 6124SOL    HW119271   2.887   0.264   5.941
 6124SOL    HW219272   2.902   0.426   5.940
 6125SOL     OW19273   1.960   5.892   1.501
 6125SOL    HW119274   1.912   5.970   1.539
 6125SOL    HW219275   1.977   5.906   1.403
 6126SOL     OW19276   5.272   4.659   3.042
 6126SOL    HW119277   5.209   4.696   3.111
 6126SOL    HW219278   5.366   4.672   3.074
 6127SOL     OW19279   2.144   5.953   1.799
 6127SOL    HW119280   2.136   5.860   1.764
 6127SOL    HW219281   2.078   5.967   1.873
 6128SOL     OW19282   0.033   2.299   0.352
 6128SOL    HW119283   6.972   2.246   0.378
 6128SOL    HW219284   0.051   2.369   0.421
 6129SOL     OW19285   6.075   4.026   2.200
 6129SOL    HW119286   6.158   3.973   2.219
 6129SOL    HW219287   6.098   4.123   2.193
 6130SOL     OW19288   5.018   2.832   3.653
 6130SOL    HW119289   4.995   2.819   3.750
 6130SOL    HW219290   5.057   2.747   3.617
 6131SOL     OW19291   6.850   1.340   5.287
 6131SOL    HW119292   6.760   1.378   5.310
 6131SOL    HW219293   6.839   1.260   5.228
 6132SOL     OW19294   4.217   2.927   1.124
 6132SOL    HW119295   4.202   2.999   1.056
 6132SOL    HW219296   4.145   2.859   1.116
 6133SOL     OW19297   0.813   3.711   1.103
 6133SOL    HW119298   0.797   3.789   1.043
 6133SOL    HW219299   0.761   3.722   1.188
 6134SOL     OW19300   4.020   3.735   6.681
 6134SOL    HW119301   3.994   3.685   6.764
 6134SOL    HW219302   4.118   3.724   6.666
 6135SOL     OW19303   6.506   6.896   0.842
 6135SOL    HW119304   6.511   6.987   0.884
 6135SOL    HW219305   6.507   6.905   0.743
 6136SOL     OW19306   0.922   1.894   2.133
 6136SOL    HW119307   0.933   1.975   2.076
 6136SOL    HW219308   0.841   1.843   2.103
 6137SOL     OW19309   2.557   6.285   6.013
 6137SOL    HW119310   2.459   6.275   6.028
 6137SOL    HW219311   2.601   6.195   6.015
 6138SOL     OW19312   3.632   6.043   2.744
 6138SOL    HW119313   3.716   6.093   2.767
 6138SOL    HW219314   3.635   5.952   2.785
 6139SOL     OW19315   1.878   4.008   4.773
 6139SOL    HW119316   1.829   4.012   4.860
 6139SOL    HW219317   1.883   3.913   4.742
 6140SOL     OW19318   1.323   6.831   1.697
 6140SOL    HW119319   1.343   6.779   1.614
 6140SOL    HW219320   1.274   6.773   1.762
 6141SOL     OW19321   6.451   5.261   5.675
 6141SOL    HW119322   6.533   5.306   5.709
 6141SOL    HW219323   6.372   5.288   5.730
 6142SOL     OW19324   6.704   3.887   1.113
 6142SOL    HW119325   6.690   3.981   1.145
 6142SOL    HW219326   6.674   3.880   1.018
 6143SOL     OW19327   5.808   5.108   6.772
 6143SOL    HW119328   5.903   5.077   6.771
 6143SOL    HW219329   5.755   5.057   6.704
 6144SOL     OW19330   0.143   4.066   3.749
 6144SOL    HW119331   0.223   4.020   3.711
 6144SOL    HW219332   0.151   4.070   3.848
 6145SOL     OW19333   4.805   5.802   3.058
 6145SOL    HW119334   4.895   5.785   3.099
 6145SOL    HW219335   4.810   5.784   2.959
 6146SOL     OW19336   5.152   1.606   2.945
 6146SOL    HW119337   5.192   1.515   2.938
 6146SOL    HW219338   5.066   1.601   2.995
 6147SOL     OW19339   2.086   3.843   2.709
 6147SOL    HW119340   2.074   3.761   2.654
 6147SOL    HW219341   2.117   3.918   2.651
 6148SOL     OW19342   6.291   6.375   4.216
 6148SOL    HW119343   6.389   6.387   4.202
 6148SOL    HW219344   6.244   6.460   4.195
 6149SOL     OW19345   3.443   5.296   2.995
 6149SOL    HW119346   3.537   5.264   3.006
 6149SOL    HW219347   3.386   5.256   3.066
 6150SOL     OW19348   4.775   6.256   5.705
 6150SOL    HW119349   4.752   6.250   5.802
 6150SOL    HW219350   4.760   6.167   5.662
 6151SOL     OW19351   5.236   2.110   5.301
 6151SOL    HW119352   5.167   2.060   5.354
 6151SOL    HW219353   5.193   2.185   5.252
 6152SOL     OW19354   5.810   4.594   6.670
 6152SOL    HW119355   5.848   4.642   6.591
 6152SOL    HW219356   5.733   4.647   6.707
 6153SOL     OW19357   4.218   3.968   1.402
 6153SOL    HW119358   4.123   3.938   1.408
 6153SOL    HW219359   4.265   3.943   1.487
 6154SOL     OW19360   5.842   2.519   3.157
 6154SOL    HW119361   5.751   2.525   3.115
 6154SOL    HW219362   5.858   2.426   3.189
 6155SOL     OW19363   0.487   3.317   4.993
 6155SOL    HW119364   0.535   3.367   4.920
 6155SOL    HW219365   0.418   3.375   5.034
 6156SOL     OW19366   6.099   6.939   2.535
 6156SOL    HW119367   6.093   6.840   2.536
 6156SOL    HW219368   6.103   6.974   2.629
 6157SOL     OW19369   2.063   1.735   4.559
 6157SOL    HW119370   1.999   1.671   4.602
 6157SOL    HW219371   2.127   1.684   4.501
 6158SOL     OW19372   4.712   0.939   6.599
 6158SOL    HW119373   4.755   0.990   6.525
 6158SOL    HW219374   4.782   0.895   6.655
 6159SOL     OW19375   5.541   2.892   0.744
 6159SOL    HW119376   5.459   2.900   0.801
 6159SOL    HW219377   5.517   2.853   0.656
 6160SOL     OW19378   5.580   6.278   1.596
 6160SOL    HW119379   5.636   6.221   1.655
 6160SOL    HW219380   5.598   6.375   1.616
 6161SOL     OW19381   5.423   0.184   6.287
 6161SOL    HW119382   5.371   0.119   6.342
 6161SOL    HW219383   5.520   0.169   6.300
 6162SOL     OW19384   0.311   5.048   4.383
 6162SOL    HW119385   0.343   5.106   4.458
 6162SOL    HW219386   0.354   5.078   4.298
 6163SOL     OW19387   6.035   4.088   0.733
 6163SOL    HW119388   6.132   4.087   0.757
 6163SOL    HW219389   5.982   4.053   0.810
 6164SOL     OW19390   3.044   1.394   1.004
 6164SOL    HW119391   2.995   1.337   0.938
 6164SOL    HW219392   3.089   1.336   1.072
 6165SOL     OW19393   3.782   6.404   0.215
 6165SOL    HW119394   3.721   6.475   0.180
 6165SOL    HW219395   3.740   6.360   0.294
 6166SOL     OW19396   2.529   1.100   6.334
 6166SOL    HW119397   2.554   1.139   6.245
 6166SOL    HW219398   2.461   1.159   6.379
 6167SOL     OW19399   0.489   3.961   2.964
 6167SOL    HW119400   0.413   3.897   2.952
 6167SOL    HW219401   0.515   3.966   3.060
 6168SOL     OW19402   0.283   4.140   2.404
 6168SOL    HW119403   0.202   4.173   2.357
 6168SOL    HW219404   0.303   4.046   2.374
 6169SOL     OW19405   2.173   4.038   2.520
 6169SOL    HW119406   2.183   4.059   2.423
 6169SOL    HW219407   2.138   4.118   2.568
 6170SOL     OW19408   0.077   3.628   5.369
 6170SOL    HW119409   0.156   3.652   5.425
 6170SOL    HW219410   0.055   3.531   5.381
 6171SOL     OW19411   0.293   0.236   6.950
 6171SOL    HW119412   0.263   0.305   7.016
 6171SOL    HW219413   0.249   0.148   6.971
 6172SOL     OW19414   0.553   3.112   2.597
 6172SOL    HW119415   0.477   3.144   2.655
 6172SOL    HW219416   0.560   3.171   2.517
 6173SOL     OW19417   6.565   6.952   2.834
 6173SOL    HW119418   6.536   6.997   2.750
 6173SOL    HW219419   6.515   6.991   2.912
 6174SOL     OW19420   5.777   4.260   2.924
 6174SOL    HW119421   5.830   4.294   2.847
 6174SOL    HW219422   5.680   4.284   2.911
 6175SOL     OW19423   2.218   1.232   4.838
 6175SOL    HW119424   2.182   1.162   4.900
 6175SOL    HW219425   2.142   1.285   4.801
 6176SOL     OW19426   4.264   4.505   5.362
 6176SOL    HW119427   4.167   4.528   5.361
 6176SOL    HW219428   4.295   4.488   5.269
 6177SOL     OW19429   6.220   1.481   2.118
 6177SOL    HW119430   6.253   1.570   2.087
 6177SOL    HW219431   6.297   1.417   2.123
 6178SOL     OW19432   5.373   4.107   2.057
 6178SOL    HW119433   5.458   4.157   2.074
 6178SOL    HW219434   5.335   4.075   2.144
 6179SOL     OW19435   6.407   4.963   2.992
 6179SOL    HW119436   6.346   5.037   3.018
 6179SOL    HW219437   6.495   5.000   2.964
 6180SOL     OW19438   2.937   4.570   0.197
 6180SOL    HW119439   3.017   4.630   0.202
 6180SOL    HW219440   2.861   4.619   0.154
 6181SOL     OW19441   4.525   5.049   6.226
 6181SOL    HW119442   4.437   5.042   6.181
 6181SOL    HW219443   4.540   4.970   6.285
 6182SOL     OW19444   3.089   3.322   0.110
 6182SOL    HW119445   3.147   3.319   0.192
 6182SOL    HW219446   3.117   3.249   0.048
 6183SOL     OW19447   1.049   2.055   1.159
 6183SOL    HW119448   1.055   2.138   1.213
 6183SOL    HW219449   0.953   2.026   1.153
 6184SOL     OW19450   2.530   0.734   5.850
 6184SOL    HW119451   2.492   0.826   5.862
 6184SOL    HW219452   2.472   0.683   5.786
 6185SOL     OW19453   3.238   2.685   5.542
 6185SOL    HW119454   3.172   2.619   5.506
 6185SOL    HW219455   3.223   2.697   5.640
 6186SOL     OW19456   6.182   1.810   1.905
 6186SOL    HW119457   6.186   1.848   1.997
 6186SOL    HW219458   6.271   1.819   1.860
 6187SOL     OW19459   5.211   1.606   5.640
 6187SOL    HW119460   5.200   1.701   5.611
 6187SOL    HW219461   5.258   1.603   5.728
 6188SOL     OW19462   1.769   1.886   5.251
 6188SOL    HW119463   1.818   1.845   5.328
 6188SOL    HW219464   1.831   1.895   5.173
 6189SOL     OW19465   5.200   6.342   2.300
 6189SOL    HW119466   5.221   6.302   2.389
 6189SOL    HW219467   5.101   6.351   2.290
 6190SOL     OW19468   0.289   2.372   5.292
 6190SOL    HW119469   0.309   2.304   5.364
 6190SOL    HW219470   0.258   2.457   5.335
 6191SOL     OW19471   3.546   3.446   6.691
 6191SOL    HW119472   3.565   3.489   6.779
 6191SOL    HW219473   3.448   3.447   6.674
 6192SOL     OW19474   2.794   1.949   0.602
 6192SOL    HW119475   2.709   1.969   0.651
 6192SOL    HW219476   2.859   1.905   0.663
 6193SOL     OW19477   5.100   5.434   6.914
 6193SOL    HW119478   5.172   5.457   6.849
 6193SOL    HW219479   5.029   5.380   6.868
 6194SOL     OW19480   6.411   0.292   6.175
 6194SOL    HW119481   6.380   0.368   6.119
 6194SOL    HW219482   6.481   0.240   6.125
 6195SOL     OW19483   6.210   6.611   5.539
 6195SOL    HW119484   6.125   6.559   5.524
 6195SOL    HW219485   6.287   6.561   5.499
 6196SOL     OW19486   5.487   3.781   3.365
 6196SOL    HW119487   5.538   3.734   3.293
 6196SOL    HW219488   5.429   3.851   3.323
 6197SOL     OW19489   2.995   5.367   2.034
 6197SOL    HW119490   3.090   5.358   2.063
 6197SOL    HW219491   2.962   5.458   2.060
 6198SOL     OW19492   6.688   6.716   6.376
 6198SOL    HW119493   6.666   6.652   6.450
 6198SOL    HW219494   6.785   6.710   6.354
 6199SOL     OW19495   1.168   0.062   1.177
 6199SOL    HW119496   1.162   0.027   1.083
 6199SOL    HW219497   1.263   0.058   1.208
 6200SOL     OW19498   1.931   2.126   2.687
 6200SOL    HW119499   1.951   2.043   2.635
 6200SOL    HW219500   1.848   2.168   2.651
 6201SOL     OW19501   6.874   3.565   4.156
 6201SOL    HW119502   6.906   3.573   4.250
 6201SOL    HW219503   6.950   3.536   4.097
 6202SOL     OW19504   6.229   1.533   2.913
 6202SOL    HW119505   6.218   1.632   2.924
 6202SOL    HW219506   6.284   1.515   2.832
 6203SOL     OW19507   5.852   5.981   1.957
 6203SOL    HW119508   5.778   5.935   2.005
 6203SOL    HW219509   5.934   5.981   2.014
 6204SOL     OW19510   1.886   0.200   5.023
 6204SOL    HW119511   1.816   0.261   4.986
 6204SOL    HW219512   1.961   0.191   4.957
 6205SOL     OW19513   4.889   4.326   3.213
 6205SOL    HW119514   4.979   4.362   3.237
 6205SOL    HW219515   4.884   4.229   3.237
 6206SOL     OW19516   5.082   2.127   3.766
 6206SOL    HW119517   5.177   2.146   3.740
 6206SOL    HW219518   5.079   2.089   3.858
 6207SOL     OW19519   2.109   5.952   4.192
 6207SOL    HW119520   2.033   5.889   4.182
 6207SOL    HW219521   2.188   5.903   4.230
 6208SOL     OW19522   3.869   2.761   5.865
 6208SOL    HW119523   3.950   2.742   5.920
 6208SOL    HW219524   3.897   2.788   5.773
 6209SOL     OW19525   3.914   3.625   0.904
 6209SOL    HW119526   3.954   3.672   0.983
 6209SOL    HW219527   3.854   3.552   0.937
 6210SOL     OW19528   4.471   2.369   3.505
 6210SOL    HW119529   4.514   2.283   3.476
 6210SOL    HW219530   4.380   2.376   3.465
 6211SOL     OW19531   5.140   5.449   4.776
 6211SOL    HW119532   5.145   5.542   4.742
 6211SOL    HW219533   5.100   5.390   4.706
 6212SOL     OW19534   4.353   4.257   5.942
 6212SOL    HW119535   4.258   4.254   5.912
 6212SOL    HW219536   4.394   4.166   5.932
 6213SOL     OW19537   4.416   5.763   0.425
 6213SOL    HW119538   4.431   5.741   0.329
 6213SOL    HW219539   4.319   5.753   0.447
 6214SOL     OW19540   5.935   5.818   5.991
 6214SOL    HW119541   5.882   5.869   5.924
 6214SOL    HW219542   6.030   5.811   5.961
 6215SOL     OW19543   5.719   2.264   5.781
 6215SOL    HW119544   5.771   2.182   5.804
 6215SOL    HW219545   5.696   2.314   5.864
 6216SOL     OW19546   4.809   2.403   3.196
 6216SOL    HW119547   4.831   2.422   3.292
 6216SOL    HW219548   4.892   2.376   3.147
 6217SOL     OW19549   0.943   4.625   2.131
 6217SOL    HW119550   0.919   4.548   2.191
 6217SOL    HW219551   0.895   4.615   2.044
 6218SOL     OW19552   4.544   6.515   6.781
 6218SOL    HW119553   4.640   6.490   6.791
 6218SOL    HW219554   4.519   6.580   6.852
 6219SOL     OW19555   1.327   1.018   6.230
 6219SOL    HW119556   1.404   1.048   6.173
 6219SOL    HW219557   1.247   1.003   6.172
 6220SOL     OW19558   4.309   0.821   0.733
 6220SOL    HW119559   4.294   0.915   0.764
 6220SOL    HW219560   4.390   0.817   0.675
 6221SOL     OW19561   6.318   5.656   6.736
 6221SOL    HW119562   6.383   5.581   6.750
 6221SOL    HW219563   6.228   5.617   6.715
 6222SOL     OW19564   6.620   1.287   2.771
 6222SOL    HW119565   6.666   1.208   2.812
 6222SOL    HW219566   6.550   1.320   2.834
 6223SOL     OW19567   0.423   4.707   3.845
 6223SOL    HW119568   0.426   4.748   3.754
 6223SOL    HW219569   0.515   4.679   3.873
 6224SOL     OW19570   4.573   2.064   6.929
 6224SOL    HW119571   4.482   2.025   6.942
 6224SOL    HW219572   4.564   2.153   6.884
 6225SOL     OW19573   4.377   0.096   6.400
 6225SOL    HW119574   4.376   0.185   6.447
 6225SOL    HW219575   4.387   0.023   6.467
 6226SOL     OW19576   0.706   1.440   4.309
 6226SOL    HW119577   0.728   1.473   4.217
 6226SOL    HW219578   0.773   1.475   4.374
 6227SOL     OW19579   2.970   3.950   5.105
 6227SOL    HW119580   2.948   3.877   5.170
 6227SOL    HW219581   2.925   3.932   5.018
 6228SOL     OW19582   2.027   2.664   3.697
 6228SOL    HW119583   1.929   2.642   3.704
 6228SOL    HW219584   2.070   2.649   3.786
 6229SOL     OW19585   0.382   3.895   3.931
 6229SOL    HW119586   0.389   3.821   3.998
 6229SOL    HW219587   0.325   3.968   3.969
 6230SOL     OW19588   0.519   0.965   2.024
 6230SOL    HW119589   0.509   0.884   1.966
 6230SOL    HW219590   0.454   1.035   1.993
 6231SOL     OW19591   0.790   5.399   0.231
 6231SOL    HW119592   0.717   5.466   0.247
 6231SOL    HW219593   0.751   5.307   0.228
 6232SOL     OW19594   4.542   1.643   6.839
 6232SOL    HW119595   4.540   1.543   6.839
 6232SOL    HW219596   4.551   1.676   6.933
 6233SOL     OW19597   0.333   3.448   1.725
 6233SOL    HW119598   0.431   3.437   1.710
 6233SOL    HW219599   0.308   3.545   1.714
 6234SOL     OW19600   5.379   0.040   4.714
 6234SOL    HW119601   5.396   0.121   4.769
 6234SOL    HW219602   5.328   0.066   4.632
 6235SOL     OW19603   6.843   0.718   2.749
 6235SOL    HW119604   6.840   0.750   2.655
 6235SOL    HW219605   6.825   0.620   2.752
 6236SOL     OW19606   0.467   4.681   0.878
 6236SOL    HW119607   0.555   4.729   0.871
 6236SOL    HW219608   0.395   4.737   0.837
 6237SOL     OW19609   3.960   1.056   1.236
 6237SOL    HW119610   3.979   1.038   1.140
 6237SOL    HW219611   4.037   1.105   1.277
 6238SOL     OW19612   2.134   6.799   4.555
 6238SOL    HW119613   2.175   6.831   4.469
 6238SOL    HW219614   2.146   6.700   4.563
 6239SOL     OW19615   4.644   1.374   3.075
 6239SOL    HW119616   4.670   1.278   3.091
 6239SOL    HW219617   4.552   1.377   3.035
 6240SOL     OW19618   4.106   3.671   4.214
 6240SOL    HW119619   4.061   3.755   4.185
 6240SOL    HW219620   4.149   3.627   4.135
 6241SOL     OW19621   3.366   6.872   3.389
 6241SOL    HW119622   3.336   6.800   3.452
 6241SOL    HW219623   3.416   6.831   3.313
 6242SOL     OW19624   2.913   1.912   3.947
 6242SOL    HW119625   2.941   1.908   3.851
 6242SOL    HW219626   2.945   1.997   3.988
 6243SOL     OW19627   5.259   1.324   6.022
 6243SOL    HW119628   5.226   1.245   5.969
 6243SOL    HW219629   5.359   1.325   6.020
 6244SOL     OW19630   4.303   4.781   2.947
 6244SOL    HW119631   4.226   4.735   2.992
 6244SOL    HW219632   4.277   4.805   2.853
 6245SOL     OW19633   0.689   4.402   2.823
 6245SOL    HW119634   0.784   4.385   2.846
 6245SOL    HW219635   0.642   4.315   2.806
 6246SOL     OW19636   6.861   6.417   4.534
 6246SOL    HW119637   6.904   6.364   4.606
 6246SOL    HW219638   6.808   6.356   4.474
 6247SOL     OW19639   6.440   6.155   2.367
 6247SOL    HW119640   6.385   6.237   2.351
 6247SOL    HW219641   6.536   6.175   2.351
 6248SOL     OW19642   3.397   2.894   6.815
 6248SOL    HW119643   3.335   2.847   6.753
 6248SOL    HW219644   3.403   2.844   6.901
 6249SOL     OW19645   5.899   3.110   1.308
 6249SOL    HW119646   5.802   3.084   1.312
 6249SOL    HW219647   5.938   3.078   1.222
 6250SOL     OW19648   6.854   0.448   0.432
 6250SOL    HW119649   6.863   0.439   0.531
 6250SOL    HW219650   6.927   0.506   0.397
 6251SOL     OW19651   2.810   6.776   4.195
 6251SOL    HW119652   2.815   6.699   4.258
 6251SOL    HW219653   2.773   6.745   4.107
 6252SOL     OW19654   2.649   5.418   6.960
 6252SOL    HW119655   2.669   5.329   7.000
 6252SOL    HW219656   2.701   5.429   6.875
 6253SOL     OW19657   3.267   5.086   4.769
 6253SOL    HW119658   3.222   5.039   4.845
 6253SOL    HW219659   3.340   5.028   4.732
 6254SOL     OW19660   0.060   6.098   0.741
 6254SOL    HW119661   7.016   6.162   0.697
 6254SOL    HW219662   0.110   6.146   0.814
 6255SOL     OW19663   0.503   1.276   1.463
 6255SOL    HW119664   0.552   1.195   1.495
 6255SOL    HW219665   0.497   1.342   1.538
 6256SOL     OW19666   4.893   5.638   2.571
 6256SOL    HW119667   4.816   5.702   2.565
 6256SOL    HW219668   4.867   5.549   2.534
 6257SOL     OW19669   4.057   4.185   1.652
 6257SOL    HW119670   4.025   4.118   1.718
 6257SOL    HW219671   4.154   4.170   1.633
 6258SOL     OW19672   4.424   6.205   5.675
 6258SOL    HW119673   4.441   6.269   5.600
 6258SOL    HW219674   4.456   6.246   5.760
 6259SOL     OW19675   2.575   0.827   4.910
 6259SOL    HW119676   2.614   0.916   4.929
 6259SOL    HW219677   2.611   0.792   4.823
 6260SOL     OW19678   2.245   1.669   0.281
 6260SOL    HW119679   2.273   1.694   0.374
 6260SOL    HW219680   2.289   1.730   0.215
 6261SOL     OW19681   4.022   6.569   1.075
 6261SOL    HW119682   4.073   6.579   0.989
 6261SOL    HW219683   4.018   6.472   1.100
 6262SOL     OW19684   6.478   0.536   1.817
 6262SOL    HW119685   6.413   0.481   1.869
 6262SOL    HW219686   6.562   0.484   1.804
 6263SOL     OW19687   6.317   6.293   5.825
 6263SOL    HW119688   6.343   6.389   5.815
 6263SOL    HW219689   6.296   6.274   5.921
 6264SOL     OW19690   1.608   6.578   1.173
 6264SOL    HW119691   1.651   6.584   1.082
 6264SOL    HW219692   1.568   6.666   1.196
 6265SOL     OW19693   4.915   1.373   0.048
 6265SOL    HW119694   4.977   1.394   6.991
 6265SOL    HW219695   4.821   1.365   0.013
 6266SOL     OW19696   2.426   5.259   2.986
 6266SOL    HW119697   2.455   5.221   3.074
 6266SOL    HW219698   2.367   5.194   2.939
 6267SOL     OW19699   1.354   6.554   4.624
 6267SOL    HW119700   1.269   6.537   4.575
 6267SOL    HW219701   1.346   6.518   4.717
 6268SOL     OW19702   3.908   0.703   1.296
 6268SOL    HW119703   3.978   0.751   1.349
 6268SOL    HW219704   3.880   0.621   1.345
 6269SOL     OW19705   5.566   5.495   1.031
 6269SOL    HW119706   5.655   5.503   1.075
 6269SOL    HW219707   5.575   5.519   0.934
 6270SOL     OW19708   1.872   6.247   0.519
 6270SOL    HW119709   1.891   6.241   0.421
 6270SOL    HW219710   1.847   6.156   0.554
 6271SOL     OW19711   6.196   3.240   6.223
 6271SOL    HW119712   6.163   3.243   6.317
 6271SOL    HW219713   6.136   3.296   6.165
 6272SOL     OW19714   6.883   6.926   0.751
 6272SOL    HW119715   6.806   6.959   0.697
 6272SOL    HW219716   6.956   6.994   0.749
 6273SOL     OW19717   0.182   0.213   1.438
 6273SOL    HW119718   0.232   0.128   1.420
 6273SOL    HW219719   0.106   0.194   1.500
 6274SOL     OW19720   2.912   5.616   4.631
 6274SOL    HW119721   3.010   5.601   4.620
 6274SOL    HW219722   2.875   5.549   4.695
 6275SOL     OW19723   1.962   5.352   6.973
 6275SOL    HW119724   2.059   5.331   6.986
 6275SOL    HW219725   1.922   5.285   6.910
 6276SOL     OW19726   1.433   5.863   2.678
 6276SOL    HW119727   1.435   5.821   2.768
 6276SOL    HW219728   1.515   5.920   2.666
 6277SOL     OW19729   5.362   3.381   1.341
 6277SOL    HW119730   5.354   3.286   1.368
 6277SOL    HW219731   5.284   3.433   1.375
 6278SOL     OW19732   2.864   0.367   6.372
 6278SOL    HW119733   2.817   0.280   6.355
 6278SOL    HW219734   2.832   0.436   6.307
 6279SOL     OW19735   2.703   0.207   1.748
 6279SOL    HW119736   2.763   0.185   1.671
 6279SOL    HW219737   2.618   0.246   1.713
 6280SOL     OW19738   6.861   1.811   6.957
 6280SOL    HW119739   6.786   1.803   0.005
 6280SOL    HW219740   6.823   1.815   6.865
 6281SOL     OW19741   5.993   4.121   5.589
 6281SOL    HW119742   5.919   4.054   5.586
 6281SOL    HW219743   5.961   4.205   5.631
 6282SOL     OW19744   0.397   3.716   5.877
 6282SOL    HW119745   0.354   3.660   5.807
 6282SOL    HW219746   0.496   3.715   5.865
 6283SOL     OW19747   1.385   5.812   4.866
 6283SOL    HW119748   1.477   5.792   4.901
 6283SOL    HW219749   1.317   5.763   4.921
 6284SOL     OW19750   2.214   4.330   6.211
 6284SOL    HW119751   2.255   4.418   6.185
 6284SOL    HW219752   2.283   4.274   6.257
 6285SOL     OW19753   1.170   4.000   3.611
 6285SOL    HW119754   1.224   3.973   3.690
 6285SOL    HW219755   1.214   4.077   3.565
 6286SOL     OW19756   1.017   2.521   5.636
 6286SOL    HW119757   1.107   2.489   5.665
 6286SOL    HW219758   0.959   2.535   5.717
 6287SOL     OW19759   4.784   4.873   4.697
 6287SOL    HW119760   4.858   4.810   4.717
 6287SOL    HW219761   4.741   4.849   4.610
 6288SOL     OW19762   3.741   2.892   6.902
 6288SOL    HW119763   3.676   2.872   6.976
 6288SOL    HW219764   3.824   2.933   6.940
 6289SOL     OW19765   2.818   4.790   5.779
 6289SOL    HW119766   2.773   4.868   5.737
 6289SOL    HW219767   2.823   4.715   5.713
 6290SOL     OW19768   5.201   5.722   4.725
 6290SOL    HW119769   5.120   5.780   4.714
 6290SOL    HW219770   5.248   5.745   4.810
 6291SOL     OW19771   3.720   3.318   3.321
 6291SOL    HW119772   3.647   3.358   3.266
 6291SOL    HW219773   3.741   3.379   3.398
 6292SOL     OW19774   1.801   3.235   4.590
 6292SOL    HW119775   1.721   3.198   4.543
 6292SOL    HW219776   1.830   3.171   4.661
 6293SOL     OW19777   4.517   1.653   6.592
 6293SOL    HW119778   4.540   1.669   6.688
 6293SOL    HW219779   4.512   1.741   6.545
 6294SOL     OW19780   1.629   1.705   3.189
 6294SOL    HW119781   1.614   1.705   3.091
 6294SOL    HW219782   1.620   1.798   3.224
 6295SOL     OW19783   5.656   3.719   5.480
 6295SOL    HW119784   5.558   3.699   5.482
 6295SOL    HW219785   5.680   3.759   5.391
 6296SOL     OW19786   0.405   2.709   6.506
 6296SOL    HW119787   0.329   2.740   6.449
 6296SOL    HW219788   0.384   2.729   6.602
 6297SOL     OW19789   5.748   0.486   4.096
 6297SOL    HW119790   5.729   0.399   4.051
 6297SOL    HW219791   5.750   0.559   4.027
 6298SOL     OW19792   6.060   5.113   0.794
 6298SOL    HW119793   5.977   5.060   0.812
 6298SOL    HW219794   6.104   5.136   0.880
 6299SOL     OW19795   4.658   1.975   2.661
 6299SOL    HW119796   4.667   1.969   2.562
 6299SOL    HW219797   4.561   1.972   2.686
 6300SOL     OW19798   3.067   0.202   6.461
 6300SOL    HW119799   3.020   0.137   6.522
 6300SOL    HW219800   3.003   0.274   6.435
 6301SOL     OW19801   3.345   6.142   0.304
 6301SOL    HW119802   3.289   6.164   0.384
 6301SOL    HW219803   3.313   6.057   0.263
 6302SOL     OW19804   2.779   1.398   6.048
 6302SOL    HW119805   2.763   1.410   5.950
 6302SOL    HW219806   2.844   1.324   6.063
 6303SOL     OW19807   1.207   5.842   5.382
 6303SOL    HW119808   1.275   5.915   5.389
 6303SOL    HW219809   1.254   5.754   5.374
 6304SOL     OW19810   4.251   1.113   3.282
 6304SOL    HW119811   4.202   1.080   3.363
 6304SOL    HW219812   4.236   1.051   3.206
 6305SOL     OW19813   0.918   6.321   6.001
 6305SOL    HW119814   1.014   6.294   6.005
 6305SOL    HW219815   0.907   6.395   5.935
 6306SOL     OW19816   7.011   4.478   3.884
 6306SOL    HW119817   0.044   4.561   3.865
 6306SOL    HW219818   6.978   4.439   3.798
 6307SOL     OW19819   4.133   3.611   2.944
 6307SOL    HW119820   4.046   3.583   2.985
 6307SOL    HW219821   4.190   3.655   3.013
 6308SOL     OW19822   0.324   2.309   0.213
 6308SOL    HW119823   0.360   2.287   0.123
 6308SOL    HW219824   0.292   2.225   0.257
 6309SOL     OW19825   1.799   6.072   4.276
 6309SOL    HW119826   1.784   6.060   4.374
 6309SOL    HW219827   1.823   5.984   4.234
 6310SOL     OW19828   1.265   6.240   3.334
 6310SOL    HW119829   1.165   6.247   3.329
 6310SOL    HW219830   1.302   6.223   3.243
 6311SOL     OW19831   4.873   1.006   5.796
 6311SOL    HW119832   4.869   1.023   5.698
 6311SOL    HW219833   4.783   1.025   5.837
 6312SOL     OW19834   4.061   6.460   6.597
 6312SOL    HW119835   3.987   6.471   6.531
 6312SOL    HW219836   4.082   6.363   6.608
 6313SOL     OW19837   5.790   6.173   3.799
 6313SOL    HW119838   5.830   6.123   3.722
 6313SOL    HW219839   5.711   6.124   3.834
 6314SOL     OW19840   1.560   6.564   2.369
 6314SOL    HW119841   1.549   6.473   2.409
 6314SOL    HW219842   1.474   6.615   2.378
 6315SOL     OW19843   2.373   2.454   4.174
 6315SOL    HW119844   2.322   2.369   4.163
 6315SOL    HW219845   2.317   2.520   4.225
 6316SOL     OW19846   5.438   0.846   4.734
 6316SOL    HW119847   5.454   0.803   4.646
 6316SOL    HW219848   5.347   0.820   4.768
 6317SOL     OW19849   5.036   4.668   1.954
 6317SOL    HW119850   5.070   4.607   1.883
 6317SOL    HW219851   4.961   4.623   2.003
 6318SOL     OW19852   6.820   6.859   6.117
 6318SOL    HW119853   6.757   6.799   6.069
 6318SOL    HW219854   6.881   6.804   6.175
 6319SOL     OW19855   5.599   1.774   4.906
 6319SOL    HW119856   5.655   1.723   4.841
 6319SOL    HW219857   5.612   1.736   4.998
 6320SOL     OW19858   6.283   0.390   5.033
 6320SOL    HW119859   6.330   0.308   5.066
 6320SOL    HW219860   6.346   0.467   5.030
 6321SOL     OW19861   5.716   1.915   0.292
 6321SOL    HW119862   5.799   1.897   0.240
 6321SOL    HW219863   5.739   1.928   0.388
 6322SOL     OW19864   1.595   1.076   1.725
 6322SOL    HW119865   1.590   0.979   1.702
 6322SOL    HW219866   1.504   1.110   1.747
 6323SOL     OW19867   2.792   3.339   1.312
 6323SOL    HW119868   2.692   3.336   1.312
 6323SOL    HW219869   2.826   3.304   1.224
 6324SOL     OW19870   5.001   1.517   1.116
 6324SOL    HW119871   5.027   1.612   1.132
 6324SOL    HW219872   4.930   1.490   1.181
 6325SOL     OW19873   1.819   2.502   3.592
 6325SOL    HW119874   1.782   2.477   3.503
 6325SOL    HW219875   1.899   2.445   3.612
 6326SOL     OW19876   5.526   4.690   5.717
 6326SOL    HW119877   5.511   4.649   5.628
 6326SOL    HW219878   5.532   4.790   5.707
 6327SOL     OW19879   0.259   0.312   3.311
 6327SOL    HW119880   0.266   0.358   3.223
 6327SOL    HW219881   0.230   0.217   3.297
 6328SOL     OW19882   4.528   3.795   5.305
 6328SOL    HW119883   4.578   3.722   5.258
 6328SOL    HW219884   4.567   3.884   5.281
 6329SOL     OW19885   1.379   2.793   5.659
 6329SOL    HW119886   1.449   2.863   5.668
 6329SOL    HW219887   1.314   2.820   5.587
 6330SOL     OW19888   5.362   1.641   3.512
 6330SOL    HW119889   5.410   1.626   3.426
 6330SOL    HW219890   5.279   1.586   3.515
 6331SOL     OW19891   0.345   3.214   3.037
 6331SOL    HW119892   0.250   3.192   3.060
 6331SOL    HW219893   0.406   3.163   3.098
 6332SOL     OW19894   2.661   1.580   0.667
 6332SOL    HW119895   2.753   1.571   0.706
 6332SOL    HW219896   2.614   1.493   0.671
 6333SOL     OW19897   5.102   1.471   0.604
 6333SOL    HW119898   5.089   1.395   0.541
 6333SOL    HW219899   5.059   1.450   0.692
 6334SOL     OW19900   1.974   1.021   1.868
 6334SOL    HW119901   1.963   1.120   1.856
 6334SOL    HW219902   2.013   0.982   1.784
 6335SOL     OW19903   6.164   1.853   0.785
 6335SOL    HW119904   6.208   1.938   0.755
 6335SOL    HW219905   6.188   1.835   0.880
 6336SOL     OW19906   0.437   3.079   5.633
 6336SOL    HW119907   0.417   3.000   5.575
 6336SOL    HW219908   0.529   3.070   5.671
 6337SOL     OW19909   4.473   5.698   4.649
 6337SOL    HW119910   4.458   5.649   4.563
 6337SOL    HW219911   4.545   5.652   4.701
 6338SOL     OW19912   3.176   1.560   3.857
 6338SOL    HW119913   3.083   1.592   3.873
 6338SOL    HW219914   3.239   1.610   3.916
 6339SOL     OW19915   0.893   4.589   3.393
 6339SOL    HW119916   0.916   4.638   3.309
 6339SOL    HW219917   0.798   4.557   3.388
 6340SOL     OW19918   2.068   4.460   1.264
 6340SOL    HW119919   2.076   4.557   1.286
 6340SOL    HW219920   2.009   4.416   1.332
 6341SOL     OW19921   0.606   4.599   3.461
 6341SOL    HW119922   0.524   4.592   3.404
 6341SOL    HW219923   0.608   4.524   3.527
 6342SOL     OW19924   1.873   1.930   1.564
 6342SOL    HW119925   1.925   1.858   1.610
 6342SOL    HW219926   1.933   1.979   1.501
 6343SOL     OW19927   2.423   5.650   0.737
 6343SOL    HW119928   2.350   5.584   0.755
 6343SOL    HW219929   2.479   5.662   0.819
 6344SOL     OW19930   6.395   1.344   3.814
 6344SOL    HW119931   6.375   1.254   3.776
 6344SOL    HW219932   6.310   1.397   3.819
 6345SOL     OW19933   5.588   3.606   1.588
 6345SOL    HW119934   5.645   3.584   1.509
 6345SOL    HW219935   5.645   3.617   1.669
 6346SOL     OW19936   6.801   4.346   5.035
 6346SOL    HW119937   6.825   4.436   5.071
 6346SOL    HW219938   6.716   4.314   5.078
 6347SOL     OW19939   2.177   1.903   2.760
 6347SOL    HW119940   2.196   1.873   2.854
 6347SOL    HW219941   2.150   1.824   2.705
 6348SOL     OW19942   6.857   2.509   6.092
 6348SOL    HW119943   6.812   2.595   6.118
 6348SOL    HW219944   6.951   2.509   6.127
 6349SOL     OW19945   6.823   1.170   6.862
 6349SOL    HW119946   6.809   1.268   6.879
 6349SOL    HW219947   6.920   1.151   6.849
 6350SOL     OW19948   1.657   5.120   1.630
 6350SOL    HW119949   1.737   5.063   1.651
 6350SOL    HW219950   1.577   5.062   1.617
 6351SOL     OW19951   5.588   3.277   2.352
 6351SOL    HW119952   5.495   3.246   2.371
 6351SOL    HW219953   5.588   3.377   2.344
 6352SOL     OW19954   2.877   0.530   4.643
 6352SOL    HW119955   2.872   0.456   4.576
 6352SOL    HW219956   2.825   0.504   4.725
 6353SOL     OW19957   3.832   6.260   6.040
 6353SOL    HW119958   3.932   6.269   6.039
 6353SOL    HW219959   3.806   6.187   6.103
 6354SOL     OW19960   4.554   5.303   2.166
 6354SOL    HW119961   4.458   5.287   2.146
 6354SOL    HW219962   4.570   5.401   2.178
 6355SOL     OW19963   2.568   4.721   0.794
 6355SOL    HW119964   2.479   4.759   0.770
 6355SOL    HW219965   2.592   4.747   0.887
 6356SOL     OW19966   6.199   4.013   6.736
 6356SOL    HW119967   6.162   4.005   6.643
 6356SOL    HW219968   6.299   4.022   6.731
 6357SOL     OW19969   5.711   1.468   1.343
 6357SOL    HW119970   5.612   1.463   1.344
 6357SOL    HW219971   5.749   1.376   1.333
 6358SOL     OW19972   1.108   2.301   6.881
 6358SOL    HW119973   1.175   2.273   6.812
 6358SOL    HW219974   1.144   2.379   6.933
 6359SOL     OW19975   5.507   6.084   0.763
 6359SOL    HW119976   5.498   6.167   0.707
 6359SOL    HW219977   5.468   6.101   0.854
 6360SOL     OW19978   1.027   2.700   2.058
 6360SOL    HW119979   1.091   2.632   2.092
 6360SOL    HW219980   1.029   2.781   2.117
 6361SOL     OW19981   0.503   0.100   6.751
 6361SOL    HW119982   0.440   0.039   6.799
 6361SOL    HW219983   0.479   0.195   6.771
 6362SOL     OW19984   1.321   5.612   6.909
 6362SOL    HW119985   1.255   5.639   6.980
 6362SOL    HW219986   1.274   5.607   6.821
 6363SOL     OW19987   2.666   4.717   3.541
 6363SOL    HW119988   2.602   4.640   3.545
 6363SOL    HW219989   2.706   4.722   3.450
 6364SOL     OW19990   2.328   2.871   4.521
 6364SOL    HW119991   2.240   2.864   4.568
 6364SOL    HW219992   2.366   2.963   4.536
 6365SOL     OW19993   5.514   5.278   3.169
 6365SOL    HW119994   5.581   5.346   3.199
 6365SOL    HW219995   5.543   5.187   3.199
 6366SOL     OW19996   5.977   0.010   4.786
 6366SOL    HW119997   5.997   0.095   4.836
 6366SOL    HW219998   6.059   6.998   4.739
 6367SOL     OW19999   1.668   2.522   2.570
 6367SOL    HW120000   1.758   2.486   2.597
 6367SOL    HW220001   1.665   2.620   2.588
 6368SOL     OW20002   4.718   2.806   4.632
 6368SOL    HW120003   4.730   2.877   4.563
 6368SOL    HW220004   4.742   2.842   4.722
 6369SOL     OW20005   3.333   5.426   6.274
 6369SOL    HW120006   3.269   5.502   6.286
 6369SOL    HW220007   3.305   5.372   6.195
 6370SOL     OW20008   5.696   3.269   4.593
 6370SOL    HW120009   5.627   3.244   4.526
 6370SOL    HW220010   5.777   3.211   4.581
 6371SOL     OW20011   4.881   4.553   1.649
 6371SOL    HW120012   4.892   4.505   1.736
 6371SOL    HW220013   4.970   4.584   1.616
 6372SOL     OW20014   6.736   1.600   2.868
 6372SOL    HW120015   6.755   1.521   2.927
 6372SOL    HW220016   6.741   1.573   2.772
 6373SOL     OW20017   4.839   4.336   1.267
 6373SOL    HW120018   4.932   4.309   1.292
 6373SOL    HW220019   4.783   4.254   1.254
 6374SOL     OW20020   4.371   3.343   0.375
 6374SOL    HW120021   4.373   3.404   0.295
 6374SOL    HW220022   4.436   3.269   0.361
 6375SOL     OW20023   6.077   2.518   1.818
 6375SOL    HW120024   6.125   2.598   1.782
 6375SOL    HW220025   6.139   2.463   1.873
 6376SOL     OW20026   3.417   1.042   6.754
 6376SOL    HW120027   3.354   0.964   6.758
 6376SOL    HW220028   3.498   1.023   6.809
 6377SOL     OW20029   6.821   0.674   0.093
 6377SOL    HW120030   6.806   0.577   0.113
 6377SOL    HW220031   6.755   0.730   0.143
 6378SOL     OW20032   5.360   6.011   2.804
 6378SOL    HW120033   5.410   5.936   2.760
 6378SOL    HW220034   5.399   6.028   2.894
 6379SOL     OW20035   2.268   6.138   0.339
 6379SOL    HW120036   2.176   6.111   0.365
 6379SOL    HW220037   2.275   6.143   0.239
 6380SOL     OW20038   1.430   3.726   5.039
 6380SOL    HW120039   1.449   3.740   5.137
 6380SOL    HW220040   1.387   3.637   5.026
 6381SOL     OW20041   4.650   2.538   0.188
 6381SOL    HW120042   4.694   2.484   0.117
 6381SOL    HW220043   4.560   2.570   0.157
 6382SOL     OW20044   1.688   1.617   1.584
 6382SOL    HW120045   1.748   1.553   1.631
 6382SOL    HW220046   1.609   1.639   1.642
 6383SOL     OW20047   2.025   2.526   2.357
 6383SOL    HW120048   2.016   2.446   2.298
 6383SOL    HW220049   2.121   2.542   2.377
 6384SOL     OW20050   6.209   2.794   2.717
 6384SOL    HW120051   6.180   2.784   2.812
 6384SOL    HW220052   6.211   2.704   2.673
 6385SOL     OW20053   6.499   3.199   1.572
 6385SOL    HW120054   6.568   3.169   1.637
 6385SOL    HW220055   6.462   3.120   1.524
 6386SOL     OW20056   2.663   3.646   0.261
 6386SOL    HW120057   2.584   3.681   0.209
 6386SOL    HW220058   2.642   3.554   0.294
 6387SOL     OW20059   0.067   0.634   6.366
 6387SOL    HW120060   0.061   0.713   6.306
 6387SOL    HW220061   7.017   0.566   6.339
 6388SOL     OW20062   6.585   5.408   2.064
 6388SOL    HW120063   6.621   5.430   1.973
 6388SOL    HW220064   6.616   5.316   2.090
 6389SOL     OW20065   1.034   0.712   6.891
 6389SOL    HW120066   1.060   0.615   6.881
 6389SOL    HW220067   1.112   0.770   6.867
 6390SOL     OW20068   6.637   1.127   6.138
 6390SOL    HW120069   6.561   1.064   6.157
 6390SOL    HW220070   6.600   1.217   6.114
 6391SOL     OW20071   0.791   1.319   5.387
 6391SOL    HW120072   0.754   1.300   5.477
 6391SOL    HW220073   0.891   1.316   5.391
 6392SOL     OW20074   4.011   6.841   3.638
 6392SOL    HW120075   3.952   6.917   3.666
 6392SOL    HW220076   4.079   6.824   3.709
 6393SOL     OW20077   7.017   5.229   0.385
 6393SOL    HW120078   0.049   5.171   0.448
 6393SOL    HW220079   0.060   5.294   0.341
 6394SOL     OW20080   1.455   5.417   1.397
 6394SOL    HW120081   1.539   5.365   1.411
 6394SOL    HW220082   1.476   5.515   1.398
 6395SOL     OW20083   2.144   4.598   3.265
 6395SOL    HW120084   2.141   4.538   3.185
 6395SOL    HW220085   2.213   4.566   3.329
 6396SOL     OW20086   0.931   3.322   6.991
 6396SOL    HW120087   0.915   3.350   0.066
 6396SOL    HW220088   0.845   3.291   6.951
 6397SOL     OW20089   5.673   3.129   3.932
 6397SOL    HW120090   5.638   3.220   3.952
 6397SOL    HW220091   5.625   3.091   3.854
 6398SOL     OW20092   1.538   0.046   1.072
 6398SOL    HW120093   1.621   0.097   1.052
 6398SOL    HW220094   1.493   0.086   1.152
 6399SOL     OW20095   2.924   1.167   6.116
 6399SOL    HW120096   2.951   1.212   6.201
 6399SOL    HW220097   2.939   1.069   6.124
 6400SOL     OW20098   1.322   5.975   2.922
 6400SOL    HW120099   1.340   5.877   2.919
 6400SOL    HW220100   1.226   5.992   2.900
 6401SOL     OW20101   3.554   6.145   3.780
 6401SOL    HW120102   3.602   6.074   3.728
 6401SOL    HW220103   3.485   6.103   3.838
 6402SOL     OW20104   1.577   5.089   5.247
 6402SOL    HW120105   1.587   5.181   5.209
 6402SOL    HW220106   1.661   5.064   5.296
 6403SOL     OW20107   4.680   5.962   4.658
 6403SOL    HW120108   4.642   6.002   4.741
 6403SOL    HW220109   4.613   5.901   4.616
 6404SOL     OW20110   4.144   0.017   2.185
 6404SOL    HW120111   4.073   7.004   2.122
 6404SOL    HW220112   4.186   0.100   2.148
 6405SOL     OW20113   5.355   1.678   2.356
 6405SOL    HW120114   5.373   1.776   2.365
 6405SOL    HW220115   5.258   1.664   2.338
 6406SOL     OW20116   0.653   2.762   3.062
 6406SOL    HW120117   0.677   2.685   3.004
 6406SOL    HW220118   0.646   2.732   3.157
 6407SOL     OW20119   1.733   6.005   2.578
 6407SOL    HW120120   1.801   5.934   2.557
 6407SOL    HW220121   1.769   6.062   2.652
 6408SOL     OW20122   6.504   0.489   0.854
 6408SOL    HW120123   6.480   0.461   0.947
 6408SOL    HW220124   6.494   0.588   0.846
 6409SOL     OW20125   5.551   5.028   3.319
 6409SOL    HW120126   5.466   5.023   3.268
 6409SOL    HW220127   5.583   4.936   3.341
 6410SOL     OW20128   2.390   1.500   5.720
 6410SOL    HW120129   2.441   1.575   5.762
 6410SOL    HW220130   2.447   1.457   5.649
 6411SOL     OW20131   0.500   2.459   2.285
 6411SOL    HW120132   0.428   2.528   2.295
 6411SOL    HW220133   0.589   2.505   2.287
 6412SOL     OW20134   3.657   0.363   0.248
 6412SOL    HW120135   3.632   0.316   0.164
 6412SOL    HW220136   3.603   0.447   0.256
 6413SOL     OW20137   5.209   6.185   3.469
 6413SOL    HW120138   5.293   6.233   3.493
 6413SOL    HW220139   5.138   6.251   3.446
 6414SOL     OW20140   1.680   0.222   0.191
 6414SOL    HW120141   1.667   0.249   0.287
 6414SOL    HW220142   1.591   0.204   0.149
 6415SOL     OW20143   6.979   2.624   3.291
 6415SOL    HW120144   6.989   2.579   3.379
 6415SOL    HW220145   0.011   2.573   3.222
 6416SOL     OW20146   2.734   6.802   0.347
 6416SOL    HW120147   2.634   6.804   0.351
 6416SOL    HW220148   2.764   6.772   0.257
 6417SOL     OW20149   3.870   1.666   0.269
 6417SOL    HW120150   3.893   1.591   0.331
 6417SOL    HW220151   3.828   1.630   0.186
 6418SOL     OW20152   4.694   5.196   0.831
 6418SOL    HW120153   4.696   5.213   0.929
 6418SOL    HW220154   4.770   5.136   0.806
 6419SOL     OW20155   0.640   6.796   6.778
 6419SOL    HW120156   0.736   6.822   6.786
 6419SOL    HW220157   0.588   6.872   6.741
 6420SOL     OW20158   2.022   4.109   4.214
 6420SOL    HW120159   2.051   4.058   4.133
 6420SOL    HW220160   2.083   4.088   4.291
 6421SOL     OW20161   4.850   0.470   1.887
 6421SOL    HW120162   4.902   0.409   1.827
 6421SOL    HW220163   4.892   0.561   1.887
 6422SOL     OW20164   6.332   2.005   4.713
 6422SOL    HW120165   6.374   1.975   4.628
 6422SOL    HW220166   6.305   1.926   4.767
 6423SOL     OW20167   2.324   4.299   4.382
 6423SOL    HW120168   2.233   4.340   4.373
 6423SOL    HW220169   2.391   4.358   4.339
 6424SOL     OW20170   6.365   4.856   4.823
 6424SOL    HW120171   6.415   4.773   4.799
 6424SOL    HW220172   6.330   4.899   4.740
 6425SOL     OW20173   0.016   5.896   3.837
 6425SOL    HW120174   0.095   5.952   3.812
 6425SOL    HW220175   0.028   5.804   3.798
 6426SOL     OW20176   4.527   4.555   4.820
 6426SOL    HW120177   4.517   4.555   4.721
 6426SOL    HW220178   4.440   4.583   4.862
 6427SOL     OW20179   3.741   3.064   3.374
 6427SOL    HW120180   3.727   3.162   3.359
 6427SOL    HW220181   3.818   3.033   3.318
 6428SOL     OW20182   4.823   2.946   0.359
 6428SOL    HW120183   4.821   2.848   0.337
 6428SOL    HW220184   4.915   2.981   0.344
 6429SOL     OW20185   2.297   0.808   5.322
 6429SOL    HW120186   2.387   0.842   5.352
 6429SOL    HW220187   2.254   0.877   5.265
 6430SOL     OW20188   0.034   0.310   5.418
 6430SOL    HW120189   0.100   0.360   5.473
 6430SOL    HW220190   0.027   0.352   5.327
 6431SOL     OW20191   3.950   5.072   1.745
 6431SOL    HW120192   3.867   5.117   1.710
 6431SOL    HW220193   3.936   4.973   1.747
 6432SOL     OW20194   4.674   4.228   5.661
 6432SOL    HW120195   4.628   4.304   5.708
 6432SOL    HW220196   4.633   4.215   5.571
 6433SOL     OW20197   2.514   5.753   6.763
 6433SOL    HW120198   2.578   5.740   6.687
 6433SOL    HW220199   2.445   5.681   6.761
 6434SOL     OW20200   3.548   5.226   5.668
 6434SOL    HW120201   3.529   5.282   5.749
 6434SOL    HW220202   3.476   5.157   5.658
 6435SOL     OW20203   4.799   1.029   0.728
 6435SOL    HW120204   4.866   0.962   0.759
 6435SOL    HW220205   4.751   0.993   0.648
 6436SOL     OW20206   0.035   4.154   4.315
 6436SOL    HW120207   6.987   4.089   4.351
 6436SOL    HW220208   0.002   4.192   4.229
 6437SOL     OW20209   0.930   2.091   5.182
 6437SOL    HW120210   0.837   2.121   5.203
 6437SOL    HW220211   0.980   2.075   5.267
 6438SOL     OW20212   0.325   5.744   0.260
 6438SOL    HW120213   0.422   5.762   0.274
 6438SOL    HW220214   0.298   5.777   0.170
 6439SOL     OW20215   5.598   0.381   2.686
 6439SOL    HW120216   5.513   0.344   2.650
 6439SOL    HW220217   5.610   0.352   2.781
 6440SOL     OW20218   2.455   1.561   6.878
 6440SOL    HW120219   2.407   1.648   6.888
 6440SOL    HW220220   2.516   1.566   6.798
 6441SOL     OW20221   0.604   1.437   2.655
 6441SOL    HW120222   0.680   1.373   2.643
 6441SOL    HW220223   0.623   1.497   2.732
 6442SOL     OW20224   3.284   2.830   5.131
 6442SOL    HW120225   3.273   2.738   5.092
 6442SOL    HW220226   3.203   2.854   5.184
 6443SOL     OW20227   4.967   2.395   0.549
 6443SOL    HW120228   5.006   2.304   0.550
 6443SOL    HW220229   4.893   2.399   0.481
 6444SOL     OW20230   6.865   3.290   5.149
 6444SOL    HW120231   6.794   3.352   5.114
 6444SOL    HW220232   6.822   3.215   5.199
 6445SOL     OW20233   2.907   3.377   3.133
 6445SOL    HW120234   2.897   3.472   3.106
 6445SOL    HW220235   2.949   3.325   3.058
 6446SOL     OW20236   2.532   0.821   6.565
 6446SOL    HW120237   2.566   0.858   6.652
 6446SOL    HW220238   2.476   0.890   6.519
 6447SOL     OW20239   6.258   3.551   1.728
 6447SOL    HW120240   6.310   3.595   1.655
 6447SOL    HW220241   6.254   3.452   1.711
 6448SOL     OW20242   3.848   5.570   1.229
 6448SOL    HW120243   3.859   5.543   1.133
 6448SOL    HW220244   3.761   5.619   1.240
 6449SOL     OW20245   2.385   5.287   0.883
 6449SOL    HW120246   2.472   5.336   0.882
 6449SOL    HW220247   2.400   5.192   0.911
 6450SOL     OW20248   0.184   4.355   1.180
 6450SOL    HW120249   0.223   4.446   1.167
 6450SOL    HW220250   0.250   4.297   1.227
 6451SOL     OW20251   3.576   2.345   1.466
 6451SOL    HW120252   3.505   2.383   1.406
 6451SOL    HW220253   3.651   2.411   1.474
 6452SOL     OW20254   4.834   2.443   3.466
 6452SOL    HW120255   4.791   2.531   3.485
 6452SOL    HW220256   4.837   2.389   3.550
 6453SOL     OW20257   3.288   0.571   1.103
 6453SOL    HW120258   3.344   0.500   1.060
 6453SOL    HW220259   3.286   0.557   1.202
 6454SOL     OW20260   5.634   2.845   3.426
 6454SOL    HW120261   5.613   2.916   3.358
 6454SOL    HW220262   5.549   2.812   3.467
 6455SOL     OW20263   6.455   3.576   3.254
 6455SOL    HW120264   6.383   3.632   3.294
 6455SOL    HW220265   6.536   3.578   3.313
 6456SOL     OW20266   6.103   1.492   3.148
 6456SOL    HW120267   6.033   1.563   3.159
 6456SOL    HW220268   6.140   1.494   3.056
 6457SOL     OW20269   4.052   0.768   1.928
 6457SOL    HW120270   4.109   0.694   1.963
 6457SOL    HW220271   3.991   0.732   1.857
 6458SOL     OW20272   0.379   4.853   3.609
 6458SOL    HW120273   0.370   4.810   3.519
 6458SOL    HW220274   0.288   4.882   3.640
 6459SOL     OW20275   6.144   3.202   2.295
 6459SOL    HW120276   6.162   3.254   2.379
 6459SOL    HW220277   6.152   3.262   2.216
 6460SOL     OW20278   0.895   5.823   6.172
 6460SOL    HW120279   0.911   5.796   6.077
 6460SOL    HW220280   0.851   5.748   6.222
 6461SOL     OW20281   2.895   5.286   1.077
 6461SOL    HW120282   2.808   5.237   1.071
 6461SOL    HW220283   2.901   5.353   1.003
 6462SOL     OW20284   1.697   3.590   5.278
 6462SOL    HW120285   1.612   3.545   5.308
 6462SOL    HW220286   1.722   3.556   5.188
 6463SOL     OW20287   4.964   1.973   1.522
 6463SOL    HW120288   4.878   1.957   1.570
 6463SOL    HW220289   4.999   2.063   1.544
 6464SOL     OW20290   0.846   5.270   4.619
 6464SOL    HW120291   0.826   5.359   4.661
 6464SOL    HW220292   0.939   5.242   4.642
 6465SOL     OW20293   3.840   0.952   2.958
 6465SOL    HW120294   3.836   1.022   2.886
 6465SOL    HW220295   3.792   0.870   2.927
 6466SOL     OW20296   0.678   2.824   0.298
 6466SOL    HW120297   0.760   2.879   0.308
 6466SOL    HW220298   0.603   2.880   0.262
 6467SOL     OW20299   3.277   1.575   0.980
 6467SOL    HW120300   3.280   1.669   1.015
 6467SOL    HW220301   3.183   1.540   0.985
 6468SOL     OW20302   2.544   0.551   1.084
 6468SOL    HW120303   2.562   0.643   1.121
 6468SOL    HW220304   2.601   0.485   1.132
 6469SOL     OW20305   3.511   2.134   3.390
 6469SOL    HW120306   3.478   2.040   3.388
 6469SOL    HW220307   3.483   2.178   3.475
 6470SOL     OW20308   6.508   1.948   6.858
 6470SOL    HW120309   6.543   1.921   6.768
 6470SOL    HW220310   6.413   1.921   6.867
 6471SOL     OW20311   6.936   6.042   5.490
 6471SOL    HW120312   6.937   5.942   5.476
 6471SOL    HW220313   6.952   6.087   5.402
 6472SOL     OW20314   6.897   6.291   2.629
 6472SOL    HW120315   6.871   6.384   2.656
 6472SOL    HW220316   6.863   6.226   2.698
 6473SOL     OW20317   2.369   1.460   3.884
 6473SOL    HW120318   2.294   1.523   3.864
 6473SOL    HW220319   2.360   1.425   3.977
 6474SOL     OW20320   3.657   5.322   5.431
 6474SOL    HW120321   3.643   5.337   5.529
 6474SOL    HW220322   3.754   5.328   5.410
 6475SOL     OW20323   5.706   4.653   2.696
 6475SOL    HW120324   5.711   4.641   2.795
 6475SOL    HW220325   5.615   4.685   2.671
 6476SOL     OW20326   3.444   1.325   6.414
 6476SOL    HW120327   3.369   1.262   6.393
 6476SOL    HW220328   3.415   1.419   6.396
 6477SOL     OW20329   6.462   6.371   1.395
 6477SOL    HW120330   6.384   6.433   1.395
 6477SOL    HW220331   6.430   6.278   1.376
 6478SOL     OW20332   3.575   5.682   1.236
 6478SOL    HW120333   3.624   5.765   1.263
 6478SOL    HW220334   3.527   5.644   1.314
 6479SOL     OW20335   3.399   5.995   3.950
 6479SOL    HW120336   3.452   5.935   4.010
 6479SOL    HW220337   3.372   6.077   3.999
 6480SOL     OW20338   3.210   1.489   6.984
 6480SOL    HW120339   3.192   1.556   6.912
 6480SOL    HW220340   3.239   1.536   0.048
 6481SOL     OW20341   3.446   2.818   1.804
 6481SOL    HW120342   3.366   2.843   1.860
 6481SOL    HW220343   3.423   2.738   1.748
 6482SOL     OW20344   6.056   4.002   5.192
 6482SOL    HW120345   6.001   4.083   5.168
 6482SOL    HW220346   6.032   3.972   5.285
 6483SOL     OW20347   1.215   5.650   5.079
 6483SOL    HW120348   1.213   5.705   5.162
 6483SOL    HW220349   1.275   5.572   5.091
 6484SOL     OW20350   2.804   0.962   4.279
 6484SOL    HW120351   2.760   0.918   4.200
 6484SOL    HW220352   2.734   0.985   4.347
 6485SOL     OW20353   2.336   0.030   4.082
 6485SOL    HW120354   2.423   0.007   4.125
 6485SOL    HW220355   2.351   0.096   4.008
 6486SOL     OW20356   1.585   4.816   3.535
 6486SOL    HW120357   1.503   4.868   3.511
 6486SOL    HW220358   1.560   4.720   3.550
 6487SOL     OW20359   6.010   4.690   3.922
 6487SOL    HW120360   6.099   4.683   3.968
 6487SOL    HW220361   5.995   4.608   3.866
 6488SOL     OW20362   4.295   5.355   4.408
 6488SOL    HW120363   4.383   5.359   4.456
 6488SOL    HW220364   4.232   5.297   4.459
 6489SOL     OW20365   4.315   3.323   5.645
 6489SOL    HW120366   4.301   3.289   5.738
 6489SOL    HW220367   4.370   3.407   5.649
 6490SOL     OW20368   1.976   1.952   0.240
 6490SOL    HW120369   1.950   2.049   0.242
 6490SOL    HW220370   1.968   1.913   0.331
 6491SOL     OW20371   2.618   0.069   1.082
 6491SOL    HW120372   2.712   0.096   1.103
 6491SOL    HW220373   2.556   0.145   1.102
 6492SOL     OW20374   3.482   3.767   4.529
 6492SOL    HW120375   3.465   3.730   4.438
 6492SOL    HW220376   3.468   3.696   4.598
 6493SOL     OW20377   1.066   3.895   5.643
 6493SOL    HW120378   1.161   3.926   5.633
 6493SOL    HW220379   1.044   3.832   5.569
 6494SOL     OW20380   5.626   0.225   1.870
 6494SOL    HW120381   5.700   0.259   1.813
 6494SOL    HW220382   5.543   0.279   1.854
 6495SOL     OW20383   6.432   0.039   3.747
 6495SOL    HW120384   6.450   0.135   3.727
 6495SOL    HW220385   6.495   0.007   3.818
 6496SOL     OW20386   4.085   0.858   1.428
 6496SOL    HW120387   4.091   0.907   1.514
 6496SOL    HW220388   4.073   0.923   1.353
 6497SOL     OW20389   0.086   1.473   1.011
 6497SOL    HW120390   0.073   1.444   0.916
 6497SOL    HW220391   0.073   1.395   1.072
 6498SOL     OW20392   1.337   4.176   4.492
 6498SOL    HW120393   1.242   4.188   4.520
 6498SOL    HW220394   1.391   4.256   4.519
 6499SOL     OW20395   5.302   3.210   3.722
 6499SOL    HW120396   5.293   3.173   3.629
 6499SOL    HW220397   5.234   3.167   3.781
 6500SOL     OW20398   1.669   4.075   3.004
 6500SOL    HW120399   1.578   4.036   2.989
 6500SOL    HW220400   1.667   4.132   3.086
 6501SOL     OW20401   6.096   2.142   0.929
 6501SOL    HW120402   6.152   2.135   0.847
 6501SOL    HW220403   6.075   2.238   0.948
 6502SOL     OW20404   6.544   3.824   1.879
 6502SOL    HW120405   6.522   3.831   1.976
 6502SOL    HW220406   6.463   3.846   1.825
 6503SOL     OW20407   6.528   3.210   5.675
 6503SOL    HW120408   6.501   3.114   5.665
 6503SOL    HW220409   6.531   3.253   5.584
 6504SOL     OW20410   4.897   6.242   6.883
 6504SOL    HW120411   4.831   6.180   6.924
 6504SOL    HW220412   4.864   6.336   6.890
 6505SOL     OW20413   6.514   5.703   0.701
 6505SOL    HW120414   6.599   5.755   0.697
 6505SOL    HW220415   6.524   5.617   0.651
 6506SOL     OW20416   0.105   3.690   2.277
 6506SOL    HW120417   0.071   3.720   2.366
 6506SOL    HW220418   0.131   3.770   2.223
 6507SOL     OW20419   4.263   4.292   6.891
 6507SOL    HW120420   4.336   4.225   6.877
 6507SOL    HW220421   4.192   4.278   6.823
 6508SOL     OW20422   0.653   6.687   2.151
 6508SOL    HW120423   0.660   6.597   2.110
 6508SOL    HW220424   0.716   6.694   2.229
 6509SOL     OW20425   2.873   1.585   6.274
 6509SOL    HW120426   2.809   1.662   6.277
 6509SOL    HW220427   2.848   1.524   6.199
 6510SOL     OW20428   4.230   5.545   5.892
 6510SOL    HW120429   4.318   5.514   5.855
 6510SOL    HW220430   4.239   5.640   5.924
 6511SOL     OW20431   3.067   0.742   0.212
 6511SOL    HW120432   2.986   0.699   0.171
 6511SOL    HW220433   3.066   0.725   0.311
 6512SOL     OW20434   4.099   1.212   0.674
 6512SOL    HW120435   4.100   1.208   0.773
 6512SOL    HW220436   4.106   1.308   0.644
 6513SOL     OW20437   2.299   5.372   3.543
 6513SOL    HW120438   2.329   5.285   3.582
 6513SOL    HW220439   2.360   5.445   3.573
 6514SOL     OW20440   5.982   6.911   5.675
 6514SOL    HW120441   5.973   6.837   5.608
 6514SOL    HW220442   5.892   6.934   5.712
 6515SOL     OW20443   2.256   4.870   2.189
 6515SOL    HW120444   2.272   4.967   2.170
 6515SOL    HW220445   2.276   4.851   2.285
 6516SOL     OW20446   6.811   3.671   1.505
 6516SOL    HW120447   6.909   3.653   1.501
 6516SOL    HW220448   6.766   3.600   1.559
 6517SOL     OW20449   6.990   2.971   0.469
 6517SOL    HW120450   6.939   2.923   0.397
 6517SOL    HW220451   6.935   3.048   0.502
 6518SOL     OW20452   0.884   1.662   3.289
 6518SOL    HW120453   0.821   1.704   3.355
 6518SOL    HW220454   0.874   1.707   3.200
 6519SOL     OW20455   0.603   1.678   2.824
 6519SOL    HW120456   0.701   1.669   2.808
 6519SOL    HW220457   0.582   1.652   2.918
 6520SOL     OW20458   0.502   5.616   0.018
 6520SOL    HW120459   0.510   5.548   0.090
 6520SOL    HW220460   0.430   5.682   0.040
 6521SOL     OW20461   1.059   3.736   4.261
 6521SOL    HW120462   1.137   3.700   4.210
 6521SOL    HW220463   1.078   3.733   4.359
 6522SOL     OW20464   2.758   3.406   5.264
 6522SOL    HW120465   2.709   3.467   5.326
 6522SOL    HW220466   2.735   3.311   5.286
 6523SOL     OW20467   5.816   6.941   6.696
 6523SOL    HW120468   5.859   6.857   6.727
 6523SOL    HW220469   5.886   7.010   6.677
 6524SOL     OW20470   2.262   2.480   2.057
 6524SOL    HW120471   2.304   2.427   2.130
 6524SOL    HW220472   2.206   2.420   2.000
 6525SOL     OW20473   0.862   4.949   3.184
 6525SOL    HW120474   0.804   4.915   3.259
 6525SOL    HW220475   0.950   4.902   3.186
 6526SOL     OW20476   0.313   6.963   0.612
 6526SOL    HW120477   0.251   6.892   0.578
 6526SOL    HW220478   0.278   6.999   0.698
 6527SOL     OW20479   0.597   2.371   0.489
 6527SOL    HW120480   0.596   2.350   0.587
 6527SOL    HW220481   0.503   2.382   0.457
 6528SOL     OW20482   5.301   0.471   6.282
 6528SOL    HW120483   5.326   0.527   6.203
 6528SOL    HW220484   5.311   0.375   6.259
 6529SOL     OW20485   6.899   0.999   2.051
 6529SOL    HW120486   6.826   0.958   1.996
 6529SOL    HW220487   6.976   0.935   2.058
 6530SOL     OW20488   1.303   2.979   2.523
 6530SOL    HW120489   1.361   2.898   2.520
 6530SOL    HW220490   1.240   2.973   2.601
 6531SOL     OW20491   4.254   3.821   5.244
 6531SOL    HW120492   4.354   3.816   5.241
 6531SOL    HW220493   4.216   3.765   5.170
 6532SOL     OW20494   1.264   0.836   0.896
 6532SOL    HW120495   1.313   0.769   0.839
 6532SOL    HW220496   1.255   0.922   0.847
 6533SOL     OW20497   5.043   3.937   0.463
 6533SOL    HW120498   5.076   3.989   0.543
 6533SOL    HW220499   5.042   3.996   0.383
 6534SOL     OW20500   0.077   4.543   3.117
 6534SOL    HW120501   0.025   4.477   3.170
 6534SOL    HW220502   0.155   4.498   3.074
 6535SOL     OW20503   6.366   3.190   5.404
 6535SOL    HW120504   6.361   3.286   5.433
 6535SOL    HW220505   6.353   3.131   5.483
 6536SOL     OW20506   1.139   3.767   4.867
 6536SOL    HW120507   1.164   3.828   4.791
 6536SOL    HW220508   1.061   3.710   4.840
 6537SOL     OW20509   5.660   5.303   3.901
 6537SOL    HW120510   5.569   5.344   3.902
 6537SOL    HW220511   5.729   5.375   3.901
 6538SOL     OW20512   2.627   3.499   5.616
 6538SOL    HW120513   2.540   3.454   5.598
 6538SOL    HW220514   2.620   3.551   5.701
 6539SOL     OW20515   6.122   1.133   5.192
 6539SOL    HW120516   6.079   1.058   5.243
 6539SOL    HW220517   6.161   1.097   5.107
 6540SOL     OW20518   5.450   2.501   5.762
 6540SOL    HW120519   5.382   2.571   5.783
 6540SOL    HW220520   5.405   2.414   5.742
 6541SOL     OW20521   5.670   0.799   4.873
 6541SOL    HW120522   5.577   0.830   4.851
 6541SOL    HW220523   5.709   0.752   4.794
 6542SOL     OW20524   1.552   4.145   3.845
 6542SOL    HW120525   1.652   4.149   3.846
 6542SOL    HW220526   1.517   4.212   3.779
 6543SOL     OW20527   4.066   2.219   5.186
 6543SOL    HW120528   4.101   2.302   5.143
 6543SOL    HW220529   4.136   2.148   5.182
 6544SOL     OW20530   1.143   6.347   1.602
 6544SOL    HW120531   1.078   6.383   1.669
 6544SOL    HW220532   1.214   6.295   1.650
 6545SOL     OW20533   4.546   7.009   0.565
 6545SOL    HW120534   4.462   7.010   0.511
 6545SOL    HW220535   4.559   6.919   0.606
 6546SOL     OW20536   5.000   3.603   6.371
 6546SOL    HW120537   5.053   3.530   6.414
 6546SOL    HW220538   5.048   3.690   6.383
 6547SOL     OW20539   5.934   5.446   0.273
 6547SOL    HW120540   5.968   5.354   0.257
 6547SOL    HW220541   5.987   5.489   0.347
 6548SOL     OW20542   0.467   2.004   5.579
 6548SOL    HW120543   0.389   2.039   5.528
 6548SOL    HW220544   0.445   2.005   5.677
 6549SOL     OW20545   4.893   0.134   1.402
 6549SOL    HW120546   4.947   0.189   1.466
 6549SOL    HW220547   4.866   0.049   1.447
 6550SOL     OW20548   6.279   0.199   3.144
 6550SOL    HW120549   6.359   0.240   3.101
 6550SOL    HW220550   6.207   0.268   3.154
 6551SOL     OW20551   2.841   3.836   0.964
 6551SOL    HW120552   2.903   3.775   0.913
 6551SOL    HW220553   2.747   3.813   0.941
 6552SOL     OW20554   2.642   6.409   0.557
 6552SOL    HW120555   2.553   6.367   0.538
 6552SOL    HW220556   2.691   6.422   0.471
 6553SOL     OW20557   6.936   1.510   3.382
 6553SOL    HW120558   6.934   1.414   3.355
 6553SOL    HW220559   7.010   1.524   3.448
 6554SOL     OW20560   2.939   1.497   4.853
 6554SOL    HW120561   2.930   1.596   4.855
 6554SOL    HW220562   2.875   1.459   4.786
 6555SOL     OW20563   0.031   3.386   4.032
 6555SOL    HW120564   0.116   3.346   4.064
 6555SOL    HW220565   0.050   3.459   3.967
 6556SOL     OW20566   4.819   2.761   3.281
 6556SOL    HW120567   4.795   2.748   3.378
 6556SOL    HW220568   4.746   2.724   3.224
 6557SOL     OW20569   2.084   0.177   2.025
 6557SOL    HW120570   2.026   0.216   2.097
 6557SOL    HW220571   2.042   0.094   1.989
 6558SOL     OW20572   5.474   5.140   0.148
 6558SOL    HW120573   5.439   5.074   0.214
 6558SOL    HW220574   5.442   5.232   0.173
 6559SOL     OW20575   0.170   2.650   6.266
 6559SOL    HW120576   0.247   2.703   6.231
 6559SOL    HW220577   0.098   2.713   6.296
 6560SOL     OW20578   5.590   4.869   0.294
 6560SOL    HW120579   5.623   4.805   0.364
 6560SOL    HW220580   5.500   4.903   0.320
 6561SOL     OW20581   3.930   4.426   0.869
 6561SOL    HW120582   4.011   4.455   0.921
 6561SOL    HW220583   3.940   4.331   0.842
 6562SOL     OW20584   5.611   3.032   1.257
 6562SOL    HW120585   5.625   2.963   1.329
 6562SOL    HW220586   5.514   3.051   1.247
 6563SOL     OW20587   5.382   6.089   5.232
 6563SOL    HW120588   5.322   6.155   5.277
 6563SOL    HW220589   5.374   6.000   5.278
 6564SOL     OW20590   6.796   3.983   2.958
 6564SOL    HW120591   6.728   4.021   3.021
 6564SOL    HW220592   6.802   3.884   2.973
 6565SOL     OW20593   5.649   0.298   3.577
 6565SOL    HW120594   5.604   0.223   3.529
 6565SOL    HW220595   5.683   0.265   3.665
 6566SOL     OW20596   4.124   6.107   2.425
 6566SOL    HW120597   4.181   6.175   2.379
 6566SOL    HW220598   4.135   6.116   2.524
 6567SOL     OW20599   4.314   0.566   0.806
 6567SOL    HW120600   4.300   0.664   0.794
 6567SOL    HW220601   4.260   0.516   0.738
 6568SOL     OW20602   3.708   1.098   1.360
 6568SOL    HW120603   3.661   1.167   1.305
 6568SOL    HW220604   3.805   1.096   1.335
 6569SOL     OW20605   0.423   4.220   5.407
 6569SOL    HW120606   0.337   4.231   5.357
 6569SOL    HW220607   0.433   4.125   5.436
 6570SOL     OW20608   4.045   6.425   1.866
 6570SOL    HW120609   4.066   6.377   1.781
 6570SOL    HW220610   4.081   6.518   1.862
 6571SOL     OW20611   2.988   5.782   3.023
 6571SOL    HW120612   2.899   5.787   3.069
 6571SOL    HW220613   3.044   5.712   3.065
 6572SOL     OW20614   0.916   5.769   3.827
 6572SOL    HW120615   0.925   5.671   3.843
 6572SOL    HW220616   0.820   5.790   3.805
 6573SOL     OW20617   1.311   1.287   3.464
 6573SOL    HW120618   1.248   1.353   3.425
 6573SOL    HW220619   1.260   1.213   3.507
 6574SOL     OW20620   1.683   5.951   1.787
 6574SOL    HW120621   1.749   6.022   1.810
 6574SOL    HW220622   1.616   5.942   1.861
 6575SOL     OW20623   6.878   0.459   2.432
 6575SOL    HW120624   6.835   0.409   2.358
 6575SOL    HW220625   6.887   0.400   2.512
 6576SOL     OW20626   4.396   6.014   0.980
 6576SOL    HW120627   4.371   6.104   1.014
 6576SOL    HW220628   4.495   6.002   0.988
 6577SOL     OW20629   2.132   1.750   3.450
 6577SOL    HW120630   2.184   1.810   3.389
 6577SOL    HW220631   2.131   1.657   3.412
 6578SOL     OW20632   1.618   4.755   1.742
 6578SOL    HW120633   1.619   4.670   1.690
 6578SOL    HW220634   1.551   4.818   1.703
 6579SOL     OW20635   6.441   1.154   4.069
 6579SOL    HW120636   6.390   1.070   4.051
 6579SOL    HW220637   6.411   1.225   4.006
 6580SOL     OW20638   1.083   0.198   0.183
 6580SOL    HW120639   1.058   0.143   0.103
 6580SOL    HW220640   1.091   0.294   0.157
 6581SOL     OW20641   1.388   1.800   7.010
 6581SOL    HW120642   1.301   1.838   0.021
 6581SOL    HW220643   1.384   1.700   7.013
 6582SOL     OW20644   6.737   1.118   2.956
 6582SOL    HW120645   6.712   1.023   2.972
 6582SOL    HW220646   6.710   1.174   3.035
 6583SOL     OW20647   4.356   6.248   6.490
 6583SOL    HW120648   4.349   6.278   6.585
 6583SOL    HW220649   4.447   6.271   6.454
 6584SOL     OW20650   3.401   2.156   0.942
 6584SOL    HW120651   3.349   2.209   1.009
 6584SOL    HW220652   3.499   2.162   0.962
 6585SOL     OW20653   6.061   6.809   0.999
 6585SOL    HW120654   6.064   6.900   0.957
 6585SOL    HW220655   6.111   6.744   0.943
 6586SOL     OW20656   6.170   2.190   6.761
 6586SOL    HW120657   6.139   2.223   6.672
 6586SOL    HW220658   6.265   2.218   6.775
 6587SOL     OW20659   1.857   4.276   5.615
 6587SOL    HW120660   1.954   4.298   5.615
 6587SOL    HW220661   1.834   4.226   5.699
 6588SOL     OW20662   0.457   3.603   0.719
 6588SOL    HW120663   0.450   3.636   0.625
 6588SOL    HW220664   0.509   3.517   0.721
 6589SOL     OW20665   0.176   0.950   1.867
 6589SOL    HW120666   0.232   1.024   1.830
 6589SOL    HW220667   0.144   0.892   1.792
 6590SOL     OW20668   1.297   6.990   3.760
 6590SOL    HW120669   1.353   6.966   3.839
 6590SOL    HW220670   1.261   0.063   3.772
 6591SOL     OW20671   5.601   4.130   4.263
 6591SOL    HW120672   5.516   4.181   4.247
 6591SOL    HW220673   5.680   4.189   4.248
 6592SOL     OW20674   5.825   6.173   2.899
 6592SOL    HW120675   5.759   6.158   2.826
 6592SOL    HW220676   5.784   6.147   2.987
 6593SOL     OW20677   2.970   1.824   2.437
 6593SOL    HW120678   2.876   1.858   2.432
 6593SOL    HW220679   3.002   1.830   2.532
 6594SOL     OW20680   4.789   1.707   6.586
 6594SOL    HW120681   4.851   1.647   6.635
 6594SOL    HW220682   4.700   1.709   6.632
 6595SOL     OW20683   1.546   2.361   5.224
 6595SOL    HW120684   1.631   2.372   5.173
 6595SOL    HW220685   1.543   2.427   5.299
 6596SOL     OW20686   5.579   5.874   2.707
 6596SOL    HW120687   5.601   5.798   2.646
 6596SOL    HW220688   5.641   5.873   2.786
 6597SOL     OW20689   1.619   5.306   2.018
 6597SOL    HW120690   1.607   5.362   2.100
 6597SOL    HW220691   1.658   5.218   2.044
 6598SOL     OW20692   2.107   4.742   4.657
 6598SOL    HW120693   2.157   4.762   4.573
 6598SOL    HW220694   2.099   4.644   4.669
 6599SOL     OW20695   6.108   5.522   6.646
 6599SOL    HW120696   6.064   5.442   6.686
 6599SOL    HW220697   6.176   5.492   6.579
 6600SOL     OW20698   4.748   6.960   4.806
 6600SOL    HW120699   4.714   6.891   4.742
 6600SOL    HW220700   4.673   0.002   4.832
 6601SOL     OW20701   1.552   2.423   1.958
 6601SOL    HW120702   1.637   2.383   1.925
 6601SOL    HW220703   1.571   2.509   2.005
 6602SOL     OW20704   2.549   6.330   1.787
 6602SOL    HW120705   2.578   6.262   1.720
 6602SOL    HW220706   2.463   6.371   1.758
 6603SOL     OW20707   0.222   2.945   3.421
 6603SOL    HW120708   0.280   3.003   3.478
 6603SOL    HW220709   0.269   2.859   3.400
 6604SOL     OW20710   1.802   6.339   2.517
 6604SOL    HW120711   1.706   6.317   2.500
 6604SOL    HW220712   1.858   6.300   2.444
 6605SOL     OW20713   6.965   5.530   1.292
 6605SOL    HW120714   6.948   5.493   1.201
 6605SOL    HW220715   0.043   5.552   1.302
 6606SOL     OW20716   1.792   3.852   3.379
 6606SOL    HW120717   1.771   3.880   3.472
 6606SOL    HW220718   1.888   3.873   3.358
 6607SOL     OW20719   5.728   3.994   3.734
 6607SOL    HW120720   5.815   3.954   3.762
 6607SOL    HW220721   5.656   3.967   3.798
 6608SOL     OW20722   0.378   6.228   5.550
 6608SOL    HW120723   0.352   6.135   5.522
 6608SOL    HW220724   0.460   6.256   5.501
 6609SOL     OW20725   4.353   2.039   6.026
 6609SOL    HW120726   4.349   1.941   6.043
 6609SOL    HW220727   4.444   2.064   5.993
 6610SOL     OW20728   3.034   5.054   1.084
 6610SOL    HW120729   2.997   5.145   1.065
 6610SOL    HW220730   3.102   5.061   1.157
 6611SOL     OW20731   4.334   1.639   4.413
 6611SOL    HW120732   4.315   1.735   4.432
 6611SOL    HW220733   4.264   1.603   4.352
 6612SOL     OW20734   6.049   1.670   6.068
 6612SOL    HW120735   6.096   1.581   6.069
 6612SOL    HW220736   5.986   1.674   5.990
 6613SOL     OW20737   5.282   0.022   6.716
 6613SOL    HW120738   5.267   6.995   6.804
 6613SOL    HW220739   5.378   0.014   6.690
 6614SOL     OW20740   4.278   5.930   1.318
 6614SOL    HW120741   4.372   5.903   1.296
 6614SOL    HW220742   4.215   5.877   1.261
 6615SOL     OW20743   3.058   4.914   6.955
 6615SOL    HW120744   3.080   4.961   6.869
 6615SOL    HW220745   2.991   4.842   6.937
 6616SOL     OW20746   4.652   1.252   5.601
 6616SOL    HW120747   4.579   1.240   5.533
 6616SOL    HW220748   4.703   1.336   5.580
 6617SOL     OW20749   3.786   0.722   3.952
 6617SOL    HW120750   3.789   0.815   3.988
 6617SOL    HW220751   3.780   0.657   4.028
 6618SOL     OW20752   6.798   2.320   2.360
 6618SOL    HW120753   6.795   2.420   2.350
 6618SOL    HW220754   6.766   2.295   2.451
 6619SOL     OW20755   5.077   6.377   3.902
 6619SOL    HW120756   5.153   6.433   3.870
 6619SOL    HW220757   5.040   6.325   3.825
 6620SOL     OW20758   0.669   3.214   3.475
 6620SOL    HW120759   0.632   3.141   3.418
 6620SOL    HW220760   0.760   3.188   3.507
 6621SOL     OW20761   3.785   2.937   4.854
 6621SOL    HW120762   3.727   2.921   4.774
 6621SOL    HW220763   3.854   3.005   4.833
 6622SOL     OW20764   0.455   5.419   0.629
 6622SOL    HW120765   0.414   5.483   0.564
 6622SOL    HW220766   0.393   5.343   0.645
 6623SOL     OW20767   3.666   4.102   5.546
 6623SOL    HW120768   3.654   4.200   5.531
 6623SOL    HW220769   3.721   4.063   5.471
 6624SOL     OW20770   1.274   2.139   4.096
 6624SOL    HW120771   1.367   2.159   4.128
 6624SOL    HW220772   1.246   2.208   4.029
 6625SOL     OW20773   5.866   2.811   5.540
 6625SOL    HW120774   5.908   2.729   5.580
 6625SOL    HW220775   5.767   2.806   5.550
 6626SOL     OW20776   2.441   6.425   5.288
 6626SOL    HW120777   2.381   6.383   5.356
 6626SOL    HW220778   2.424   6.383   5.199
 6627SOL     OW20779   1.838   5.816   4.458
 6627SOL    HW120780   1.794   5.742   4.509
 6627SOL    HW220781   1.865   5.783   4.368
 6628SOL     OW20782   4.466   5.717   3.880
 6628SOL    HW120783   4.400   5.791   3.897
 6628SOL    HW220784   4.558   5.757   3.870
 6629SOL     OW20785   5.509   5.960   6.910
 6629SOL    HW120786   5.581   5.891   6.910
 6629SOL    HW220787   5.519   6.018   6.990
 6630SOL     OW20788   2.295   1.693   1.307
 6630SOL    HW120789   2.226   1.623   1.321
 6630SOL    HW220790   2.325   1.693   1.212
 6631SOL     OW20791   2.275   4.748   6.305
 6631SOL    HW120792   2.233   4.710   6.222
 6631SOL    HW220793   2.361   4.793   6.280
 6632SOL     OW20794   1.258   1.053   0.746
 6632SOL    HW120795   1.173   1.068   0.694
 6632SOL    HW220796   1.295   1.141   0.775
 6633SOL     OW20797   3.367   5.805   6.278
 6633SOL    HW120798   3.425   5.741   6.227
 6633SOL    HW220799   3.275   5.804   6.238
 6634SOL     OW20800   4.374   2.387   4.677
 6634SOL    HW120801   4.410   2.477   4.701
 6634SOL    HW220802   4.328   2.347   4.755
 6635SOL     OW20803   5.399   4.711   2.534
 6635SOL    HW120804   5.427   4.678   2.624
 6635SOL    HW220805   5.444   4.657   2.463
 6636SOL     OW20806   3.421   0.069   1.098
 6636SOL    HW120807   3.423   6.989   1.087
 6636SOL    HW220808   3.494   0.097   1.161
 6637SOL     OW20809   1.361   1.320   0.790
 6637SOL    HW120810   1.426   1.303   0.864
 6637SOL    HW220811   1.306   1.400   0.811
 6638SOL     OW20812   2.916   3.410   3.671
 6638SOL    HW120813   2.861   3.355   3.608
 6638SOL    HW220814   2.909   3.506   3.646
 6639SOL     OW20815   5.060   2.977   1.354
 6639SOL    HW120816   4.968   2.983   1.394
 6639SOL    HW220817   5.053   2.980   1.255
 6640SOL     OW20818   0.981   2.838   5.108
 6640SOL    HW120819   0.921   2.877   5.039
 6640SOL    HW220820   1.073   2.827   5.071
 6641SOL     OW20821   4.046   1.916   1.241
 6641SOL    HW120822   4.065   1.820   1.264
 6641SOL    HW220823   4.089   1.976   1.309
 6642SOL     OW20824   1.487   5.639   0.654
 6642SOL    HW120825   1.568   5.647   0.712
 6642SOL    HW220826   1.490   5.552   0.605
 6643SOL     OW20827   4.456   6.663   6.991
 6643SOL    HW120828   4.383   6.718   0.012
 6643SOL    HW220829   4.509   6.620   0.045
 6644SOL     OW20830   1.700   6.258   3.420
 6644SOL    HW120831   1.733   6.323   3.351
 6644SOL    HW220832   1.605   6.280   3.443
 6645SOL     OW20833   6.496   2.811   0.607
 6645SOL    HW120834   6.540   2.810   0.697
 6645SOL    HW220835   6.488   2.717   0.573
 6646SOL     OW20836   4.683   0.315   6.471
 6646SOL    HW120837   4.676   0.318   6.371
 6646SOL    HW220838   4.779   0.315   6.497
 6647SOL     OW20839   4.677   5.158   1.101
 6647SOL    HW120840   4.677   5.079   1.163
 6647SOL    HW220841   4.647   5.239   1.150
 6648SOL     OW20842   2.316   6.256   5.469
 6648SOL    HW120843   2.276   6.297   5.551
 6648SOL    HW220844   2.309   6.157   5.474
 6649SOL     OW20845   6.115   2.392   6.949
 6649SOL    HW120846   6.205   2.401   6.992
 6649SOL    HW220847   6.119   2.323   6.877
 6650SOL     OW20848   2.830   1.117   5.313
 6650SOL    HW120849   2.800   1.206   5.348
 6650SOL    HW220850   2.817   1.047   5.383
 6651SOL     OW20851   0.085   1.980   6.682
 6651SOL    HW120852   0.134   1.978   6.595
 6651SOL    HW220853   0.087   1.890   6.724
 6652SOL     OW20854   0.994   4.657   0.142
 6652SOL    HW120855   1.047   4.709   0.209
 6652SOL    HW220856   0.897   4.667   0.162
 6653SOL     OW20857   5.348   3.559   0.709
 6653SOL    HW120858   5.362   3.654   0.682
 6653SOL    HW220859   5.332   3.554   0.807
 6654SOL     OW20860   0.402   4.247   3.152
 6654SOL    HW120861   0.443   4.337   3.170
 6654SOL    HW220862   0.431   4.182   3.222
 6655SOL     OW20863   6.882   5.521   1.563
 6655SOL    HW120864   6.966   5.539   1.615
 6655SOL    HW220865   6.900   5.536   1.465
 6656SOL     OW20866   3.921   1.281   2.969
 6656SOL    HW120867   3.899   1.223   2.891
 6656SOL    HW220868   3.870   1.367   2.962
 6657SOL     OW20869   5.529   1.891   4.160
 6657SOL    HW120870   5.512   1.903   4.257
 6657SOL    HW220871   5.496   1.971   4.110
 6658SOL     OW20872   6.198   6.179   4.778
 6658SOL    HW120873   6.177   6.222   4.690
 6658SOL    HW220874   6.238   6.247   4.840
 6659SOL     OW20875   1.313   5.492   1.856
 6659SOL    HW120876   1.300   5.414   1.918
 6659SOL    HW220877   1.229   5.547   1.854
 6660SOL     OW20878   0.073   6.497   3.659
 6660SOL    HW120879   7.008   6.492   3.712
 6660SOL    HW220880   0.071   6.577   3.600
 6661SOL     OW20881   3.725   6.849   4.202
 6661SOL    HW120882   3.818   6.811   4.202
 6661SOL    HW220883   3.680   6.827   4.116
 6662SOL     OW20884   2.919   6.725   2.043
 6662SOL    HW120885   2.827   6.695   2.015
 6662SOL    HW220886   2.982   6.647   2.038
 6663SOL     OW20887   1.459   3.931   5.851
 6663SOL    HW120888   1.483   3.855   5.911
 6663SOL    HW220889   1.398   3.994   5.900
 6664SOL     OW20890   2.996   0.556   1.478
 6664SOL    HW120891   3.013   0.479   1.416
 6664SOL    HW220892   3.056   0.632   1.453
 6665SOL     OW20893   2.339   0.592   5.710
 6665SOL    HW120894   2.294   0.621   5.625
 6665SOL    HW220895   2.277   0.604   5.787
 6666SOL     OW20896   4.867   6.487   4.998
 6666SOL    HW120897   4.865   6.587   5.000
 6666SOL    HW220898   4.909   6.453   5.082
 6667SOL     OW20899   0.331   6.197   6.412
 6667SOL    HW120900   0.386   6.197   6.329
 6667SOL    HW220901   0.322   6.103   6.446
 6668SOL     OW20902   6.993   5.846   0.702
 6668SOL    HW120903   7.019   5.942   0.716
 6668SOL    HW220904   6.908   5.828   0.751
 6669SOL     OW20905   1.264   1.471   2.875
 6669SOL    HW120906   1.288   1.491   2.970
 6669SOL    HW220907   1.260   1.372   2.862
 6670SOL     OW20908   3.899   2.341   0.973
 6670SOL    HW120909   3.899   2.295   0.884
 6670SOL    HW220910   3.861   2.279   1.042
 6671SOL     OW20911   4.983   5.673   0.034
 6671SOL    HW120912   5.023   5.610   6.988
 6671SOL    HW220913   5.042   5.753   0.045
 6672SOL     OW20914   1.315   1.898   1.181
 6672SOL    HW120915   1.343   1.814   1.135
 6672SOL    HW220916   1.215   1.907   1.175
 6673SOL     OW20917   5.785   3.954   4.440
 6673SOL    HW120918   5.808   4.035   4.493
 6673SOL    HW220919   5.702   3.971   4.386
 6674SOL     OW20920   0.367   2.690   0.279
 6674SOL    HW120921   0.382   2.784   0.249
 6674SOL    HW220922   0.318   2.639   0.208
 6675SOL     OW20923   5.003   2.873   6.568
 6675SOL    HW120924   4.971   2.919   6.651
 6675SOL    HW220925   4.925   2.856   6.507
 6676SOL     OW20926   1.507   3.641   3.906
 6676SOL    HW120927   1.537   3.601   3.820
 6676SOL    HW220928   1.587   3.674   3.957
 6677SOL     OW20929   0.461   2.064   0.554
 6677SOL    HW120930   0.377   2.076   0.501
 6677SOL    HW220931   0.456   2.117   0.638
 6678SOL     OW20932   1.695   4.934   0.248
 6678SOL    HW120933   1.639   4.855   0.273
 6678SOL    HW220934   1.636   5.013   0.230
 6679SOL     OW20935   2.034   1.396   3.759
 6679SOL    HW120936   2.084   1.471   3.803
 6679SOL    HW220937   1.943   1.427   3.732
 6680SOL     OW20938   5.424   6.543   0.589
 6680SOL    HW120939   5.334   6.525   0.628
 6680SOL    HW220940   5.420   6.626   0.533
 6681SOL     OW20941   3.760   5.882   1.322
 6681SOL    HW120942   3.722   5.972   1.305
 6681SOL    HW220943   3.808   5.882   1.410
 6682SOL     OW20944   3.370   5.327   6.686
 6682SOL    HW120945   3.469   5.316   6.672
 6682SOL    HW220946   3.351   5.419   6.719
 6683SOL     OW20947   6.396   3.368   6.554
 6683SOL    HW120948   6.361   3.299   6.490
 6683SOL    HW220949   6.420   3.451   6.503
 6684SOL     OW20950   3.447   6.642   1.304
 6684SOL    HW120951   3.535   6.676   1.338
 6684SOL    HW220952   3.387   6.623   1.381
 6685SOL     OW20953   4.449   3.757   6.870
 6685SOL    HW120954   4.521   3.688   6.877
 6685SOL    HW220955   4.390   3.736   6.792
 6686SOL     OW20956   5.215   5.521   3.738
 6686SOL    HW120957   5.175   5.608   3.765
 6686SOL    HW220958   5.315   5.525   3.746
 6687SOL     OW20959   6.488   2.086   1.478
 6687SOL    HW120960   6.406   2.099   1.534
 6687SOL    HW220961   6.559   2.150   1.508
 6688SOL     OW20962   3.801   5.416   0.763
 6688SOL    HW120963   3.703   5.396   0.758
 6688SOL    HW220964   3.841   5.408   0.672
 6689SOL     OW20965   2.612   5.139   5.920
 6689SOL    HW120966   2.599   5.237   5.928
 6689SOL    HW220967   2.705   5.115   5.949
 6690SOL     OW20968   1.090   0.146   6.051
 6690SOL    HW120969   1.164   0.082   6.031
 6690SOL    HW220970   1.003   0.097   6.057
 6691SOL     OW20971   2.497   2.360   2.797
 6691SOL    HW120972   2.520   2.269   2.831
 6691SOL    HW220973   2.456   2.353   2.706
 6692SOL     OW20974   4.878   5.192   1.461
 6692SOL    HW120975   4.915   5.198   1.553
 6692SOL    HW220976   4.953   5.195   1.395
 6693SOL     OW20977   4.099   1.660   4.670
 6693SOL    HW120978   4.105   1.679   4.572
 6693SOL    HW220979   4.152   1.578   4.691
 6694SOL     OW20980   4.084   5.197   0.476
 6694SOL    HW120981   4.128   5.132   0.413
 6694SOL    HW220982   3.989   5.171   0.491
 6695SOL     OW20983   2.665   2.276   6.505
 6695SOL    HW120984   2.677   2.375   6.496
 6695SOL    HW220985   2.744   2.237   6.553
 6696SOL     OW20986   3.750   3.813   4.443
 6696SOL    HW120987   3.660   3.770   4.451
 6696SOL    HW220988   3.779   3.811   4.347
 6697SOL     OW20989   4.622   2.566   2.367
 6697SOL    HW120990   4.717   2.545   2.389
 6697SOL    HW220991   4.572   2.481   2.350
 6698SOL     OW20992   3.724   4.143   1.624
 6698SOL    HW120993   3.789   4.213   1.593
 6698SOL    HW220994   3.710   4.151   1.723
 6699SOL     OW20995   1.169   4.270   5.239
 6699SOL    HW120996   1.216   4.355   5.213
 6699SOL    HW220997   1.105   4.290   5.313
 6700SOL     OW20998   6.172   0.280   0.350
 6700SOL    HW120999   6.141   0.197   0.303
 6700SOL    HW221000   6.106   0.354   0.333
 6701SOL     OW21001   6.078   6.690   1.264
 6701SOL    HW121002   6.106   6.723   1.174
 6701SOL    HW221003   5.986   6.725   1.284
 6702SOL     OW21004   3.287   1.855   1.054
 6702SOL    HW121005   3.380   1.883   1.077
 6702SOL    HW221006   3.242   1.928   1.001
 6703SOL     OW21007   1.218   1.716   6.322
 6703SOL    HW121008   1.248   1.811   6.332
 6703SOL    HW221009   1.283   1.666   6.265
 6704SOL     OW21010   3.543   1.075   5.474
 6704SOL    HW121011   3.499   1.004   5.530
 6704SOL    HW221012   3.486   1.157   5.474
 6705SOL     OW21013   6.331   3.596   1.983
 6705SOL    HW121014   6.290   3.594   1.892
 6705SOL    HW221015   6.431   3.586   1.974
 6706SOL     OW21016   7.002   6.458   1.930
 6706SOL    HW121017   6.946   6.502   1.860
 6706SOL    HW221018   0.029   6.379   1.890
 6707SOL     OW21019   5.820   0.658   2.356
 6707SOL    HW121020   5.744   0.651   2.420
 6707SOL    HW221021   5.795   0.613   2.270
 6708SOL     OW21022   0.189   3.882   1.587
 6708SOL    HW121023   0.197   3.810   1.518
 6708SOL    HW221024   0.108   3.938   1.568
 6709SOL     OW21025   1.192   5.010   2.321
 6709SOL    HW121026   1.213   4.956   2.240
 6709SOL    HW221027   1.094   5.010   2.337
 6710SOL     OW21028   4.687   1.370   1.590
 6710SOL    HW121029   4.751   1.317   1.645
 6710SOL    HW221030   4.664   1.319   1.507
 6711SOL     OW21031   4.449   6.278   6.174
 6711SOL    HW121032   4.386   6.200   6.175
 6711SOL    HW221033   4.490   6.288   6.264
 6712SOL     OW21034   6.118   3.670   0.865
 6712SOL    HW121035   6.098   3.584   0.912
 6712SOL    HW221036   6.076   3.745   0.915
 6713SOL     OW21037   1.729   0.142   4.400
 6713SOL    HW121038   1.662   0.208   4.433
 6713SOL    HW221039   1.703   0.050   4.432
 6714SOL     OW21040   5.994   1.210   0.339
 6714SOL    HW121041   5.899   1.194   0.369
 6714SOL    HW221042   6.000   1.197   0.240
 6715SOL     OW21043   1.342   0.213   0.305
 6715SOL    HW121044   1.243   0.219   0.294
 6715SOL    HW221045   1.366   0.121   0.336
 6716SOL     OW21046   6.710   5.177   2.162
 6716SOL    HW121047   6.674   5.093   2.121
 6716SOL    HW221048   6.740   5.158   2.255
 6717SOL     OW21049   4.257   2.769   6.401
 6717SOL    HW121050   4.224   2.846   6.347
 6717SOL    HW221051   4.183   2.703   6.416
 6718SOL     OW21052   2.856   6.892   2.401
 6718SOL    HW121053   2.892   6.982   2.426
 6718SOL    HW221054   2.881   6.826   2.472
 6719SOL     OW21055   1.872   0.697   6.889
 6719SOL    HW121056   1.842   0.699   6.985
 6719SOL    HW221057   1.828   0.621   6.842
 6720SOL     OW21058   2.086   0.555   5.886
 6720SOL    HW121059   2.097   0.456   5.875
 6720SOL    HW221060   2.046   0.575   5.975
 6721SOL     OW21061   0.365   1.313   0.842
 6721SOL    HW121062   0.450   1.311   0.789
 6721SOL    HW221063   0.288   1.329   0.781
 6722SOL     OW21064   6.292   3.325   0.210
 6722SOL    HW121065   6.343   3.257   0.264
 6722SOL    HW221066   6.202   3.338   0.251
 6723SOL     OW21067   1.646   1.956   6.519
 6723SOL    HW121068   1.691   1.890   6.458
 6723SOL    HW221069   1.560   1.917   6.552
 6724SOL     OW21070   2.093   3.556   5.818
 6724SOL    HW121071   2.091   3.651   5.788
 6724SOL    HW221072   2.093   3.496   5.739
 6725SOL     OW21073   6.029   2.822   3.348
 6725SOL    HW121074   6.056   2.726   3.344
 6725SOL    HW221075   6.024   2.851   3.443
 6726SOL     OW21076   7.004   1.090   5.646
 6726SOL    HW121077   6.980   1.002   5.688
 6726SOL    HW221078   0.044   1.074   5.567
 6727SOL     OW21079   1.190   4.541   5.859
 6727SOL    HW121080   1.230   4.460   5.815
 6727SOL    HW221081   1.219   4.543   5.955
 6728SOL     OW21082   3.901   1.927   3.762
 6728SOL    HW121083   3.867   1.841   3.723
 6728SOL    HW221084   3.825   1.975   3.806
 6729SOL     OW21085   5.142   1.805   0.911
 6729SOL    HW121086   5.095   1.797   0.998
 6729SOL    HW221087   5.089   1.864   0.849
 6730SOL     OW21088   1.048   0.919   1.366
 6730SOL    HW121089   1.055   0.853   1.291
 6730SOL    HW221090   1.006   1.003   1.332
 6731SOL     OW21091   3.260   6.399   0.422
 6731SOL    HW121092   3.252   6.498   0.432
 6731SOL    HW221093   3.315   6.378   0.341
 6732SOL     OW21094   5.863   5.510   4.186
 6732SOL    HW121095   5.841   5.592   4.133
 6732SOL    HW221096   5.914   5.446   4.128
 6733SOL     OW21097   3.531   5.223   6.361
 6733SOL    HW121098   3.609   5.281   6.386
 6733SOL    HW221099   3.451   5.281   6.345
 6734SOL     OW21100   5.388   1.239   4.894
 6734SOL    HW121101   5.442   1.180   4.833
 6734SOL    HW221102   5.303   1.192   4.919
 6735SOL     OW21103   6.229   3.360   3.519
 6735SOL    HW121104   6.184   3.355   3.430
 6735SOL    HW221105   6.166   3.327   3.589
 6736SOL     OW21106   3.352   3.739   1.195
 6736SOL    HW121107   3.284   3.795   1.241
 6736SOL    HW221108   3.342   3.750   1.096
 6737SOL     OW21109   1.457   3.067   1.269
 6737SOL    HW121110   1.378   3.019   1.233
 6737SOL    HW221111   1.431   3.161   1.292
 6738SOL     OW21112   2.021   5.733   3.095
 6738SOL    HW121113   2.117   5.743   3.068
 6738SOL    HW221114   1.970   5.813   3.064
 6739SOL     OW21115   0.017   0.199   4.262
 6739SOL    HW121116   6.970   0.144   4.211
 6739SOL    HW221117   6.988   0.266   4.319
 6740SOL     OW21118   6.451   6.868   4.227
 6740SOL    HW121119   6.503   6.931   4.285
 6740SOL    HW221120   6.353   6.883   4.241
 6741SOL     OW21121   4.650   1.970   5.600
 6741SOL    HW121122   4.634   1.942   5.505
 6741SOL    HW221123   4.656   2.070   5.605
 6742SOL     OW21124   5.615   4.764   3.388
 6742SOL    HW121125   5.570   4.752   3.476
 6742SOL    HW221126   5.674   4.685   3.370
 6743SOL     OW21127   4.023   4.284   0.445
 6743SOL    HW121128   3.997   4.331   0.529
 6743SOL    HW221129   4.109   4.235   0.460
 6744SOL     OW21130   6.503   5.323   5.997
 6744SOL    HW121131   6.565   5.245   5.991
 6744SOL    HW221132   6.555   5.405   6.024
 6745SOL     OW21133   0.010   6.541   4.346
 6745SOL    HW121134   7.011   6.502   4.436
 6745SOL    HW221135   0.105   6.522   4.320
 6746SOL     OW21136   1.559   1.097   2.825
 6746SOL    HW121137   1.580   1.023   2.760
 6746SOL    HW221138   1.643   1.148   2.845
 6747SOL     OW21139   1.477   6.936   6.756
 6747SOL    HW121140   1.447   0.010   6.735
 6747SOL    HW221141   1.572   6.924   6.726
 6748SOL     OW21142   2.166   1.824   4.045
 6748SOL    HW121143   2.251   1.817   4.098
 6748SOL    HW221144   2.108   1.894   4.085
 6749SOL     OW21145   3.293   4.354   0.684
 6749SOL    HW121146   3.307   4.324   0.589
 6749SOL    HW221147   3.249   4.444   0.684
 6750SOL     OW21148   3.160   1.925   4.822
 6750SOL    HW121149   3.213   1.841   4.813
 6750SOL    HW221150   3.217   1.998   4.858
 6751SOL     OW21151   4.223   0.060   3.580
 6751SOL    HW121152   4.268   6.990   3.579
 6751SOL    HW221153   4.182   0.076   3.669
 6752SOL     OW21154   1.778   6.216   2.966
 6752SOL    HW121155   1.776   6.311   2.997
 6752SOL    HW221156   1.808   6.213   2.871
 6753SOL     OW21157   3.641   2.684   5.293
 6753SOL    HW121158   3.678   2.748   5.225
 6753SOL    HW221159   3.543   2.673   5.277
 6754SOL     OW21160   6.001   1.504   1.274
 6754SOL    HW121161   5.913   1.472   1.308
 6754SOL    HW221162   6.073   1.481   1.339
 6755SOL     OW21163   2.899   4.909   0.485
 6755SOL    HW121164   2.869   4.829   0.538
 6755SOL    HW221165   2.980   4.885   0.431
 6756SOL     OW21166   2.116   2.315   5.537
 6756SOL    HW121167   2.151   2.221   5.534
 6756SOL    HW221168   2.094   2.339   5.631
 6757SOL     OW21169   3.803   0.713   0.469
 6757SOL    HW121170   3.810   0.722   0.370
 6757SOL    HW221171   3.734   0.778   0.504
 6758SOL     OW21172   5.646   2.863   1.498
 6758SOL    HW121173   5.644   2.872   1.598
 6758SOL    HW221174   5.738   2.837   1.468
 6759SOL     OW21175   0.087   3.527   3.108
 6759SOL    HW121176   0.102   3.472   3.191
 6759SOL    HW221177   0.096   3.468   3.028
 6760SOL     OW21178   5.350   2.963   3.066
 6760SOL    HW121179   5.375   2.934   2.973
 6760SOL    HW221180   5.280   3.034   3.061
 6761SOL     OW21181   4.904   2.116   4.641
 6761SOL    HW121182   4.981   2.126   4.703
 6761SOL    HW221183   4.845   2.041   4.672
 6762SOL     OW21184   6.370   5.671   3.678
 6762SOL    HW121185   6.442   5.608   3.707
 6762SOL    HW221186   6.284   5.621   3.666
 6763SOL     OW21187   4.399   5.176   5.006
 6763SOL    HW121188   4.409   5.257   4.948
 6763SOL    HW221189   4.468   5.179   5.078
 6764SOL     OW21190   1.484   5.759   1.951
 6764SOL    HW121191   1.536   5.807   2.022
 6764SOL    HW221192   1.412   5.704   1.993
 6765SOL     OW21193   6.293   4.898   3.298
 6765SOL    HW121194   6.332   4.815   3.339
 6765SOL    HW221195   6.316   4.977   3.354
 6766SOL     OW21196   4.916   6.212   0.685
 6766SOL    HW121197   4.817   6.206   0.695
 6766SOL    HW221198   4.939   6.250   0.595
 6767SOL     OW21199   2.495   0.648   0.687
 6767SOL    HW121200   2.452   0.737   0.701
 6767SOL    HW221201   2.576   0.641   0.745
 6768SOL     OW21202   2.041   1.046   0.267
 6768SOL    HW121203   1.943   1.062   0.253
 6768SOL    HW221204   2.093   1.102   0.202
 6769SOL     OW21205   3.572   2.490   0.997
 6769SOL    HW121206   3.591   2.445   0.909
 6769SOL    HW221207   3.658   2.505   1.046
 6770SOL     OW21208   6.955   0.934   1.674
 6770SOL    HW121209   6.937   0.947   1.576
 6770SOL    HW221210   6.960   1.024   1.718
 6771SOL     OW21211   4.380   2.064   2.704
 6771SOL    HW121212   4.339   2.155   2.706
 6771SOL    HW221213   4.352   2.013   2.785
 6772SOL     OW21214   3.149   1.480   2.558
 6772SOL    HW121215   3.138   1.507   2.462
 6772SOL    HW221216   3.103   1.548   2.616
 6773SOL     OW21217   6.811   3.907   1.862
 6773SOL    HW121218   6.726   3.856   1.853
 6773SOL    HW221219   6.858   3.910   1.774
 6774SOL     OW21220   0.667   2.797   6.481
 6774SOL    HW121221   0.568   2.781   6.484
 6774SOL    HW221222   0.694   2.820   6.388
 6775SOL     OW21223   2.956   3.547   0.902
 6775SOL    HW121224   2.889   3.574   0.833
 6775SOL    HW221225   3.012   3.472   0.866
 6776SOL     OW21226   4.817   4.504   0.495
 6776SOL    HW121227   4.752   4.439   0.533
 6776SOL    HW221228   4.893   4.455   0.451
 6777SOL     OW21229   3.972   4.717   6.326
 6777SOL    HW121230   3.986   4.628   6.283
 6777SOL    HW221231   4.057   4.747   6.370
 6778SOL     OW21232   0.620   4.187   2.289
 6778SOL    HW121233   0.540   4.163   2.233
 6778SOL    HW221234   0.614   4.140   2.377
 6779SOL     OW21235   6.637   4.487   0.164
 6779SOL    HW121236   6.724   4.464   0.122
 6779SOL    HW221237   6.567   4.423   0.132
 6780SOL     OW21238   0.869   2.464   2.537
 6780SOL    HW121239   0.845   2.536   2.472
 6780SOL    HW221240   0.821   2.480   2.624
 6781SOL     OW21241   5.429   6.393   5.544
 6781SOL    HW121242   5.501   6.462   5.539
 6781SOL    HW221243   5.400   6.369   5.451
 6782SOL     OW21244   0.569   1.155   2.433
 6782SOL    HW121245   0.476   1.157   2.467
 6782SOL    HW221246   0.632   1.190   2.503
 6783SOL     OW21247   0.201   6.255   5.757
 6783SOL    HW121248   0.259   6.275   5.678
 6783SOL    HW221249   0.149   6.336   5.782
 6784SOL     OW21250   3.774   4.004   6.989
 6784SOL    HW121251   3.848   4.009   0.036
 6784SOL    HW221252   3.794   4.064   6.911
 6785SOL     OW21253   5.902   4.942   1.951
 6785SOL    HW121254   5.855   5.001   1.886
 6785SOL    HW221255   5.894   4.981   2.043
 6786SOL     OW21256   1.363   2.301   6.727
 6786SOL    HW121257   1.413   2.388   6.734
 6786SOL    HW221258   1.406   2.244   6.658
 6787SOL     OW21259   2.010   3.930   1.169
 6787SOL    HW121260   1.918   3.943   1.206
 6787SOL    HW221261   2.027   3.998   1.097
 6788SOL     OW21262   2.794   3.942   1.649
 6788SOL    HW121263   2.872   3.913   1.705
 6788SOL    HW221264   2.753   3.862   1.606
 6789SOL     OW21265   0.036   6.908   2.432
 6789SOL    HW121266   0.019   6.966   2.352
 6789SOL    HW221267   0.113   6.847   2.412
 6790SOL     OW21268   2.167   3.648   0.367
 6790SOL    HW121269   2.119   3.628   0.452
 6790SOL    HW221270   2.211   3.737   0.373
 6791SOL     OW21271   4.247   2.343   0.901
 6791SOL    HW121272   4.195   2.392   0.971
 6791SOL    HW221273   4.315   2.404   0.861
 6792SOL     OW21274   6.393   5.734   6.338
 6792SOL    HW121275   6.376   5.683   6.422
 6792SOL    HW221276   6.466   5.801   6.354
 6793SOL     OW21277   0.950   2.077   0.553
 6793SOL    HW121278   1.036   2.041   0.517
 6793SOL    HW221279   0.961   2.098   0.650
 6794SOL     OW21280   5.002   0.887   4.252
 6794SOL    HW121281   5.007   0.947   4.331
 6794SOL    HW221282   4.966   0.937   4.173
 6795SOL     OW21283   2.842   5.637   0.642
 6795SOL    HW121284   2.763   5.698   0.641
 6795SOL    HW221285   2.869   5.616   0.548
 6796SOL     OW21286   5.944   1.172   2.332
 6796SOL    HW121287   5.937   1.073   2.340
 6796SOL    HW221288   5.858   1.214   2.363
 6797SOL     OW21289   5.220   3.784   2.038
 6797SOL    HW121290   5.181   3.694   2.020
 6797SOL    HW221291   5.222   3.800   2.137
 6798SOL     OW21292   5.524   5.100   2.880
 6798SOL    HW121293   5.479   5.071   2.795
 6798SOL    HW221294   5.527   5.200   2.882
 6799SOL     OW21295   5.210   5.776   0.515
 6799SOL    HW121296   5.300   5.819   0.517
 6799SOL    HW221297   5.214   5.689   0.565
 6800SOL     OW21298   2.151   4.468   0.389
 6800SOL    HW121299   2.084   4.451   0.317
 6800SOL    HW221300   2.143   4.398   0.460
 6801SOL     OW21301   1.445   1.494   2.261
 6801SOL    HW121302   1.382   1.489   2.339
 6801SOL    HW221303   1.436   1.411   2.207
 6802SOL     OW21304   2.325   5.872   0.973
 6802SOL    HW121305   2.327   5.939   1.048
 6802SOL    HW221306   2.396   5.803   0.988
 6803SOL     OW21307   4.788   2.439   6.241
 6803SOL    HW121308   4.847   2.400   6.312
 6803SOL    HW221309   4.715   2.375   6.219
 6804SOL     OW21310   1.987   6.101   3.186
 6804SOL    HW121311   2.072   6.119   3.137
 6804SOL    HW221312   1.909   6.118   3.125
 6805SOL     OW21313   5.604   6.559   4.761
 6805SOL    HW121314   5.565   6.514   4.680
 6805SOL    HW221315   5.558   6.646   4.776
 6806SOL     OW21316   4.710   1.149   4.330
 6806SOL    HW121317   4.764   1.220   4.285
 6806SOL    HW221318   4.759   1.116   4.411
 6807SOL     OW21319   2.436   3.128   0.009
 6807SOL    HW121320   2.379   3.074   0.071
 6807SOL    HW221321   2.526   3.143   0.051
 6808SOL     OW21322   0.605   3.290   5.297
 6808SOL    HW121323   0.660   3.233   5.358
 6808SOL    HW221324   0.541   3.233   5.246
 6809SOL     OW21325   1.678   4.492   6.714
 6809SOL    HW121326   1.583   4.506   6.740
 6809SOL    HW221327   1.736   4.500   6.795
 6810SOL     OW21328   1.199   0.598   2.199
 6810SOL    HW121329   1.278   0.601   2.261
 6810SOL    HW221330   1.188   0.687   2.155
 6811SOL     OW21331   5.868   4.084   0.509
 6811SOL    HW121332   5.933   4.086   0.585
 6811SOL    HW221333   5.917   4.100   0.423
 6812SOL     OW21334   4.080   3.471   3.358
 6812SOL    HW121335   4.177   3.448   3.354
 6812SOL    HW221336   4.039   3.428   3.438
 6813SOL     OW21337   5.079   1.723   1.541
 6813SOL    HW121338   5.005   1.670   1.584
 6813SOL    HW221339   5.049   1.818   1.529
 6814SOL     OW21340   3.355   2.726   1.218
 6814SOL    HW121341   3.351   2.783   1.300
 6814SOL    HW221342   3.384   2.783   1.140
 6815SOL     OW21343   3.065   6.825   1.343
 6815SOL    HW121344   2.979   6.775   1.351
 6815SOL    HW221345   3.073   6.862   1.250
 6816SOL     OW21346   6.273   5.122   6.938
 6816SOL    HW121347   6.229   5.203   6.977
 6816SOL    HW221348   6.299   5.060   7.012
 6817SOL     OW21349   6.489   1.775   5.456
 6817SOL    HW121350   6.424   1.784   5.381
 6817SOL    HW221351   6.559   1.846   5.447
 6818SOL     OW21352   3.342   6.263   1.841
 6818SOL    HW121353   3.363   6.244   1.745
 6818SOL    HW221354   3.402   6.336   1.874
 6819SOL     OW21355   2.814   0.935   3.673
 6819SOL    HW121356   2.834   0.948   3.575
 6819SOL    HW221357   2.894   0.961   3.727
 6820SOL     OW21358   0.870   4.692   3.664
 6820SOL    HW121359   0.900   4.623   3.729
 6820SOL    HW221360   0.891   4.663   3.571
 6821SOL     OW21361   2.444   2.123   5.227
 6821SOL    HW121362   2.504   2.108   5.306
 6821SOL    HW221363   2.498   2.114   5.143
 6822SOL     OW21364   5.668   1.489   6.016
 6822SOL    HW121365   5.756   1.443   6.004
 6822SOL    HW221366   5.620   1.492   5.928
 6823SOL     OW21367   3.672   3.824   3.973
 6823SOL    HW121368   3.721   3.737   3.986
 6823SOL    HW221369   3.616   3.819   3.890
 6824SOL     OW21370   0.154   3.365   6.498
 6824SOL    HW121371   0.243   3.356   6.543
 6824SOL    HW221372   0.165   3.415   6.412
 6825SOL     OW21373   5.196   0.293   2.445
 6825SOL    HW121374   5.211   0.202   2.483
 6825SOL    HW221375   5.140   0.346   2.507
 6826SOL     OW21376   2.148   3.597   2.627
 6826SOL    HW121377   2.128   3.521   2.565
 6826SOL    HW221378   2.247   3.613   2.630
 6827SOL     OW21379   4.488   5.604   0.116
 6827SOL    HW121380   4.518   5.539   0.046
 6827SOL    HW221381   4.389   5.618   0.108
 6828SOL     OW21382   1.219   2.147   1.889
 6828SOL    HW121383   1.217   2.236   1.843
 6828SOL    HW221384   1.235   2.075   1.821
 6829SOL     OW21385   5.367   6.591   3.540
 6829SOL    HW121386   5.408   6.507   3.506
 6829SOL    HW221387   5.333   6.646   3.464
 6830SOL     OW21388   5.366   1.402   2.975
 6830SOL    HW121389   5.374   1.366   2.882
 6830SOL    HW221390   5.437   1.472   2.989
 6831SOL     OW21391   0.677   0.573   6.412
 6831SOL    HW121392   0.679   0.509   6.335
 6831SOL    HW221393   0.583   0.595   6.435
 6832SOL     OW21394   2.764   4.433   1.564
 6832SOL    HW121395   2.811   4.451   1.651
 6832SOL    HW221396   2.774   4.336   1.540
 6833SOL     OW21397   3.849   5.216   6.798
 6833SOL    HW121398   3.847   5.117   6.811
 6833SOL    HW221399   3.923   5.240   6.735
 6834SOL     OW21400   4.532   6.915   1.634
 6834SOL    HW121401   4.555   6.858   1.713
 6834SOL    HW221402   4.449   6.881   1.591
 6835SOL     OW21403   3.811   0.318   4.878
 6835SOL    HW121404   3.730   0.298   4.934
 6835SOL    HW221405   3.822   0.418   4.872
 6836SOL     OW21406   2.991   6.343   0.540
 6836SOL    HW121407   2.951   6.251   0.538
 6836SOL    HW221408   3.090   6.336   0.526
 6837SOL     OW21409   1.808   3.312   1.832
 6837SOL    HW121410   1.830   3.227   1.880
 6837SOL    HW221411   1.747   3.292   1.755
 6838SOL     OW21412   2.171   1.000   0.520
 6838SOL    HW121413   2.270   1.006   0.520
 6838SOL    HW221414   2.137   1.003   0.426
 6839SOL     OW21415   4.698   1.174   0.951
 6839SOL    HW121416   4.771   1.187   1.018
 6839SOL    HW221417   4.738   1.141   0.865
 6840SOL     OW21418   2.510   1.688   5.886
 6840SOL    HW121419   2.603   1.726   5.888
 6840SOL    HW221420   2.462   1.713   5.970
 6841SOL     OW21421   6.342   3.535   6.085
 6841SOL    HW121422   6.395   3.478   6.023
 6841SOL    HW221423   6.246   3.509   6.081
 6842SOL     OW21424   1.901   4.963   1.618
 6842SOL    HW121425   1.955   5.005   1.691
 6842SOL    HW221426   1.921   4.865   1.614
 6843SOL     OW21427   5.402   6.839   6.489
 6843SOL    HW121428   5.462   6.813   6.413
 6843SOL    HW221429   5.307   6.827   6.463
 6844SOL     OW21430   5.270   1.012   3.779
 6844SOL    HW121431   5.270   0.923   3.824
 6844SOL    HW221432   5.357   1.027   3.733
 6845SOL     OW21433   4.882   2.745   2.952
 6845SOL    HW121434   4.888   2.724   3.050
 6845SOL    HW221435   4.811   2.813   2.937
 6846SOL     OW21436   2.957   4.101   0.181
 6846SOL    HW121437   3.043   4.053   0.161
 6846SOL    HW221438   2.946   4.178   0.119
 6847SOL     OW21439   6.241   4.206   4.613
 6847SOL    HW121440   6.225   4.117   4.655
 6847SOL    HW221441   6.297   4.262   4.675
 6848SOL     OW21442   5.367   3.813   4.205
 6848SOL    HW121443   5.450   3.869   4.201
 6848SOL    HW221444   5.365   3.750   4.128
 6849SOL     OW21445   3.725   3.935   5.742
 6849SOL    HW121446   3.813   3.954   5.786
 6849SOL    HW221447   3.706   4.005   5.673
 6850SOL     OW21448   4.265   2.150   3.388
 6850SOL    HW121449   4.352   2.129   3.432
 6850SOL    HW221450   4.190   2.129   3.450
 6851SOL     OW21451   2.324   2.831   2.559
 6851SOL    HW121452   2.325   2.926   2.528
 6851SOL    HW221453   2.311   2.829   2.658
 6852SOL     OW21454   2.577   5.703   1.007
 6852SOL    HW121455   2.586   5.679   1.104
 6852SOL    HW221456   2.667   5.701   0.964
 6853SOL     OW21457   5.513   3.559   6.392
 6853SOL    HW121458   5.516   3.632   6.323
 6853SOL    HW221459   5.541   3.596   6.481
 6854SOL     OW21460   5.233   6.324   5.913
 6854SOL    HW121461   5.235   6.313   5.814
 6854SOL    HW221462   5.142   6.356   5.940
 6855SOL     OW21463   3.716   5.309   3.459
 6855SOL    HW121464   3.816   5.313   3.464
 6855SOL    HW221465   3.682   5.390   3.412
 6856SOL     OW21466   0.636   2.547   6.263
 6856SOL    HW121467   0.587   2.462   6.281
 6856SOL    HW221468   0.724   2.546   6.312
 6857SOL     OW21469   1.238   3.128   6.777
 6857SOL    HW121470   1.203   3.090   6.863
 6857SOL    HW221471   1.337   3.145   6.786
 6858SOL     OW21472   3.320   4.239   1.819
 6858SOL    HW121473   3.231   4.263   1.781
 6858SOL    HW221474   3.392   4.271   1.758
 6859SOL     OW21475   0.487   1.474   1.931
 6859SOL    HW121476   0.579   1.447   1.959
 6859SOL    HW221477   0.429   1.486   2.011
 6860SOL     OW21478   6.629   5.462   1.786
 6860SOL    HW121479   6.555   5.396   1.772
 6860SOL    HW221480   6.716   5.421   1.758
 6861SOL     OW21481   4.970   3.451   5.454
 6861SOL    HW121482   4.974   3.544   5.418
 6861SOL    HW221483   4.882   3.410   5.431
 6862SOL     OW21484   0.664   4.786   6.352
 6862SOL    HW121485   0.755   4.829   6.350
 6862SOL    HW221486   0.654   4.725   6.274
 6863SOL     OW21487   6.609   6.323   4.812
 6863SOL    HW121488   6.707   6.309   4.826
 6863SOL    HW221489   6.575   6.394   4.873
 6864SOL     OW21490   1.776   3.652   5.992
 6864SOL    HW121491   1.764   3.701   6.078
 6864SOL    HW221492   1.821   3.713   5.926
 6865SOL     OW21493   1.383   0.624   4.649
 6865SOL    HW121494   1.415   0.718   4.639
 6865SOL    HW221495   1.283   0.623   4.648
 6866SOL     OW21496   6.663   4.545   2.230
 6866SOL    HW121497   6.609   4.464   2.207
 6866SOL    HW221498   6.759   4.519   2.240
 6867SOL     OW21499   1.956   3.713   0.551
 6867SOL    HW121500   1.919   3.723   0.643
 6867SOL    HW221501   1.882   3.718   0.484
 6868SOL     OW21502   1.765   5.500   5.215
 6868SOL    HW121503   1.839   5.568   5.219
 6868SOL    HW221504   1.725   5.498   5.123
 6869SOL     OW21505   3.264   6.879   5.473
 6869SOL    HW121506   3.334   6.939   5.513
 6869SOL    HW221507   3.264   6.791   5.520
 6870SOL     OW21508   0.475   3.073   0.574
 6870SOL    HW121509   0.492   3.072   0.672
 6870SOL    HW221510   0.471   2.979   0.540
 6871SOL     OW21511   6.443   3.599   2.275
 6871SOL    HW121512   6.446   3.505   2.309
 6871SOL    HW221513   6.348   3.628   2.264
 6872SOL     OW21514   1.269   2.751   1.907
 6872SOL    HW121515   1.267   2.817   1.981
 6872SOL    HW221516   1.282   2.659   1.945
 6873SOL     OW21517   1.425   4.414   4.555
 6873SOL    HW121518   1.428   4.486   4.486
 6873SOL    HW221519   1.336   4.414   4.600
 6874SOL     OW21520   5.711   5.881   2.937
 6874SOL    HW121521   5.714   5.958   3.000
 6874SOL    HW221522   5.803   5.844   2.926
 6875SOL     OW21523   1.525   2.419   1.225
 6875SOL    HW121524   1.485   2.381   1.143
 6875SOL    HW221525   1.625   2.424   1.215
 6876SOL     OW21526   3.460   0.199   3.405
 6876SOL    HW121527   3.504   0.118   3.445
 6876SOL    HW221528   3.396   0.170   3.333
 6877SOL     OW21529   2.185   4.300   1.906
 6877SOL    HW121530   2.180   4.216   1.960
 6877SOL    HW221531   2.231   4.281   1.820
 6878SOL     OW21532   1.761   0.896   3.763
 6878SOL    HW121533   1.848   0.939   3.786
 6878SOL    HW221534   1.709   0.955   3.701
 6879SOL     OW21535   2.001   2.285   0.622
 6879SOL    HW121536   2.021   2.360   0.559
 6879SOL    HW221537   1.902   2.283   0.641
 6880SOL     OW21538   1.684   5.765   6.457
 6880SOL    HW121539   1.735   5.819   6.524
 6880SOL    HW221540   1.745   5.737   6.382
 6881SOL     OW21541   2.045   3.534   0.147
 6881SOL    HW121542   1.952   3.571   0.154
 6881SOL    HW221543   2.103   3.577   0.216
 6882SOL     OW21544   2.733   6.656   0.706
 6882SOL    HW121545   2.718   6.571   0.656
 6882SOL    HW221546   2.745   6.636   0.803
 6883SOL     OW21547   5.014   0.104   6.246
 6883SOL    HW121548   5.088   0.077   6.308
 6883SOL    HW221549   4.928   0.062   6.276
 6884SOL     OW21550   1.761   4.191   2.776
 6884SOL    HW121551   1.742   4.152   2.866
 6884SOL    HW221552   1.753   4.120   2.706
 6885SOL     OW21553   4.554   4.764   3.979
 6885SOL    HW121554   4.624   4.820   3.934
 6885SOL    HW221555   4.464   4.805   3.963
 6886SOL     OW21556   5.372   0.986   5.593
 6886SOL    HW121557   5.394   0.888   5.594
 6886SOL    HW221558   5.281   0.999   5.556
 6887SOL     OW21559   5.119   6.195   6.219
 6887SOL    HW121560   5.120   6.294   6.205
 6887SOL    HW221561   5.202   6.168   6.269
 6888SOL     OW21562   5.419   4.604   6.659
 6888SOL    HW121563   5.344   4.656   6.618
 6888SOL    HW221564   5.470   4.557   6.587
 6889SOL     OW21565   1.087   2.863   5.677
 6889SOL    HW121566   1.011   2.845   5.615
 6889SOL    HW221567   1.116   2.958   5.668
 6890SOL     OW21568   3.843   5.326   2.829
 6890SOL    HW121569   3.895   5.245   2.801
 6890SOL    HW221570   3.838   5.329   2.929
 6891SOL     OW21571   2.426   2.815   1.088
 6891SOL    HW121572   2.403   2.908   1.119
 6891SOL    HW221573   2.409   2.750   1.162
 6892SOL     OW21574   3.132   1.265   4.481
 6892SOL    HW121575   3.140   1.185   4.540
 6892SOL    HW221576   3.223   1.292   4.448
 6893SOL     OW21577   6.264   2.971   6.864
 6893SOL    HW121578   6.356   2.994   6.833
 6893SOL    HW221579   6.246   3.017   6.951
 6894SOL     OW21580   5.400   4.547   0.942
 6894SOL    HW121581   5.320   4.521   0.997
 6894SOL    HW221582   5.382   4.635   0.898
 6895SOL     OW21583   1.476   6.011   0.942
 6895SOL    HW121584   1.420   5.966   1.011
 6895SOL    HW221585   1.504   6.101   0.975
 6896SOL     OW21586   3.627   1.943   4.362
 6896SOL    HW121587   3.565   1.996   4.303
 6896SOL    HW221588   3.654   1.999   4.440
 6897SOL     OW21589   4.969   3.778   4.931
 6897SOL    HW121590   4.914   3.730   4.999
 6897SOL    HW221591   5.043   3.720   4.900
 6898SOL     OW21592   2.279   1.146   1.414
 6898SOL    HW121593   2.330   1.071   1.371
 6898SOL    HW221594   2.281   1.135   1.513
 6899SOL     OW21595   6.074   5.604   2.335
 6899SOL    HW121596   6.130   5.586   2.253
 6899SOL    HW221597   5.982   5.568   2.321
 6900SOL     OW21598   6.913   4.505   6.247
 6900SOL    HW121599   6.970   4.581   6.281
 6900SOL    HW221600   6.926   4.495   6.148
 6901SOL     OW21601   4.177   4.992   6.638
 6901SOL    HW121602   4.112   4.918   6.655
 6901SOL    HW221603   4.250   4.988   6.707
 6902SOL     OW21604   6.832   6.048   6.244
 6902SOL    HW121605   6.902   6.064   6.313
 6902SOL    HW221606   6.849   5.959   6.201
 6903SOL     OW21607   2.889   4.976   5.330
 6903SOL    HW121608   2.823   4.912   5.368
 6903SOL    HW221609   2.895   4.964   5.231
 6904SOL     OW21610   0.627   5.717   4.912
 6904SOL    HW121611   0.621   5.623   4.946
 6904SOL    HW221612   0.653   5.778   4.987
 6905SOL     OW21613   5.247   5.676   6.020
 6905SOL    HW121614   5.312   5.612   6.061
 6905SOL    HW221615   5.250   5.668   5.920
 6906SOL     OW21616   4.159   1.175   3.587
 6906SOL    HW121617   4.252   1.209   3.578
 6906SOL    HW221618   4.156   1.104   3.657
 6907SOL     OW21619   6.287   1.568   1.641
 6907SOL    HW121620   6.236   1.634   1.695
 6907SOL    HW221621   6.366   1.536   1.693
 6908SOL     OW21622   2.387   4.104   6.354
 6908SOL    HW121623   2.430   4.056   6.277
 6908SOL    HW221624   2.456   4.123   6.424
 6909SOL     OW21625   5.313   4.640   1.780
 6909SOL    HW121626   5.389   4.705   1.787
 6909SOL    HW221627   5.321   4.570   1.851
 6910SOL     OW21628   1.436   2.952   2.954
 6910SOL    HW121629   1.374   2.958   2.875
 6910SOL    HW221630   1.385   2.967   3.038
 6911SOL     OW21631   3.467   0.039   5.527
 6911SOL    HW121632   3.507   7.009   5.450
 6911SOL    HW221633   3.537   0.054   5.597
 6912SOL     OW21634   2.098   3.280   6.436
 6912SOL    HW121635   2.103   3.278   6.336
 6912SOL    HW221636   2.162   3.347   6.471
 6913SOL     OW21637   4.884   5.887   5.856
 6913SOL    HW121638   4.972   5.934   5.862
 6913SOL    HW221639   4.811   5.951   5.877
 6914SOL     OW21640   6.125   3.424   2.126
 6914SOL    HW121641   6.183   3.494   2.084
 6914SOL    HW221642   6.047   3.405   2.066
 6915SOL     OW21643   0.975   3.489   2.196
 6915SOL    HW121644   1.011   3.540   2.118
 6915SOL    HW221645   0.940   3.552   2.264
 6916SOL     OW21646   5.005   0.249   5.674
 6916SOL    HW121647   4.998   0.235   5.773
 6916SOL    HW221648   5.089   0.299   5.654
 6917SOL     OW21649   5.011   5.637   2.132
 6917SOL    HW121650   5.031   5.640   2.230
 6917SOL    HW221651   5.096   5.642   2.080
 6918SOL     OW21652   1.114   3.223   2.248
 6918SOL    HW121653   1.050   3.297   2.230
 6918SOL    HW221654   1.063   3.142   2.277
 6919SOL     OW21655   6.239   0.118   2.394
 6919SOL    HW121656   6.252   0.071   2.307
 6919SOL    HW221657   6.175   0.066   2.450
 6920SOL     OW21658   4.571   0.472   5.454
 6920SOL    HW121659   4.628   0.476   5.536
 6920SOL    HW221660   4.503   0.545   5.458
 6921SOL     OW21661   3.777   0.395   4.555
 6921SOL    HW121662   3.824   0.311   4.583
 6921SOL    HW221663   3.802   0.417   4.461
 6922SOL     OW21664   2.116   6.197   4.580
 6922SOL    HW121665   2.079   6.255   4.508
 6922SOL    HW221666   2.101   6.101   4.557
 6923SOL     OW21667   6.202   6.959   2.157
 6923SOL    HW121668   6.131   6.988   2.093
 6923SOL    HW221669   6.291   6.959   2.112
 6924SOL     OW21670   3.618   6.368   0.869
 6924SOL    HW121671   3.583   6.286   0.824
 6924SOL    HW221672   3.618   6.354   0.968
 6925SOL     OW21673   5.245   6.191   6.669
 6925SOL    HW121674   5.340   6.167   6.688
 6925SOL    HW221675   5.206   6.125   6.603
 6926SOL     OW21676   2.588   1.322   1.114
 6926SOL    HW121677   2.504   1.327   1.168
 6926SOL    HW221678   2.667   1.342   1.173
 6927SOL     OW21679   4.000   0.747   0.653
 6927SOL    HW121680   4.057   0.829   0.646
 6927SOL    HW221681   3.942   0.740   0.572
 6928SOL     OW21682   5.151   5.521   0.644
 6928SOL    HW121683   5.061   5.487   0.671
 6928SOL    HW221684   5.190   5.460   0.574
 6929SOL     OW21685   4.954   4.903   1.691
 6929SOL    HW121686   4.943   4.858   1.603
 6929SOL    HW221687   4.982   4.835   1.760
 6930SOL     OW21688   0.458   0.949   0.320
 6930SOL    HW121689   0.495   0.925   0.230
 6930SOL    HW221690   0.377   1.007   0.310
 6931SOL     OW21691   2.390   2.323   1.239
 6931SOL    HW121692   2.329   2.256   1.196
 6931SOL    HW221693   2.366   2.331   1.336
 6932SOL     OW21694   5.173   5.274   0.087
 6932SOL    HW121695   5.184   5.187   0.039
 6932SOL    HW221696   5.148   5.345   0.021
 6933SOL     OW21697   3.035   6.179   6.376
 6933SOL    HW121698   3.008   6.274   6.358
 6933SOL    HW221699   3.066   6.171   6.470
 6934SOL     OW21700   4.855   4.140   6.577
 6934SOL    HW121701   4.903   4.216   6.532
 6934SOL    HW221702   4.921   4.069   6.602
 6935SOL     OW21703   5.250   5.303   1.804
 6935SOL    HW121704   5.172   5.317   1.743
 6935SOL    HW221705   5.217   5.275   1.894
 6936SOL     OW21706   1.039   1.655   4.822
 6936SOL    HW121707   1.093   1.718   4.768
 6936SOL    HW221708   1.016   1.697   4.910
 6937SOL     OW21709   5.396   6.017   0.295
 6937SOL    HW121710   5.490   6.017   0.331
 6937SOL    HW221711   5.393   6.071   0.211
 6938SOL     OW21712   0.240   0.846   4.222
 6938SOL    HW121713   0.272   0.937   4.248
 6938SOL    HW221714   0.148   0.852   4.184
 6939SOL     OW21715   6.233   4.547   3.638
 6939SOL    HW121716   6.286   4.612   3.583
 6939SOL    HW221717   6.262   4.551   3.733
 6940SOL     OW21718   4.852   6.817   0.706
 6940SOL    HW121719   4.802   6.800   0.791
 6940SOL    HW221720   4.853   6.916   0.688
 6941SOL     OW21721   2.987   3.416   2.747
 6941SOL    HW121722   2.985   3.353   2.824
 6941SOL    HW221723   2.943   3.373   2.667
 6942SOL     OW21724   6.306   6.000   1.702
 6942SOL    HW121725   6.348   6.079   1.748
 6942SOL    HW221726   6.246   5.952   1.767
 6943SOL     OW21727   3.665   4.407   6.868
 6943SOL    HW121728   3.665   4.422   6.769
 6943SOL    HW221729   3.755   4.375   6.897
 6944SOL     OW21730   1.138   3.711   6.195
 6944SOL    HW121731   1.221   3.655   6.206
 6944SOL    HW221732   1.118   3.722   6.098
 6945SOL     OW21733   5.959   2.678   0.452
 6945SOL    HW121734   5.863   2.683   0.425
 6945SOL    HW221735   5.979   2.749   0.519
 6946SOL     OW21736   3.595   5.528   2.266
 6946SOL    HW121737   3.669   5.560   2.325
 6946SOL    HW221738   3.629   5.460   2.202
 6947SOL     OW21739   4.773   5.005   5.831
 6947SOL    HW121740   4.829   4.943   5.885
 6947SOL    HW221741   4.832   5.067   5.779
 6948SOL     OW21742   0.261   5.853   0.882
 6948SOL    HW121743   0.208   5.768   0.880
 6948SOL    HW221744   0.213   5.923   0.829
 6949SOL     OW21745   2.727   2.292   3.469
 6949SOL    HW121746   2.672   2.307   3.551
 6949SOL    HW221747   2.718   2.197   3.440
 6950SOL     OW21748   0.955   6.638   4.773
 6950SOL    HW121749   1.042   6.674   4.738
 6950SOL    HW221750   0.879   6.687   4.732
 6951SOL     OW21751   7.003   5.051   6.975
 6951SOL    HW121752   6.964   5.072   6.886
 6951SOL    HW221753   0.077   5.015   6.964
 6952SOL     OW21754   3.216   4.848   2.814
 6952SOL    HW121755   3.273   4.923   2.780
 6952SOL    HW221756   3.159   4.814   2.739
 6953SOL     OW21757   5.312   0.324   0.567
 6953SOL    HW121758   5.399   0.359   0.533
 6953SOL    HW221759   5.248   0.316   0.491
 6954SOL     OW21760   0.530   3.766   0.943
 6954SOL    HW121761   0.494   3.682   0.903
 6954SOL    HW221762   0.506   3.771   1.040
 6955SOL     OW21763   5.233   0.055   2.553
 6955SOL    HW121764   5.278   0.068   2.641
 6955SOL    HW221765   5.137   0.029   2.568
 6956SOL     OW21766   5.695   5.878   2.171
 6956SOL    HW121767   5.709   5.975   2.194
 6956SOL    HW221768   5.610   5.846   2.215
 6957SOL     OW21769   5.424   5.624   6.387
 6957SOL    HW121770   5.359   5.551   6.366
 6957SOL    HW221771   5.415   5.697   6.319
 6958SOL     OW21772   3.392   3.369   3.936
 6958SOL    HW121773   3.339   3.332   3.859
 6958SOL    HW221774   3.350   3.338   4.022
 6959SOL     OW21775   1.404   4.015   2.933
 6959SOL    HW121776   1.347   4.069   2.995
 6959SOL    HW221777   1.355   3.999   2.848
 6960SOL     OW21778   1.843   4.652   0.264
 6960SOL    HW121779   1.762   4.666   0.319
 6960SOL    HW221780   1.867   4.555   0.262
 6961SOL     OW21781   4.058   1.774   5.142
 6961SOL    HW121782   3.967   1.803   5.112
 6961SOL    HW221783   4.050   1.716   5.224
 6962SOL     OW21784   3.584   6.853   6.319
 6962SOL    HW121785   3.545   6.877   6.408
 6962SOL    HW221786   3.665   6.795   6.332
 6963SOL     OW21787   5.188   6.461   0.689
 6963SOL    HW121788   5.165   6.378   0.740
 6963SOL    HW221789   5.105   6.496   0.645
 6964SOL     OW21790   2.066   0.289   5.821
 6964SOL    HW121791   2.119   0.235   5.886
 6964SOL    HW221792   1.969   0.280   5.842
 6965SOL     OW21793   0.716   1.874   0.793
 6965SOL    HW121794   0.743   1.970   0.788
 6965SOL    HW221795   0.694   1.841   0.702
 6966SOL     OW21796   0.956   0.374   2.004
 6966SOL    HW121797   1.016   0.296   1.987
 6966SOL    HW221798   0.959   0.398   2.101
 6967SOL     OW21799   3.920   2.018   6.103
 6967SOL    HW121800   4.003   2.001   6.049
 6967SOL    HW221801   3.945   2.025   6.199
 6968SOL     OW21802   3.334   6.949   2.862
 6968SOL    HW121803   3.267   6.994   2.921
 6968SOL    HW221804   3.288   6.883   2.803
 6969SOL     OW21805   2.433   2.175   1.760
 6969SOL    HW121806   2.342   2.133   1.750
 6969SOL    HW221807   2.449   2.237   1.684
 6970SOL     OW21808   3.033   4.717   6.194
 6970SOL    HW121809   3.012   4.814   6.199
 6970SOL    HW221810   3.130   4.702   6.215
 6971SOL     OW21811   5.611   4.425   0.803
 6971SOL    HW121812   5.533   4.476   0.840
 6971SOL    HW221813   5.607   4.330   0.836
 6972SOL     OW21814   5.118   3.914   2.908
 6972SOL    HW121815   5.185   3.840   2.900
 6972SOL    HW221816   5.026   3.876   2.903
 6973SOL     OW21817   1.096   2.094   2.453
 6973SOL    HW121818   1.105   2.037   2.372
 6973SOL    HW221819   1.141   2.182   2.437
 6974SOL     OW21820   3.340   3.394   2.782
 6974SOL    HW121821   3.420   3.335   2.787
 6974SOL    HW221822   3.347   3.453   2.702
 6975SOL     OW21823   3.025   5.644   4.961
 6975SOL    HW121824   2.959   5.640   4.886
 6975SOL    HW221825   2.981   5.614   5.046
 6976SOL     OW21826   4.966   4.203   5.202
 6976SOL    HW121827   4.924   4.154   5.126
 6976SOL    HW221828   5.052   4.243   5.173
 6977SOL     OW21829   4.090   4.528   1.725
 6977SOL    HW121830   3.995   4.556   1.714
 6977SOL    HW221831   4.104   4.440   1.679
 6978SOL     OW21832   5.896   3.331   1.472
 6978SOL    HW121833   5.860   3.302   1.561
 6978SOL    HW221834   5.889   3.255   1.407
 6979SOL     OW21835   1.399   4.082   1.465
 6979SOL    HW121836   1.401   4.114   1.370
 6979SOL    HW221837   1.320   4.121   1.511
 6980SOL     OW21838   1.373   6.748   2.965
 6980SOL    HW121839   1.401   6.816   2.898
 6980SOL    HW221840   1.274   6.750   2.976
 6981SOL     OW21841   3.651   3.203   6.928
 6981SOL    HW121842   3.711   3.216   7.007
 6981SOL    HW221843   3.604   3.290   6.907
 6982SOL     OW21844   0.769   1.542   4.065
 6982SOL    HW121845   0.702   1.505   4.001
 6982SOL    HW221846   0.770   1.642   4.057
 6983SOL     OW21847   4.602   0.671   4.473
 6983SOL    HW121848   4.696   0.652   4.444
 6983SOL    HW221849   4.538   0.628   4.409
 6984SOL     OW21850   0.889   2.548   3.041
 6984SOL    HW121851   0.817   2.532   2.973
 6984SOL    HW221852   0.891   2.472   3.106
 6985SOL     OW21853   6.848   4.249   7.012
 6985SOL    HW121854   6.883   4.159   0.018
 6985SOL    HW221855   6.825   4.251   6.915
 6986SOL     OW21856   3.757   5.438   5.892
 6986SOL    HW121857   3.663   5.405   5.904
 6986SOL    HW221858   3.820   5.376   5.939
 6987SOL     OW21859   0.241   1.831   6.153
 6987SOL    HW121860   0.320   1.799   6.205
 6987SOL    HW221861   0.229   1.776   6.071
 6988SOL     OW21862   2.732   0.789   6.119
 6988SOL    HW121863   2.637   0.822   6.124
 6988SOL    HW221864   2.732   0.690   6.104
 6989SOL     OW21865   7.009   4.317   2.476
 6989SOL    HW121866   6.931   4.255   2.471
 6989SOL    HW221867   0.011   4.336   2.572
 6990SOL     OW21868   3.886   2.967   2.030
 6990SOL    HW121869   3.959   2.930   1.972
 6990SOL    HW221870   3.923   3.035   2.092
 6991SOL     OW21871   5.511   4.350   2.868
 6991SOL    HW121872   5.442   4.344   2.940
 6991SOL    HW221873   5.468   4.334   2.779
 6992SOL     OW21874   0.958   6.853   6.771
 6992SOL    HW121875   0.978   6.852   6.673
 6992SOL    HW221876   0.972   6.761   6.809
 6993SOL     OW21877   5.787   1.048   1.940
 6993SOL    HW121878   5.775   1.052   1.841
 6993SOL    HW221879   5.873   1.091   1.965
 6994SOL     OW21880   1.599   0.142   3.979
 6994SOL    HW121881   1.698   0.151   3.970
 6994SOL    HW221882   1.553   0.220   3.937
 6995SOL     OW21883   0.525   3.350   0.682
 6995SOL    HW121884   0.549   3.285   0.610
 6995SOL    HW221885   0.553   3.314   0.771
 6996SOL     OW21886   1.765   0.762   0.118
 6996SOL    HW121887   1.732   0.855   0.134
 6996SOL    HW221888   1.817   0.731   0.197
 6997SOL     OW21889   0.021   4.948   4.959
 6997SOL    HW121890   0.073   4.886   5.017
 6997SOL    HW221891   6.953   4.969   5.002
 6998SOL     OW21892   0.820   1.532   1.674
 6998SOL    HW121893   0.891   1.602   1.673
 6998SOL    HW221894   0.851   1.452   1.623
 6999SOL     OW21895   0.986   2.800   0.039
 6999SOL    HW121896   0.977   2.839   0.130
 6999SOL    HW221897   1.007   2.702   0.046
 7000SOL     OW21898   6.590   0.254   2.756
 7000SOL    HW121899   6.657   0.197   2.708
 7000SOL    HW221900   6.501   0.247   2.710
 7001SOL     OW21901   0.876   1.587   4.444
 7001SOL    HW121902   0.961   1.586   4.390
 7001SOL    HW221903   0.891   1.539   4.530
 7002SOL     OW21904   0.553   5.594   3.779
 7002SOL    HW121905   0.582   5.498   3.786
 7002SOL    HW221906   0.565   5.626   3.685
 7003SOL     OW21907   6.230   4.084   1.371
 7003SOL    HW121908   6.149   4.105   1.426
 7003SOL    HW221909   6.254   3.988   1.383
 7004SOL     OW21910   1.885   5.896   0.131
 7004SOL    HW121911   1.812   5.964   0.143
 7004SOL    HW221912   1.910   5.859   0.220
 7005SOL     OW21913   1.718   0.492   6.806
 7005SOL    HW121914   1.629   0.481   6.849
 7005SOL    HW221915   1.760   0.403   6.791
 7006SOL     OW21916   0.241   0.367   3.665
 7006SOL    HW121917   0.308   0.305   3.625
 7006SOL    HW221918   0.288   0.447   3.703
 7007SOL     OW21919   4.008   0.938   6.144
 7007SOL    HW121920   4.043   0.867   6.206
 7007SOL    HW221921   4.080   1.004   6.125
 7008SOL     OW21922   6.890   4.094   3.362
 7008SOL    HW121923   6.943   4.112   3.445
 7008SOL    HW221924   6.924   4.011   3.318
 7009SOL     OW21925   4.504   6.031   2.023
 7009SOL    HW121926   4.501   5.956   1.958
 7009SOL    HW221927   4.589   6.026   2.076
 7010SOL     OW21928   5.251   4.022   2.275
 7010SOL    HW121929   5.253   3.928   2.310
 7010SOL    HW221930   5.178   4.073   2.320
 7011SOL     OW21931   3.433   6.652   0.126
 7011SOL    HW121932   3.443   6.556   0.155
 7011SOL    HW221933   3.365   6.697   0.183
 7012SOL     OW21934   0.869   2.775   1.123
 7012SOL    HW121935   0.884   2.868   1.089
 7012SOL    HW221936   0.926   2.711   1.071
 7013SOL     OW21937   2.390   1.401   0.315
 7013SOL    HW121938   2.338   1.485   0.300
 7013SOL    HW221939   2.355   1.354   0.396
 7014SOL     OW21940   6.248   3.864   1.991
 7014SOL    HW121941   6.313   3.847   1.917
 7014SOL    HW221942   6.249   3.787   2.055
 7015SOL     OW21943   5.359   4.544   2.056
 7015SOL    HW121944   5.357   4.444   2.063
 7015SOL    HW221945   5.332   4.584   2.143
 7016SOL     OW21946   3.056   4.903   0.819
 7016SOL    HW121947   3.060   4.981   0.880
 7016SOL    HW221948   3.097   4.928   0.731
 7017SOL     OW21949   4.036   4.874   3.711
 7017SOL    HW121950   3.942   4.901   3.689
 7017SOL    HW221951   4.081   4.841   3.628
 7018SOL     OW21952   4.782   2.669   4.390
 7018SOL    HW121953   4.757   2.695   4.483
 7018SOL    HW221954   4.882   2.660   4.384
 7019SOL     OW21955   5.139   5.048   2.279
 7019SOL    HW121956   5.187   4.979   2.334
 7019SOL    HW221957   5.042   5.025   2.273
 7020SOL     OW21958   0.767   3.103   0.190
 7020SOL    HW121959   0.679   3.127   0.148
 7020SOL    HW221960   0.813   3.187   0.220
 7021SOL     OW21961   1.391   2.553   4.879
 7021SOL    HW121962   1.314   2.500   4.913
 7021SOL    HW221963   1.379   2.572   4.782
 7022SOL     OW21964   4.060   0.838   0.295
 7022SOL    HW121965   4.026   0.905   0.361
 7022SOL    HW221966   3.997   0.832   0.218
 7023SOL     OW21967   0.433   1.624   1.419
 7023SOL    HW121968   0.488   1.575   1.486
 7023SOL    HW221969   0.452   1.589   1.328
 7024SOL     OW21970   4.002   3.074   3.675
 7024SOL    HW121971   3.962   3.048   3.763
 7024SOL    HW221972   4.095   3.038   3.668
 7025SOL     OW21973   2.986   0.109   0.119
 7025SOL    HW121974   2.888   0.127   0.108
 7025SOL    HW221975   3.017   0.148   0.206
 7026SOL     OW21976   3.088   1.838   1.460
 7026SOL    HW121977   3.007   1.889   1.490
 7026SOL    HW221978   3.060   1.756   1.412
 7027SOL     OW21979   2.314   5.134   2.120
 7027SOL    HW121980   2.370   5.163   2.042
 7027SOL    HW221981   2.357   5.163   2.205
 7028SOL     OW21982   2.980   0.701   4.006
 7028SOL    HW121983   3.050   0.717   4.076
 7028SOL    HW221984   3.023   0.664   3.923
 7029SOL     OW21985   2.900   3.512   5.469
 7029SOL    HW121986   2.895   3.450   5.390
 7029SOL    HW221987   2.844   3.476   5.543
 7030SOL     OW21988   6.949   1.531   4.665
 7030SOL    HW121989   6.959   1.438   4.631
 7030SOL    HW221990   7.003   1.593   4.608
 7031SOL     OW21991   4.533   5.897   1.234
 7031SOL    HW121992   4.602   5.824   1.239
 7031SOL    HW221993   4.551   5.954   1.154
 7032SOL     OW21994   3.817   0.225   4.104
 7032SOL    HW121995   3.887   0.285   4.065
 7032SOL    HW221996   3.861   0.148   4.151
 7033SOL     OW21997   1.445   2.534   5.446
 7033SOL    HW121998   1.396   2.497   5.525
 7033SOL    HW221999   1.536   2.564   5.474
 7034SOL     OW22000   6.877   1.817   3.454
 7034SOL    HW122001   6.949   1.788   3.517
 7034SOL    HW222002   6.850   1.740   3.397
 7035SOL     OW22003   2.270   0.281   1.496
 7035SOL    HW122004   2.175   0.311   1.501
 7035SOL    HW222005   2.278   0.188   1.532
 7036SOL     OW22006   0.305   1.231   2.239
 7036SOL    HW122007   0.399   1.254   2.264
 7036SOL    HW222008   0.252   1.211   2.322
 7037SOL     OW22009   0.469   0.186   5.768
 7037SOL    HW122010   0.545   0.129   5.798
 7037SOL    HW222011   0.448   0.253   5.839
 7038SOL     OW22012   2.294   3.876   6.106
 7038SOL    HW122013   2.275   3.826   6.191
 7038SOL    HW222014   2.304   3.812   6.031
 7039SOL     OW22015   0.821   5.211   2.887
 7039SOL    HW122016   0.786   5.168   2.804
 7039SOL    HW222017   0.804   5.152   2.965
 7040SOL     OW22018   4.487   2.243   5.710
 7040SOL    HW122019   4.502   2.218   5.805
 7040SOL    HW222020   4.569   2.286   5.672
 7041SOL     OW22021   1.139   1.139   3.835
 7041SOL    HW122022   1.047   1.175   3.851
 7041SOL    HW222023   1.142   1.092   3.747
 7042SOL     OW22024   4.379   5.655   5.033
 7042SOL    HW122025   4.465   5.692   5.067
 7042SOL    HW222026   4.310   5.659   5.106
 7043SOL     OW22027   2.758   4.739   3.286
 7043SOL    HW122028   2.835   4.802   3.278
 7043SOL    HW222029   2.741   4.695   3.198
 7044SOL     OW22030   5.446   6.174   4.106
 7044SOL    HW122031   5.501   6.162   4.189
 7044SOL    HW222032   5.459   6.267   4.071
 7045SOL     OW22033   6.385   5.596   2.135
 7045SOL    HW122034   6.299   5.545   2.128
 7045SOL    HW222035   6.460   5.538   2.105
 7046SOL     OW22036   2.923   2.246   4.489
 7046SOL    HW122037   2.855   2.319   4.487
 7046SOL    HW222038   2.878   2.159   4.467
 7047SOL     OW22039   0.628   6.907   0.944
 7047SOL    HW122040   0.612   6.819   0.900
 7047SOL    HW222041   0.703   6.954   0.898
 7048SOL     OW22042   6.739   5.235   5.037
 7048SOL    HW122043   6.830   5.222   5.077
 7048SOL    HW222044   6.741   5.208   4.940
 7049SOL     OW22045   3.675   1.369   1.898
 7049SOL    HW122046   3.728   1.445   1.934
 7049SOL    HW222047   3.723   1.283   1.915
 7050SOL     OW22048   3.798   4.666   0.952
 7050SOL    HW122049   3.800   4.567   0.945
 7050SOL    HW222050   3.844   4.706   0.873
 7051SOL     OW22051   0.225   6.927   1.210
 7051SOL    HW122052   0.231   6.831   1.186
 7051SOL    HW222053   0.128   6.953   1.217
 7052SOL     OW22054   5.932   0.395   2.939
 7052SOL    HW122055   5.834   0.415   2.948
 7052SOL    HW222056   5.946   0.296   2.947
 7053SOL     OW22057   1.624   3.078   3.369
 7053SOL    HW122058   1.713   3.061   3.327
 7053SOL    HW222059   1.585   3.162   3.332
 7054SOL     OW22060   6.712   0.111   0.630
 7054SOL    HW122061   6.647   0.137   0.701
 7054SOL    HW222062   6.681   0.145   0.541
 7055SOL     OW22063   2.161   0.717   6.959
 7055SOL    HW122064   2.163   0.779   0.018
 7055SOL    HW222065   2.066   0.691   6.940
 7056SOL     OW22066   6.632   5.597   1.128
 7056SOL    HW122067   6.630   5.528   1.055
 7056SOL    HW222068   6.588   5.560   1.209
 7057SOL     OW22069   2.795   4.935   4.787
 7057SOL    HW122070   2.755   4.844   4.793
 7057SOL    HW222071   2.884   4.929   4.742
 7058SOL     OW22072   5.027   2.374   6.380
 7058SOL    HW122073   5.070   2.290   6.348
 7058SOL    HW222074   5.085   2.452   6.356
 7059SOL     OW22075   2.123   0.972   4.587
 7059SOL    HW122076   2.203   0.942   4.639
 7059SOL    HW222077   2.137   0.953   4.490
 7060SOL     OW22078   3.177   6.788   2.463
 7060SOL    HW122079   3.262   6.788   2.411
 7060SOL    HW222080   3.157   6.881   2.494
 7061SOL     OW22081   1.034   2.201   2.926
 7061SOL    HW122082   1.131   2.177   2.931
 7061SOL    HW222083   1.019   2.262   2.848
 7062SOL     OW22084   4.362   1.783   3.752
 7062SOL    HW122085   4.399   1.826   3.669
 7062SOL    HW222086   4.419   1.705   3.778
 7063SOL     OW22087   0.685   0.313   2.097
 7063SOL    HW122088   0.719   0.353   2.183
 7063SOL    HW222089   0.698   0.377   2.023
 7064SOL     OW22090   5.060   1.762   5.304
 7064SOL    HW122091   5.122   1.734   5.378
 7064SOL    HW222092   5.112   1.767   5.218
 7065SOL     OW22093   3.587   4.346   5.436
 7065SOL    HW122094   3.520   4.418   5.415
 7065SOL    HW222095   3.652   4.337   5.361
 7066SOL     OW22096   3.791   0.589   0.128
 7066SOL    HW122097   3.809   0.495   0.154
 7066SOL    HW222098   3.708   0.593   0.072
 7067SOL     OW22099   1.913   3.010   6.972
 7067SOL    HW122100   1.924   2.919   7.013
 7067SOL    HW222101   1.898   3.078   0.024
 7068SOL     OW22102   5.339   3.816   4.468
 7068SOL    HW122103   5.359   3.810   4.370
 7068SOL    HW222104   5.292   3.732   4.497
 7069SOL     OW22105   6.339   0.316   5.659
 7069SOL    HW122106   6.398   0.338   5.737
 7069SOL    HW222107   6.267   0.253   5.689
 7070SOL     OW22108   0.408   6.890   4.866
 7070SOL    HW122109   0.387   6.809   4.920
 7070SOL    HW222110   0.360   6.884   4.778
 7071SOL     OW22111   4.964   6.425   6.664
 7071SOL    HW122112   5.000   6.339   6.629
 7071SOL    HW222113   4.912   6.471   6.593
 7072SOL     OW22114   0.842   4.128   6.704
 7072SOL    HW122115   0.881   4.134   6.796
 7072SOL    HW222116   0.910   4.090   6.642
 7073SOL     OW22117   4.992   0.828   2.987
 7073SOL    HW122118   5.043   0.869   3.063
 7073SOL    HW222119   4.948   0.901   2.934
 7074SOL     OW22120   6.236   4.377   3.323
 7074SOL    HW122121   6.144   4.416   3.333
 7074SOL    HW222122   6.234   4.307   3.251
 7075SOL     OW22123   3.131   4.998   5.005
 7075SOL    HW122124   3.219   4.966   5.041
 7075SOL    HW222125   3.057   4.941   5.041
 7076SOL     OW22126   5.716   3.555   2.766
 7076SOL    HW122127   5.696   3.460   2.790
 7076SOL    HW222128   5.656   3.616   2.818
 7077SOL     OW22129   2.707   5.095   2.005
 7077SOL    HW122130   2.735   5.064   1.914
 7077SOL    HW222131   2.607   5.097   2.010
 7078SOL     OW22132   5.355   6.787   0.475
 7078SOL    HW122133   5.384   6.882   0.469
 7078SOL    HW222134   5.256   6.781   0.459
 7079SOL     OW22135   0.924   6.680   4.459
 7079SOL    HW122136   0.859   6.748   4.425
 7079SOL    HW222137   1.013   6.723   4.471
 7080SOL     OW22138   3.828   2.171   5.318
 7080SOL    HW122139   3.895   2.183   5.245
 7080SOL    HW222140   3.745   2.129   5.281
 7081SOL     OW22141   1.513   0.884   6.810
 7081SOL    HW122142   1.605   0.866   6.776
 7081SOL    HW222143   1.492   0.982   6.801
 7082SOL     OW22144   6.711   4.122   2.259
 7082SOL    HW122145   6.722   4.177   2.342
 7082SOL    HW222146   6.758   4.035   2.270
 7083SOL     OW22147   6.481   3.101   2.415
 7083SOL    HW122148   6.500   3.105   2.514
 7083SOL    HW222149   6.387   3.072   2.401
 7084SOL     OW22150   1.022   5.851   0.176
 7084SOL    HW122151   1.018   5.937   0.126
 7084SOL    HW222152   1.040   5.868   0.273
 7085SOL     OW22153   0.401   2.837   2.550
 7085SOL    HW122154   0.323   2.825   2.612
 7085SOL    HW222155   0.432   2.932   2.554
 7086SOL     OW22156   5.817   0.859   5.546
 7086SOL    HW122157   5.741   0.802   5.513
 7086SOL    HW222158   5.781   0.938   5.595
 7087SOL     OW22159   5.375   3.255   3.290
 7087SOL    HW122160   5.282   3.233   3.260
 7087SOL    HW222161   5.434   3.176   3.276
 7088SOL     OW22162   5.892   1.818   5.160
 7088SOL    HW122163   5.816   1.753   5.154
 7088SOL    HW222164   5.971   1.773   5.202
 7089SOL     OW22165   3.932   5.574   1.509
 7089SOL    HW122166   3.884   5.591   1.423
 7089SOL    HW222167   3.975   5.484   1.506
 7090SOL     OW22168   3.807   1.822   1.430
 7090SOL    HW122169   3.813   1.848   1.334
 7090SOL    HW222170   3.849   1.893   1.486
 7091SOL     OW22171   0.546   6.688   0.034
 7091SOL    HW122172   0.558   6.764   0.097
 7091SOL    HW222173   0.550   6.721   6.959
 7092SOL     OW22174   4.715   2.641   6.865
 7092SOL    HW122175   4.745   2.611   6.775
 7092SOL    HW222176   4.666   2.567   6.911
 7093SOL     OW22177   3.445   4.021   0.580
 7093SOL    HW122178   3.503   4.045   0.657
 7093SOL    HW222179   3.402   4.103   0.542
 7094SOL     OW22180   2.156   6.805   5.767
 7094SOL    HW122181   2.095   6.763   5.699
 7094SOL    HW222182   2.165   6.902   5.747
 7095SOL     OW22183   3.187   4.293   5.524
 7095SOL    HW122184   3.253   4.218   5.536
 7095SOL    HW222185   3.142   4.282   5.435
 7096SOL     OW22186   0.007   0.732   0.931
 7096SOL    HW122187   7.017   0.696   1.024
 7096SOL    HW222188   0.017   0.832   0.935
 7097SOL     OW22189   5.403   0.645   1.353
 7097SOL    HW122190   5.314   0.679   1.383
 7097SOL    HW222191   5.448   0.715   1.296
 7098SOL     OW22192   0.694   6.701   4.680
 7098SOL    HW122193   0.600   6.704   4.713
 7098SOL    HW222194   0.713   6.783   4.626
 7099SOL     OW22195   2.947   2.196   4.028
 7099SOL    HW122196   2.888   2.256   4.081
 7099SOL    HW222197   2.951   2.226   3.933
 7100SOL     OW22198   0.037   3.779   1.004
 7100SOL    HW122199   0.002   3.690   1.032
 7100SOL    HW222200   0.121   3.766   0.951
 7101SOL     OW22201   1.969   6.533   5.482
 7101SOL    HW122202   1.890   6.474   5.496
 7101SOL    HW222203   2.035   6.487   5.423
 7102SOL     OW22204   5.260   0.745   0.410
 7102SOL    HW122205   5.282   0.730   0.506
 7102SOL    HW222206   5.174   0.796   0.403
 7103SOL     OW22207   5.054   5.070   2.749
 7103SOL    HW122208   5.062   5.161   2.709
 7103SOL    HW222209   4.959   5.041   2.747
 7104SOL     OW22210   4.853   3.003   3.530
 7104SOL    HW122211   4.898   2.920   3.563
 7104SOL    HW222212   4.830   3.062   3.607
 7105SOL     OW22213   3.223   4.150   3.774
 7105SOL    HW122214   3.322   4.148   3.783
 7105SOL    HW222215   3.180   4.147   3.864
 7106SOL     OW22216   3.598   2.974   1.487
 7106SOL    HW122217   3.506   2.938   1.471
 7106SOL    HW222218   3.649   2.911   1.545
 7107SOL     OW22219   3.954   0.493   6.877
 7107SOL    HW122220   4.011   0.414   6.852
 7107SOL    HW222221   3.923   0.482   6.972
 7108SOL     OW22222   3.142   6.698   2.764
 7108SOL    HW122223   3.168   6.703   2.668
 7108SOL    HW222224   3.074   6.625   2.776
 7109SOL     OW22225   1.832   6.991   6.054
 7109SOL    HW122226   1.876   6.949   6.135
 7109SOL    HW222227   1.738   7.016   6.077
 7110SOL     OW22228   3.247   6.183   4.551
 7110SOL    HW122229   3.224   6.130   4.632
 7110SOL    HW222230   3.244   6.124   4.470
 7111SOL     OW22231   0.672   0.802   3.622
 7111SOL    HW122232   0.620   0.718   3.639
 7111SOL    HW222233   0.649   0.869   3.693
 7112SOL     OW22234   2.101   4.973   4.398
 7112SOL    HW122235   2.195   4.941   4.389
 7112SOL    HW222236   2.039   4.909   4.351
 7113SOL     OW22237   3.308   4.836   5.179
 7113SOL    HW122238   3.295   4.909   5.246
 7113SOL    HW222239   3.252   4.757   5.204
 7114SOL     OW22240   4.733   4.964   0.331
 7114SOL    HW122241   4.690   5.005   0.251
 7114SOL    HW222242   4.667   4.908   0.380
 7115SOL     OW22243   6.418   4.633   6.845
 7115SOL    HW122244   6.397   4.655   6.941
 7115SOL    HW222245   6.517   4.628   6.834
 7116SOL     OW22246   6.990   3.632   4.417
 7116SOL    HW122247   0.014   3.554   4.371
 7116SOL    HW222248   6.952   3.602   4.505
 7117SOL     OW22249   6.301   6.900   3.525
 7117SOL    HW122250   6.344   6.833   3.465
 7117SOL    HW222251   6.371   6.955   3.571
 7118SOL     OW22252   4.358   4.596   5.646
 7118SOL    HW122253   4.320   4.688   5.642
 7118SOL    HW222254   4.335   4.547   5.562
 7119SOL     OW22255   4.552   0.061   4.937
 7119SOL    HW122256   4.485   0.012   4.993
 7119SOL    HW222257   4.504   0.118   4.870
 7120SOL     OW22258   5.044   1.408   0.865
 7120SOL    HW122259   5.007   1.458   0.943
 7120SOL    HW222260   5.130   1.363   0.891
 7121SOL     OW22261   0.913   6.527   3.532
 7121SOL    HW122262   0.882   6.435   3.555
 7121SOL    HW222263   0.860   6.561   3.455
 7122SOL     OW22264   2.526   6.718   5.959
 7122SOL    HW122265   2.558   6.801   6.004
 7122SOL    HW222266   2.602   6.652   5.952
 7123SOL     OW22267   5.476   5.385   5.737
 7123SOL    HW122268   5.552   5.355   5.795
 7123SOL    HW222269   5.455   5.481   5.755
 7124SOL     OW22270   0.787   2.063   1.527
 7124SOL    HW122271   0.710   2.031   1.583
 7124SOL    HW222272   0.810   1.993   1.460
 7125SOL     OW22273   1.150   0.296   1.630
 7125SOL    HW122274   1.108   0.241   1.558
 7125SOL    HW222275   1.134   0.252   1.719
 7126SOL     OW22276   4.246   6.116   1.534
 7126SOL    HW122277   4.243   6.049   1.460
 7126SOL    HW222278   4.336   6.114   1.577
 7127SOL     OW22279   3.098   6.179   5.646
 7127SOL    HW122280   3.113   6.094   5.595
 7127SOL    HW222281   3.023   6.230   5.604
 7128SOL     OW22282   3.788   4.103   6.261
 7128SOL    HW122283   3.752   4.146   6.179
 7128SOL    HW222284   3.754   4.010   6.269
 7129SOL     OW22285   0.174   6.923   0.943
 7129SOL    HW122286   0.205   6.964   1.029
 7129SOL    HW222287   0.139   6.995   0.883
 7130SOL     OW22288   3.404   6.440   4.007
 7130SOL    HW122289   3.474   6.466   3.940
 7130SOL    HW222290   3.325   6.500   3.997
 7131SOL     OW22291   3.967   0.907   2.186
 7131SOL    HW122292   4.012   0.864   2.108
 7131SOL    HW222293   3.873   0.931   2.162
 7132SOL     OW22294   5.094   3.792   0.240
 7132SOL    HW122295   5.007   3.809   0.287
 7132SOL    HW222296   5.168   3.789   0.306
 7133SOL     OW22297   3.612   5.907   3.591
 7133SOL    HW122298   3.514   5.895   3.607
 7133SOL    HW222299   3.646   5.833   3.533
 7134SOL     OW22300   5.656   5.353   1.562
 7134SOL    HW122301   5.665   5.266   1.513
 7134SOL    HW222302   5.728   5.416   1.532
 7135SOL     OW22303   2.195   2.937   1.667
 7135SOL    HW122304   2.131   2.899   1.734
 7135SOL    HW222305   2.174   2.902   1.576
 7136SOL     OW22306   2.929   1.289   2.061
 7136SOL    HW122307   2.866   1.335   2.000
 7136SOL    HW222308   2.996   1.355   2.096
 7137SOL     OW22309   2.512   1.973   1.914
 7137SOL    HW122310   2.504   2.059   1.862
 7137SOL    HW222311   2.426   1.922   1.907
 7138SOL     OW22312   1.714   2.306   0.645
 7138SOL    HW122313   1.688   2.400   0.623
 7138SOL    HW222314   1.687   2.285   0.739
 7139SOL     OW22315   6.128   5.849   1.481
 7139SOL    HW122316   6.153   5.813   1.391
 7139SOL    HW222317   6.153   5.945   1.487
 7140SOL     OW22318   6.910   3.335   0.320
 7140SOL    HW122319   6.814   3.308   0.313
 7140SOL    HW222320   6.925   3.384   0.406
 7141SOL     OW22321   4.259   6.779   1.561
 7141SOL    HW122322   4.238   6.875   1.542
 7141SOL    HW222323   4.216   6.721   1.492
 7142SOL     OW22324   3.230   0.271   4.920
 7142SOL    HW122325   3.227   0.371   4.927
 7142SOL    HW222326   3.217   0.231   5.011
 7143SOL     OW22327   2.377   4.727   6.559
 7143SOL    HW122328   2.469   4.689   6.565
 7143SOL    HW222329   2.344   4.721   6.465
 7144SOL     OW22330   6.398   0.796   4.815
 7144SOL    HW122331   6.373   0.701   4.797
 7144SOL    HW222332   6.350   0.856   4.752
 7145SOL     OW22333   5.015   2.463   6.975
 7145SOL    HW122334   5.059   2.515   6.902
 7145SOL    HW222335   4.917   2.459   6.958
 7146SOL     OW22336   2.164   1.272   5.251
 7146SOL    HW122337   2.076   1.276   5.297
 7146SOL    HW222338   2.165   1.194   5.188
 7147SOL     OW22339   5.814   5.209   2.067
 7147SOL    HW122340   5.722   5.246   2.059
 7147SOL    HW222341   5.844   5.215   2.163
 7148SOL     OW22342   6.909   6.104   0.995
 7148SOL    HW122343   6.950   6.055   1.072
 7148SOL    HW222344   6.972   6.175   0.964
 7149SOL     OW22345   6.608   5.151   4.091
 7149SOL    HW122346   6.610   5.171   4.189
 7149SOL    HW222347   6.650   5.227   4.041
 7150SOL     OW22348   3.879   3.267   0.047
 7150SOL    HW122349   3.863   3.353   7.017
 7150SOL    HW222350   3.960   3.276   0.104
 7151SOL     OW22351   3.821   0.828   0.833
 7151SOL    HW122352   3.843   0.925   0.839
 7151SOL    HW222353   3.868   0.787   0.754
 7152SOL     OW22354   0.292   1.653   6.539
 7152SOL    HW122355   0.386   1.688   6.532
 7152SOL    HW222356   0.285   1.592   6.617
 7153SOL     OW22357   3.864   6.220   1.088
 7153SOL    HW122358   3.910   6.258   1.007
 7153SOL    HW222359   3.820   6.134   1.063
 7154SOL     OW22360   3.988   1.544   1.801
 7154SOL    HW122361   4.026   1.593   1.880
 7154SOL    HW222362   3.901   1.586   1.775
 7155SOL     OW22363   2.755   1.543   2.641
 7155SOL    HW122364   2.655   1.549   2.646
 7155SOL    HW222365   2.781   1.483   2.566
 7156SOL     OW22366   6.016   4.158   0.295
 7156SOL    HW122367   6.116   4.160   0.291
 7156SOL    HW222368   5.982   4.080   0.243
 7157SOL     OW22369   6.065   4.512   6.716
 7157SOL    HW122370   5.967   4.533   6.707
 7157SOL    HW222371   6.113   4.592   6.752
 7158SOL     OW22372   4.866   6.882   3.590
 7158SOL    HW122373   4.896   6.960   3.535
 7158SOL    HW222374   4.833   6.915   3.679
 7159SOL     OW22375   0.610   6.078   3.479
 7159SOL    HW122376   0.522   6.118   3.503
 7159SOL    HW222377   0.600   6.019   3.399
 7160SOL     OW22378   6.059   6.935   2.835
 7160SOL    HW122379   6.049   6.847   2.881
 7160SOL    HW222380   6.144   6.979   2.864
 7161SOL     OW22381   4.114   3.487   3.700
 7161SOL    HW122382   4.087   3.429   3.623
 7161SOL    HW222383   4.047   3.561   3.711
 7162SOL     OW22384   0.000   4.958   2.034
 7162SOL    HW122385   0.041   5.042   1.999
 7162SOL    HW222386   6.979   4.975   2.123
 7163SOL     OW22387   1.312   1.193   2.171
 7163SOL    HW122388   1.409   1.185   2.148
 7163SOL    HW222389   1.301   1.202   2.270
 7164SOL     OW22390   1.913   1.078   6.253
 7164SOL    HW122391   1.882   1.008   6.189
 7164SOL    HW222392   1.885   1.168   6.219
 7165SOL     OW22393   6.558   0.554   0.245
 7165SOL    HW122394   6.627   0.621   0.274
 7165SOL    HW222395   6.498   0.533   0.321
 7166SOL     OW22396   5.824   6.325   6.042
 7166SOL    HW122397   5.911   6.278   6.060
 7166SOL    HW222398   5.761   6.307   6.118
 7167SOL     OW22399   5.620   2.126   5.091
 7167SOL    HW122400   5.539   2.073   5.067
 7167SOL    HW222401   5.595   2.222   5.105
 7168SOL     OW22402   2.826   1.086   2.174
 7168SOL    HW122403   2.842   1.081   2.273
 7168SOL    HW222404   2.881   1.159   2.135
 7169SOL     OW22405   1.720   4.266   6.293
 7169SOL    HW122406   1.622   4.280   6.281
 7169SOL    HW222407   1.770   4.338   6.245
 7170SOL     OW22408   4.082   1.321   1.895
 7170SOL    HW122409   4.056   1.251   1.828
 7170SOL    HW222410   4.052   1.410   1.863
 7171SOL     OW22411   6.161   4.786   0.608
 7171SOL    HW122412   6.087   4.723   0.584
 7171SOL    HW222413   6.163   4.861   0.542
 7172SOL     OW22414   0.985   1.610   3.749
 7172SOL    HW122415   1.064   1.561   3.787
 7172SOL    HW222416   0.986   1.704   3.783
 7173SOL     OW22417   4.850   6.148   6.636
 7173SOL    HW122418   4.868   6.184   6.728
 7173SOL    HW222419   4.889   6.057   6.627
 7174SOL     OW22420   5.830   4.346   1.790
 7174SOL    HW122421   5.755   4.397   1.833
 7174SOL    HW222422   5.820   4.351   1.690
 7175SOL     OW22423   5.746   3.724   5.753
 7175SOL    HW122424   5.685   3.649   5.780
 7175SOL    HW222425   5.704   3.776   5.678
 7176SOL     OW22426   0.408   0.937   5.358
 7176SOL    HW122427   0.415   0.969   5.263
 7176SOL    HW222428   0.363   0.848   5.360
 7177SOL     OW22429   1.652   4.973   4.365
 7177SOL    HW122430   1.641   4.965   4.266
 7177SOL    HW222431   1.586   4.913   4.411
 7178SOL     OW22432   1.298   1.215   5.561
 7178SOL    HW122433   1.329   1.308   5.582
 7178SOL    HW222434   1.350   1.179   5.483
 7179SOL     OW22435   3.743   6.159   6.505
 7179SOL    HW122436   3.818   6.110   6.549
 7179SOL    HW222437   3.678   6.092   6.468
 7180SOL     OW22438   0.981   4.391   0.913
 7180SOL    HW122439   0.957   4.363   1.007
 7180SOL    HW222440   1.024   4.481   0.915
 7181SOL     OW22441   2.535   1.215   6.087
 7181SOL    HW122442   2.624   1.238   6.049
 7181SOL    HW222443   2.485   1.299   6.109
 7182SOL     OW22444   1.296   3.069   4.156
 7182SOL    HW122445   1.258   3.082   4.064
 7182SOL    HW222446   1.395   3.061   4.150
 7183SOL     OW22447   0.441   6.270   1.791
 7183SOL    HW122448   0.378   6.347   1.788
 7183SOL    HW222449   0.492   6.265   1.705
 7184SOL     OW22450   6.582   0.014   3.373
 7184SOL    HW122451   6.570   0.112   3.386
 7184SOL    HW222452   6.531   7.004   3.292
 7185SOL     OW22453   4.828   0.711   4.958
 7185SOL    HW122454   4.804   0.776   4.887
 7185SOL    HW222455   4.744   0.666   4.991
 7186SOL     OW22456   0.234   0.098   6.232
 7186SOL    HW122457   0.276   0.182   6.199
 7186SOL    HW222458   0.279   0.069   6.316
 7187SOL     OW22459   3.046   3.074   4.825
 7187SOL    HW122460   2.970   3.013   4.848
 7187SOL    HW222461   3.132   3.024   4.835
 7188SOL     OW22462   4.115   4.824   0.020
 7188SOL    HW122463   4.124   4.767   6.958
 7188SOL    HW222464   4.025   4.811   0.061
 7189SOL     OW22465   5.797   2.385   5.231
 7189SOL    HW122466   5.716   2.361   5.177
 7189SOL    HW222467   5.807   2.485   5.233
 7190SOL     OW22468   5.610   5.103   0.995
 7190SOL    HW122469   5.587   5.167   1.068
 7190SOL    HW222470   5.590   5.145   0.907
 7191SOL     OW22471   0.526   4.174   3.388
 7191SOL    HW122472   0.584   4.093   3.381
 7191SOL    HW222473   0.577   4.249   3.430
 7192SOL     OW22474   1.907   4.630   6.483
 7192SOL    HW122475   1.881   4.660   6.575
 7192SOL    HW222476   2.003   4.602   6.483
 7193SOL     OW22477   2.424   2.402   2.285
 7193SOL    HW122478   2.499   2.441   2.231
 7193SOL    HW222479   2.381   2.474   2.339
 7194SOL     OW22480   3.207   2.752   5.821
 7194SOL    HW122481   3.123   2.699   5.809
 7194SOL    HW222482   3.240   2.742   5.915
 7195SOL     OW22483   0.044   3.715   6.564
 7195SOL    HW122484   6.976   3.702   6.517
 7195SOL    HW222485   0.117   3.670   6.513
 7196SOL     OW22486   2.957   3.746   2.128
 7196SOL    HW122487   2.956   3.839   2.164
 7196SOL    HW222488   3.051   3.718   2.111
 7197SOL     OW22489   2.054   3.751   5.607
 7197SOL    HW122490   1.997   3.682   5.562
 7197SOL    HW222491   2.030   3.842   5.573
 7198SOL     OW22492   6.493   1.032   1.188
 7198SOL    HW122493   6.476   1.129   1.202
 7198SOL    HW222494   6.584   1.009   1.221
 7199SOL     OW22495   1.188   0.874   2.120
 7199SOL    HW122496   1.187   0.908   2.026
 7199SOL    HW222497   1.103   0.900   2.166
 7200SOL     OW22498   1.364   2.098   0.626
 7200SOL    HW122499   1.308   2.168   0.581
 7200SOL    HW222500   1.304   2.040   0.681
 7201SOL     OW22501   5.777   5.721   4.030
 7201SOL    HW122502   5.857   5.779   4.012
 7201SOL    HW222503   5.709   5.772   4.082
 7202SOL     OW22504   4.734   0.421   5.702
 7202SOL    HW122505   4.829   0.398   5.682
 7202SOL    HW222506   4.729   0.515   5.735
 7203SOL     OW22507   0.293   1.667   1.850
 7203SOL    HW122508   0.240   1.604   1.794
 7203SOL    HW222509   0.371   1.619   1.890
 7204SOL     OW22510   6.935   0.955   1.403
 7204SOL    HW122511   7.009   0.988   1.344
 7204SOL    HW222512   6.898   0.870   1.365
 7205SOL     OW22513   2.071   2.269   4.890
 7205SOL    HW122514   2.161   2.266   4.847
 7205SOL    HW222515   2.001   2.246   4.822
 7206SOL     OW22516   1.763   2.537   1.119
 7206SOL    HW122517   1.856   2.568   1.140
 7206SOL    HW222518   1.702   2.616   1.115
 7207SOL     OW22519   1.702   1.962   3.774
 7207SOL    HW122520   1.612   1.982   3.813
 7207SOL    HW222521   1.696   1.961   3.674
 7208SOL     OW22522   3.173   0.734   4.234
 7208SOL    HW122523   3.242   0.783   4.288
 7208SOL    HW222524   3.085   0.740   4.281
 7209SOL     OW22525   3.140   1.578   2.296
 7209SOL    HW122526   3.217   1.633   2.266
 7209SOL    HW222527   3.054   1.624   2.271
 7210SOL     OW22528   2.599   1.616   3.216
 7210SOL    HW122529   2.598   1.686   3.145
 7210SOL    HW222530   2.640   1.533   3.180
 7211SOL     OW22531   3.328   5.618   5.275
 7211SOL    HW122532   3.376   5.591   5.191
 7211SOL    HW222533   3.377   5.581   5.354
 7212SOL     OW22534   5.886   4.657   6.101
 7212SOL    HW122535   5.902   4.756   6.090
 7212SOL    HW222536   5.791   4.636   6.077
 7213SOL     OW22537   3.700   1.274   0.951
 7213SOL    HW122538   3.602   1.267   0.972
 7213SOL    HW222539   3.749   1.309   1.031
 7214SOL     OW22540   0.304   1.496   7.005
 7214SOL    HW122541   0.373   1.561   0.017
 7214SOL    HW222542   0.313   1.411   0.036
 7215SOL     OW22543   6.673   2.971   3.170
 7215SOL    HW122544   6.665   3.026   3.253
 7215SOL    HW222545   6.681   3.032   3.091
 7216SOL     OW22546   3.107   6.261   3.088
 7216SOL    HW122547   3.145   6.311   3.165
 7216SOL    HW222548   3.149   6.294   3.003
 7217SOL     OW22549   1.412   4.374   3.139
 7217SOL    HW122550   1.509   4.347   3.138
 7217SOL    HW222551   1.355   4.295   3.118
 7218SOL     OW22552   6.089   3.702   4.855
 7218SOL    HW122553   6.073   3.653   4.769
 7218SOL    HW222554   6.025   3.778   4.863
 7219SOL     OW22555   3.575   5.966   1.612
 7219SOL    HW122556   3.505   5.954   1.542
 7219SOL    HW222557   3.542   5.929   1.699
 7220SOL     OW22558   6.425   4.945   4.065
 7220SOL    HW122559   6.409   4.946   3.966
 7220SOL    HW222560   6.476   5.026   4.091
 7221SOL     OW22561   3.651   5.699   5.292
 7221SOL    HW122562   3.623   5.615   5.246
 7221SOL    HW222563   3.714   5.677   5.366
 7222SOL     OW22564   6.812   0.097   4.128
 7222SOL    HW122565   6.836   0.007   4.091
 7222SOL    HW222566   6.726   0.129   4.088
 7223SOL     OW22567   1.541   2.187   0.832
 7223SOL    HW122568   1.483   2.144   0.763
 7223SOL    HW222569   1.485   2.248   0.889
 7224SOL     OW22570   4.140   1.955   3.908
 7224SOL    HW122571   4.065   1.960   3.842
 7224SOL    HW222572   4.205   1.884   3.879
 7225SOL     OW22573   1.925   6.991   1.041
 7225SOL    HW122574   1.874   6.941   0.971
 7225SOL    HW222575   2.010   6.942   1.061
 7226SOL     OW22576   6.290   0.692   6.935
 7226SOL    HW122577   6.275   0.600   6.973
 7226SOL    HW222578   6.361   0.738   6.988
 7227SOL     OW22579   3.023   0.631   2.183
 7227SOL    HW122580   2.932   0.621   2.143
 7227SOL    HW222581   3.015   0.673   2.274
 7228SOL     OW22582   0.719   2.762   2.644
 7228SOL    HW122583   0.630   2.747   2.689
 7228SOL    HW222584   0.711   2.736   2.547
 7229SOL     OW22585   6.820   0.295   4.423
 7229SOL    HW122586   6.878   0.286   4.503
 7229SOL    HW222587   6.724   0.297   4.451
 7230SOL     OW22588   2.398   4.948   4.220
 7230SOL    HW122589   2.363   5.038   4.246
 7230SOL    HW222590   2.453   4.911   4.295
 7231SOL     OW22591   4.652   1.330   7.003
 7231SOL    HW122592   4.558   1.346   0.012
 7231SOL    HW222593   4.654   1.278   6.918
 7232SOL     OW22594   5.680   0.019   2.737
 7232SOL    HW122595   5.726   7.018   2.651
 7232SOL    HW222596   5.633   6.956   2.770
 7233SOL     OW22597   6.468   1.090   5.174
 7233SOL    HW122598   6.413   1.047   5.245
 7233SOL    HW222599   6.433   1.182   5.156
 7234SOL     OW22600   5.091   3.764   3.228
 7234SOL    HW122601   5.044   3.753   3.315
 7234SOL    HW222602   5.027   3.743   3.153
 7235SOL     OW22603   6.582   5.659   1.585
 7235SOL    HW122604   6.621   5.615   1.503
 7235SOL    HW222605   6.621   5.617   1.667
 7236SOL     OW22606   2.589   2.465   3.327
 7236SOL    HW122607   2.659   2.402   3.363
 7236SOL    HW222608   2.601   2.475   3.228
 7237SOL     OW22609   5.306   0.316   6.528
 7237SOL    HW122610   5.390   0.302   6.581
 7237SOL    HW222611   5.326   0.378   6.452
 7238SOL     OW22612   4.589   3.010   6.931
 7238SOL    HW122613   4.653   3.015   7.009
 7238SOL    HW222614   4.552   3.101   6.913
 7239SOL     OW22615   0.529   3.681   2.570
 7239SOL    HW122616   0.592   3.719   2.638
 7239SOL    HW222617   0.577   3.668   2.484
 7240SOL     OW22618   6.917   1.720   6.048
 7240SOL    HW122619   6.823   1.687   6.038
 7240SOL    HW222620   6.930   1.800   5.989
 7241SOL     OW22621   2.637   1.027   1.659
 7241SOL    HW122622   2.620   1.032   1.561
 7241SOL    HW222623   2.608   0.938   1.694
 7242SOL     OW22624   0.614   5.323   3.817
 7242SOL    HW122625   0.700   5.289   3.856
 7242SOL    HW222626   0.539   5.263   3.843
 7243SOL     OW22627   6.507   4.027   6.407
 7243SOL    HW122628   6.595   4.048   6.451
 7243SOL    HW222629   6.513   4.049   6.309
 7244SOL     OW22630   0.337   6.437   6.810
 7244SOL    HW122631   0.254   6.483   6.843
 7244SOL    HW222632   0.348   6.454   6.712
 7245SOL     OW22633   1.596   2.912   6.745
 7245SOL    HW122634   1.667   2.958   6.692
 7245SOL    HW222635   1.522   2.884   6.685
 7246SOL     OW22636   2.982   0.287   4.320
 7246SOL    HW122637   2.883   0.303   4.329
 7246SOL    HW222638   3.022   0.275   4.410
 7247SOL     OW22639   2.800   2.480   5.359
 7247SOL    HW122640   2.851   2.566   5.360
 7247SOL    HW222641   2.864   2.403   5.360
 7248SOL     OW22642   3.331   0.602   4.755
 7248SOL    HW122643   3.385   0.547   4.691
 7248SOL    HW222644   3.370   0.694   4.760
 7249SOL     OW22645   4.150   5.138   1.971
 7249SOL    HW122646   4.093   5.135   2.053
 7249SOL    HW222647   4.169   5.045   1.940
 7250SOL     OW22648   5.214   5.586   5.490
 7250SOL    HW122649   5.220   5.587   5.391
 7250SOL    HW222650   5.164   5.505   5.520
 7251SOL     OW22651   0.556   6.116   5.234
 7251SOL    HW122652   0.577   6.202   5.189
 7251SOL    HW222653   0.535   6.046   5.165
 7252SOL     OW22654   3.046   3.948   2.332
 7252SOL    HW122655   3.051   3.908   2.424
 7252SOL    HW222656   3.120   4.015   2.320
 7253SOL     OW22657   1.468   5.927   5.580
 7253SOL    HW122658   1.500   5.890   5.493
 7253SOL    HW222659   1.374   5.897   5.597
 7254SOL     OW22660   5.575   4.449   3.570
 7254SOL    HW122661   5.601   4.381   3.639
 7254SOL    HW222662   5.625   4.430   3.485
 7255SOL     OW22663   5.489   3.135   6.498
 7255SOL    HW122664   5.442   3.203   6.441
 7255SOL    HW222665   5.423   3.068   6.531
 7256SOL     OW22666   3.550   6.852   6.037
 7256SOL    HW122667   3.453   6.839   6.018
 7256SOL    HW222668   3.568   6.833   6.133
 7257SOL     OW22669   0.182   1.717   4.492
 7257SOL    HW122670   0.249   1.647   4.517
 7257SOL    HW222671   0.227   1.789   4.439
 7258SOL     OW22672   5.719   2.292   2.324
 7258SOL    HW122673   5.746   2.281   2.229
 7258SOL    HW222674   5.624   2.261   2.335
 7259SOL     OW22675   1.148   3.971   3.252
 7259SOL    HW122676   1.106   3.902   3.311
 7259SOL    HW222677   1.246   3.974   3.269
 7260SOL     OW22678   5.713   2.469   0.993
 7260SOL    HW122679   5.635   2.407   1.007
 7260SOL    HW222680   5.738   2.511   1.080
 7261SOL     OW22681   0.376   3.958   0.780
 7261SOL    HW122682   0.403   4.053   0.766
 7261SOL    HW222683   0.444   3.913   0.838
 7262SOL     OW22684   5.431   1.784   6.070
 7262SOL    HW122685   5.373   1.851   6.025
 7262SOL    HW222686   5.435   1.803   6.168
 7263SOL     OW22687   0.067   6.494   0.332
 7263SOL    HW122688   0.111   6.408   0.357
 7263SOL    HW222689   0.062   6.553   0.413
 7264SOL     OW22690   5.770   1.479   0.387
 7264SOL    HW122691   5.772   1.381   0.407
 7264SOL    HW222692   5.852   1.504   0.335
 7265SOL     OW22693   5.133   6.079   4.669
 7265SOL    HW122694   5.085   6.159   4.704
 7265SOL    HW222695   5.068   6.006   4.650
 7266SOL     OW22696   0.024   0.856   4.061
 7266SOL    HW122697   6.954   0.836   4.021
 7266SOL    HW222698   0.090   0.786   4.035
 7267SOL     OW22699   6.420   5.875   5.297
 7267SOL    HW122700   6.329   5.866   5.336
 7267SOL    HW222701   6.414   5.921   5.208
 7268SOL     OW22702   6.323   5.926   4.307
 7268SOL    HW122703   6.315   6.010   4.360
 7268SOL    HW222704   6.370   5.945   4.221
 7269SOL     OW22705   1.774   4.908   5.466
 7269SOL    HW122706   1.759   4.858   5.551
 7269SOL    HW222707   1.758   5.006   5.482
 7270SOL     OW22708   0.291   1.903   4.308
 7270SOL    HW122709   0.381   1.947   4.319
 7270SOL    HW222710   0.250   1.933   4.222
 7271SOL     OW22711   1.386   4.850   4.196
 7271SOL    HW122712   1.326   4.796   4.254
 7271SOL    HW222713   1.406   4.800   4.112
 7272SOL     OW22714   5.996   6.464   1.843
 7272SOL    HW122715   6.066   6.532   1.866
 7272SOL    HW222716   6.006   6.437   1.747
 7273SOL     OW22717   5.817   2.637   5.996
 7273SOL    HW122718   5.854   2.677   6.080
 7273SOL    HW222719   5.848   2.689   5.917
 7274SOL     OW22720   0.820   4.549   6.587
 7274SOL    HW122721   0.767   4.486   6.643
 7274SOL    HW222722   0.810   4.526   6.491
 7275SOL     OW22723   6.807   6.827   2.814
 7275SOL    HW122724   6.884   6.870   2.862
 7275SOL    HW222725   6.721   6.870   2.844
 7276SOL     OW22726   5.584   0.012   3.557
 7276SOL    HW122727   5.492   0.010   3.516
 7276SOL    HW222728   5.581   6.991   3.648
 7277SOL     OW22729   4.243   0.872   5.826
 7277SOL    HW122730   4.297   0.949   5.858
 7277SOL    HW222731   4.260   0.793   5.885
 7278SOL     OW22732   3.041   4.052   1.935
 7278SOL    HW122733   3.073   4.136   1.891
 7278SOL    HW222734   2.961   4.071   1.991
 7279SOL     OW22735   4.044   6.073   0.176
 7279SOL    HW122736   4.034   6.162   0.131
 7279SOL    HW222737   3.953   6.038   0.200
 7280SOL     OW22738   5.140   0.272   4.763
 7280SOL    HW122739   5.123   0.174   4.762
 7280SOL    HW222740   5.062   0.320   4.721
 7281SOL     OW22741   3.487   1.838   6.599
 7281SOL    HW122742   3.460   1.747   6.629
 7281SOL    HW222743   3.496   1.898   6.678
 7282SOL     OW22744   5.675   4.990   2.536
 7282SOL    HW122745   5.586   4.999   2.579
 7282SOL    HW222746   5.744   4.965   2.605
 7283SOL     OW22747   2.373   1.093   2.802
 7283SOL    HW122748   2.378   0.993   2.813
 7283SOL    HW222749   2.459   1.126   2.764
 7284SOL     OW22750   0.185   4.022   5.502
 7284SOL    HW122751   0.261   4.021   5.568
 7284SOL    HW222752   0.198   4.097   5.438
 7285SOL     OW22753   4.933   4.867   2.487
 7285SOL    HW122754   4.890   4.878   2.398
 7285SOL    HW222755   4.882   4.919   2.556
 7286SOL     OW22756   2.203   2.210   1.068
 7286SOL    HW122757   2.117   2.217   1.118
 7286SOL    HW222758   2.231   2.114   1.062
 7287SOL     OW22759   0.256   1.436   6.734
 7287SOL    HW122760   0.271   1.435   6.833
 7287SOL    HW222761   0.317   1.369   6.691
 7288SOL     OW22762   3.730   0.939   6.190
 7288SOL    HW122763   3.697   1.033   6.192
 7288SOL    HW222764   3.828   0.939   6.169
 7289SOL     OW22765   5.760   1.549   3.189
 7289SOL    HW122766   5.831   1.608   3.151
 7289SOL    HW222767   5.732   1.482   3.120
 7290SOL     OW22768   2.796   5.546   5.652
 7290SOL    HW122769   2.794   5.619   5.721
 7290SOL    HW222770   2.836   5.581   5.568
 7291SOL     OW22771   2.300   7.016   1.521
 7291SOL    HW122772   2.390   0.024   1.554
 7291SOL    HW222773   2.309   6.977   1.429
 7292SOL     OW22774   2.817   7.019   3.695
 7292SOL    HW122775   2.759   6.939   3.678
 7292SOL    HW222776   2.904   6.988   3.734
 7293SOL     OW22777   1.905   1.478   5.159
 7293SOL    HW122778   1.940   1.565   5.194
 7293SOL    HW222779   1.893   1.413   5.234
 7294SOL     OW22780   2.580   5.068   0.301
 7294SOL    HW122781   2.553   4.976   0.330
 7294SOL    HW222782   2.646   5.106   0.366
 7295SOL     OW22783   0.479   1.777   0.868
 7295SOL    HW122784   0.575   1.796   0.848
 7295SOL    HW222785   0.464   1.776   0.967
 7296SOL     OW22786   2.980   4.583   1.052
 7296SOL    HW122787   2.907   4.515   1.046
 7296SOL    HW222788   2.950   4.660   1.108
 7297SOL     OW22789   3.932   5.913   0.706
 7297SOL    HW122790   3.855   5.917   0.642
 7297SOL    HW222791   3.917   5.839   0.771
 7298SOL     OW22792   5.558   4.337   5.135
 7298SOL    HW122793   5.620   4.354   5.059
 7298SOL    HW222794   5.609   4.336   5.221
 7299SOL     OW22795   0.496   2.442   6.832
 7299SOL    HW122796   0.576   2.413   6.780
 7299SOL    HW222797   0.474   2.537   6.809
 7300SOL     OW22798   5.241   5.424   1.502
 7300SOL    HW122799   5.316   5.425   1.437
 7300SOL    HW222800   5.223   5.517   1.534
 7301SOL     OW22801   6.960   0.729   5.081
 7301SOL    HW122802   0.009   0.768   5.143
 7301SOL    HW222803   6.880   0.699   5.133
 7302SOL     OW22804   0.541   1.408   0.352
 7302SOL    HW122805   0.469   1.368   0.297
 7302SOL    HW222806   0.624   1.418   0.297
 7303SOL     OW22807   4.931   0.309   6.590
 7303SOL    HW122808   4.994   0.384   6.569
 7303SOL    HW222809   4.982   0.234   6.632
 7304SOL     OW22810   3.887   4.203   6.708
 7304SOL    HW122811   3.952   4.127   6.716
 7304SOL    HW222812   3.863   4.216   6.611
 7305SOL     OW22813   5.202   1.789   0.339
 7305SOL    HW122814   5.120   1.803   0.396
 7305SOL    HW222815   5.231   1.876   0.301
 7306SOL     OW22816   4.861   3.710   1.550
 7306SOL    HW122817   4.840   3.616   1.523
 7306SOL    HW222818   4.789   3.771   1.517
 7307SOL     OW22819   2.941   6.260   1.531
 7307SOL    HW122820   2.991   6.329   1.584
 7307SOL    HW222821   2.958   6.274   1.433
 7308SOL     OW22822   6.740   3.826   5.651
 7308SOL    HW122823   6.820   3.767   5.654
 7308SOL    HW222824   6.657   3.771   5.656
 7309SOL     OW22825   5.029   5.916   0.342
 7309SOL    HW122826   5.091   5.863   0.399
 7309SOL    HW222827   5.072   5.936   0.255
 7310SOL     OW22828   1.844   4.443   1.073
 7310SOL    HW122829   1.917   4.432   1.141
 7310SOL    HW222830   1.880   4.492   0.993
 7311SOL     OW22831   3.207   1.967   2.308
 7311SOL    HW122832   3.129   1.907   2.328
 7311SOL    HW222833   3.188   2.018   2.224
 7312SOL     OW22834   0.176   2.754   5.697
 7312SOL    HW122835   0.272   2.755   5.726
 7312SOL    HW222836   0.120   2.798   5.768
 7313SOL     OW22837   4.698   2.698   6.216
 7313SOL    HW122838   4.736   2.605   6.219
 7313SOL    HW222839   4.598   2.693   6.217
 7314SOL     OW22840   6.654   4.097   5.092
 7314SOL    HW122841   6.604   4.121   5.175
 7314SOL    HW222842   6.614   4.015   5.051
 7315SOL     OW22843   6.345   0.457   3.274
 7315SOL    HW122844   6.248   0.471   3.254
 7315SOL    HW222845   6.390   0.545   3.283
 7316SOL     OW22846   3.138   3.309   5.812
 7316SOL    HW122847   3.220   3.334   5.864
 7316SOL    HW222848   3.159   3.311   5.714
 7317SOL     OW22849   4.383   0.497   1.688
 7317SOL    HW122850   4.457   0.439   1.655
 7317SOL    HW222851   4.335   0.537   1.610
 7318SOL     OW22852   0.772   1.475   1.054
 7318SOL    HW122853   0.687   1.423   1.054
 7318SOL    HW222854   0.833   1.439   1.125
 7319SOL     OW22855   6.308   4.390   6.909
 7319SOL    HW122856   6.382   4.323   6.904
 7319SOL    HW222857   6.342   4.479   6.878
 7320SOL     OW22858   6.722   3.401   2.109
 7320SOL    HW122859   6.685   3.464   2.041
 7320SOL    HW222860   6.818   3.425   2.128
 7321SOL     OW22861   2.547   0.562   4.985
 7321SOL    HW122862   2.539   0.661   4.971
 7321SOL    HW222863   2.527   0.541   5.081
 7322SOL     OW22864   1.260   3.341   2.453
 7322SOL    HW122865   1.356   3.314   2.451
 7322SOL    HW222866   1.210   3.292   2.382
 7323SOL     OW22867   2.247   2.015   2.275
 7323SOL    HW122868   2.286   2.034   2.365
 7323SOL    HW222869   2.150   2.040   2.276
 7324SOL     OW22870   5.480   6.810   2.741
 7324SOL    HW122871   5.428   6.867   2.804
 7324SOL    HW222872   5.488   6.717   2.778
 7325SOL     OW22873   4.105   0.654   6.156
 7325SOL    HW122874   4.119   0.638   6.254
 7325SOL    HW222875   4.021   0.609   6.127
 7326SOL     OW22876   2.197   6.143   5.222
 7326SOL    HW122877   2.237   6.083   5.291
 7326SOL    HW222878   2.269   6.193   5.174
 7327SOL     OW22879   6.823   3.093   5.817
 7327SOL    HW122880   6.759   3.049   5.880
 7327SOL    HW222881   6.784   3.093   5.725
 7328SOL     OW22882   3.741   0.111   6.781
 7328SOL    HW122883   3.820   0.097   6.840
 7328SOL    HW222884   3.722   0.027   6.730
 7329SOL     OW22885   4.240   4.189   1.144
 7329SOL    HW122886   4.291   4.188   1.230
 7329SOL    HW222887   4.225   4.095   1.113
 7330SOL     OW22888   2.764   2.076   0.372
 7330SOL    HW122889   2.737   2.037   0.460
 7330SOL    HW222890   2.864   2.077   0.365
 7331SOL     OW22891   5.960   0.399   1.442
 7331SOL    HW122892   5.974   0.496   1.462
 7331SOL    HW222893   6.040   0.347   1.471
 7332SOL     OW22894   2.777   5.590   0.120
 7332SOL    HW122895   2.784   5.510   0.061
 7332SOL    HW222896   2.684   5.626   0.117
 7333SOL     OW22897   0.338   3.559   3.784
 7333SOL    HW122898   0.315   3.583   3.689
 7333SOL    HW222899   0.438   3.556   3.793
 7334SOL     OW22900   4.355   6.028   6.218
 7334SOL    HW122901   4.395   5.938   6.239
 7334SOL    HW222902   4.311   6.065   6.300
 7335SOL     OW22903   1.854   2.682   2.217
 7335SOL    HW122904   1.834   2.770   2.261
 7335SOL    HW222905   1.893   2.619   2.284
 7336SOL     OW22906   1.481   6.404   3.106
 7336SOL    HW122907   1.577   6.425   3.128
 7336SOL    HW222908   1.471   6.306   3.090
 7337SOL     OW22909   0.919   3.097   2.441
 7337SOL    HW122910   0.945   3.134   2.530
 7337SOL    HW222911   0.857   3.020   2.453
 7338SOL     OW22912   6.313   2.430   1.238
 7338SOL    HW122913   6.348   2.337   1.245
 7338SOL    HW222914   6.379   2.493   1.278
 7339SOL     OW22915   5.456   6.313   3.513
 7339SOL    HW122916   5.542   6.331   3.466
 7339SOL    HW222917   5.474   6.304   3.611
 7340SOL     OW22918   1.944   0.284   0.604
 7340SOL    HW122919   1.846   0.292   0.590
 7340SOL    HW222920   1.992   0.305   0.519
 7341SOL     OW22921   6.718   2.132   6.924
 7341SOL    HW122922   6.659   2.052   6.934
 7341SOL    HW222923   6.755   2.134   6.832
 7342SOL     OW22924   6.463   0.206   2.075
 7342SOL    HW122925   6.480   0.169   1.984
 7342SOL    HW222926   6.544   0.192   2.132
 7343SOL     OW22927   4.358   2.675   0.329
 7343SOL    HW122928   4.316   2.684   0.239
 7343SOL    HW222929   4.290   2.692   0.401
 7344SOL     OW22930   1.254   0.006   5.866
 7344SOL    HW122931   1.207   6.950   5.818
 7344SOL    HW222932   1.345   6.994   5.894
 7345SOL     OW22933   3.648   3.318   5.365
 7345SOL    HW122934   3.738   3.348   5.399
 7345SOL    HW222935   3.632   3.224   5.392
 7346SOL     OW22936   3.919   6.668   2.543
 7346SOL    HW122937   3.912   6.613   2.626
 7346SOL    HW222938   3.912   6.765   2.567
 7347SOL     OW22939   0.408   2.201   6.984
 7347SOL    HW122940   0.435   2.287   6.941
 7347SOL    HW222941   0.316   2.176   6.955
 7348SOL     OW22942   1.666   3.616   3.691
 7348SOL    HW122943   1.664   3.631   3.592
 7348SOL    HW222944   1.712   3.529   3.710
 7349SOL     OW22945   4.478   0.405   0.667
 7349SOL    HW122946   4.436   0.471   0.729
 7349SOL    HW222947   4.510   0.452   0.585
 7350SOL     OW22948   2.735   0.499   5.352
 7350SOL    HW122949   2.711   0.517   5.448
 7350SOL    HW222950   2.833   0.510   5.340
 7351SOL     OW22951   5.170   5.094   4.108
 7351SOL    HW122952   5.156   5.166   4.040
 7351SOL    HW222953   5.093   5.030   4.105
 7352SOL     OW22954   0.821   2.079   3.022
 7352SOL    HW122955   0.908   2.127   3.007
 7352SOL    HW222956   0.771   2.075   2.935
 7353SOL     OW22957   6.625   0.331   6.814
 7353SOL    HW122958   6.690   0.299   6.744
 7353SOL    HW222959   6.558   0.260   6.832
 7354SOL     OW22960   1.644   0.537   4.038
 7354SOL    HW122961   1.702   0.618   4.028
 7354SOL    HW222962   1.615   0.506   3.947
 7355SOL     OW22963   0.097   1.883   6.384
 7355SOL    HW122964   0.131   1.849   6.297
 7355SOL    HW222965   0.055   1.809   6.435
 7356SOL     OW22966   3.821   3.626   6.220
 7356SOL    HW122967   3.735   3.634   6.269
 7356SOL    HW222968   3.818   3.681   6.136
 7357SOL     OW22969   3.951   5.878   1.543
 7357SOL    HW122970   3.990   5.878   1.635
 7357SOL    HW222971   3.957   5.786   1.504
 7358SOL     OW22972   5.875   2.537   2.329
 7358SOL    HW122973   5.852   2.606   2.260
 7358SOL    HW222974   5.794   2.483   2.351
 7359SOL     OW22975   4.043   1.698   6.276
 7359SOL    HW122976   4.004   1.769   6.335
 7359SOL    HW222977   4.139   1.685   6.300
 7360SOL     OW22978   2.295   3.526   5.235
 7360SOL    HW122979   2.273   3.431   5.212
 7360SOL    HW222980   2.391   3.532   5.263
 7361SOL     OW22981   5.257   0.643   2.459
 7361SOL    HW122982   5.228   0.566   2.402
 7361SOL    HW222983   5.176   0.691   2.494
 7362SOL     OW22984   3.938   5.097   5.604
 7362SOL    HW122985   3.966   5.191   5.586
 7362SOL    HW222986   3.955   5.075   5.700
 7363SOL     OW22987   4.134   1.232   1.629
 7363SOL    HW122988   4.219   1.256   1.675
 7363SOL    HW222989   4.128   1.133   1.620
 7364SOL     OW22990   4.240   0.188   1.750
 7364SOL    HW122991   4.295   0.268   1.727
 7364SOL    HW222992   4.289   0.133   1.818
 7365SOL     OW22993   6.557   5.578   2.736
 7365SOL    HW122994   6.567   5.490   2.689
 7365SOL    HW222995   6.460   5.595   2.754
 7366SOL     OW22996   2.483   0.203   4.359
 7366SOL    HW122997   2.412   0.256   4.313
 7366SOL    HW222998   2.452   0.108   4.369
 7367SOL     OW22999   4.652   1.956   0.419
 7367SOL    HW123000   4.592   1.991   0.347
 7367SOL    HW223001   4.602   1.953   0.506
 7368SOL     OW23002   3.584   3.455   2.496
 7368SOL    HW123003   3.592   3.358   2.521
 7368SOL    HW223004   3.535   3.462   2.410
 7369SOL     OW23005   4.117   2.441   1.160
 7369SOL    HW123006   4.091   2.537   1.174
 7369SOL    HW223007   4.047   2.396   1.106
 7370SOL     OW23008   2.597   2.058   4.960
 7370SOL    HW123009   2.638   2.136   5.007
 7370SOL    HW223010   2.569   2.086   4.868
 7371SOL     OW23011   3.338   6.825   3.813
 7371SOL    HW123012   3.339   6.818   3.913
 7371SOL    HW223013   3.414   6.883   3.783
 7372SOL     OW23014   3.813   6.643   4.700
 7372SOL    HW123015   3.895   6.671   4.750
 7372SOL    HW223016   3.739   6.706   4.720
 7373SOL     OW23017   4.682   1.958   4.710
 7373SOL    HW123018   4.693   1.897   4.789
 7373SOL    HW223019   4.594   2.005   4.715
 7374SOL     OW23020   1.324   1.686   5.294
 7374SOL    HW123021   1.337   1.721   5.387
 7374SOL    HW223022   1.345   1.759   5.228
 7375SOL     OW23023   2.030   3.191   2.184
 7375SOL    HW123024   2.082   3.132   2.246
 7375SOL    HW223025   2.093   3.254   2.139
 7376SOL     OW23026   1.081   3.632   0.820
 7376SOL    HW123027   0.993   3.654   0.779
 7376SOL    HW223028   1.079   3.654   0.918
 7377SOL     OW23029   3.445   5.042   6.856
 7377SOL    HW123030   3.445   5.132   6.901
 7377SOL    HW223031   3.469   4.972   6.923
 7378SOL     OW23032   1.743   6.546   3.920
 7378SOL    HW123033   1.835   6.585   3.919
 7378SOL    HW223034   1.678   6.613   3.882
 7379SOL     OW23035   3.685   0.355   1.172
 7379SOL    HW123036   3.738   0.424   1.121
 7379SOL    HW223037   3.659   0.393   1.261
 7380SOL     OW23038   6.585   4.437   3.486
 7380SOL    HW123039   6.575   4.443   3.585
 7380SOL    HW223040   6.558   4.346   3.455
 7381SOL     OW23041   4.280   1.890   1.018
 7381SOL    HW123042   4.253   1.864   1.111
 7381SOL    HW223043   4.209   1.947   0.977
 7382SOL     OW23044   6.419   2.072   5.674
 7382SOL    HW123045   6.364   2.128   5.735
 7382SOL    HW223046   6.510   2.058   5.715
 7383SOL     OW23047   1.656   6.310   1.648
 7383SOL    HW123048   1.594   6.368   1.700
 7383SOL    HW223049   1.630   6.311   1.552
 7384SOL     OW23050   0.213   6.625   1.160
 7384SOL    HW123051   0.255   6.628   1.070
 7384SOL    HW223052   0.284   6.629   1.230
 7385SOL     OW23053   3.304   4.873   2.507
 7385SOL    HW123054   3.273   4.779   2.492
 7385SOL    HW223055   3.297   4.896   2.604
 7386SOL     OW23056   0.077   3.539   7.014
 7386SOL    HW123057   0.008   3.472   0.020
 7386SOL    HW223058   0.045   3.592   6.936
 7387SOL     OW23059   5.707   4.537   5.870
 7387SOL    HW123060   5.634   4.586   5.823
 7387SOL    HW223061   5.794   4.553   5.822
 7388SOL     OW23062   1.285   6.042   2.514
 7388SOL    HW123063   1.357   6.006   2.573
 7388SOL    HW223064   1.265   6.137   2.541
 7389SOL     OW23065   0.179   3.304   0.325
 7389SOL    HW123066   0.082   3.290   0.344
 7389SOL    HW223067   0.234   3.264   0.399
 7390SOL     OW23068   2.733   1.955   2.790
 7390SOL    HW123069   2.803   2.023   2.767
 7390SOL    HW223070   2.777   1.870   2.818
 7391SOL     OW23071   4.102   3.558   2.353
 7391SOL    HW123072   4.023   3.510   2.391
 7391SOL    HW223073   4.182   3.498   2.356
 7392SOL     OW23074   4.179   6.060   6.461
 7392SOL    HW123075   4.098   6.077   6.518
 7392SOL    HW223076   4.244   6.136   6.472
 7393SOL     OW23077   6.432   4.795   3.718
 7393SOL    HW123078   6.373   4.869   3.750
 7393SOL    HW223079   6.465   4.742   3.797
 7394SOL     OW23080   2.338   2.594   6.339
 7394SOL    HW123081   2.279   2.575   6.417
 7394SOL    HW223082   2.432   2.605   6.370
 7395SOL     OW23083   2.097   3.501   1.198
 7395SOL    HW123084   2.029   3.427   1.193
 7395SOL    HW223085   2.123   3.515   1.293
 7396SOL     OW23086   2.722   5.528   1.595
 7396SOL    HW123087   2.695   5.445   1.545
 7396SOL    HW223088   2.649   5.596   1.588
 7397SOL     OW23089   5.076   4.260   4.673
 7397SOL    HW123090   4.980   4.270   4.646
 7397SOL    HW223091   5.100   4.163   4.673
 7398SOL     OW23092   1.456   4.594   2.991
 7398SOL    HW123093   1.545   4.601   2.947
 7398SOL    HW223094   1.451   4.509   3.044
 7399SOL     OW23095   6.076   3.103   4.756
 7399SOL    HW123096   5.990   3.054   4.744
 7399SOL    HW223097   6.059   3.188   4.806
 7400SOL     OW23098   5.687   2.045   5.411
 7400SOL    HW123099   5.662   1.984   5.487
 7400SOL    HW223100   5.623   2.030   5.335
 7401SOL     OW23101   1.550   3.184   2.883
 7401SOL    HW123102   1.514   3.094   2.911
 7401SOL    HW223103   1.485   3.255   2.909
 7402SOL     OW23104   2.746   5.684   4.904
 7402SOL    HW123105   2.709   5.592   4.918
 7402SOL    HW223106   2.741   5.736   4.989
 7403SOL     OW23107   2.114   3.197   3.328
 7403SOL    HW123108   2.166   3.123   3.373
 7403SOL    HW223109   2.152   3.214   3.237
 7404SOL     OW23110   3.206   3.843   1.706
 7404SOL    HW123111   3.112   3.826   1.735
 7404SOL    HW223112   3.256   3.890   1.780
 7405SOL     OW23113   2.862   5.575   5.156
 7405SOL    HW123114   2.877   5.476   5.159
 7405SOL    HW223115   2.873   5.613   5.248
 7406SOL     OW23116   0.465   1.369   5.273
 7406SOL    HW123117   0.527   1.444   5.297
 7406SOL    HW223118   0.492   1.287   5.324
 7407SOL     OW23119   0.578   5.914   6.731
 7407SOL    HW123120   0.600   5.997   6.681
 7407SOL    HW223121   0.531   5.938   6.817
 7408SOL     OW23122   3.249   3.963   5.063
 7408SOL    HW123123   3.266   3.979   4.966
 7408SOL    HW223124   3.151   3.975   5.082
 7409SOL     OW23125   5.648   4.215   0.200
 7409SOL    HW123126   5.596   4.290   0.240
 7409SOL    HW223127   5.744   4.224   0.225
 7410SOL     OW23128   0.208   0.240   0.977
 7410SOL    HW123129   0.275   0.168   0.958
 7410SOL    HW223130   0.248   0.329   0.955
 7411SOL     OW23131   0.978   2.037   6.021
 7411SOL    HW123132   0.896   2.010   6.070
 7411SOL    HW223133   0.953   2.072   5.930
 7412SOL     OW23134   3.643   0.031   0.063
 7412SOL    HW123135   3.737   0.061   0.047
 7412SOL    HW223136   3.582   0.111   0.056
 7413SOL     OW23137   4.349   5.197   3.466
 7413SOL    HW123138   4.286   5.190   3.389
 7413SOL    HW223139   4.376   5.106   3.496
 7414SOL     OW23140   2.369   1.827   4.265
 7414SOL    HW123141   2.343   1.885   4.343
 7414SOL    HW223142   2.467   1.811   4.267
 7415SOL     OW23143   3.380   0.059   6.316
 7415SOL    HW123144   3.335   6.990   6.306
 7415SOL    HW223145   3.389   0.081   6.413
 7416SOL     OW23146   0.751   1.539   2.401
 7416SOL    HW123147   0.698   1.565   2.482
 7416SOL    HW223148   0.844   1.513   2.428
 7417SOL     OW23149   1.264   2.633   3.361
 7417SOL    HW123150   1.244   2.654   3.265
 7417SOL    HW223151   1.320   2.706   3.400
 7418SOL     OW23152   1.835   4.667   6.199
 7418SOL    HW123153   1.858   4.692   6.293
 7418SOL    HW223154   1.851   4.570   6.186
 7419SOL     OW23155   6.411   3.845   3.705
 7419SOL    HW123156   6.368   3.801   3.627
 7419SOL    HW223157   6.404   3.787   3.786
 7420SOL     OW23158   7.000   6.487   2.198
 7420SOL    HW123159   6.988   6.473   2.100
 7420SOL    HW223160   6.912   6.508   2.240
 7421SOL     OW23161   4.568   3.397   1.728
 7421SOL    HW123162   4.577   3.299   1.707
 7421SOL    HW223163   4.473   3.425   1.715
 7422SOL     OW23164   5.711   2.669   2.153
 7422SOL    HW123165   5.694   2.753   2.103
 7422SOL    HW223166   5.638   2.654   2.220
 7423SOL     OW23167   5.904   1.696   5.842
 7423SOL    HW123168   5.821   1.738   5.877
 7423SOL    HW223169   5.891   1.673   5.745
 7424SOL     OW23170   0.156   1.043   5.437
 7424SOL    HW123171   0.114   1.124   5.398
 7424SOL    HW223172   0.253   1.040   5.414
 7425SOL     OW23173   5.434   0.025   0.411
 7425SOL    HW123174   5.396   0.055   0.498
 7425SOL    HW223175   5.528   0.060   0.402
 7426SOL     OW23176   3.768   2.708   6.459
 7426SOL    HW123177   3.713   2.779   6.414
 7426SOL    HW223178   3.806   2.745   6.543
 7427SOL     OW23179   3.486   1.197   4.132
 7427SOL    HW123180   3.487   1.122   4.065
 7427SOL    HW223181   3.548   1.270   4.101
 7428SOL     OW23182   4.045   6.576   5.858
 7428SOL    HW123183   3.955   6.595   5.820
 7428SOL    HW223184   4.054   6.619   5.948
 7429SOL     OW23185   1.100   6.956   2.552
 7429SOL    HW123186   1.027   6.987   2.491
 7429SOL    HW223187   1.189   6.980   2.512
 7430SOL     OW23188   0.045   4.816   2.988
 7430SOL    HW123189   7.003   4.818   3.067
 7430SOL    HW223190   0.012   4.750   2.922
 7431SOL     OW23191   1.882   2.496   4.654
 7431SOL    HW123192   1.862   2.398   4.652
 7431SOL    HW223193   1.924   2.524   4.568
 7432SOL     OW23194   2.009   0.431   3.457
 7432SOL    HW123195   2.030   0.335   3.437
 7432SOL    HW223196   2.004   0.482   3.371
 7433SOL     OW23197   3.467   6.759   6.616
 7433SOL    HW123198   3.464   6.672   6.567
 7433SOL    HW223199   3.472   6.742   6.714
 7434SOL     OW23200   4.695   6.099   5.964
 7434SOL    HW123201   4.727   6.169   6.027
 7434SOL    HW223202   4.650   6.026   6.015
 7435SOL     OW23203   4.728   6.686   2.123
 7435SOL    HW123204   4.706   6.774   2.167
 7435SOL    HW223205   4.827   6.673   2.122
 7436SOL     OW23206   5.150   3.882   6.693
 7436SOL    HW123207   5.163   3.818   6.617
 7436SOL    HW223208   5.198   3.847   6.773
 7437SOL     OW23209   3.257   5.560   1.153
 7437SOL    HW123210   3.227   5.593   1.064
 7437SOL    HW223211   3.193   5.492   1.187
 7438SOL     OW23212   2.308   0.842   0.744
 7438SOL    HW123213   2.344   0.910   0.680
 7438SOL    HW223214   2.211   0.826   0.725
 7439SOL     OW23215   1.787   5.120   6.261
 7439SOL    HW123216   1.799   5.207   6.310
 7439SOL    HW223217   1.825   5.046   6.316
 7440SOL     OW23218   4.853   3.101   4.241
 7440SOL    HW123219   4.837   3.104   4.340
 7440SOL    HW223220   4.857   3.194   4.206
 7441SOL     OW23221   5.646   6.366   2.199
 7441SOL    HW123222   5.565   6.309   2.182
 7441SOL    HW223223   5.723   6.307   2.223
 7442SOL     OW23224   5.457   0.573   5.756
 7442SOL    HW123225   5.479   0.478   5.731
 7442SOL    HW223226   5.363   0.577   5.790
 7443SOL     OW23227   0.198   6.085   2.035
 7443SOL    HW123228   0.132   6.010   2.025
 7443SOL    HW223229   0.287   6.056   2.003
 7444SOL     OW23230   0.681   0.415   5.937
 7444SOL    HW123231   0.584   0.404   5.914
 7444SOL    HW223232   0.736   0.416   5.854
 7445SOL     OW23233   4.081   6.420   2.169
 7445SOL    HW123234   4.058   6.506   2.213
 7445SOL    HW223235   4.080   6.431   2.070
 7446SOL     OW23236   4.938   3.212   0.312
 7446SOL    HW123237   4.928   3.186   0.408
 7446SOL    HW223238   5.033   3.236   0.294
 7447SOL     OW23239   0.845   4.227   0.184
 7447SOL    HW123240   0.759   4.176   0.180
 7447SOL    HW223241   0.845   4.285   0.266
 7448SOL     OW23242   4.885   5.906   6.509
 7448SOL    HW123243   4.827   5.888   6.429
 7448SOL    HW223244   4.894   5.822   6.563
 7449SOL     OW23245   0.745   4.611   0.306
 7449SOL    HW123246   0.689   4.652   0.378
 7449SOL    HW223247   0.687   4.579   0.231
 7450SOL     OW23248   5.287   1.931   5.886
 7450SOL    HW123249   5.318   1.905   5.795
 7450SOL    HW223250   5.189   1.911   5.895
 7451SOL     OW23251   5.713   5.304   2.457
 7451SOL    HW123252   5.798   5.309   2.404
 7451SOL    HW223253   5.686   5.208   2.466
 7452SOL     OW23254   5.363   6.244   4.992
 7452SOL    HW123255   5.393   6.194   4.911
 7452SOL    HW223256   5.383   6.190   5.074
 7453SOL     OW23257   4.826   5.575   6.328
 7453SOL    HW123258   4.829   5.545   6.423
 7453SOL    HW223259   4.786   5.667   6.323
 7454SOL     OW23260   3.463   1.800   0.545
 7454SOL    HW123261   3.422   1.859   0.475
 7454SOL    HW223262   3.402   1.723   0.563
 7455SOL     OW23263   6.461   2.627   2.749
 7455SOL    HW123264   6.543   2.621   2.693
 7455SOL    HW223265   6.381   2.601   2.695
 7456SOL     OW23266   2.360   2.391   5.262
 7456SOL    HW123267   2.268   2.359   5.284
 7456SOL    HW223268   2.412   2.316   5.220
 7457SOL     OW23269   2.437   6.811   3.347
 7457SOL    HW123270   2.503   6.740   3.370
 7457SOL    HW223271   2.382   6.833   3.427
 7458SOL     OW23272   0.767   6.420   4.704
 7458SOL    HW123273   0.811   6.471   4.778
 7458SOL    HW223274   0.700   6.479   4.659
 7459SOL     OW23275   6.495   1.048   2.723
 7459SOL    HW123276   6.554   0.982   2.770
 7459SOL    HW223277   6.540   1.137   2.722
 7460SOL     OW23278   1.457   6.698   0.498
 7460SOL    HW123279   1.525   6.640   0.453
 7460SOL    HW223280   1.376   6.644   0.520
 7461SOL     OW23281   0.692   5.655   5.948
 7461SOL    HW123282   0.774   5.695   5.909
 7461SOL    HW223283   0.699   5.555   5.945
 7462SOL     OW23284   1.157   5.525   1.026
 7462SOL    HW123285   1.189   5.444   0.976
 7462SOL    HW223286   1.236   5.580   1.052
 7463SOL     OW23287   4.060   4.581   6.912
 7463SOL    HW123288   3.989   4.613   6.850
 7463SOL    HW223289   4.146   4.571   6.863
 7464SOL     OW23290   0.120   4.968   4.562
 7464SOL    HW123291   0.192   5.006   4.503
 7464SOL    HW223292   0.120   5.017   4.649
 7465SOL     OW23293   2.384   5.069   0.101
 7465SOL    HW123294   2.452   5.077   0.174
 7465SOL    HW223295   2.421   5.014   0.027
 7466SOL     OW23296   1.026   0.292   5.011
 7466SOL    HW123297   0.980   0.254   4.930
 7466SOL    HW223298   1.122   0.308   4.989
 7467SOL     OW23299   0.036   3.541   5.883
 7467SOL    HW123300   6.980   3.477   5.876
 7467SOL    HW223301   0.116   3.505   5.834
 7468SOL     OW23302   5.513   2.529   5.452
 7468SOL    HW123303   5.559   2.443   5.476
 7468SOL    HW223304   5.541   2.600   5.517
 7469SOL     OW23305   6.831   2.510   0.611
 7469SOL    HW123306   6.828   2.520   0.710
 7469SOL    HW223307   6.918   2.546   0.576
 7470SOL     OW23308   5.943   3.869   3.838
 7470SOL    HW123309   6.015   3.938   3.840
 7470SOL    HW223310   5.946   3.814   3.921
 7471SOL     OW23311   5.531   5.786   6.597
 7471SOL    HW123312   5.611   5.840   6.570
 7471SOL    HW223313   5.502   5.728   6.521
 7472SOL     OW23314   6.434   6.799   4.676
 7472SOL    HW123315   6.445   6.762   4.584
 7472SOL    HW223316   6.463   6.730   4.743
 7473SOL     OW23317   3.857   0.249   3.631
 7473SOL    HW123318   3.802   0.317   3.679
 7473SOL    HW223319   3.945   0.290   3.605
 7474SOL     OW23320   5.565   2.736   6.256
 7474SOL    HW123321   5.498   2.705   6.188
 7474SOL    HW223322   5.567   2.671   6.332
 7475SOL     OW23323   4.709   1.990   1.679
 7475SOL    HW123324   4.659   1.918   1.729
 7475SOL    HW223325   4.755   2.050   1.744
 7476SOL     OW23326   1.899   1.464   3.040
 7476SOL    HW123327   1.816   1.410   3.054
 7476SOL    HW223328   1.964   1.446   3.114
 7477SOL     OW23329   0.497   3.680   5.051
 7477SOL    HW123330   0.567   3.747   5.071
 7477SOL    HW223331   0.478   3.680   4.953
 7478SOL     OW23332   6.640   2.086   5.067
 7478SOL    HW123333   6.686   2.175   5.064
 7478SOL    HW223334   6.614   2.059   4.974
 7479SOL     OW23335   5.579   3.693   6.618
 7479SOL    HW123336   5.499   3.720   6.672
 7479SOL    HW223337   5.630   3.623   6.668
 7480SOL     OW23338   3.446   5.200   2.081
 7480SOL    HW123339   3.361   5.237   2.119
 7480SOL    HW223340   3.443   5.100   2.084
 7481SOL     OW23341   6.408   4.298   6.411
 7481SOL    HW123342   6.433   4.202   6.430
 7481SOL    HW223343   6.482   4.343   6.362
 7482SOL     OW23344   3.966   2.091   2.479
 7482SOL    HW123345   3.912   2.104   2.396
 7482SOL    HW223346   4.051   2.144   2.472
 7483SOL     OW23347   4.465   2.509   5.338
 7483SOL    HW123348   4.481   2.445   5.263
 7483SOL    HW223349   4.374   2.494   5.376
 7484SOL     OW23350   2.730   6.487   4.721
 7484SOL    HW123351   2.780   6.549   4.781
 7484SOL    HW223352   2.635   6.480   4.751
 7485SOL     OW23353   3.035   6.878   4.100
 7485SOL    HW123354   2.946   6.837   4.119
 7485SOL    HW223355   3.067   6.928   4.180
 7486SOL     OW23356   0.699   6.021   0.034
 7486SOL    HW123357   0.780   6.075   0.012
 7486SOL    HW223358   0.727   5.927   0.056
 7487SOL     OW23359   4.476   0.160   3.369
 7487SOL    HW123360   4.497   0.177   3.273
 7487SOL    HW223361   4.395   0.102   3.376
 7488SOL     OW23362   1.005   6.092   4.211
 7488SOL    HW123363   1.069   6.016   4.215
 7488SOL    HW223364   1.051   6.174   4.176
 7489SOL     OW23365   6.064   4.246   6.817
 7489SOL    HW123366   6.105   4.335   6.833
 7489SOL    HW223367   6.124   4.191   6.758
 7490SOL     OW23368   0.959   2.230   2.647
 7490SOL    HW123369   0.934   2.313   2.598
 7490SOL    HW223370   0.996   2.162   2.583
 7491SOL     OW23371   4.364   3.024   0.695
 7491SOL    HW123372   4.377   2.932   0.733
 7491SOL    HW223373   4.444   3.048   0.640
 7492SOL     OW23374   1.338   0.844   4.013
 7492SOL    HW123375   1.264   0.895   4.056
 7492SOL    HW223376   1.346   0.871   3.917
 7493SOL     OW23377   6.353   4.026   5.716
 7493SOL    HW123378   6.450   4.033   5.736
 7493SOL    HW223379   6.327   4.100   5.653
 7494SOL     OW23380   6.414   1.285   2.960
 7494SOL    HW123381   6.384   1.190   2.960
 7494SOL    HW223382   6.336   1.345   2.974
 7495SOL     OW23383   2.170   3.054   4.837
 7495SOL    HW123384   2.244   3.021   4.895
 7495SOL    HW223385   2.086   3.003   4.857
 7496SOL     OW23386   6.255   3.754   3.381
 7496SOL    HW123387   6.202   3.769   3.298
 7496SOL    HW223388   6.222   3.814   3.454
 7497SOL     OW23389   0.638   6.423   0.424
 7497SOL    HW123390   0.680   6.341   0.385
 7497SOL    HW223391   0.601   6.480   0.351
 7498SOL     OW23392   3.246   0.406   3.089
 7498SOL    HW123393   3.320   0.470   3.111
 7498SOL    HW223394   3.232   0.344   3.166
 7499SOL     OW23395   3.725   2.034   3.923
 7499SOL    HW123396   3.660   2.104   3.894
 7499SOL    HW223397   3.759   2.056   4.015
 7500SOL     OW23398   4.215   0.083   3.301
 7500SOL    HW123399   4.145   0.130   3.248
 7500SOL    HW223400   4.182   0.070   3.395
 7501SOL     OW23401   5.992   2.639   4.480
 7501SOL    HW123402   5.912   2.581   4.469
 7501SOL    HW223403   6.071   2.596   4.434
 7502SOL     OW23404   3.322   0.179   4.679
 7502SOL    HW123405   3.303   0.202   4.774
 7502SOL    HW223406   3.241   0.197   4.623
 7503SOL     OW23407   2.322   6.042   1.189
 7503SOL    HW123408   2.334   5.979   1.266
 7503SOL    HW223409   2.239   6.095   1.202
 7504SOL     OW23410   0.111   6.550   2.978
 7504SOL    HW123411   0.202   6.582   3.006
 7504SOL    HW223412   0.112   6.451   2.970
 7505SOL     OW23413   6.980   0.559   4.851
 7505SOL    HW123414   6.892   0.518   4.826
 7505SOL    HW223415   6.974   0.597   4.943
 7506SOL     OW23416   3.516   1.580   3.255
 7506SOL    HW123417   3.460   1.554   3.334
 7506SOL    HW223418   3.611   1.552   3.270
 7507SOL     OW23419   6.185   3.390   4.330
 7507SOL    HW123420   6.194   3.298   4.367
 7507SOL    HW223421   6.187   3.456   4.405
 7508SOL     OW23422   1.667   6.059   0.201
 7508SOL    HW123423   1.571   6.033   0.203
 7508SOL    HW223424   1.675   6.155   0.175
 7509SOL     OW23425   4.944   4.097   0.276
 7509SOL    HW123426   4.898   4.181   0.307
 7509SOL    HW223427   4.875   4.031   0.246
 7510SOL     OW23428   4.064   3.807   3.833
 7510SOL    HW123429   4.003   3.780   3.759
 7510SOL    HW223430   4.094   3.726   3.883
 7511SOL     OW23431   3.274   5.782   2.988
 7511SOL    HW123432   3.279   5.692   2.944
 7511SOL    HW223433   3.182   5.820   2.976
 7512SOL     OW23434   3.304   6.986   6.738
 7512SOL    HW123435   3.273   6.891   6.745
 7512SOL    HW223436   3.354   7.011   6.821
 7513SOL     OW23437   1.976   2.321   3.744
 7513SOL    HW123438   1.978   2.221   3.740
 7513SOL    HW223439   2.066   2.355   3.772
 7514SOL     OW23440   2.490   4.768   3.301
 7514SOL    HW123441   2.443   4.757   3.388
 7514SOL    HW223442   2.589   4.762   3.316
 7515SOL     OW23443   6.963   4.137   5.179
 7515SOL    HW123444   6.902   4.072   5.224
 7515SOL    HW223445   6.909   4.202   5.126
 7516SOL     OW23446   1.067   5.122   5.224
 7516SOL    HW123447   1.149   5.116   5.281
 7516SOL    HW223448   0.986   5.110   5.281
 7517SOL     OW23449   0.954   1.977   0.196
 7517SOL    HW123450   1.025   2.011   0.259
 7517SOL    HW223451   0.866   1.977   0.243
 7518SOL     OW23452   4.799   2.817   4.165
 7518SOL    HW123453   4.791   2.769   4.253
 7518SOL    HW223454   4.758   2.907   4.172
 7519SOL     OW23455   4.004   6.804   4.817
 7519SOL    HW123456   3.989   6.898   4.847
 7519SOL    HW223457   4.094   6.796   4.774
 7520SOL     OW23458   1.627   1.725   2.406
 7520SOL    HW123459   1.593   1.639   2.368
 7520SOL    HW223460   1.555   1.794   2.400
 7521SOL     OW23461   5.381   0.865   4.440
 7521SOL    HW123462   5.286   0.843   4.465
 7521SOL    HW223463   5.382   0.922   4.358
 7522SOL     OW23464   1.527   6.024   3.363
 7522SOL    HW123465   1.594   6.089   3.399
 7522SOL    HW223466   1.562   5.931   3.371
 7523SOL     OW23467   5.762   1.260   6.397
 7523SOL    HW123468   5.862   1.260   6.401
 7523SOL    HW223469   5.726   1.322   6.467
 7524SOL     OW23470   0.047   2.588   4.390
 7524SOL    HW123471   0.132   2.584   4.443
 7524SOL    HW223472   0.067   2.583   4.293
 7525SOL     OW23473   4.761   6.294   6.122
 7525SOL    HW123474   4.812   6.275   6.206
 7525SOL    HW223475   4.663   6.292   6.141
 7526SOL     OW23476   2.116   3.692   1.884
 7526SOL    HW123477   2.029   3.671   1.838
 7526SOL    HW223478   2.167   3.607   1.898
 7527SOL     OW23479   3.940   5.887   3.618
 7527SOL    HW123480   3.949   5.974   3.666
 7527SOL    HW223481   3.992   5.890   3.533
 7528SOL     OW23482   6.255   2.683   6.740
 7528SOL    HW123483   6.187   2.755   6.752
 7528SOL    HW223484   6.343   2.724   6.716
 7529SOL     OW23485   5.894   2.072   3.823
 7529SOL    HW123486   5.899   2.141   3.895
 7529SOL    HW223487   5.958   1.998   3.844
 7530SOL     OW23488   6.697   1.523   2.039
 7530SOL    HW123489   6.791   1.558   2.046
 7530SOL    HW223490   6.699   1.423   2.045
 7531SOL     OW23491   4.309   2.250   3.899
 7531SOL    HW123492   4.270   2.163   3.870
 7531SOL    HW223493   4.261   2.283   3.980
 7532SOL     OW23494   4.555   5.880   6.922
 7532SOL    HW123495   4.576   5.782   6.928
 7532SOL    HW223496   4.478   5.902   6.982
 7533SOL     OW23497   4.575   3.088   1.662
 7533SOL    HW123498   4.612   3.051   1.748
 7533SOL    HW223499   4.549   3.012   1.602
 7534SOL     OW23500   4.910   0.045   4.107
 7534SOL    HW123501   4.994   0.089   4.074
 7534SOL    HW223502   4.892   6.982   4.053
 7535SOL     OW23503   1.213   6.245   4.418
 7535SOL    HW123504   1.150   6.290   4.483
 7535SOL    HW223505   1.193   6.147   4.415
 7536SOL     OW23506   4.707   6.039   4.387
 7536SOL    HW123507   4.758   5.965   4.342
 7536SOL    HW223508   4.726   6.037   4.485
 7537SOL     OW23509   2.363   5.767   2.110
 7537SOL    HW123510   2.352   5.854   2.062
 7537SOL    HW223511   2.440   5.717   2.070
 7538SOL     OW23512   0.820   3.332   1.818
 7538SOL    HW123513   0.797   3.298   1.727
 7538SOL    HW223514   0.781   3.272   1.887
 7539SOL     OW23515   0.579   5.642   4.041
 7539SOL    HW123516   0.567   5.642   3.941
 7539SOL    HW223517   0.587   5.736   4.073
 7540SOL     OW23518   5.558   5.793   4.236
 7540SOL    HW123519   5.548   5.891   4.254
 7540SOL    HW223520   5.498   5.767   4.160
 7541SOL     OW23521   1.093   3.561   6.613
 7541SOL    HW123522   1.142   3.501   6.677
 7541SOL    HW223523   1.132   3.653   6.618
 7542SOL     OW23524   6.367   6.150   6.381
 7542SOL    HW123525   6.319   6.072   6.339
 7542SOL    HW223526   6.410   6.120   6.466
 7543SOL     OW23527   2.743   0.229   5.282
 7543SOL    HW123528   2.725   0.171   5.362
 7543SOL    HW223529   2.755   0.324   5.311
 7544SOL     OW23530   6.875   3.238   3.887
 7544SOL    HW123531   6.943   3.288   3.940
 7544SOL    HW223532   6.835   3.298   3.818
 7545SOL     OW23533   0.897   5.473   6.640
 7545SOL    HW123534   0.811   5.510   6.604
 7545SOL    HW223535   0.881   5.438   6.733
 7546SOL     OW23536   3.244   2.846   1.977
 7546SOL    HW123537   3.145   2.842   1.989
 7546SOL    HW223538   3.289   2.813   2.060
 7547SOL     OW23539   4.538   0.284   1.658
 7547SOL    HW123540   4.585   0.232   1.730
 7547SOL    HW223541   4.572   0.254   1.569
 7548SOL     OW23542   4.636   2.213   6.269
 7548SOL    HW123543   4.549   2.163   6.265
 7548SOL    HW223544   4.710   2.153   6.240
 7549SOL     OW23545   4.330   2.433   5.829
 7549SOL    HW123546   4.262   2.474   5.768
 7549SOL    HW223547   4.383   2.364   5.779
 7550SOL     OW23548   1.704   3.890   3.653
 7550SOL    HW123549   1.773   3.934   3.710
 7550SOL    HW223550   1.695   3.794   3.679
 7551SOL     OW23551   5.438   1.918   5.368
 7551SOL    HW123552   5.410   1.831   5.327
 7551SOL    HW223553   5.375   1.990   5.339
 7552SOL     OW23554   1.998   6.372   4.388
 7552SOL    HW123555   2.003   6.410   4.296
 7552SOL    HW223556   1.989   6.447   4.454
 7553SOL     OW23557   5.951   6.291   6.329
 7553SOL    HW123558   5.878   6.296   6.397
 7553SOL    HW223559   5.940   6.209   6.274
 7554SOL     OW23560   5.341   1.373   0.099
 7554SOL    HW123561   5.323   1.467   0.127
 7554SOL    HW223562   5.370   1.320   0.179
 7555SOL     OW23563   2.992   6.536   6.686
 7555SOL    HW123564   3.049   6.483   6.624
 7555SOL    HW223565   2.899   6.542   6.650
 7556SOL     OW23566   0.901   0.551   0.678
 7556SOL    HW123567   0.968   0.497   0.627
 7556SOL    HW223568   0.820   0.565   0.621
 7557SOL     OW23569   5.398   0.483   6.826
 7557SOL    HW123570   5.315   0.429   6.838
 7557SOL    HW223571   5.438   0.463   6.736
 7558SOL     OW23572   1.628   2.628   4.123
 7558SOL    HW123573   1.621   2.559   4.051
 7558SOL    HW223574   1.565   2.605   4.197
 7559SOL     OW23575   3.689   2.139   4.855
 7559SOL    HW123576   3.615   2.202   4.879
 7559SOL    HW223577   3.659   2.045   4.870
 7560SOL     OW23578   6.901   0.419   6.318
 7560SOL    HW123579   6.993   0.382   6.320
 7560SOL    HW223580   6.835   0.344   6.316
 7561SOL     OW23581   5.112   1.911   5.564
 7561SOL    HW123582   5.056   1.988   5.533
 7561SOL    HW223583   5.081   1.881   5.654
 7562SOL     OW23584   0.893   5.237   4.938
 7562SOL    HW123585   0.942   5.189   4.865
 7562SOL    HW223586   0.954   5.304   4.981
 7563SOL     OW23587   3.488   6.470   2.260
 7563SOL    HW123588   3.458   6.376   2.271
 7563SOL    HW223589   3.554   6.493   2.332
 7564SOL     OW23590   4.495   1.125   4.673
 7564SOL    HW123591   4.426   1.176   4.621
 7564SOL    HW223592   4.454   1.096   4.760
 7565SOL     OW23593   5.508   3.723   6.176
 7565SOL    HW123594   5.517   3.679   6.086
 7565SOL    HW223595   5.430   3.784   6.176
 7566SOL     OW23596   4.707   4.780   1.661
 7566SOL    HW123597   4.743   4.689   1.681
 7566SOL    HW223598   4.612   4.786   1.693
 7567SOL     OW23599   0.397   0.731   4.435
 7567SOL    HW123600   0.367   0.801   4.371
 7567SOL    HW223601   0.371   0.641   4.400
 7568SOL     OW23602   6.229   5.483   1.319
 7568SOL    HW123603   6.263   5.393   1.346
 7568SOL    HW223604   6.147   5.473   1.263
 7569SOL     OW23605   4.024   3.816   6.308
 7569SOL    HW123606   3.955   3.751   6.277
 7569SOL    HW223607   3.990   3.866   6.387
 7570SOL     OW23608   6.613   3.182   3.365
 7570SOL    HW123609   6.522   3.143   3.380
 7570SOL    HW223610   6.672   3.161   3.444
 7571SOL     OW23611   5.489   3.831   2.709
 7571SOL    HW123612   5.461   3.926   2.701
 7571SOL    HW223613   5.570   3.815   2.652
 7572SOL     OW23614   5.182   6.756   2.717
 7572SOL    HW123615   5.278   6.776   2.697
 7572SOL    HW223616   5.144   6.699   2.644
 7573SOL     OW23617   5.814   6.467   5.797
 7573SOL    HW123618   5.776   6.560   5.797
 7573SOL    HW223619   5.817   6.433   5.891
 7574SOL     OW23620   6.365   0.679   4.233
 7574SOL    HW123621   6.432   0.677   4.159
 7574SOL    HW223622   6.413   0.680   4.321
 7575SOL     OW23623   6.596   6.391   1.012
 7575SOL    HW123624   6.670   6.348   0.960
 7575SOL    HW223625   6.599   6.490   0.998
 7576SOL     OW23626   5.775   2.900   0.879
 7576SOL    HW123627   5.694   2.894   0.821
 7576SOL    HW223628   5.759   2.851   0.965
 7577SOL     OW23629   0.537   7.016   0.057
 7577SOL    HW123630   0.458   7.017   0.119
 7577SOL    HW223631   0.618   0.030   0.106
 7578SOL     OW23632   0.158   5.916   3.162
 7578SOL    HW123633   0.227   5.893   3.230
 7578SOL    HW223634   0.071   5.873   3.187
 7579SOL     OW23635   6.425   2.007   0.953
 7579SOL    HW123636   6.517   1.999   0.915
 7579SOL    HW223637   6.389   2.098   0.932
 7580SOL     OW23638   1.955   4.364   3.628
 7580SOL    HW123639   1.878   4.425   3.611
 7580SOL    HW223640   1.979   4.316   3.543
 7581SOL     OW23641   0.488   0.917   1.364
 7581SOL    HW123642   0.435   0.832   1.359
 7581SOL    HW223643   0.499   0.943   1.460
 7582SOL     OW23644   3.644   1.469   4.293
 7582SOL    HW123645   3.663   1.547   4.353
 7582SOL    HW223646   3.598   1.501   4.210
 7583SOL     OW23647   4.853   3.420   3.588
 7583SOL    HW123648   4.948   3.399   3.565
 7583SOL    HW223649   4.814   3.478   3.518
 7584SOL     OW23650   0.844   1.412   2.819
 7584SOL    HW123651   0.934   1.368   2.816
 7584SOL    HW223652   0.847   1.498   2.769
 7585SOL     OW23653   1.153   2.454   6.594
 7585SOL    HW123654   1.194   2.386   6.656
 7585SOL    HW223655   1.085   2.508   6.644
 7586SOL     OW23656   1.284   0.966   2.418
 7586SOL    HW123657   1.310   0.979   2.323
 7586SOL    HW223658   1.364   0.936   2.471
 7587SOL     OW23659   3.551   0.871   0.596
 7587SOL    HW123660   3.474   0.890   0.536
 7587SOL    HW223661   3.523   0.808   0.668
 7588SOL     OW23662   1.311   2.553   4.613
 7588SOL    HW123663   1.293   2.463   4.572
 7588SOL    HW223664   1.404   2.582   4.591
 7589SOL     OW23665   0.344   1.293   2.838
 7589SOL    HW123666   0.440   1.319   2.845
 7589SOL    HW223667   0.331   1.204   2.881
 7590SOL     OW23668   0.028   1.728   0.316
 7590SOL    HW123669   6.972   1.794   0.327
 7590SOL    HW223670   7.013   1.635   0.328
 7591SOL     OW23671   4.372   3.327   6.570
 7591SOL    HW123672   4.372   3.250   6.507
 7591SOL    HW223673   4.459   3.376   6.564
 7592SOL     OW23674   6.369   5.964   5.028
 7592SOL    HW123675   6.278   5.991   5.058
 7592SOL    HW223676   6.385   5.998   4.935
 7593SOL     OW23677   0.379   1.376   5.758
 7593SOL    HW123678   0.354   1.447   5.824
 7593SOL    HW223679   0.344   1.401   5.668
 7594SOL     OW23680   0.397   4.244   1.295
 7594SOL    HW123681   0.434   4.186   1.222
 7594SOL    HW223682   0.424   4.208   1.384
 7595SOL     OW23683   6.219   2.811   6.424
 7595SOL    HW123684   6.182   2.876   6.357
 7595SOL    HW223685   6.169   2.821   6.510
 7596SOL     OW23686   3.016   0.716   5.053
 7596SOL    HW123687   3.099   0.768   5.071
 7596SOL    HW223688   3.003   0.706   4.954
 7597SOL     OW23689   1.968   5.077   2.493
 7597SOL    HW123690   1.972   5.060   2.394
 7597SOL    HW223691   1.873   5.088   2.521
 7598SOL     OW23692   5.961   1.138   2.873
 7598SOL    HW123693   5.923   1.067   2.932
 7598SOL    HW223694   6.057   1.117   2.853
 7599SOL     OW23695   4.266   3.479   0.592
 7599SOL    HW123696   4.291   3.406   0.528
 7599SOL    HW223697   4.261   3.566   0.544
 7600SOL     OW23698   1.374   1.585   3.770
 7600SOL    HW123699   1.445   1.624   3.829
 7600SOL    HW223700   1.363   1.488   3.791
 7601SOL     OW23701   4.109   5.631   1.854
 7601SOL    HW123702   4.024   5.592   1.818
 7601SOL    HW223703   4.145   5.573   1.926
 7602SOL     OW23704   0.068   1.988   0.653
 7602SOL    HW123705   0.122   1.935   0.588
 7602SOL    HW223706   0.007   1.927   0.703
 7603SOL     OW23707   2.302   0.342   6.033
 7603SOL    HW123708   2.258   0.262   6.074
 7603SOL    HW223709   2.258   0.425   6.065
 7604SOL     OW23710   1.441   2.093   4.831
 7604SOL    HW123711   1.355   2.043   4.828
 7604SOL    HW223712   1.480   2.099   4.738
 7605SOL     OW23713   2.598   0.321   0.042
 7605SOL    HW123714   2.518   0.358   7.013
 7605SOL    HW223715   2.641   0.394   0.095
 7606SOL     OW23716   5.986   1.245   4.346
 7606SOL    HW123717   5.932   1.271   4.426
 7606SOL    HW223718   6.015   1.327   4.297
 7607SOL     OW23719   3.207   6.697   6.284
 7607SOL    HW123720   3.223   6.762   6.358
 7607SOL    HW223721   3.293   6.653   6.259
 7608SOL     OW23722   5.683   2.402   6.012
 7608SOL    HW123723   5.746   2.339   6.058
 7608SOL    HW223724   5.720   2.495   6.016
 7609SOL     OW23725   0.500   2.485   4.087
 7609SOL    HW123726   0.525   2.542   4.009
 7609SOL    HW223727   0.411   2.442   4.071
 7610SOL     OW23728   3.245   4.704   6.376
 7610SOL    HW123729   3.343   4.697   6.361
 7610SOL    HW223730   3.221   4.657   6.462
 7611SOL     OW23731   4.703   3.061   0.850
 7611SOL    HW123732   4.750   3.008   0.921
 7611SOL    HW223733   4.666   3.145   0.889
 7612SOL     OW23734   2.879   1.913   3.272
 7612SOL    HW123735   2.942   1.841   3.242
 7612SOL    HW223736   2.868   1.908   3.371
 7613SOL     OW23737   1.020   1.525   2.521
 7613SOL    HW123738   1.105   1.549   2.473
 7613SOL    HW223739   1.031   1.438   2.568
 7614SOL     OW23740   4.985   3.152   0.574
 7614SOL    HW123741   4.973   3.248   0.597
 7614SOL    HW223742   4.915   3.097   0.620
 7615SOL     OW23743   5.233   3.011   5.044
 7615SOL    HW123744   5.245   2.944   5.118
 7615SOL    HW223745   5.182   3.090   5.079
 7616SOL     OW23746   6.215   6.626   3.631
 7616SOL    HW123747   6.244   6.721   3.645
 7616SOL    HW223748   6.198   6.583   3.719
 7617SOL     OW23749   4.915   5.289   3.049
 7617SOL    HW123750   4.981   5.318   2.980
 7617SOL    HW223751   4.963   5.245   3.125
 7618SOL     OW23752   2.671   2.439   0.365
 7618SOL    HW123753   2.617   2.512   0.323
 7618SOL    HW223754   2.663   2.445   0.464
 7619SOL     OW23755   0.919   2.347   3.990
 7619SOL    HW123756   1.018   2.357   3.985
 7619SOL    HW223757   0.896   2.277   4.058
 7620SOL     OW23758   4.002   4.247   1.361
 7620SOL    HW123759   4.062   4.196   1.300
 7620SOL    HW223760   4.033   4.235   1.456
 7621SOL     OW23761   0.512   5.813   0.916
 7621SOL    HW123762   0.426   5.859   0.895
 7621SOL    HW223763   0.492   5.726   0.963
 7622SOL     OW23764   4.123   4.925   0.729
 7622SOL    HW123765   4.062   5.004   0.729
 7622SOL    HW223766   4.195   4.938   0.797
 7623SOL     OW23767   4.636   5.027   1.522
 7623SOL    HW123768   4.712   5.078   1.481
 7623SOL    HW223769   4.673   4.949   1.573
 7624SOL     OW23770   0.260   2.444   1.937
 7624SOL    HW123771   0.298   2.468   1.847
 7624SOL    HW223772   0.237   2.347   1.939
 7625SOL     OW23773   5.235   2.075   0.276
 7625SOL    HW123774   5.242   2.169   0.243
 7625SOL    HW223775   5.326   2.042   0.302
 7626SOL     OW23776   5.341   0.359   5.337
 7626SOL    HW123777   5.306   0.404   5.255
 7626SOL    HW223778   5.438   0.378   5.347
 7627SOL     OW23779   2.889   1.841   0.153
 7627SOL    HW123780   2.887   1.911   0.081
 7627SOL    HW223781   2.795   1.813   0.174
 7628SOL     OW23782   3.413   2.272   0.581
 7628SOL    HW123783   3.387   2.186   0.626
 7628SOL    HW223784   3.471   2.252   0.502
 7629SOL     OW23785   5.918   3.184   4.057
 7629SOL    HW123786   5.909   3.276   4.093
 7629SOL    HW223787   5.836   3.160   4.005
 7630SOL     OW23788   1.542   0.463   5.204
 7630SOL    HW123789   1.523   0.376   5.249
 7630SOL    HW223790   1.512   0.458   5.108
 7631SOL     OW23791   1.778   0.253   5.330
 7631SOL    HW123792   1.780   0.240   5.231
 7631SOL    HW223793   1.683   0.263   5.361
 7632SOL     OW23794   4.724   5.770   0.827
 7632SOL    HW123795   4.799   5.772   0.760
 7632SOL    HW223796   4.640   5.742   0.782
 7633SOL     OW23797   6.008   0.652   0.961
 7633SOL    HW123798   5.964   0.634   1.049
 7633SOL    HW223799   5.986   0.745   0.931
 7634SOL     OW23800   1.203   2.137   0.964
 7634SOL    HW123801   1.200   2.059   0.901
 7634SOL    HW223802   1.137   2.122   1.038
 7635SOL     OW23803   2.918   5.231   5.468
 7635SOL    HW123804   2.848   5.263   5.531
 7635SOL    HW223805   2.896   5.138   5.439
 7636SOL     OW23806   0.762   4.347   4.816
 7636SOL    HW123807   0.846   4.399   4.828
 7636SOL    HW223808   0.766   4.264   4.873
 7637SOL     OW23809   0.394   6.521   4.673
 7637SOL    HW123810   0.365   6.569   4.590
 7637SOL    HW223811   0.442   6.437   4.647
 7638SOL     OW23812   0.932   5.325   1.833
 7638SOL    HW123813   0.951   5.416   1.871
 7638SOL    HW223814   0.981   5.256   1.886
 7639SOL     OW23815   0.943   1.056   0.249
 7639SOL    HW123816   0.867   1.044   0.312
 7639SOL    HW223817   0.969   1.153   0.245
 7640SOL     OW23818   3.132   1.016   6.591
 7640SOL    HW123819   3.038   0.986   6.574
 7640SOL    HW223820   3.131   1.093   6.656
 7641SOL     OW23821   6.700   4.064   2.714
 7641SOL    HW123822   6.722   4.042   2.809
 7641SOL    HW223823   6.736   3.992   2.655
 7642SOL     OW23824   5.509   1.563   3.285
 7642SOL    HW123825   5.471   1.626   3.217
 7642SOL    HW223826   5.609   1.562   3.276
 7643SOL     OW23827   4.843   3.024   2.954
 7643SOL    HW123828   4.848   3.041   3.053
 7643SOL    HW223829   4.793   3.098   2.910
 7644SOL     OW23830   4.789   3.144   1.425
 7644SOL    HW123831   4.875   3.194   1.439
 7644SOL    HW223832   4.771   3.085   1.504
 7645SOL     OW23833   3.405   3.507   6.384
 7645SOL    HW123834   3.470   3.582   6.369
 7645SOL    HW223835   3.332   3.539   6.444
 7646SOL     OW23836   0.962   2.676   2.786
 7646SOL    HW123837   0.936   2.650   2.878
 7646SOL    HW223838   0.886   2.722   2.741
 7647SOL     OW23839   0.099   3.328   5.031
 7647SOL    HW123840   0.156   3.393   5.081
 7647SOL    HW223841   0.025   3.296   5.092
 7648SOL     OW23842   2.225   2.140   2.964
 7648SOL    HW123843   2.325   2.149   2.959
 7648SOL    HW223844   2.195   2.073   2.896
 7649SOL     OW23845   6.539   0.533   4.621
 7649SOL    HW123846   6.540   0.450   4.565
 7649SOL    HW223847   6.614   0.529   4.687
 7650SOL     OW23848   4.198   0.618   1.513
 7650SOL    HW123849   4.150   0.693   1.468
 7650SOL    HW223850   4.134   0.566   1.569
 7651SOL     OW23851   2.433   5.107   4.990
 7651SOL    HW123852   2.532   5.115   5.001
 7651SOL    HW223853   2.412   5.029   4.933
 7652SOL     OW23854   5.770   1.618   4.700
 7652SOL    HW123855   5.757   1.536   4.756
 7652SOL    HW223856   5.845   1.673   4.738
 7653SOL     OW23857   0.591   1.968   6.988
 7653SOL    HW123858   0.529   2.044   6.973
 7653SOL    HW223859   0.648   1.954   6.906
 7654SOL     OW23860   6.105   3.339   5.345
 7654SOL    HW123861   6.140   3.413   5.402
 7654SOL    HW223862   6.121   3.252   5.390
 7655SOL     OW23863   2.647   0.692   3.638
 7655SOL    HW123864   2.549   0.705   3.625
 7655SOL    HW223865   2.691   0.782   3.650
 7656SOL     OW23866   6.778   3.862   6.948
 7656SOL    HW123867   6.857   3.815   6.910
 7656SOL    HW223868   6.700   3.853   6.886
 7657SOL     OW23869   1.541   3.948   4.460
 7657SOL    HW123870   1.615   3.950   4.393
 7657SOL    HW223871   1.475   4.020   4.438
 7658SOL     OW23872   2.070   0.413   0.849
 7658SOL    HW123873   2.031   0.348   0.783
 7658SOL    HW223874   2.170   0.409   0.844
 7659SOL     OW23875   4.682   4.013   5.255
 7659SOL    HW123876   4.637   4.102   5.261
 7659SOL    HW223877   4.727   4.004   5.166
 7660SOL     OW23878   6.471   4.841   4.317
 7660SOL    HW123879   6.384   4.854   4.366
 7660SOL    HW223880   6.462   4.877   4.224
 7661SOL     OW23881   4.662   2.476   5.585
 7661SOL    HW123882   4.613   2.524   5.511
 7661SOL    HW223883   4.691   2.542   5.654
 7662SOL     OW23884   1.186   1.955   2.241
 7662SOL    HW123885   1.256   1.997   2.185
 7662SOL    HW223886   1.127   1.897   2.184
 7663SOL     OW23887   6.037   4.865   5.637
 7663SOL    HW123888   5.993   4.894   5.552
 7663SOL    HW223889   6.071   4.945   5.686
 7664SOL     OW23890   3.732   1.533   2.967
 7664SOL    HW123891   3.653   1.555   2.909
 7664SOL    HW223892   3.792   1.613   2.971
 7665SOL     OW23893   4.303   1.901   4.445
 7665SOL    HW123894   4.256   1.932   4.528
 7665SOL    HW223895   4.359   1.975   4.409
 7666SOL     OW23896   6.117   5.576   3.557
 7666SOL    HW123897   6.151   5.598   3.466
 7666SOL    HW223898   6.120   5.477   3.572
 7667SOL     OW23899   4.955   5.930   2.322
 7667SOL    HW123900   5.039   5.879   2.339
 7667SOL    HW223901   4.919   5.967   2.408
 7668SOL     OW23902   2.154   5.400   0.988
 7668SOL    HW123903   2.247   5.369   0.967
 7668SOL    HW223904   2.137   5.391   1.086
 7669SOL     OW23905   2.714   6.505   5.986
 7669SOL    HW123906   2.788   6.465   5.933
 7669SOL    HW223907   2.657   6.433   6.024
 7670SOL     OW23908   0.115   6.570   6.866
 7670SOL    HW123909   0.127   6.625   6.783
 7670SOL    HW223910   0.058   6.619   6.931
 7671SOL     OW23911   5.178   0.761   1.516
 7671SOL    HW123912   5.124   0.842   1.539
 7671SOL    HW223913   5.266   0.765   1.562
 7672SOL     OW23914   5.417   4.656   2.807
 7672SOL    HW123915   5.353   4.646   2.884
 7672SOL    HW223916   5.497   4.599   2.823
 7673SOL     OW23917   0.826   5.145   3.845
 7673SOL    HW123918   0.859   5.187   3.929
 7673SOL    HW223919   0.871   5.056   3.831
 7674SOL     OW23920   3.876   0.119   4.561
 7674SOL    HW123921   3.802   0.081   4.505
 7674SOL    HW223922   3.850   0.115   4.657
 7675SOL     OW23923   3.678   6.654   2.716
 7675SOL    HW123924   3.627   6.721   2.770
 7675SOL    HW223925   3.613   6.595   2.668
 7676SOL     OW23926   3.031   2.977   5.812
 7676SOL    HW123927   3.091   3.055   5.792
 7676SOL    HW223928   3.071   2.893   5.776
 7677SOL     OW23929   5.834   4.352   1.536
 7677SOL    HW123930   5.752   4.322   1.487
 7677SOL    HW223931   5.875   4.430   1.488
 7678SOL     OW23932   1.536   1.574   5.811
 7678SOL    HW123933   1.634   1.593   5.805
 7678SOL    HW223934   1.493   1.641   5.872
 7679SOL     OW23935   1.653   5.452   4.972
 7679SOL    HW123936   1.560   5.480   4.950
 7679SOL    HW223937   1.700   5.421   4.890
 7680SOL     OW23938   1.797   0.640   5.442
 7680SOL    HW123939   1.833   0.560   5.395
 7680SOL    HW223940   1.703   0.657   5.413
 7681SOL     OW23941   3.084   3.139   6.343
 7681SOL    HW123942   3.054   3.210   6.407
 7681SOL    HW223943   3.141   3.180   6.272
 7682SOL     OW23944   2.671   2.046   3.385
 7682SOL    HW123945   2.587   2.036   3.439
 7682SOL    HW223946   2.658   2.005   3.295
 7683SOL     OW23947   0.034   1.283   4.647
 7683SOL    HW123948   0.067   1.247   4.734
 7683SOL    HW223949   7.001   1.212   4.600
 7684SOL     OW23950   4.146   2.400   1.704
 7684SOL    HW123951   4.073   2.338   1.673
 7684SOL    HW223952   4.135   2.489   1.658
 7685SOL     OW23953   3.066   0.644   0.453
 7685SOL    HW123954   3.049   0.730   0.500
 7685SOL    HW223955   3.009   0.572   0.492
 7686SOL     OW23956   5.317   0.525   4.239
 7686SOL    HW123957   5.246   0.581   4.198
 7686SOL    HW223958   5.362   0.471   4.168
 7687SOL     OW23959   6.073   5.470   4.382
 7687SOL    HW123960   6.041   5.520   4.302
 7687SOL    HW223961   6.054   5.372   4.370
 7688SOL     OW23962   1.170   5.159   6.077
 7688SOL    HW123963   1.123   5.095   6.138
 7688SOL    HW223964   1.257   5.186   6.117
 7689SOL     OW23965   4.961   0.253   2.012
 7689SOL    HW123966   5.059   0.257   2.034
 7689SOL    HW223967   4.926   0.345   1.997
 7690SOL     OW23968   6.267   4.882   0.825
 7690SOL    HW123969   6.218   4.855   0.742
 7690SOL    HW223970   6.302   4.975   0.815
 7691SOL     OW23971   4.352   4.562   3.494
 7691SOL    HW123972   4.389   4.585   3.584
 7691SOL    HW223973   4.404   4.486   3.456
 7692SOL     OW23974   1.045   6.414   2.221
 7692SOL    HW123975   1.026   6.321   2.188
 7692SOL    HW223976   1.000   6.428   2.309
 7693SOL     OW23977   2.694   0.796   1.177
 7693SOL    HW123978   2.652   0.874   1.130
 7693SOL    HW223979   2.724   0.825   1.268
 7694SOL     OW23980   6.221   2.529   4.374
 7694SOL    HW123981   6.234   2.434   4.403
 7694SOL    HW223982   6.238   2.535   4.275
 7695SOL     OW23983   6.330   0.547   2.845
 7695SOL    HW123984   6.239   0.548   2.805
 7695SOL    HW223985   6.394   0.595   2.785
 7696SOL     OW23986   0.461   2.728   6.804
 7696SOL    HW123987   0.522   2.751   6.880
 7696SOL    HW223988   0.366   2.727   6.836
 7697SOL     OW23989   4.116   0.338   2.640
 7697SOL    HW123990   4.029   0.337   2.590
 7697SOL    HW223991   4.172   0.261   2.610
 7698SOL     OW23992   6.379   1.941   6.614
 7698SOL    HW123993   6.452   2.009   6.617
 7698SOL    HW223994   6.327   1.952   6.529
 7699SOL     OW23995   3.540   5.598   6.127
 7699SOL    HW123996   3.532   5.584   6.028
 7699SOL    HW223997   3.495   5.523   6.176
 7700SOL     OW23998   4.850   5.588   2.832
 7700SOL    HW123999   4.853   5.606   2.734
 7700SOL    HW224000   4.936   5.547   2.861
 7701SOL     OW24001   0.049   2.715   5.973
 7701SOL    HW124002   6.981   2.692   5.931
 7701SOL    HW224003   0.106   2.633   5.977
 7702SOL     OW24004   4.358   6.985   4.414
 7702SOL    HW124005   4.373   0.022   4.333
 7702SOL    HW224006   4.262   6.990   4.441
 7703SOL     OW24007   6.639   6.608   4.454
 7703SOL    HW124008   6.692   6.525   4.474
 7703SOL    HW224009   6.630   6.618   4.354
 7704SOL     OW24010   6.002   1.332   4.031
 7704SOL    HW124011   6.090   1.369   4.062
 7704SOL    HW224012   5.929   1.365   4.091
 7705SOL     OW24013   2.106   4.738   0.298
 7705SOL    HW124014   2.149   4.649   0.314
 7705SOL    HW224015   2.009   4.725   0.278
 7706SOL     OW24016   3.583   2.923   2.456
 7706SOL    HW124017   3.636   2.872   2.524
 7706SOL    HW224018   3.632   2.924   2.369
 7707SOL     OW24019   6.755   5.727   6.590
 7707SOL    HW124020   6.718   5.707   6.680
 7707SOL    HW224021   6.807   5.649   6.557
 7708SOL     OW24022   2.257   6.809   4.806
 7708SOL    HW124023   2.234   6.777   4.715
 7708SOL    HW224024   2.284   6.732   4.864
 7709SOL     OW24025   0.070   4.650   0.991
 7709SOL    HW124026   0.000   4.686   1.053
 7709SOL    HW224027   0.037   4.565   0.949
 7710SOL     OW24028   1.533   3.625   0.798
 7710SOL    HW124029   1.509   3.529   0.808
 7710SOL    HW224030   1.450   3.680   0.793
 7711SOL     OW24031   6.065   4.529   5.276
 7711SOL    HW124032   6.066   4.442   5.326
 7711SOL    HW224033   6.158   4.565   5.268
 7712SOL     OW24034   6.547   4.937   6.236
 7712SOL    HW124035   6.610   4.914   6.162
 7712SOL    HW224036   6.458   4.960   6.198
 7713SOL     OW24037   1.853   4.955   0.546
 7713SOL    HW124038   1.912   4.881   0.515
 7713SOL    HW224039   1.757   4.925   0.546
 7714SOL     OW24040   6.804   0.484   4.236
 7714SOL    HW124041   6.804   0.408   4.300
 7714SOL    HW224042   6.732   0.472   4.168
 7715SOL     OW24043   2.124   2.914   6.041
 7715SOL    HW124044   2.070   2.847   5.991
 7715SOL    HW224045   2.150   2.876   6.129
 7716SOL     OW24046   0.757   5.614   6.254
 7716SOL    HW124047   0.798   5.553   6.323
 7716SOL    HW224048   0.755   5.568   6.166
 7717SOL     OW24049   1.494   1.804   6.685
 7717SOL    HW124050   1.574   1.747   6.703
 7717SOL    HW224051   1.439   1.811   6.769
 7718SOL     OW24052   1.307   4.376   2.630
 7718SOL    HW124053   1.392   4.323   2.628
 7718SOL    HW224054   1.232   4.316   2.661
 7719SOL     OW24055   2.085   3.814   4.502
 7719SOL    HW124056   1.999   3.771   4.531
 7719SOL    HW224057   2.101   3.896   4.557
 7720SOL     OW24058   6.626   1.395   6.136
 7720SOL    HW124059   6.653   1.484   6.099
 7720SOL    HW224060   6.592   1.407   6.229
 7721SOL     OW24061   0.935   0.467   2.735
 7721SOL    HW124062   0.970   0.414   2.812
 7721SOL    HW224063   0.991   0.549   2.723
 7722SOL     OW24064   2.317   5.875   3.925
 7722SOL    HW124065   2.258   5.852   3.847
 7722SOL    HW224066   2.264   5.870   4.009
 7723SOL     OW24067   4.834   3.676   0.305
 7723SOL    HW124068   4.911   3.650   0.364
 7723SOL    HW224069   4.778   3.596   0.286
 7724SOL     OW24070   2.886   4.169   1.519
 7724SOL    HW124071   2.900   4.152   1.422
 7724SOL    HW224072   2.837   4.091   1.560
 7725SOL     OW24073   5.745   2.975   3.099
 7725SOL    HW124074   5.735   3.037   3.021
 7725SOL    HW224075   5.738   2.880   3.068
 7726SOL     OW24076   0.169   3.566   6.331
 7726SOL    HW124077   0.185   3.582   6.234
 7726SOL    HW224078   0.255   3.580   6.381
 7727SOL     OW24079   4.743   2.624   2.118
 7727SOL    HW124080   4.727   2.685   2.040
 7727SOL    HW224081   4.668   2.635   2.184
 7728SOL     OW24082   2.061   3.046   5.139
 7728SOL    HW124083   2.107   2.964   5.173
 7728SOL    HW224084   2.091   3.065   5.045
 7729SOL     OW24085   5.779   2.176   3.472
 7729SOL    HW124086   5.842   2.225   3.533
 7729SOL    HW224087   5.707   2.134   3.527
 7730SOL     OW24088   6.142   4.844   5.285
 7730SOL    HW124089   6.234   4.880   5.300
 7730SOL    HW224090   6.131   4.757   5.333
 7731SOL     OW24091   5.658   6.876   0.589
 7731SOL    HW124092   5.712   6.812   0.534
 7731SOL    HW224093   5.595   6.826   0.647
 7732SOL     OW24094   4.701   0.346   6.205
 7732SOL    HW124095   4.640   0.332   6.127
 7732SOL    HW224096   4.786   0.387   6.174
 7733SOL     OW24097   6.324   6.080   2.114
 7733SOL    HW124098   6.367   6.107   2.200
 7733SOL    HW224099   6.368   6.127   2.038
 7734SOL     OW24100   2.838   4.400   5.372
 7734SOL    HW124101   2.871   4.314   5.335
 7734SOL    HW224102   2.854   4.473   5.306
 7735SOL     OW24103   6.554   6.224   0.181
 7735SOL    HW124104   6.532   6.142   0.128
 7735SOL    HW224105   6.651   6.224   0.203
 7736SOL     OW24106   3.153   2.851   0.501
 7736SOL    HW124107   3.161   2.772   0.563
 7736SOL    HW224108   3.115   2.821   0.414
 7737SOL     OW24109   4.094   4.845   1.552
 7737SOL    HW124110   4.156   4.781   1.506
 7737SOL    HW224111   4.000   4.825   1.525
 7738SOL     OW24112   2.683   6.600   6.595
 7738SOL    HW124113   2.687   6.683   6.540
 7738SOL    HW224114   2.587   6.575   6.609
 7739SOL     OW24115   1.360   2.419   1.512
 7739SOL    HW124116   1.450   2.393   1.478
 7739SOL    HW224117   1.344   2.517   1.494
 7740SOL     OW24118   0.960   1.287   4.028
 7740SOL    HW124119   0.917   1.377   4.040
 7740SOL    HW224120   0.984   1.250   4.118
 7741SOL     OW24121   1.545   4.871   6.137
 7741SOL    HW124122   1.630   4.819   6.141
 7741SOL    HW224123   1.563   4.960   6.094
 7742SOL     OW24124   3.611   1.406   3.876
 7742SOL    HW124125   3.594   1.476   3.946
 7742SOL    HW224126   3.526   1.360   3.852
 7743SOL     OW24127   5.172   1.245   6.473
 7743SOL    HW124128   5.167   1.290   6.383
 7743SOL    HW224129   5.237   1.295   6.530
 7744SOL     OW24130   0.801   5.516   4.703
 7744SOL    HW124131   0.737   5.500   4.779
 7744SOL    HW224132   0.855   5.598   4.722
 7745SOL     OW24133   1.467   6.490   0.104
 7745SOL    HW124134   1.553   6.440   0.115
 7745SOL    HW224135   1.428   6.469   0.015
 7746SOL     OW24136   1.282   6.510   1.021
 7746SOL    HW124137   1.199   6.516   1.077
 7746SOL    HW224138   1.362   6.519   1.080
 7747SOL     OW24139   0.304   6.033   0.524
 7747SOL    HW124140   0.318   6.072   0.615
 7747SOL    HW224141   0.369   5.959   0.509
 7748SOL     OW24142   4.295   2.819   5.686
 7748SOL    HW124143   4.271   2.738   5.633
 7748SOL    HW224144   4.230   2.893   5.667
 7749SOL     OW24145   3.613   3.517   3.910
 7749SOL    HW124146   3.583   3.584   3.843
 7749SOL    HW224147   3.537   3.457   3.934
 7750SOL     OW24148   5.942   4.615   5.710
 7750SOL    HW124149   5.993   4.580   5.789
 7750SOL    HW224150   5.976   4.705   5.685
 7751SOL     OW24151   0.201   1.637   5.157
 7751SOL    HW124152   0.167   1.621   5.064
 7751SOL    HW224153   0.134   1.601   5.223
 7752SOL     OW24154   5.847   5.790   5.291
 7752SOL    HW124155   5.809   5.830   5.207
 7752SOL    HW224156   5.921   5.728   5.267
 7753SOL     OW24157   2.341   0.762   4.241
 7753SOL    HW124158   2.309   0.715   4.159
 7753SOL    HW224159   2.300   0.853   4.245
 7754SOL     OW24160   5.884   0.300   0.749
 7754SOL    HW124161   5.842   0.243   0.678
 7754SOL    HW224162   5.893   0.393   0.716
 7755SOL     OW24163   0.053   5.926   5.165
 7755SOL    HW124164   6.998   5.874   5.123
 7755SOL    HW224165   0.035   6.024   5.156
 7756SOL     OW24166   2.742   4.750   2.319
 7756SOL    HW124167   2.687   4.704   2.249
 7756SOL    HW224168   2.839   4.733   2.302
 7757SOL     OW24169   4.435   6.351   5.422
 7757SOL    HW124170   4.335   6.345   5.423
 7757SOL    HW224171   4.467   6.347   5.328
 7758SOL     OW24172   2.581   2.261   6.009
 7758SOL    HW124173   2.615   2.334   6.068
 7758SOL    HW224174   2.628   2.264   5.921
 7759SOL     OW24175   2.280   0.313   4.215
 7759SOL    HW124176   2.186   0.349   4.212
 7759SOL    HW224177   2.309   0.289   4.122
 7760SOL     OW24178   5.619   3.247   1.892
 7760SOL    HW124179   5.678   3.238   1.971
 7760SOL    HW224180   5.584   3.341   1.887
 7761SOL     OW24181   3.008   6.924   6.635
 7761SOL    HW124182   3.054   6.862   6.697
 7761SOL    HW224183   2.911   6.902   6.631
 7762SOL     OW24184   4.149   1.737   0.649
 7762SOL    HW124185   4.187   1.739   0.557
 7762SOL    HW224186   4.125   1.642   0.672
 7763SOL     OW24187   1.669   1.663   1.074
 7763SOL    HW124188   1.694   1.684   0.980
 7763SOL    HW224189   1.669   1.747   1.128
 7764SOL     OW24190   3.961   3.068   2.467
 7764SOL    HW124191   3.885   3.058   2.402
 7764SOL    HW224192   4.044   3.028   2.427
 7765SOL     OW24193   6.190   3.471   3.068
 7765SOL    HW124194   6.284   3.501   3.083
 7765SOL    HW224195   6.169   3.476   2.970
 7766SOL     OW24196   6.513   1.582   0.135
 7766SOL    HW124197   6.478   1.561   0.226
 7766SOL    HW224198   6.437   1.597   0.072
 7767SOL     OW24199   3.780   6.253   3.924
 7767SOL    HW124200   3.780   6.183   3.996
 7767SOL    HW224201   3.694   6.248   3.873
 7768SOL     OW24202   3.496   4.920   2.204
 7768SOL    HW124203   3.531   4.859   2.132
 7768SOL    HW224204   3.398   4.933   2.191
 7769SOL     OW24205   4.857   1.797   0.663
 7769SOL    HW124206   4.858   1.745   0.577
 7769SOL    HW224207   4.800   1.750   0.730
 7770SOL     OW24208   3.003   4.980   1.776
 7770SOL    HW124209   2.948   5.062   1.793
 7770SOL    HW224210   3.095   5.007   1.748
 7771SOL     OW24211   2.901   1.966   5.245
 7771SOL    HW124212   2.803   1.953   5.258
 7771SOL    HW224213   2.918   2.011   5.157
 7772SOL     OW24214   4.613   0.689   4.002
 7772SOL    HW124215   4.672   0.767   3.977
 7772SOL    HW224216   4.552   0.715   4.076
 7773SOL     OW24217   4.171   3.678   6.054
 7773SOL    HW124218   4.104   3.604   6.055
 7773SOL    HW224219   4.198   3.700   6.148
 7774SOL     OW24220   5.537   1.398   6.227
 7774SOL    HW124221   5.609   1.359   6.286
 7774SOL    HW224222   5.580   1.444   6.150
 7775SOL     OW24223   3.825   6.962   2.847
 7775SOL    HW124224   3.742   6.930   2.893
 7775SOL    HW224225   3.828   0.043   2.850
 7776SOL     OW24226   3.909   3.220   6.295
 7776SOL    HW124227   3.853   3.245   6.216
 7776SOL    HW224228   3.949   3.302   6.335
 7777SOL     OW24229   2.185   1.131   6.856
 7777SOL    HW124230   2.215   1.092   6.769
 7777SOL    HW224231   2.109   1.194   6.839
 7778SOL     OW24232   5.561   0.251   6.661
 7778SOL    HW124233   5.652   0.292   6.650
 7778SOL    HW224234   5.569   0.151   6.659
 7779SOL     OW24235   3.524   1.947   1.151
 7779SOL    HW124236   3.568   1.998   1.226
 7779SOL    HW224237   3.557   1.982   1.064
 7780SOL     OW24238   1.138   6.399   4.170
 7780SOL    HW124239   1.216   6.393   4.108
 7780SOL    HW224240   1.158   6.349   4.254
 7781SOL     OW24241   1.628   3.414   5.989
 7781SOL    HW124242   1.678   3.500   5.996
 7781SOL    HW224243   1.530   3.433   5.982
 7782SOL     OW24244   2.696   3.932   6.416
 7782SOL    HW124245   2.792   3.917   6.393
 7782SOL    HW224246   2.641   3.931   6.333
 7783SOL     OW24247   2.408   6.519   6.661
 7783SOL    HW124248   2.338   6.573   6.707
 7783SOL    HW224249   2.380   6.501   6.567
 7784SOL     OW24250   0.814   2.490   7.018
 7784SOL    HW124251   0.748   2.534   0.059
 7784SOL    HW224252   0.769   2.420   6.963
 7785SOL     OW24253   2.246   6.503   3.985
 7785SOL    HW124254   2.266   6.432   3.918
 7785SOL    HW224255   2.328   6.558   4.002
 7786SOL     OW24256   3.141   4.612   5.282
 7786SOL    HW124257   3.109   4.623   5.376
 7786SOL    HW224258   3.063   4.595   5.222
 7787SOL     OW24259   2.345   2.714   4.987
 7787SOL    HW124260   2.344   2.813   4.972
 7787SOL    HW224261   2.274   2.671   4.931
 7788SOL     OW24262   1.019   1.718   1.634
 7788SOL    HW124263   0.982   1.796   1.683
 7788SOL    HW224264   1.056   1.747   1.545
 7789SOL     OW24265   2.452   0.282   1.093
 7789SOL    HW124266   2.445   0.368   1.042
 7789SOL    HW224267   2.377   0.277   1.159
 7790SOL     OW24268   6.584   4.059   3.134
 7790SOL    HW124269   6.577   4.119   3.214
 7790SOL    HW224270   6.592   3.964   3.163
 7791SOL     OW24271   2.395   5.659   4.678
 7791SOL    HW124272   2.356   5.751   4.686
 7791SOL    HW224273   2.382   5.610   4.764
 7792SOL     OW24274   2.426   6.244   6.303
 7792SOL    HW124275   2.373   6.197   6.231
 7792SOL    HW224276   2.489   6.179   6.345
 7793SOL     OW24277   1.588   0.818   5.666
 7793SOL    HW124278   1.510   0.881   5.673
 7793SOL    HW224279   1.671   0.870   5.643
 7794SOL     OW24280   5.226   5.620   4.352
 7794SOL    HW124281   5.196   5.697   4.296
 7794SOL    HW224282   5.180   5.536   4.322
 7795SOL     OW24283   2.028   3.992   5.499
 7795SOL    HW124284   2.039   4.010   5.402
 7795SOL    HW224285   1.953   4.048   5.535
 7796SOL     OW24286   3.788   4.017   3.502
 7796SOL    HW124287   3.834   4.021   3.591
 7796SOL    HW224288   3.692   4.044   3.513
 7797SOL     OW24289   0.108   6.194   3.243
 7797SOL    HW124290   0.118   6.109   3.192
 7797SOL    HW224291   0.088   6.269   3.180
 7798SOL     OW24292   3.467   5.544   6.986
 7798SOL    HW124293   3.524   5.594   6.921
 7798SOL    HW224294   3.380   5.591   6.997
 7799SOL     OW24295   0.070   5.675   1.015
 7799SOL    HW124296   0.118   5.731   1.081
 7799SOL    HW224297   6.991   5.694   1.020
 7800SOL     OW24298   0.184   4.851   1.845
 7800SOL    HW124299   0.173   4.900   1.759
 7800SOL    HW224300   0.103   4.865   1.902
 7801SOL     OW24301   2.282   1.332   0.551
 7801SOL    HW124302   2.318   1.424   0.567
 7801SOL    HW224303   2.339   1.265   0.600
 7802SOL     OW24304   5.882   2.698   1.896
 7802SOL    HW124305   5.964   2.643   1.877
 7802SOL    HW224306   5.830   2.655   1.970
 7803SOL     OW24307   4.322   4.019   5.634
 7803SOL    HW124308   4.421   4.003   5.639
 7803SOL    HW224309   4.280   3.986   5.719
 7804SOL     OW24310   5.339   1.415   4.673
 7804SOL    HW124311   5.252   1.379   4.638
 7804SOL    HW224312   5.376   1.352   4.741
 7805SOL     OW24313   5.320   2.263   2.157
 7805SOL    HW124314   5.380   2.282   2.079
 7805SOL    HW224315   5.234   2.223   2.125
 7806SOL     OW24316   5.631   3.134   6.017
 7806SOL    HW124317   5.717   3.101   5.978
 7806SOL    HW224318   5.613   3.086   6.103
 7807SOL     OW24319   0.176   4.533   6.459
 7807SOL    HW124320   0.217   4.606   6.514
 7807SOL    HW224321   0.232   4.451   6.465
 7808SOL     OW24322   0.414   1.668   4.787
 7808SOL    HW124323   0.437   1.763   4.807
 7808SOL    HW224324   0.499   1.614   4.780
 7809SOL     OW24325   2.298   5.364   4.400
 7809SOL    HW124326   2.285   5.432   4.328
 7809SOL    HW224327   2.260   5.398   4.486
 7810SOL     OW24328   2.803   0.781   5.728
 7810SOL    HW124329   2.870   0.820   5.791
 7810SOL    HW224330   2.721   0.754   5.780
 7811SOL     OW24331   5.245   4.826   3.437
 7811SOL    HW124332   5.314   4.769   3.482
 7811SOL    HW224333   5.278   4.921   3.433
 7812SOL     OW24334   1.521   1.561   4.347
 7812SOL    HW124335   1.434   1.514   4.338
 7812SOL    HW224336   1.506   1.656   4.374
 7813SOL     OW24337   5.635   2.892   6.866
 7813SOL    HW124338   5.661   2.946   6.946
 7813SOL    HW224339   5.657   2.943   6.783
 7814SOL     OW24340   7.000   3.052   3.675
 7814SOL    HW124341   6.982   3.116   3.750
 7814SOL    HW224342   0.002   2.962   3.712
 7815SOL     OW24343   5.716   1.639   6.759
 7815SOL    HW124344   5.689   1.665   6.851
 7815SOL    HW224345   5.656   1.685   6.693
 7816SOL     OW24346   0.669   3.696   5.872
 7816SOL    HW124347   0.725   3.676   5.953
 7816SOL    HW224348   0.710   3.653   5.792
 7817SOL     OW24349   5.522   4.576   4.443
 7817SOL    HW124350   5.542   4.587   4.346
 7817SOL    HW224351   5.566   4.650   4.494
 7818SOL     OW24352   6.532   6.665   1.271
 7818SOL    HW124353   6.502   6.673   1.176
 7818SOL    HW224354   6.567   6.573   1.287
 7819SOL     OW24355   6.983   2.662   1.381
 7819SOL    HW124356   6.970   2.754   1.417
 7819SOL    HW224357   6.901   2.633   1.331
 7820SOL     OW24358   2.129   1.858   5.762
 7820SOL    HW124359   2.113   1.784   5.826
 7820SOL    HW224360   2.108   1.828   5.669
 7821SOL     OW24361   4.009   5.738   0.929
 7821SOL    HW124362   4.002   5.645   0.966
 7821SOL    HW224363   4.105   5.767   0.930
 7822SOL     OW24364   0.710   5.791   5.169
 7822SOL    HW124365   0.799   5.756   5.141
 7822SOL    HW224366   0.714   5.820   5.265
 7823SOL     OW24367   2.292   4.341   4.947
 7823SOL    HW124368   2.290   4.241   4.937
 7823SOL    HW224369   2.387   4.372   4.946
 7824SOL     OW24370   0.187   2.724   5.038
 7824SOL    HW124371   0.146   2.783   5.107
 7824SOL    HW224372   0.124   2.650   5.015
 7825SOL     OW24373   2.147   2.573   6.509
 7825SOL    HW124374   2.088   2.654   6.508
 7825SOL    HW224375   2.100   2.497   6.464
 7826SOL     OW24376   6.719   2.454   0.382
 7826SOL    HW124377   6.758   2.440   0.473
 7826SOL    HW224378   6.787   2.497   0.322
 7827SOL     OW24379   0.071   6.280   2.939
 7827SOL    HW124380   0.141   6.221   2.898
 7827SOL    HW224381   7.000   6.241   2.921
 7828SOL     OW24382   6.974   3.679   6.821
 7828SOL    HW124383   6.930   3.590   6.812
 7828SOL    HW224384   0.003   3.701   6.736
 7829SOL     OW24385   3.373   2.834   1.479
 7829SOL    HW124386   3.394   2.749   1.526
 7829SOL    HW224387   3.273   2.843   1.470
 7830SOL     OW24388   2.846   5.322   4.750
 7830SOL    HW124389   2.908   5.304   4.826
 7830SOL    HW224390   2.886   5.286   4.665
 7831SOL     OW24391   1.828   1.618   1.347
 7831SOL    HW124392   1.779   1.658   1.269
 7831SOL    HW224393   1.784   1.647   1.432
 7832SOL     OW24394   6.024   0.917   5.320
 7832SOL    HW124395   5.978   0.919   5.409
 7832SOL    HW224396   5.970   0.863   5.256
 7833SOL     OW24397   1.481   0.339   4.206
 7833SOL    HW124398   1.472   0.435   4.231
 7833SOL    HW224399   1.578   0.314   4.204
 7834SOL     OW24400   6.312   2.517   4.123
 7834SOL    HW124401   6.321   2.569   4.039
 7834SOL    HW224402   6.399   2.519   4.173
 7835SOL     OW24403   4.300   1.832   5.404
 7835SOL    HW124404   4.290   1.785   5.316
 7835SOL    HW224405   4.334   1.768   5.473
 7836SOL     OW24406   3.917   4.104   5.141
 7836SOL    HW124407   3.999   4.078   5.194
 7836SOL    HW224408   3.945   4.146   5.055
 7837SOL     OW24409   6.170   6.367   0.137
 7837SOL    HW124410   6.119   6.281   0.134
 7837SOL    HW224411   6.206   6.381   0.229
 7838SOL     OW24412   5.477   5.444   1.375
 7838SOL    HW124413   5.496   5.526   1.321
 7838SOL    HW224414   5.558   5.421   1.429
 7839SOL     OW24415   6.197   4.567   4.674
 7839SOL    HW124416   6.238   4.523   4.594
 7839SOL    HW224417   6.254   4.550   4.754
 7840SOL     OW24418   1.863   4.567   3.325
 7840SOL    HW124419   1.817   4.566   3.414
 7840SOL    HW224420   1.958   4.594   3.337
 7841SOL     OW24421   4.864   2.053   6.217
 7841SOL    HW124422   4.852   2.023   6.311
 7841SOL    HW224423   4.952   2.100   6.207
 7842SOL     OW24424   1.893   1.246   2.801
 7842SOL    HW124425   1.857   1.209   2.886
 7842SOL    HW224426   1.992   1.260   2.811
 7843SOL     OW24427   0.309   6.607   4.232
 7843SOL    HW124428   0.257   6.555   4.163
 7843SOL    HW224429   0.361   6.679   4.187
 7844SOL     OW24430   3.348   1.016   2.599
 7844SOL    HW124431   3.372   0.922   2.620
 7844SOL    HW224432   3.321   1.063   2.684
 7845SOL     OW24433   6.009   1.298   1.923
 7845SOL    HW124434   5.930   1.324   1.868
 7845SOL    HW224435   6.068   1.378   1.937
 7846SOL     OW24436   0.967   2.492   0.213
 7846SOL    HW124437   0.914   2.431   0.272
 7846SOL    HW224438   0.921   2.501   0.125
 7847SOL     OW24439   5.791   2.428   4.336
 7847SOL    HW124440   5.874   2.373   4.328
 7847SOL    HW224441   5.737   2.397   4.415
 7848SOL     OW24442   2.835   4.720   0.710
 7848SOL    HW124443   2.891   4.781   0.766
 7848SOL    HW224444   2.739   4.738   0.726
 7849SOL     OW24445   5.449   3.454   5.695
 7849SOL    HW124446   5.355   3.453   5.662
 7849SOL    HW224447   5.510   3.413   5.627
 7850SOL     OW24448   6.893   1.319   3.899
 7850SOL    HW124449   6.967   1.282   3.954
 7850SOL    HW224450   6.820   1.354   3.958
 7851SOL     OW24451   1.077   4.088   1.246
 7851SOL    HW124452   1.076   3.996   1.206
 7851SOL    HW224453   1.171   4.119   1.259
 7852SOL     OW24454   2.281   1.862   0.518
 7852SOL    HW124455   2.328   1.886   0.433
 7852SOL    HW224456   2.290   1.936   0.584
 7853SOL     OW24457   3.839   3.114   1.433
 7853SOL    HW124458   3.755   3.059   1.434
 7853SOL    HW224459   3.832   3.187   1.501
 7854SOL     OW24460   4.355   1.763   5.991
 7854SOL    HW124461   4.383   1.769   5.895
 7854SOL    HW224462   4.319   1.671   6.010
 7855SOL     OW24463   5.094   0.048   4.447
 7855SOL    HW124464   5.129   6.974   4.455
 7855SOL    HW224465   5.149   0.098   4.380
 7856SOL     OW24466   2.162   5.160   4.618
 7856SOL    HW124467   2.171   5.259   4.606
 7856SOL    HW224468   2.116   5.121   4.539
 7857SOL     OW24469   5.318   3.789   0.055
 7857SOL    HW124470   5.385   3.853   0.093
 7857SOL    HW224471   5.236   3.790   0.112
 7858SOL     OW24472   0.240   5.383   5.619
 7858SOL    HW124473   0.296   5.445   5.673
 7858SOL    HW224474   0.147   5.419   5.614
 7859SOL     OW24475   5.252   2.866   6.243
 7859SOL    HW124476   5.213   2.843   6.332
 7859SOL    HW224477   5.338   2.914   6.255
 7860SOL     OW24478   2.881   1.071   4.786
 7860SOL    HW124479   2.867   0.972   4.788
 7860SOL    HW224480   2.886   1.107   4.879
 7861SOL     OW24481   2.650   6.025   1.238
 7861SOL    HW124482   2.615   5.931   1.227
 7861SOL    HW224483   2.699   6.032   1.325
 7862SOL     OW24484   3.032   6.004   1.164
 7862SOL    HW124485   3.019   5.929   1.229
 7862SOL    HW224486   2.980   6.084   1.194
 7863SOL     OW24487   6.902   4.638   3.549
 7863SOL    HW124488   6.995   4.649   3.515
 7863SOL    HW224489   6.838   4.631   3.472
 7864SOL     OW24490   2.553   6.047   5.664
 7864SOL    HW124491   2.546   5.951   5.693
 7864SOL    HW224492   2.548   6.051   5.564
 7865SOL     OW24493   6.565   6.368   4.160
 7865SOL    HW124494   6.611   6.456   4.150
 7865SOL    HW224495   6.538   6.333   4.070
 7866SOL     OW24496   1.980   0.668   6.158
 7866SOL    HW124497   1.930   0.606   6.219
 7866SOL    HW224498   2.076   0.672   6.187
 7867SOL     OW24499   5.531   0.397   3.875
 7867SOL    HW124500   5.553   0.494   3.875
 7867SOL    HW224501   5.610   0.345   3.844
 7868SOL     OW24502   4.071   6.309   0.884
 7868SOL    HW124503   4.171   6.308   0.890
 7868SOL    HW224504   4.044   6.349   0.796
 7869SOL     OW24505   5.755   3.987   5.518
 7869SOL    HW124506   5.690   4.005   5.444
 7869SOL    HW224507   5.781   3.890   5.516
 7870SOL     OW24508   4.344   6.290   5.093
 7870SOL    HW124509   4.427   6.328   5.051
 7870SOL    HW224510   4.268   6.353   5.075
 7871SOL     OW24511   5.370   1.427   2.226
 7871SOL    HW124512   5.293   1.422   2.162
 7871SOL    HW224513   5.368   1.515   2.274
 7872SOL     OW24514   1.701   5.416   2.511
 7872SOL    HW124515   1.629   5.480   2.537
 7872SOL    HW224516   1.721   5.355   2.588
 7873SOL     OW24517   6.997   1.149   0.594
 7873SOL    HW124518   6.957   1.066   0.633
 7873SOL    HW224519   7.017   1.135   0.497
 7874SOL     OW24520   5.761   2.518   1.257
 7874SOL    HW124521   5.751   2.563   1.346
 7874SOL    HW224522   5.707   2.434   1.257
 7875SOL     OW24523   4.120   4.037   6.722
 7875SOL    HW124524   4.085   3.944   6.721
 7875SOL    HW224525   4.192   4.047   6.654
 7876SOL     OW24526   0.446   0.277   2.713
 7876SOL    HW124527   0.463   0.219   2.633
 7876SOL    HW224528   0.519   0.345   2.721
 7877SOL     OW24529   6.667   1.622   3.340
 7877SOL    HW124530   6.661   1.527   3.372
 7877SOL    HW224531   6.616   1.633   3.255
 7878SOL     OW24532   4.793   4.661   3.644
 7878SOL    HW124533   4.855   4.740   3.643
 7878SOL    HW224534   4.702   4.692   3.671
 7879SOL     OW24535   2.754   4.973   3.525
 7879SOL    HW124536   2.714   4.882   3.533
 7879SOL    HW224537   2.725   5.016   3.440
 7880SOL     OW24538   2.141   3.601   1.470
 7880SOL    HW124539   2.189   3.560   1.548
 7880SOL    HW224540   2.194   3.680   1.437
 7881SOL     OW24541   5.002   3.668   4.401
 7881SOL    HW124542   4.955   3.746   4.440
 7881SOL    HW224543   5.075   3.637   4.462
 7882SOL     OW24544   2.374   3.323   1.211
 7882SOL    HW124545   2.406   3.327   1.306
 7882SOL    HW224546   2.278   3.349   1.207
 7883SOL     OW24547   0.674   1.190   5.162
 7883SOL    HW124548   0.688   1.274   5.214
 7883SOL    HW224549   0.740   1.187   5.086
 7884SOL     OW24550   0.826   2.954   4.933
 7884SOL    HW124551   0.727   2.952   4.944
 7884SOL    HW224552   0.853   3.037   4.885
 7885SOL     OW24553   5.870   5.310   0.728
 7885SOL    HW124554   5.884   5.407   0.748
 7885SOL    HW224555   5.958   5.264   0.722
 7886SOL     OW24556   4.611   5.399   6.989
 7886SOL    HW124557   4.640   5.492   6.965
 7886SOL    HW224558   4.690   5.347   0.003
 7887SOL     OW24559   4.843   1.989   6.897
 7887SOL    HW124560   4.880   2.010   6.987
 7887SOL    HW224561   4.745   2.009   6.896
 7888SOL     OW24562   4.526   0.438   4.696
 7888SOL    HW124563   4.572   0.403   4.615
 7888SOL    HW224564   4.486   0.527   4.676
 7889SOL     OW24565   0.098   5.749   2.379
 7889SOL    HW124566   0.024   5.690   2.412
 7889SOL    HW224567   0.123   5.722   2.286
 7890SOL     OW24568   1.875   3.900   2.402
 7890SOL    HW124569   1.955   3.952   2.432
 7890SOL    HW224570   1.855   3.922   2.307
 7891SOL     OW24571   2.603   4.632   2.107
 7891SOL    HW124572   2.535   4.621   2.035
 7891SOL    HW224573   2.693   4.606   2.073
 7892SOL     OW24574   2.084   2.513   5.371
 7892SOL    HW124575   2.108   2.455   5.449
 7892SOL    HW224576   2.087   2.459   5.287
 7893SOL     OW24577   5.944   6.326   0.715
 7893SOL    HW124578   6.009   6.284   0.779
 7893SOL    HW224579   5.929   6.422   0.741
 7894SOL     OW24580   2.557   6.204   2.055
 7894SOL    HW124581   2.566   6.249   1.967
 7894SOL    HW224582   2.645   6.162   2.080
 7895SOL     OW24583   6.082   1.209   4.722
 7895SOL    HW124584   5.995   1.162   4.709
 7895SOL    HW224585   6.108   1.256   4.638
 7896SOL     OW24586   5.218   4.204   5.422
 7896SOL    HW124587   5.238   4.210   5.325
 7896SOL    HW224588   5.123   4.232   5.439
 7897SOL     OW24589   2.513   3.703   6.847
 7897SOL    HW124590   2.511   3.730   6.750
 7897SOL    HW224591   2.420   3.703   6.883
 7898SOL     OW24592   4.135   2.273   4.122
 7898SOL    HW124593   4.136   2.312   4.214
 7898SOL    HW224594   4.113   2.175   4.127
 7899SOL     OW24595   5.525   2.627   2.649
 7899SOL    HW124596   5.472   2.551   2.686
 7899SOL    HW224597   5.464   2.688   2.597
 7900SOL     OW24598   1.941   5.910   1.202
 7900SOL    HW124599   1.995   5.860   1.135
 7900SOL    HW224600   1.849   5.873   1.206
 7901SOL     OW24601   6.759   6.265   6.461
 7901SOL    HW124602   6.858   6.255   6.454
 7901SOL    HW224603   6.715   6.189   6.412
 7902SOL     OW24604   4.458   4.472   0.752
 7902SOL    HW124605   4.485   4.421   0.671
 7902SOL    HW224606   4.421   4.410   0.821
 7903SOL     OW24607   6.649   1.823   0.130
 7903SOL    HW124608   6.713   1.827   0.206
 7903SOL    HW224609   6.581   1.752   0.148
 7904SOL     OW24610   0.110   1.201   2.425
 7904SOL    HW124611   0.063   1.289   2.415
 7904SOL    HW224612   0.048   1.127   2.397
 7905SOL     OW24613   4.316   0.814   1.027
 7905SOL    HW124614   4.216   0.817   1.031
 7905SOL    HW224615   4.347   0.828   0.933
 7906SOL     OW24616   5.722   5.780   6.903
 7906SOL    HW124617   5.678   5.690   6.894
 7906SOL    HW224618   5.810   5.778   6.855
 7907SOL     OW24619   6.923   2.733   3.760
 7907SOL    HW124620   6.963   2.686   3.839
 7907SOL    HW224621   6.839   2.779   3.789
 7908SOL     OW24622   6.750   1.478   4.080
 7908SOL    HW124623   6.763   1.565   4.032
 7908SOL    HW224624   6.657   1.473   4.116
 7909SOL     OW24625   4.668   4.321   4.865
 7909SOL    HW124626   4.756   4.368   4.860
 7909SOL    HW224627   4.595   4.381   4.832
 7910SOL     OW24628   4.508   3.528   5.615
 7910SOL    HW124629   4.449   3.603   5.584
 7910SOL    HW224630   4.585   3.566   5.667
 7911SOL     OW24631   6.593   4.654   0.624
 7911SOL    HW124632   6.643   4.580   0.577
 7911SOL    HW224633   6.497   4.652   0.598
 7912SOL     OW24634   5.975   4.368   6.362
 7912SOL    HW124635   5.955   4.464   6.376
 7912SOL    HW224636   6.046   4.338   6.425
 7913SOL     OW24637   6.884   5.170   6.744
 7913SOL    HW124638   6.852   5.242   6.805
 7913SOL    HW224639   6.945   5.208   6.675
 7914SOL     OW24640   6.339   3.847   1.349
 7914SOL    HW124641   6.409   3.780   1.376
 7914SOL    HW224642   6.346   3.865   1.251
 7915SOL     OW24643   4.156   1.679   3.538
 7915SOL    HW124644   4.066   1.635   3.533
 7915SOL    HW224645   4.144   1.779   3.535
 7916SOL     OW24646   5.644   3.061   5.586
 7916SOL    HW124647   5.686   3.012   5.509
 7916SOL    HW224648   5.615   3.151   5.554
 7917SOL     OW24649   4.005   3.595   4.702
 7917SOL    HW124650   4.071   3.605   4.776
 7917SOL    HW224651   4.032   3.652   4.625
 7918SOL     OW24652   6.391   1.346   2.591
 7918SOL    HW124653   6.351   1.255   2.591
 7918SOL    HW224654   6.474   1.346   2.648
 7919SOL     OW24655   5.549   5.242   2.133
 7919SOL    HW124656   5.507   5.153   2.118
 7919SOL    HW224657   5.577   5.250   2.229
 7920SOL     OW24658   0.249   5.243   1.763
 7920SOL    HW124659   0.257   5.284   1.672
 7920SOL    HW224660   0.335   5.198   1.787
 7921SOL     OW24661   2.375   6.839   1.710
 7921SOL    HW124662   2.322   6.868   1.630
 7921SOL    HW224663   2.471   6.829   1.684
 7922SOL     OW24664   1.160   5.465   6.674
 7922SOL    HW124665   1.208   5.551   6.660
 7922SOL    HW224666   1.062   5.480   6.666
 7923SOL     OW24667   0.979   1.377   3.291
 7923SOL    HW124668   0.908   1.306   3.298
 7923SOL    HW224669   0.936   1.464   3.267
 7924SOL     OW24670   2.945   0.346   3.790
 7924SOL    HW124671   2.948   0.351   3.890
 7924SOL    HW224672   2.865   0.396   3.756
 7925SOL     OW24673   6.335   1.262   6.351
 7925SOL    HW124674   6.338   1.163   6.334
 7925SOL    HW224675   6.394   1.284   6.428
 7926SOL     OW24676   2.970   0.158   2.392
 7926SOL    HW124677   2.927   0.217   2.460
 7926SOL    HW224678   2.929   0.176   2.302
 7927SOL     OW24679   3.959   4.832   5.167
 7927SOL    HW124680   3.946   4.876   5.256
 7927SOL    HW224681   4.053   4.844   5.137
 7928SOL     OW24682   2.236   5.176   2.617
 7928SOL    HW124683   2.143   5.201   2.588
 7928SOL    HW224684   2.277   5.117   2.548
 7929SOL     OW24685   4.023   3.754   4.486
 7929SOL    HW124686   4.057   3.705   4.405
 7929SOL    HW224687   3.931   3.788   4.468
 7930SOL     OW24688   4.125   5.508   3.709
 7930SOL    HW124689   4.159   5.419   3.741
 7930SOL    HW224690   4.025   5.505   3.703
 7931SOL     OW24691   2.233   2.173   0.712
 7931SOL    HW124692   2.211   2.170   0.809
 7931SOL    HW224693   2.157   2.213   0.662
 7932SOL     OW24694   2.010   6.833   0.094
 7932SOL    HW124695   1.933   6.894   0.075
 7932SOL    HW224696   1.976   6.749   0.138
 7933SOL     OW24697   1.251   0.170   6.844
 7933SOL    HW124698   1.178   0.229   6.811
 7933SOL    HW224699   1.211   0.088   6.885
 7934SOL     OW24700   3.474   3.856   0.359
 7934SOL    HW124701   3.464   3.919   0.435
 7934SOL    HW224702   3.488   3.908   0.274
 7935SOL     OW24703   4.988   6.241   1.116
 7935SOL    HW124704   4.961   6.169   1.180
 7935SOL    HW224705   4.917   6.311   1.113
 7936SOL     OW24706   3.984   6.510   2.995
 7936SOL    HW124707   3.954   6.515   2.900
 7936SOL    HW224708   4.052   6.581   3.012
 7937SOL     OW24709   6.069   6.119   5.871
 7937SOL    HW124710   5.973   6.091   5.863
 7937SOL    HW224711   6.076   6.191   5.941
 7938SOL     OW24712   4.342   5.439   4.861
 7938SOL    HW124713   4.362   5.506   4.933
 7938SOL    HW224714   4.249   5.452   4.828
 7939SOL     OW24715   0.669   0.962   5.353
 7939SOL    HW124716   0.571   0.950   5.365
 7939SOL    HW224717   0.687   1.050   5.309
 7940SOL     OW24718   2.199   5.090   1.435
 7940SOL    HW124719   2.220   5.025   1.508
 7940SOL    HW224720   2.235   5.180   1.458
 7941SOL     OW24721   0.427   0.708   0.733
 7941SOL    HW124722   0.389   0.787   0.685
 7941SOL    HW224723   0.509   0.736   0.782
 7942SOL     OW24724   0.173   6.974   1.805
 7942SOL    HW124725   0.204   6.991   1.899
 7942SOL    HW224726   0.246   6.928   1.754
 7943SOL     OW24727   5.504   2.098   0.769
 7943SOL    HW124728   5.580   2.124   0.711
 7943SOL    HW224729   5.422   2.084   0.713
 7944SOL     OW24730   0.313   3.865   1.198
 7944SOL    HW124731   0.224   3.910   1.197
 7944SOL    HW224732   0.381   3.925   1.158
 7945SOL     OW24733   5.510   6.506   2.863
 7945SOL    HW124734   5.453   6.438   2.816
 7945SOL    HW224735   5.487   6.508   2.960
 7946SOL     OW24736   2.074   2.375   6.110
 7946SOL    HW124737   2.161   2.424   6.105
 7946SOL    HW224738   2.006   2.432   6.156
 7947SOL     OW24739   4.349   2.679   6.654
 7947SOL    HW124740   4.321   2.740   6.728
 7947SOL    HW224741   4.323   2.718   6.566
 7948SOL     OW24742   6.464   6.767   0.495
 7948SOL    HW124743   6.462   6.669   0.510
 7948SOL    HW224744   6.428   6.814   0.575
 7949SOL     OW24745   5.092   5.268   3.644
 7949SOL    HW124746   4.994   5.274   3.659
 7949SOL    HW224747   5.135   5.354   3.671
 7950SOL     OW24748   4.267   4.692   4.238
 7950SOL    HW124749   4.176   4.722   4.207
 7950SOL    HW224750   4.323   4.772   4.257
 7951SOL     OW24751   3.482   3.182   0.662
 7951SOL    HW124752   3.455   3.085   0.660
 7951SOL    HW224753   3.409   3.238   0.623
 7952SOL     OW24754   6.321   3.119   0.579
 7952SOL    HW124755   6.360   3.131   0.488
 7952SOL    HW224756   6.244   3.181   0.591
 7953SOL     OW24757   2.422   2.699   3.482
 7953SOL    HW124758   2.421   2.780   3.422
 7953SOL    HW224759   2.496   2.639   3.455
 7954SOL     OW24760   4.096   5.178   4.558
 7954SOL    HW124761   4.042   5.228   4.625
 7954SOL    HW224762   4.036   5.132   4.493
 7955SOL     OW24763   0.371   6.443   6.528
 7955SOL    HW124764   0.466   6.476   6.525
 7955SOL    HW224765   0.365   6.354   6.484
 7956SOL     OW24766   6.782   5.937   3.762
 7956SOL    HW124767   6.713   5.894   3.820
 7956SOL    HW224768   6.869   5.941   3.811
 7957SOL     OW24769   1.267   1.581   0.876
 7957SOL    HW124770   1.296   1.660   0.822
 7957SOL    HW224771   1.289   1.597   0.972
 7958SOL     OW24772   3.069   5.310   3.748
 7958SOL    HW124773   3.030   5.234   3.800
 7958SOL    HW224774   3.122   5.369   3.809
 7959SOL     OW24775   6.462   4.996   0.344
 7959SOL    HW124776   6.513   5.038   0.419
 7959SOL    HW224777   6.498   4.904   0.327
 7960SOL     OW24778   2.588   1.088   1.394
 7960SOL    HW124779   2.602   1.184   1.417
 7960SOL    HW224780   2.670   1.051   1.350
 7961SOL     OW24781   1.638   6.026   5.780
 7961SOL    HW124782   1.571   5.974   5.727
 7961SOL    HW224783   1.641   6.120   5.746
 7962SOL     OW24784   2.021   0.938   2.139
 7962SOL    HW124785   2.003   0.972   2.047
 7962SOL    HW224786   2.103   0.880   2.138
 7963SOL     OW24787   0.836   0.695   5.680
 7963SOL    HW124788   0.877   0.612   5.719
 7963SOL    HW224789   0.764   0.729   5.740
 7964SOL     OW24790   5.690   5.398   2.926
 7964SOL    HW124791   5.638   5.479   2.898
 7964SOL    HW224792   5.644   5.354   3.003
 7965SOL     OW24793   5.110   2.647   0.158
 7965SOL    HW124794   5.145   2.557   0.135
 7965SOL    HW224795   5.106   2.704   0.076
 7966SOL     OW24796   0.188   5.342   4.070
 7966SOL    HW124797   0.204   5.243   4.064
 7966SOL    HW224798   0.270   5.387   4.105
 7967SOL     OW24799   3.506   6.484   2.593
 7967SOL    HW124800   3.556   6.398   2.584
 7967SOL    HW224801   3.407   6.465   2.594
 7968SOL     OW24802   2.224   2.431   3.891
 7968SOL    HW124803   2.306   2.468   3.847
 7968SOL    HW224804   2.175   2.504   3.938
 7969SOL     OW24805   3.765   1.390   3.265
 7969SOL    HW124806   3.843   1.353   3.316
 7969SOL    HW224807   3.784   1.388   3.167
 7970SOL     OW24808   0.123   4.112   3.193
 7970SOL    HW124809   0.102   4.185   3.258
 7970SOL    HW224810   0.218   4.123   3.161
 7971SOL     OW24811   3.690   0.061   1.265
 7971SOL    HW124812   3.696   0.158   1.290
 7971SOL    HW224813   3.709   0.005   1.345
 7972SOL     OW24814   6.920   4.472   1.576
 7972SOL    HW124815   6.838   4.508   1.622
 7972SOL    HW224816   6.900   4.457   1.479
 7973SOL     OW24817   4.832   3.185   3.738
 7973SOL    HW124818   4.762   3.241   3.694
 7973SOL    HW224819   4.833   3.203   3.836
 7974SOL     OW24820   4.730   0.320   4.394
 7974SOL    HW124821   4.676   0.240   4.421
 7974SOL    HW224822   4.742   0.320   4.295
 7975SOL     OW24823   3.123   1.051   4.632
 7975SOL    HW124824   3.042   1.071   4.687
 7975SOL    HW224825   3.114   0.960   4.591
 7976SOL     OW24826   1.283   6.247   4.787
 7976SOL    HW124827   1.324   6.168   4.740
 7976SOL    HW224828   1.184   6.245   4.773
 7977SOL     OW24829   4.829   6.303   2.002
 7977SOL    HW124830   4.802   6.249   1.923
 7977SOL    HW224831   4.913   6.353   1.981
 7978SOL     OW24832   4.720   3.598   5.806
 7978SOL    HW124833   4.711   3.673   5.871
 7978SOL    HW224834   4.799   3.613   5.747
 7979SOL     OW24835   2.647   0.083   4.536
 7979SOL    HW124836   2.603   0.126   4.457
 7979SOL    HW224837   2.717   0.019   4.505
 7980SOL     OW24838   3.800   6.004   0.229
 7980SOL    HW124839   3.765   6.077   0.288
 7980SOL    HW224840   3.748   5.921   0.246
 7981SOL     OW24841   1.386   5.421   2.331
 7981SOL    HW124842   1.423   5.329   2.340
 7981SOL    HW224843   1.450   5.487   2.370
 7982SOL     OW24844   6.590   2.374   0.629
 7982SOL    HW124845   6.678   2.418   0.610
 7982SOL    HW224846   6.586   2.349   0.726
 7983SOL     OW24847   5.079   1.607   2.394
 7983SOL    HW124848   5.014   1.683   2.385
 7983SOL    HW224849   5.046   1.529   2.340
 7984SOL     OW24850   0.365   2.702   2.297
 7984SOL    HW124851   0.271   2.703   2.263
 7984SOL    HW224852   0.368   2.749   2.385
 7985SOL     OW24853   0.908   0.650   2.251
 7985SOL    HW124854   0.995   0.603   2.235
 7985SOL    HW224855   0.860   0.605   2.326
 7986SOL     OW24856   3.940   1.242   6.419
 7986SOL    HW124857   3.913   1.322   6.366
 7986SOL    HW224858   4.017   1.266   6.479
 7987SOL     OW24859   0.456   2.719   5.158
 7987SOL    HW124860   0.467   2.642   5.221
 7987SOL    HW224861   0.359   2.731   5.137
 7988SOL     OW24862   2.844   1.980   4.437
 7988SOL    HW124863   2.788   1.950   4.514
 7988SOL    HW224864   2.932   1.933   4.439
 7989SOL     OW24865   3.249   2.343   5.628
 7989SOL    HW124866   3.342   2.310   5.643
 7989SOL    HW224867   3.251   2.438   5.597
 7990SOL     OW24868   1.168   2.841   4.284
 7990SOL    HW124869   1.214   2.897   4.215
 7990SOL    HW224870   1.154   2.749   4.247
 7991SOL     OW24871   0.435   2.717   5.757
 7991SOL    HW124872   0.434   2.772   5.674
 7991SOL    HW224873   0.526   2.721   5.799
 7992SOL     OW24874   1.774   6.849   0.863
 7992SOL    HW124875   1.781   6.927   0.800
 7992SOL    HW224876   1.690   6.798   0.842
 7993SOL     OW24877   2.275   5.712   6.971
 7993SOL    HW124878   2.265   5.646   6.897
 7993SOL    HW224879   2.193   5.709   0.009
 7994SOL     OW24880   4.719   1.071   3.433
 7994SOL    HW124881   4.628   1.109   3.448
 7994SOL    HW224882   4.786   1.124   3.485
 7995SOL     OW24883   3.409   5.307   3.876
 7995SOL    HW124884   3.474   5.263   3.939
 7995SOL    HW224885   3.342   5.359   3.929
 7996SOL     OW24886   3.557   0.075   4.813
 7996SOL    HW124887   3.574   6.998   4.792
 7996SOL    HW224888   3.492   0.112   4.747
 7997SOL     OW24889   6.066   2.580   1.151
 7997SOL    HW124890   6.051   2.675   1.180
 7997SOL    HW224891   6.014   2.519   1.211
 7998SOL     OW24892   5.557   4.418   0.373
 7998SOL    HW124893   5.593   4.503   0.411
 7998SOL    HW224894   5.460   4.430   0.350
 7999SOL     OW24895   1.526   0.119   5.645
 7999SOL    HW124896   1.605   0.066   5.614
 7999SOL    HW224897   1.480   0.159   5.566
 8000SOL     OW24898   6.379   6.904   5.541
 8000SOL    HW124899   6.359   6.805   5.543
 8000SOL    HW224900   6.474   6.918   5.513
 8001SOL     OW24901   1.778   6.672   1.482
 8001SOL    HW124902   1.701   6.625   1.441
 8001SOL    HW224903   1.842   6.700   1.410
 8002SOL     OW24904   6.198   3.692   5.209
 8002SOL    HW124905   6.109   3.676   5.252
 8002SOL    HW224906   6.187   3.756   5.132
 8003SOL     OW24907   3.691   4.904   3.168
 8003SOL    HW124908   3.752   4.902   3.247
 8003SOL    HW224909   3.597   4.883   3.198
 8004SOL     OW24910   2.491   4.598   3.082
 8004SOL    HW124911   2.589   4.604   3.063
 8004SOL    HW224912   2.468   4.660   3.157
 8005SOL     OW24913   3.533   0.217   1.706
 8005SOL    HW124914   3.524   0.193   1.803
 8005SOL    HW224915   3.541   0.317   1.697
 8006SOL     OW24916   2.840   5.870   0.421
 8006SOL    HW124917   2.810   5.932   0.493
 8006SOL    HW224918   2.771   5.798   0.410
 8007SOL     OW24919   0.376   0.476   4.357
 8007SOL    HW124920   0.467   0.446   4.385
 8007SOL    HW224921   0.384   0.534   4.276
 8008SOL     OW24922   6.219   6.445   6.885
 8008SOL    HW124923   6.231   6.455   6.983
 8008SOL    HW224924   6.244   6.352   6.857
 8009SOL     OW24925   6.929   0.527   3.241
 8009SOL    HW124926   6.956   0.534   3.145
 8009SOL    HW224927   7.010   0.506   3.296
 8010SOL     OW24928   2.011   1.940   0.530
 8010SOL    HW124929   2.004   1.983   0.620
 8010SOL    HW224930   2.104   1.906   0.516
 8011SOL     OW24931   3.113   2.232   1.382
 8011SOL    HW124932   3.061   2.316   1.366
 8011SOL    HW224933   3.069   2.178   1.454
 8012SOL     OW24934   2.127   6.760   1.494
 8012SOL    HW124935   2.084   6.683   1.540
 8012SOL    HW224936   2.110   6.844   1.546
 8013SOL     OW24937   5.810   5.304   4.367
 8013SOL    HW124938   5.826   5.394   4.328
 8013SOL    HW224939   5.890   5.246   4.351
 8014SOL     OW24940   1.984   6.438   6.565
 8014SOL    HW124941   2.050   6.393   6.506
 8014SOL    HW224942   1.925   6.497   6.510
 8015SOL     OW24943   2.824   2.702   0.714
 8015SOL    HW124944   2.828   2.602   0.711
 8015SOL    HW224945   2.915   2.738   0.730
 8016SOL     OW24946   4.316   6.713   0.589
 8016SOL    HW124947   4.333   6.683   0.683
 8016SOL    HW224948   4.290   6.810   0.590
 8017SOL     OW24949   6.990   4.212   4.625
 8017SOL    HW124950   6.977   4.296   4.573
 8017SOL    HW224951   6.929   4.212   4.704
 8018SOL     OW24952   4.511   1.787   5.766
 8018SOL    HW124953   4.484   1.863   5.707
 8018SOL    HW224954   4.610   1.780   5.768
 8019SOL     OW24955   1.624   5.758   0.463
 8019SOL    HW124956   1.695   5.818   0.500
 8019SOL    HW224957   1.567   5.724   0.537
 8020SOL     OW24958   5.282   5.478   6.735
 8020SOL    HW124959   5.372   5.442   6.758
 8020SOL    HW224960   5.288   5.531   6.650
 8021SOL     OW24961   1.113   1.435   1.126
 8021SOL    HW124962   1.142   1.340   1.116
 8021SOL    HW224963   1.176   1.483   1.186
 8022SOL     OW24964   4.427   6.661   2.753
 8022SOL    HW124965   4.428   6.744   2.809
 8022SOL    HW224966   4.504   6.603   2.778
 8023SOL     OW24967   6.067   6.132   2.182
 8023SOL    HW124968   6.067   6.228   2.155
 8023SOL    HW224969   6.155   6.091   2.158
 8024SOL     OW24970   4.701   5.493   5.928
 8024SOL    HW124971   4.689   5.394   5.920
 8024SOL    HW224972   4.662   5.524   6.014
 8025SOL     OW24973   3.294   6.295   6.368
 8025SOL    HW124974   3.230   6.219   6.370
 8025SOL    HW224975   3.274   6.354   6.290
 8026SOL     OW24976   1.413   3.599   6.555
 8026SOL    HW124977   1.413   3.695   6.582
 8026SOL    HW224978   1.455   3.589   6.465
 8027SOL     OW24979   4.553   2.083   5.129
 8027SOL    HW124980   4.652   2.088   5.121
 8027SOL    HW224981   4.514   2.175   5.124
 8028SOL     OW24982   4.848   5.295   6.205
 8028SOL    HW124983   4.933   5.244   6.192
 8028SOL    HW224984   4.869   5.387   6.240
 8029SOL     OW24985   4.124   4.695   0.396
 8029SOL    HW124986   4.202   4.635   0.410
 8029SOL    HW224987   4.133   4.776   0.454
 8030SOL     OW24988   5.759   4.124   5.859
 8030SOL    HW124989   5.663   4.112   5.835
 8030SOL    HW224990   5.767   4.183   5.939
 8031SOL     OW24991   4.051   5.272   1.475
 8031SOL    HW124992   4.112   5.197   1.502
 8031SOL    HW224993   4.100   5.336   1.417
 8032SOL     OW24994   5.619   4.306   4.793
 8032SOL    HW124995   5.625   4.389   4.737
 8032SOL    HW224996   5.528   4.265   4.783
 8033SOL     OW24997   5.775   2.580   0.124
 8033SOL    HW124998   5.863   2.573   0.077
 8033SOL    HW224999   5.791   2.598   0.221
 8034SOL     OW25000   5.005   0.025   4.731
 8034SOL    HW125001   4.911   7.013   4.740
 8034SOL    HW225002   5.023   0.053   4.636
 8035SOL     OW25003   5.350   6.228   7.018
 8035SOL    HW125004   5.366   6.312   6.966
 8035SOL    HW225005   5.260   6.191   6.995
 8036SOL     OW25006   2.313   3.906   1.865
 8036SOL    HW125007   2.262   3.980   1.909
 8036SOL    HW225008   2.253   3.828   1.851
 8037SOL     OW25009   1.402   2.838   1.016
 8037SOL    HW125010   1.371   2.896   1.091
 8037SOL    HW225011   1.385   2.742   1.037
 8038SOL     OW25012   6.854   2.087   3.368
 8038SOL    HW125013   6.866   1.994   3.405
 8038SOL    HW225014   6.928   2.108   3.305
 8039SOL     OW25015   2.182   0.251   3.182
 8039SOL    HW125016   2.096   0.242   3.232
 8039SOL    HW225017   2.201   0.166   3.133
 8040SOL     OW25018   0.464   5.550   1.027
 8040SOL    HW125019   0.503   5.598   1.107
 8040SOL    HW225020   0.429   5.461   1.056
 8041SOL     OW25021   4.037   1.395   1.078
 8041SOL    HW125022   3.995   1.482   1.052
 8041SOL    HW225023   4.131   1.410   1.106
 8042SOL     OW25024   3.303   2.933   2.537
 8042SOL    HW125025   3.394   2.893   2.530
 8042SOL    HW225026   3.255   2.923   2.450
 8043SOL     OW25027   2.721   0.499   1.619
 8043SOL    HW125028   2.789   0.517   1.548
 8043SOL    HW225029   2.752   0.424   1.677
 8044SOL     OW25030   3.091   3.069   1.445
 8044SOL    HW125031   3.068   3.162   1.471
 8044SOL    HW225032   3.155   3.070   1.368
 8045SOL     OW25033   6.116   2.500   3.032
 8045SOL    HW125034   6.018   2.513   3.046
 8045SOL    HW225035   6.131   2.415   2.982
 8046SOL     OW25036   5.525   4.594   5.456
 8046SOL    HW125037   5.625   4.600   5.454
 8046SOL    HW225038   5.494   4.530   5.385
 8047SOL     OW25039   3.827   5.911   4.827
 8047SOL    HW125040   3.774   5.849   4.884
 8047SOL    HW225041   3.805   6.006   4.850
 8048SOL     OW25042   6.861   0.456   5.241
 8048SOL    HW125043   6.910   0.426   5.158
 8048SOL    HW225044   6.792   0.524   5.217
 8049SOL     OW25045   1.319   6.428   1.393
 8049SOL    HW125046   1.240   6.409   1.452
 8049SOL    HW225047   1.403   6.428   1.447
 8050SOL     OW25048   1.812   3.690   0.815
 8050SOL    HW125049   1.718   3.662   0.837
 8050SOL    HW225050   1.866   3.695   0.900
 8051SOL     OW25051   4.523   0.993   3.059
 8051SOL    HW125052   4.485   0.914   3.108
 8051SOL    HW225053   4.604   1.026   3.108
 8052SOL     OW25054   2.662   1.417   3.047
 8052SOL    HW125055   2.757   1.398   3.020
 8052SOL    HW225056   2.604   1.341   3.018
 8053SOL     OW25057   3.688   4.091   2.634
 8053SOL    HW125058   3.728   4.155   2.568
 8053SOL    HW225059   3.757   4.025   2.663
 8054SOL     OW25060   5.166   6.765   4.476
 8054SOL    HW125061   5.158   6.711   4.560
 8054SOL    HW225062   5.087   6.749   4.418
 8055SOL     OW25063   1.577   0.120   6.129
 8055SOL    HW125064   1.513   0.097   6.203
 8055SOL    HW225065   1.556   0.065   6.048
 8056SOL     OW25066   4.610   1.995   3.081
 8056SOL    HW125067   4.518   1.956   3.070
 8056SOL    HW225068   4.619   2.033   3.173
 8057SOL     OW25069   3.022   6.907   3.254
 8057SOL    HW125070   2.979   6.943   3.336
 8057SOL    HW225071   2.969   6.936   3.173
 8058SOL     OW25072   2.999   0.778   2.410
 8058SOL    HW125073   2.901   0.783   2.388
 8058SOL    HW225074   3.045   0.859   2.374
 8059SOL     OW25075   3.386   2.095   4.898
 8059SOL    HW125076   3.398   2.012   4.952
 8059SOL    HW225077   3.342   2.165   4.954
 8060SOL     OW25078   6.788   1.130   4.877
 8060SOL    HW125079   6.707   1.082   4.910
 8060SOL    HW225080   6.858   1.062   4.853
 8061SOL     OW25081   6.675   5.830   2.754
 8061SOL    HW125082   6.617   5.749   2.756
 8061SOL    HW225083   6.716   5.840   2.663
 8062SOL     OW25084   1.552   3.964   4.044
 8062SOL    HW125085   1.456   3.953   4.066
 8062SOL    HW225086   1.562   4.020   3.961
 8063SOL     OW25087   3.213   3.407   6.657
 8063SOL    HW125088   3.156   3.478   6.698
 8063SOL    HW225089   3.155   3.338   6.613
 8064SOL     OW25090   0.701   3.909   0.474
 8064SOL    HW125091   0.654   3.971   0.412
 8064SOL    HW225092   0.761   3.848   0.422
 8065SOL     OW25093   4.610   0.051   4.090
 8065SOL    HW125094   4.575   6.989   4.043
 8065SOL    HW225095   4.703   0.034   4.121
 8066SOL     OW25096   1.699   0.912   1.304
 8066SOL    HW125097   1.631   0.841   1.323
 8066SOL    HW225098   1.657   1.002   1.315
 8067SOL     OW25099   4.542   2.845   1.516
 8067SOL    HW125100   4.483   2.879   1.443
 8067SOL    HW225101   4.510   2.757   1.548
 8068SOL     OW25102   0.986   4.682   4.686
 8068SOL    HW125103   0.982   4.614   4.759
 8068SOL    HW225104   1.070   4.737   4.696
 8069SOL     OW25105   1.620   6.217   1.111
 8069SOL    HW125106   1.663   6.188   1.196
 8069SOL    HW225107   1.522   6.234   1.127
 8070SOL     OW25108   3.884   6.394   1.514
 8070SOL    HW125109   3.880   6.383   1.415
 8070SOL    HW225110   3.812   6.339   1.557
 8071SOL     OW25111   3.512   6.622   5.724
 8071SOL    HW125112   3.413   6.607   5.732
 8071SOL    HW225113   3.531   6.669   5.638
 8072SOL     OW25114   4.733   1.306   0.514
 8072SOL    HW125115   4.721   1.209   0.531
 8072SOL    HW225116   4.673   1.335   0.440
 8073SOL     OW25117   4.421   6.361   5.914
 8073SOL    HW125118   4.440   6.330   6.007
 8073SOL    HW225119   4.332   6.328   5.885
 8074SOL     OW25120   3.593   3.399   0.284
 8074SOL    HW125121   3.663   3.399   0.355
 8074SOL    HW225122   3.606   3.320   0.224
 8075SOL     OW25123   0.079   1.112   2.780
 8075SOL    HW125124   0.068   1.200   2.733
 8075SOL    HW225125   0.026   1.042   2.732
 8076SOL     OW25126   5.626   2.312   5.525
 8076SOL    HW125127   5.681   2.242   5.482
 8076SOL    HW225128   5.661   2.332   5.616
 8077SOL     OW25129   0.842   6.968   1.409
 8077SOL    HW125130   0.779   6.999   1.337
 8077SOL    HW225131   0.800   6.983   1.499
 8078SOL     OW25132   6.695   2.731   0.939
 8078SOL    HW125133   6.600   2.761   0.933
 8078SOL    HW225134   6.697   2.632   0.955
 8079SOL     OW25135   6.521   2.127   2.948
 8079SOL    HW125136   6.617   2.126   2.976
 8079SOL    HW225137   6.485   2.220   2.953
 8080SOL     OW25138   2.828   3.889   0.673
 8080SOL    HW125139   2.759   3.911   0.604
 8080SOL    HW225140   2.808   3.936   0.758
 8081SOL     OW25141   6.235   1.096   4.914
 8081SOL    HW125142   6.179   1.135   4.841
 8081SOL    HW225143   6.196   1.009   4.944
 8082SOL     OW25144   6.718   2.389   3.723
 8082SOL    HW125145   6.783   2.424   3.790
 8082SOL    HW225146   6.766   2.371   3.636
 8083SOL     OW25147   4.624   2.647   3.156
 8083SOL    HW125148   4.591   2.568   3.207
 8083SOL    HW225149   4.615   2.630   3.058
 8084SOL     OW25150   6.978   6.216   1.393
 8084SOL    HW125151   6.902   6.281   1.392
 8084SOL    HW225152   0.036   6.257   1.442
 8085SOL     OW25153   5.508   0.483   0.722
 8085SOL    HW125154   5.562   0.466   0.639
 8085SOL    HW225155   5.518   0.405   0.784
 8086SOL     OW25156   3.853   0.591   4.912
 8086SOL    HW125157   3.937   0.636   4.940
 8086SOL    HW225158   3.799   0.567   4.992
 8087SOL     OW25159   2.625   2.236   1.144
 8087SOL    HW125160   2.545   2.276   1.189
 8087SOL    HW225161   2.689   2.309   1.119
 8088SOL     OW25162   5.555   0.913   2.070
 8088SOL    HW125163   5.642   0.961   2.060
 8088SOL    HW225164   5.528   0.913   2.166
 8089SOL     OW25165   5.188   3.004   0.298
 8089SOL    HW125166   5.194   2.922   0.354
 8089SOL    HW225167   5.121   2.990   0.225
 8090SOL     OW25168   5.045   1.813   5.803
 8090SOL    HW125169   4.950   1.841   5.816
 8090SOL    HW225170   5.060   1.722   5.843
 8091SOL     OW25171   2.968   4.496   6.594
 8091SOL    HW125172   3.035   4.560   6.632
 8091SOL    HW225173   3.015   4.414   6.561
 8092SOL     OW25174   1.472   1.189   5.286
 8092SOL    HW125175   1.467   1.288   5.272
 8092SOL    HW225176   1.497   1.145   5.199
 8093SOL     OW25177   6.166   5.779   1.227
 8093SOL    HW125178   6.241   5.713   1.228
 8093SOL    HW225179   6.136   5.794   1.133
 8094SOL     OW25180   1.432   3.879   6.587
 8094SOL    HW125181   1.388   3.930   6.513
 8094SOL    HW225182   1.523   3.916   6.604
 8095SOL     OW25183   5.841   3.478   4.906
 8095SOL    HW125184   5.786   3.395   4.893
 8095SOL    HW225185   5.885   3.475   4.996
 8096SOL     OW25186   3.293   5.959   1.503
 8096SOL    HW125187   3.302   6.038   1.443
 8096SOL    HW225188   3.290   5.875   1.449
 8097SOL     OW25189   4.971   1.158   3.518
 8097SOL    HW125190   5.041   1.145   3.449
 8097SOL    HW225191   4.978   1.087   3.587
 8098SOL     OW25192   2.932   6.058   4.481
 8098SOL    HW125193   2.966   5.987   4.543
 8098SOL    HW225194   2.961   6.148   4.514
 8099SOL     OW25195   5.199   6.438   4.567
 8099SOL    HW125196   5.298   6.430   4.578
 8099SOL    HW225197   5.162   6.493   4.641
 8100SOL     OW25198   6.479   6.448   0.508
 8100SOL    HW125199   6.461   6.357   0.545
 8100SOL    HW225200   6.577   6.467   0.514
 8101SOL     OW25201   1.284   5.961   3.465
 8101SOL    HW125202   1.376   5.991   3.441
 8101SOL    HW225203   1.226   5.963   3.383
 8102SOL     OW25204   6.653   5.585   5.552
 8102SOL    HW125205   6.739   5.621   5.515
 8102SOL    HW225206   6.587   5.572   5.478
 8103SOL     OW25207   3.661   1.677   2.445
 8103SOL    HW125208   3.562   1.668   2.454
 8103SOL    HW225209   3.706   1.606   2.499
 8104SOL     OW25210   2.428   0.114   5.656
 8104SOL    HW125211   2.330   0.094   5.644
 8104SOL    HW225212   2.473   0.035   5.695
 8105SOL     OW25213   2.439   2.225   3.662
 8105SOL    HW125214   2.511   2.205   3.730
 8105SOL    HW225215   2.354   2.181   3.691
 8106SOL     OW25216   0.932   4.219   3.618
 8106SOL    HW125217   1.021   4.197   3.659
 8106SOL    HW225218   0.869   4.143   3.635
 8107SOL     OW25219   1.898   6.150   5.859
 8107SOL    HW125220   1.907   6.050   5.848
 8107SOL    HW225221   1.917   6.194   5.771
 8108SOL     OW25222   0.611   3.674   4.335
 8108SOL    HW125223   0.541   3.685   4.265
 8108SOL    HW225224   0.567   3.660   4.424
 8109SOL     OW25225   1.511   4.426   4.830
 8109SOL    HW125226   1.459   4.403   4.747
 8109SOL    HW225227   1.510   4.525   4.842
 8110SOL     OW25228   2.259   6.320   0.742
 8110SOL    HW125229   2.160   6.332   0.749
 8110SOL    HW225230   2.298   6.311   0.833
 8111SOL     OW25231   2.628   5.442   4.853
 8111SOL    HW125232   2.716   5.400   4.831
 8111SOL    HW225233   2.555   5.391   4.809
 8112SOL     OW25234   2.472   0.516   5.232
 8112SOL    HW125235   2.415   0.518   5.315
 8112SOL    HW225236   2.566   0.494   5.257
 8113SOL     OW25237   3.686   2.444   6.753
 8113SOL    HW125238   3.590   2.453   6.776
 8113SOL    HW225239   3.697   2.379   6.677
 8114SOL     OW25240   2.145   2.904   2.265
 8114SOL    HW125241   2.146   2.910   2.165
 8114SOL    HW225242   2.206   2.830   2.294
 8115SOL     OW25243   3.118   0.957   1.298
 8115SOL    HW125244   3.207   0.956   1.253
 8115SOL    HW225245   3.070   0.870   1.280
 8116SOL     OW25246   6.215   0.033   5.063
 8116SOL    HW125247   6.213   6.957   5.033
 8116SOL    HW225248   6.204   0.038   5.162
 8117SOL     OW25249   1.511   1.667   4.886
 8117SOL    HW125250   1.596   1.710   4.855
 8117SOL    HW225251   1.489   1.700   4.978
 8118SOL     OW25252   0.964   3.889   5.230
 8118SOL    HW125253   0.978   3.838   5.145
 8118SOL    HW225254   1.035   3.864   5.296
 8119SOL     OW25255   0.878   5.855   2.689
 8119SOL    HW125256   0.813   5.900   2.749
 8119SOL    HW225257   0.900   5.915   2.612
 8120SOL     OW25258   4.158   4.419   1.057
 8120SOL    HW125259   4.178   4.330   1.096
 8120SOL    HW225260   4.244   4.467   1.038
 8121SOL     OW25261   6.815   0.730   2.463
 8121SOL    HW125262   6.770   0.747   2.376
 8121SOL    HW225263   6.857   0.639   2.462
 8122SOL     OW25264   6.459   6.180   1.904
 8122SOL    HW125265   6.448   6.274   1.938
 8122SOL    HW225266   6.548   6.171   1.860
 8123SOL     OW25267   1.548   6.313   6.347
 8123SOL    HW125268   1.496   6.360   6.419
 8123SOL    HW225269   1.490   6.243   6.305
 8124SOL     OW25270   1.049   5.796   1.950
 8124SOL    HW125271   0.971   5.736   1.968
 8124SOL    HW225272   1.104   5.757   1.876
 8125SOL     OW25273   5.959   4.562   3.077
 8125SOL    HW125274   6.022   4.491   3.047
 8125SOL    HW225275   6.011   4.642   3.107
 8126SOL     OW25276   5.927   4.188   2.479
 8126SOL    HW125277   5.882   4.257   2.535
 8126SOL    HW225278   5.858   4.139   2.426
 8127SOL     OW25279   2.054   5.046   0.179
 8127SOL    HW125280   1.981   4.984   0.150
 8127SOL    HW225281   2.013   5.133   0.209
 8128SOL     OW25282   3.412   2.891   5.732
 8128SOL    HW125283   3.348   2.841   5.790
 8128SOL    HW225284   3.411   2.853   5.640
 8129SOL     OW25285   5.710   0.712   6.255
 8129SOL    HW125286   5.623   0.745   6.216
 8129SOL    HW225287   5.720   0.614   6.235
 8130SOL     OW25288   1.633   5.583   6.727
 8130SOL    HW125289   1.720   5.568   6.773
 8130SOL    HW225290   1.650   5.611   6.632
 8131SOL     OW25291   2.702   0.644   0.839
 8131SOL    HW125292   2.678   0.628   0.935
 8131SOL    HW225293   2.786   0.595   0.817
 8132SOL     OW25294   5.868   5.498   3.873
 8132SOL    HW125295   5.822   5.577   3.914
 8132SOL    HW225296   5.931   5.530   3.802
 8133SOL     OW25297   2.680   5.322   2.695
 8133SOL    HW125298   2.585   5.344   2.673
 8133SOL    HW225299   2.698   5.345   2.791
 8134SOL     OW25300   2.258   2.219   4.074
 8134SOL    HW125301   2.228   2.290   4.009
 8134SOL    HW225302   2.290   2.139   4.023
 8135SOL     OW25303   4.011   5.449   2.166
 8135SOL    HW125304   3.977   5.366   2.211
 8135SOL    HW225305   3.936   5.492   2.114
 8136SOL     OW25306   3.827   5.562   2.412
 8136SOL    HW125307   3.877   5.478   2.394
 8136SOL    HW225308   3.882   5.641   2.384
 8137SOL     OW25309   2.151   4.043   4.674
 8137SOL    HW125310   2.081   4.106   4.708
 8137SOL    HW225311   2.238   4.061   4.721
 8138SOL     OW25312   5.110   1.179   2.303
 8138SOL    HW125313   5.053   1.114   2.353
 8138SOL    HW225314   5.061   1.265   2.291
 8139SOL     OW25315   1.755   2.375   3.051
 8139SOL    HW125316   1.833   2.436   3.034
 8139SOL    HW225317   1.780   2.282   3.025
 8140SOL     OW25318   4.776   0.713   0.548
 8140SOL    HW125319   4.793   0.616   0.562
 8140SOL    HW225320   4.857   0.755   0.506
 8141SOL     OW25321   5.021   1.562   5.950
 8141SOL    HW125322   4.970   1.486   5.910
 8141SOL    HW225323   4.973   1.597   6.030
 8142SOL     OW25324   2.073   5.972   6.942
 8142SOL    HW125325   2.132   6.047   6.971
 8142SOL    HW225326   2.019   5.940   0.001
 8143SOL     OW25327   5.550   4.676   0.480
 8143SOL    HW125328   5.606   4.653   0.559
 8143SOL    HW225329   5.460   4.707   0.510
 8144SOL     OW25330   0.176   4.881   5.789
 8144SOL    HW125331   0.197   4.786   5.768
 8144SOL    HW225332   0.230   4.911   5.868
 8145SOL     OW25333   5.557   5.554   6.895
 8145SOL    HW125334   5.576   5.488   6.968
 8145SOL    HW225335   5.560   5.507   6.806
 8146SOL     OW25336   5.990   0.309   4.355
 8146SOL    HW125337   5.953   0.218   4.373
 8146SOL    HW225338   5.920   0.378   4.376
 8147SOL     OW25339   1.072   0.635   5.516
 8147SOL    HW125340   1.045   0.603   5.607
 8147SOL    HW225341   1.007   0.706   5.486
 8148SOL     OW25342   3.891   4.768   0.240
 8148SOL    HW125343   3.962   4.741   0.305
 8148SOL    HW225344   3.854   4.687   0.194
 8149SOL     OW25345   1.328   6.105   4.117
 8149SOL    HW125346   1.296   6.117   4.023
 8149SOL    HW225347   1.420   6.144   4.126
 8150SOL     OW25348   1.117   3.149   0.928
 8150SOL    HW125349   1.038   3.148   0.866
 8150SOL    HW225350   1.097   3.208   1.006
 8151SOL     OW25351   6.100   4.302   3.938
 8151SOL    HW125352   6.026   4.356   3.898
 8151SOL    HW225353   6.160   4.362   3.991
 8152SOL     OW25354   4.638   2.163   3.299
 8152SOL    HW125355   4.699   2.240   3.284
 8152SOL    HW225356   4.686   2.091   3.348
 8153SOL     OW25357   6.830   2.068   3.830
 8153SOL    HW125358   6.789   2.155   3.859
 8153SOL    HW225359   6.772   2.026   3.761
 8154SOL     OW25360   1.774   1.546   3.355
 8154SOL    HW125361   1.694   1.505   3.400
 8154SOL    HW225362   1.744   1.593   3.272
 8155SOL     OW25363   1.264   5.189   1.766
 8155SOL    HW125364   1.354   5.209   1.806
 8155SOL    HW225365   1.222   5.274   1.735
 8156SOL     OW25366   5.931   5.000   1.640
 8156SOL    HW125367   5.887   4.952   1.564
 8156SOL    HW225368   5.863   5.056   1.688
 8157SOL     OW25369   6.848   3.048   6.442
 8157SOL    HW125370   6.939   3.086   6.431
 8157SOL    HW225371   6.828   3.036   6.539
 8158SOL     OW25372   5.651   4.645   6.365
 8158SOL    HW125373   5.623   4.741   6.358
 8158SOL    HW225374   5.746   4.641   6.397
 8159SOL     OW25375   3.380   6.307   5.947
 8159SOL    HW125376   3.319   6.289   5.869
 8159SOL    HW225377   3.395   6.406   5.954
 8160SOL     OW25378   5.230   1.152   3.414
 8160SOL    HW125379   5.230   1.193   3.323
 8160SOL    HW225380   5.258   1.056   3.408
 8161SOL     OW25381   5.637   3.247   1.088
 8161SOL    HW125382   5.619   3.224   0.993
 8161SOL    HW225383   5.622   3.167   1.146
 8162SOL     OW25384   0.448   4.996   6.770
 8162SOL    HW125385   0.464   4.898   6.779
 8162SOL    HW225386   0.532   5.041   6.738
 8163SOL     OW25387   4.651   4.799   4.971
 8163SOL    HW125388   4.676   4.784   4.875
 8163SOL    HW225389   4.698   4.881   5.004
 8164SOL     OW25390   5.984   1.207   0.064
 8164SOL    HW125391   5.919   1.279   0.040
 8164SOL    HW225392   6.075   1.232   0.031
 8165SOL     OW25393   0.507   1.988   6.362
 8165SOL    HW125394   0.497   1.974   6.461
 8165SOL    HW225395   0.495   1.901   6.315
 8166SOL     OW25396   1.594   2.322   4.801
 8166SOL    HW125397   1.592   2.397   4.866
 8166SOL    HW225398   1.525   2.254   4.825
 8167SOL     OW25399   6.909   2.819   4.192
 8167SOL    HW125400   6.854   2.889   4.146
 8167SOL    HW225401   6.923   2.846   4.287
 8168SOL     OW25402   2.405   0.311   1.799
 8168SOL    HW125403   2.397   0.395   1.744
 8168SOL    HW225404   2.338   0.244   1.767
 8169SOL     OW25405   5.294   2.061   1.338
 8169SOL    HW125406   5.301   2.018   1.247
 8169SOL    HW225407   5.372   2.123   1.351
 8170SOL     OW25408   6.252   4.671   2.517
 8170SOL    HW125409   6.251   4.591   2.457
 8170SOL    HW225410   6.311   4.653   2.596
 8171SOL     OW25411   2.036   1.341   0.433
 8171SOL    HW125412   2.000   1.251   0.458
 8171SOL    HW225413   2.132   1.346   0.459
 8172SOL     OW25414   0.914   3.062   1.805
 8172SOL    HW125415   0.900   3.148   1.756
 8172SOL    HW225416   0.993   3.015   1.767
 8173SOL     OW25417   5.610   1.397   2.092
 8173SOL    HW125418   5.530   1.408   2.151
 8173SOL    HW225419   5.626   1.300   2.075
 8174SOL     OW25420   2.306   5.490   2.651
 8174SOL    HW125421   2.267   5.488   2.559
 8174SOL    HW225422   2.232   5.499   2.719
 8175SOL     OW25423   0.170   2.248   4.425
 8175SOL    HW125424   0.119   2.248   4.339
 8175SOL    HW225425   0.112   2.215   4.498
 8176SOL     OW25426   2.107   4.408   0.888
 8176SOL    HW125427   2.181   4.455   0.937
 8176SOL    HW225428   2.062   4.473   0.827
 8177SOL     OW25429   3.513   1.545   2.806
 8177SOL    HW125430   3.451   1.606   2.758
 8177SOL    HW225431   3.575   1.502   2.740
 8178SOL     OW25432   2.019   6.435   1.172
 8178SOL    HW125433   1.963   6.518   1.178
 8178SOL    HW225434   2.083   6.433   1.249
 8179SOL     OW25435   5.338   0.900   3.349
 8179SOL    HW125436   5.335   0.818   3.406
 8179SOL    HW225437   5.433   0.929   3.337
 8180SOL     OW25438   4.713   5.715   0.191
 8180SOL    HW125439   4.634   5.655   0.182
 8180SOL    HW225440   4.790   5.677   0.141
 8181SOL     OW25441   0.970   1.167   1.248
 8181SOL    HW125442   1.055   1.147   1.199
 8181SOL    HW225443   0.921   1.240   1.201
 8182SOL     OW25444   3.005   3.295   4.657
 8182SOL    HW125445   2.992   3.214   4.714
 8182SOL    HW225446   2.965   3.280   4.567
 8183SOL     OW25447   6.980   0.082   5.277
 8183SOL    HW125448   0.041   0.041   5.233
 8183SOL    HW225449   7.007   0.124   5.363
 8184SOL     OW25450   0.761   6.284   6.741
 8184SOL    HW125451   0.859   6.303   6.741
 8184SOL    HW225452   0.710   6.367   6.766
 8185SOL     OW25453   0.837   6.786   0.164
 8185SOL    HW125454   0.930   6.779   0.200
 8185SOL    HW225455   0.841   6.794   0.064
 8186SOL     OW25456   1.392   5.323   6.736
 8186SOL    HW125457   1.419   5.286   6.647
 8186SOL    HW225458   1.302   5.366   6.728
 8187SOL     OW25459   1.315   0.965   5.720
 8187SOL    HW125460   1.305   0.897   5.648
 8187SOL    HW225461   1.320   1.057   5.680
 8188SOL     OW25462   3.195   1.816   4.039
 8188SOL    HW125463   3.286   1.836   4.004
 8188SOL    HW225464   3.155   1.900   4.078
 8189SOL     OW25465   4.753   4.744   4.165
 8189SOL    HW125466   4.731   4.743   4.262
 8189SOL    HW225467   4.668   4.749   4.111
 8190SOL     OW25468   5.642   3.634   3.194
 8190SOL    HW125469   5.738   3.633   3.223
 8190SOL    HW225470   5.635   3.600   3.100
 8191SOL     OW25471   4.212   5.074   1.569
 8191SOL    HW125472   4.288   5.056   1.506
 8191SOL    HW225473   4.153   4.993   1.574
 8192SOL     OW25474   1.762   5.009   3.841
 8192SOL    HW125475   1.808   4.976   3.758
 8192SOL    HW225476   1.828   5.059   3.897
 8193SOL     OW25477   6.876   4.704   4.718
 8193SOL    HW125478   6.880   4.714   4.818
 8193SOL    HW225479   6.969   4.709   4.681
 8194SOL     OW25480   4.670   6.787   1.847
 8194SOL    HW125481   4.770   6.784   1.848
 8194SOL    HW225482   4.635   6.787   1.940
 8195SOL     OW25483   5.550   6.703   3.221
 8195SOL    HW125484   5.534   6.609   3.192
 8195SOL    HW225485   5.622   6.704   3.291
 8196SOL     OW25486   4.536   0.187   6.974
 8196SOL    HW125487   4.575   0.197   0.046
 8196SOL    HW225488   4.585   0.246   6.910
 8197SOL     OW25489   5.284   2.091   1.607
 8197SOL    HW125490   5.294   2.190   1.596
 8197SOL    HW225491   5.239   2.054   1.526
 8198SOL     OW25492   2.203   0.202   2.516
 8198SOL    HW125493   2.130   0.271   2.523
 8198SOL    HW225494   2.220   0.181   2.420
 8199SOL     OW25495   5.618   2.697   5.652
 8199SOL    HW125496   5.578   2.625   5.709
 8199SOL    HW225497   5.650   2.771   5.711
 8200SOL     OW25498   4.766   3.482   1.257
 8200SOL    HW125499   4.795   3.410   1.194
 8200SOL    HW225500   4.783   3.453   1.351
 8201SOL     OW25501   0.200   7.003   5.219
 8201SOL    HW125502   0.238   0.001   5.310
 8201SOL    HW225503   0.254   0.032   5.151
 8202SOL     OW25504   0.351   6.542   2.673
 8202SOL    HW125505   0.275   6.607   2.675
 8202SOL    HW225506   0.338   6.479   2.596
 8203SOL     OW25507   1.892   2.860   1.000
 8203SOL    HW125508   1.833   2.909   0.936
 8203SOL    HW225509   1.981   2.842   0.956
 8204SOL     OW25510   4.475   3.595   1.335
 8204SOL    HW125511   4.541   3.528   1.301
 8204SOL    HW225512   4.418   3.625   1.259
 8205SOL     OW25513   1.227   3.489   0.641
 8205SOL    HW125514   1.182   3.556   0.700
 8205SOL    HW225515   1.298   3.442   0.693
 8206SOL     OW25516   4.120   1.441   0.068
 8206SOL    HW125517   4.029   1.427   0.106
 8206SOL    HW225518   4.118   1.430   6.988
 8207SOL     OW25519   3.956   3.081   4.256
 8207SOL    HW125520   3.962   3.045   4.349
 8207SOL    HW225521   3.862   3.072   4.222
 8208SOL     OW25522   1.064   1.184   0.573
 8208SOL    HW125523   1.083   1.244   0.650
 8208SOL    HW225524   1.147   1.174   0.518
 8209SOL     OW25525   6.921   1.085   5.175
 8209SOL    HW125526   6.860   1.020   5.221
 8209SOL    HW225527   6.894   1.095   5.080
 8210SOL     OW25528   1.917   2.672   0.412
 8210SOL    HW125529   1.920   2.641   0.507
 8210SOL    HW225530   2.001   2.644   0.365
 8211SOL     OW25531   2.930   3.940   1.188
 8211SOL    HW125532   2.977   3.862   1.229
 8211SOL    HW225533   2.910   3.920   1.092
 8212SOL     OW25534   1.818   2.124   2.952
 8212SOL    HW125535   1.867   2.076   3.024
 8212SOL    HW225536   1.864   2.108   2.864
 8213SOL     OW25537   0.274   5.108   1.448
 8213SOL    HW125538   0.366   5.093   1.486
 8213SOL    HW225539   0.245   5.025   1.400
 8214SOL     OW25540   5.867   4.300   3.420
 8214SOL    HW125541   5.946   4.273   3.474
 8214SOL    HW225542   5.848   4.397   3.435
 8215SOL     OW25543   3.789   4.996   4.649
 8215SOL    HW125544   3.708   5.031   4.695
 8215SOL    HW225545   3.837   4.932   4.710
 8216SOL     OW25546   5.374   4.677   4.081
 8216SOL    HW125547   5.306   4.683   4.154
 8216SOL    HW225548   5.370   4.760   4.025
 8217SOL     OW25549   1.709   6.080   0.760
 8217SOL    HW125550   1.697   6.030   0.846
 8217SOL    HW225551   1.684   6.176   0.773
 8218SOL     OW25552   0.440   1.661   0.383
 8218SOL    HW125553   0.459   1.701   0.294
 8218SOL    HW225554   0.477   1.568   0.387
 8219SOL     OW25555   5.398   2.213   6.831
 8219SOL    HW125556   5.477   2.271   6.849
 8219SOL    HW225557   5.370   2.223   6.736
 8220SOL     OW25558   3.586   3.741   2.568
 8220SOL    HW125559   3.620   3.654   2.533
 8220SOL    HW225560   3.652   3.779   2.633
 8221SOL     OW25561   4.946   5.854   4.009
 8221SOL    HW125562   4.930   5.951   4.027
 8221SOL    HW225563   5.030   5.825   4.056
 8222SOL     OW25564   5.895   1.878   2.036
 8222SOL    HW125565   5.869   1.782   2.033
 8222SOL    HW225566   5.828   1.932   1.984
 8223SOL     OW25567   0.870   4.497   6.042
 8223SOL    HW125568   0.943   4.515   6.108
 8223SOL    HW225569   0.877   4.403   6.008
 8224SOL     OW25570   0.739   3.021   2.770
 8224SOL    HW125571   0.787   2.941   2.732
 8224SOL    HW225572   0.652   3.033   2.721
 8225SOL     OW25573   4.685   1.098   6.183
 8225SOL    HW125574   4.620   1.157   6.231
 8225SOL    HW225575   4.768   1.149   6.163
 8226SOL     OW25576   5.294   0.941   1.214
 8226SOL    HW125577   5.365   1.009   1.197
 8226SOL    HW225578   5.214   0.986   1.254
 8227SOL     OW25579   6.681   3.367   3.730
 8227SOL    HW125580   6.592   3.393   3.692
 8227SOL    HW225581   6.752   3.424   3.689
 8228SOL     OW25582   0.576   2.047   4.962
 8228SOL    HW125583   0.492   2.015   4.918
 8228SOL    HW225584   0.647   2.061   4.893
 8229SOL     OW25585   2.966   5.685   6.954
 8229SOL    HW125586   2.925   5.635   6.878
 8229SOL    HW225587   2.900   5.691   0.011
 8230SOL     OW25588   4.725   0.234   5.092
 8230SOL    HW125589   4.735   0.223   5.191
 8230SOL    HW225590   4.660   0.167   5.057
 8231SOL     OW25591   5.218   5.657   1.973
 8231SOL    HW125592   5.218   5.699   1.883
 8231SOL    HW225593   5.312   5.634   2.000
 8232SOL     OW25594   4.053   1.493   0.607
 8232SOL    HW125595   3.965   1.446   0.609
 8232SOL    HW225596   4.077   1.515   0.513
 8233SOL     OW25597   0.402   5.533   5.855
 8233SOL    HW125598   0.364   5.544   5.947
 8233SOL    HW225599   0.408   5.623   5.811
 8234SOL     OW25600   2.714   2.568   0.081
 8234SOL    HW125601   2.714   2.470   0.101
 8234SOL    HW225602   2.736   2.582   7.004
 8235SOL     OW25603   3.586   3.188   0.996
 8235SOL    HW125604   3.567   3.171   1.092
 8235SOL    HW225605   3.526   3.261   0.963
 8236SOL     OW25606   6.936   3.330   0.048
 8236SOL    HW125607   6.894   3.244   0.018
 8236SOL    HW225608   6.955   3.325   0.146
 8237SOL     OW25609   4.403   5.741   5.577
 8237SOL    HW125610   4.452   5.739   5.490
 8237SOL    HW225611   4.338   5.817   5.577
 8238SOL     OW25612   1.802   3.655   0.098
 8238SOL    HW125613   1.756   3.677   0.184
 8238SOL    HW225614   1.800   3.734   0.037
 8239SOL     OW25615   6.179   2.257   5.308
 8239SOL    HW125616   6.265   2.209   5.321
 8239SOL    HW225617   6.106   2.209   5.355
 8240SOL     OW25618   3.147   3.872   2.597
 8240SOL    HW125619   3.212   3.884   2.672
 8240SOL    HW225620   3.092   3.790   2.615
 8241SOL     OW25621   3.577   0.267   0.915
 8241SOL    HW125622   3.479   0.250   0.921
 8241SOL    HW225623   3.618   0.260   1.006
 8242SOL     OW25624   0.907   4.540   5.777
 8242SOL    HW125625   0.990   4.508   5.821
 8242SOL    HW225626   0.847   4.582   5.845
 8243SOL     OW25627   0.266   3.181   5.945
 8243SOL    HW125628   0.238   3.155   5.852
 8243SOL    HW225629   0.185   3.203   5.999
 8244SOL     OW25630   0.609   0.036   4.026
 8244SOL    HW125631   0.685   0.096   4.000
 8244SOL    HW225632   0.543   0.032   3.951
 8245SOL     OW25633   4.739   1.706   1.393
 8245SOL    HW125634   4.792   1.717   1.477
 8245SOL    HW225635   4.750   1.787   1.336
 8246SOL     OW25636   6.321   4.202   5.999
 8246SOL    HW125637   6.395   4.155   6.047
 8246SOL    HW225638   6.265   4.136   5.949
 8247SOL     OW25639   0.939   0.598   1.492
 8247SOL    HW125640   0.938   0.683   1.438
 8247SOL    HW225641   0.935   0.620   1.589
 8248SOL     OW25642   5.990   4.942   3.745
 8248SOL    HW125643   6.000   4.875   3.818
 8248SOL    HW225644   6.044   5.023   3.766
 8249SOL     OW25645   2.201   4.630   4.161
 8249SOL    HW125646   2.152   4.545   4.178
 8249SOL    HW225647   2.137   4.698   4.123
 8250SOL     OW25648   3.579   3.655   2.933
 8250SOL    HW125649   3.534   3.707   3.005
 8250SOL    HW225650   3.639   3.715   2.880
 8251SOL     OW25651   4.825   2.063   5.099
 8251SOL    HW125652   4.894   2.004   5.058
 8251SOL    HW225653   4.859   2.157   5.101
 8252SOL     OW25654   2.937   3.489   5.952
 8252SOL    HW125655   2.888   3.440   6.025
 8252SOL    HW225656   3.011   3.432   5.918
 8253SOL     OW25657   3.491   3.003   5.192
 8253SOL    HW125658   3.417   2.953   5.147
 8253SOL    HW225659   3.470   3.101   5.191
 8254SOL     OW25660   4.087   4.795   4.507
 8254SOL    HW125661   4.181   4.775   4.535
 8254SOL    HW225662   4.066   4.742   4.424
 8255SOL     OW25663   4.086   6.164   4.201
 8255SOL    HW125664   3.999   6.199   4.234
 8255SOL    HW225665   4.113   6.085   4.256
 8256SOL     OW25666   5.550   0.982   3.660
 8256SOL    HW125667   5.623   0.974   3.593
 8256SOL    HW225668   5.589   0.985   3.752
 8257SOL     OW25669   6.076   5.075   3.018
 8257SOL    HW125670   5.986   5.108   3.046
 8257SOL    HW225671   6.147   5.132   3.060
 8258SOL     OW25672   4.682   0.975   0.467
 8258SOL    HW125673   4.668   0.986   0.369
 8258SOL    HW225674   4.660   0.881   0.494
 8259SOL     OW25675   3.958   1.345   3.526
 8259SOL    HW125676   3.887   1.297   3.579
 8259SOL    HW225677   4.046   1.302   3.542
 8260SOL     OW25678   2.542   6.781   2.142
 8260SOL    HW125679   2.464   6.729   2.107
 8260SOL    HW225680   2.603   6.804   2.067
 8261SOL     OW25681   5.792   1.208   0.706
 8261SOL    HW125682   5.706   1.254   0.726
 8261SOL    HW225683   5.868   1.271   0.722
 8262SOL     OW25684   0.908   2.528   1.568
 8262SOL    HW125685   0.973   2.536   1.644
 8262SOL    HW225686   0.914   2.437   1.529
 8263SOL     OW25687   0.288   1.146   1.328
 8263SOL    HW125688   0.339   1.061   1.318
 8263SOL    HW225689   0.334   1.205   1.395
 8264SOL     OW25690   1.127   6.168   2.164
 8264SOL    HW125691   1.200   6.107   2.196
 8264SOL    HW225692   1.038   6.128   2.187
 8265SOL     OW25693   1.864   0.243   1.748
 8265SOL    HW125694   1.846   0.223   1.652
 8265SOL    HW225695   1.825   0.170   1.805
 8266SOL     OW25696   1.972   6.728   2.760
 8266SOL    HW125697   2.014   6.705   2.847
 8266SOL    HW225698   1.929   6.646   2.721
 8267SOL     OW25699   1.850   3.403   0.862
 8267SOL    HW125700   1.865   3.358   0.774
 8267SOL    HW225701   1.896   3.491   0.864
 8268SOL     OW25702   2.147   6.497   6.001
 8268SOL    HW125703   2.118   6.582   6.044
 8268SOL    HW225704   2.098   6.486   5.914
 8269SOL     OW25705   5.853   1.765   0.989
 8269SOL    HW125706   5.871   1.842   0.928
 8269SOL    HW225707   5.929   1.754   1.052
 8270SOL     OW25708   3.170   6.592   3.958
 8270SOL    HW125709   3.110   6.529   3.909
 8270SOL    HW225710   3.121   6.676   3.978
 8271SOL     OW25711   6.863   1.447   3.071
 8271SOL    HW125712   6.841   1.349   3.076
 8271SOL    HW225713   6.832   1.492   3.155
 8272SOL     OW25714   4.717   0.709   2.145
 8272SOL    HW125715   4.656   0.761   2.205
 8272SOL    HW225716   4.672   0.694   2.057
 8273SOL     OW25717   2.177   6.527   0.965
 8273SOL    HW125718   2.266   6.572   0.971
 8273SOL    HW225719   2.139   6.515   1.056
 8274SOL     OW25720   4.403   5.170   2.928
 8274SOL    HW125721   4.366   5.258   2.958
 8274SOL    HW225722   4.338   5.127   2.864
 8275SOL     OW25723   4.578   2.172   5.958
 8275SOL    HW125724   4.555   2.254   6.011
 8275SOL    HW225725   4.677   2.162   5.953
 8276SOL     OW25726   0.578   2.230   3.911
 8276SOL    HW125727   0.531   2.255   3.826
 8276SOL    HW225728   0.603   2.313   3.960
 8277SOL     OW25729   6.958   0.945   6.472
 8277SOL    HW125730   0.019   0.905   6.517
 8277SOL    HW225731   6.886   0.875   6.465
 8278SOL     OW25732   2.074   2.152   6.796
 8278SOL    HW125733   2.152   2.191   6.746
 8278SOL    HW225734   2.107   2.107   6.879
 8279SOL     OW25735   0.650   6.213   4.837
 8279SOL    HW125736   0.680   6.124   4.803
 8279SOL    HW225737   0.670   6.283   4.769
 8280SOL     OW25738   2.926   2.652   6.731
 8280SOL    HW125739   2.846   2.682   6.784
 8280SOL    HW225740   2.966   2.730   6.684
 8281SOL     OW25741   1.016   5.594   1.450
 8281SOL    HW125742   1.080   5.669   1.434
 8281SOL    HW225743   0.997   5.547   1.364
 8282SOL     OW25744   5.821   2.792   6.269
 8282SOL    HW125745   5.727   2.763   6.252
 8282SOL    HW225746   5.881   2.711   6.273
 8283SOL     OW25747   1.401   4.627   6.029
 8283SOL    HW125748   1.416   4.697   6.099
 8283SOL    HW225749   1.456   4.547   6.050
 8284SOL     OW25750   0.504   4.481   1.863
 8284SOL    HW125751   0.419   4.526   1.834
 8284SOL    HW225752   0.506   4.475   1.962
 8285SOL     OW25753   4.007   3.153   5.044
 8285SOL    HW125754   4.024   3.091   5.121
 8285SOL    HW225755   4.058   3.121   4.964
 8286SOL     OW25756   5.923   2.539   5.618
 8286SOL    HW125757   6.004   2.484   5.597
 8286SOL    HW225758   5.851   2.479   5.654
 8287SOL     OW25759   1.210   5.594   4.688
 8287SOL    HW125760   1.231   5.498   4.705
 8287SOL    HW225761   1.260   5.625   4.607
 8288SOL     OW25762   2.654   2.436   3.041
 8288SOL    HW125763   2.746   2.408   3.012
 8288SOL    HW225764   2.588   2.411   2.970
 8289SOL     OW25765   0.491   0.036   0.433
 8289SOL    HW125766   0.509   6.973   0.379
 8289SOL    HW225767   0.413   0.021   0.493
 8290SOL     OW25768   6.812   1.621   0.552
 8290SOL    HW125769   6.886   1.554   0.552
 8290SOL    HW225770   6.740   1.592   0.615
 8291SOL     OW25771   4.793   0.002   6.766
 8291SOL    HW125772   4.767   0.071   6.699
 8291SOL    HW225773   4.711   6.980   6.806
 8292SOL     OW25774   2.734   6.360   0.293
 8292SOL    HW125775   2.651   6.307   0.274
 8292SOL    HW225776   2.744   6.430   0.222
 8293SOL     OW25777   4.084   0.067   6.337
 8293SOL    HW125778   4.044   0.148   6.293
 8293SOL    HW225779   4.183   0.082   6.348
 8294SOL     OW25780   6.091   3.540   6.038
 8294SOL    HW125781   6.100   3.574   5.944
 8294SOL    HW225782   6.005   3.573   6.077
 8295SOL     OW25783   5.502   5.192   1.859
 8295SOL    HW125784   5.508   5.235   1.950
 8295SOL    HW225785   5.413   5.213   1.818
 8296SOL     OW25786   1.561   6.566   6.213
 8296SOL    HW125787   1.541   6.601   6.304
 8296SOL    HW225788   1.569   6.466   6.217
 8297SOL     OW25789   6.390   2.765   3.313
 8297SOL    HW125790   6.343   2.703   3.376
 8297SOL    HW225791   6.391   2.727   3.221
 8298SOL     OW25792   5.182   1.284   1.816
 8298SOL    HW125793   5.281   1.297   1.828
 8298SOL    HW225794   5.166   1.195   1.773
 8299SOL     OW25795   0.525   2.844   1.758
 8299SOL    HW125796   0.524   2.758   1.707
 8299SOL    HW225797   0.538   2.824   1.856
 8300SOL     OW25798   0.317   4.664   5.390
 8300SOL    HW125799   0.375   4.634   5.314
 8300SOL    HW225800   0.233   4.610   5.391
 8301SOL     OW25801   4.527   1.996   1.296
 8301SOL    HW125802   4.522   2.030   1.389
 8301SOL    HW225803   4.465   1.918   1.285
 8302SOL     OW25804   5.987   6.234   6.615
 8302SOL    HW125805   6.024   6.327   6.620
 8302SOL    HW225806   5.887   6.238   6.608
 8303SOL     OW25807   7.001   0.296   4.648
 8303SOL    HW125808   0.013   0.383   4.610
 8303SOL    HW225809   0.025   0.220   4.599
 8304SOL     OW25810   1.026   3.352   6.190
 8304SOL    HW125811   1.035   3.401   6.104
 8304SOL    HW225812   1.022   3.418   6.265
 8305SOL     OW25813   3.637   5.223   4.012
 8305SOL    HW125814   3.703   5.275   4.066
 8305SOL    HW225815   3.685   5.159   3.953
 8306SOL     OW25816   0.339   2.675   4.819
 8306SOL    HW125817   0.286   2.703   4.899
 8306SOL    HW225818   0.417   2.620   4.848
 8307SOL     OW25819   3.787   5.256   1.371
 8307SOL    HW125820   3.819   5.169   1.332
 8307SOL    HW225821   3.866   5.314   1.392
 8308SOL     OW25822   4.642   6.409   1.613
 8308SOL    HW125823   4.705   6.486   1.617
 8308SOL    HW225824   4.550   6.442   1.593
 8309SOL     OW25825   5.547   5.641   2.896
 8309SOL    HW125826   5.548   5.731   2.941
 8309SOL    HW225827   5.530   5.653   2.798
 8310SOL     OW25828   0.864   4.393   0.402
 8310SOL    HW125829   0.820   4.372   0.490
 8310SOL    HW225830   0.816   4.469   0.358
 8311SOL     OW25831   0.185   0.873   6.198
 8311SOL    HW125832   0.198   0.834   6.106
 8311SOL    HW225833   0.229   0.962   6.203
 8312SOL     OW25834   5.029   6.318   1.655
 8312SOL    HW125835   4.962   6.248   1.680
 8312SOL    HW225836   5.057   6.304   1.560
 8313SOL     OW25837   3.885   1.752   2.968
 8313SOL    HW125838   3.958   1.763   3.034
 8313SOL    HW225839   3.917   1.779   2.877
 8314SOL     OW25840   4.917   6.550   0.713
 8314SOL    HW125841   4.840   6.504   0.669
 8314SOL    HW225842   4.898   6.648   0.719
 8315SOL     OW25843   4.308   3.369   1.019
 8315SOL    HW125844   4.279   3.423   0.940
 8315SOL    HW225845   4.229   3.323   1.059
 8316SOL     OW25846   0.561   3.668   1.564
 8316SOL    HW125847   0.604   3.613   1.635
 8316SOL    HW225848   0.472   3.701   1.597
 8317SOL     OW25849   2.043   3.461   2.410
 8317SOL    HW125850   2.026   3.368   2.444
 8317SOL    HW225851   2.046   3.459   2.310
 8318SOL     OW25852   4.389   2.027   4.933
 8318SOL    HW125853   4.316   1.958   4.932
 8318SOL    HW225854   4.435   2.025   5.022
 8319SOL     OW25855   3.373   1.581   5.817
 8319SOL    HW125856   3.336   1.643   5.748
 8319SOL    HW225857   3.473   1.582   5.813
 8320SOL     OW25858   3.473   4.691   1.172
 8320SOL    HW125859   3.552   4.638   1.204
 8320SOL    HW225860   3.495   4.788   1.173
 8321SOL     OW25861   0.724   1.231   6.592
 8321SOL    HW125862   0.733   1.280   6.679
 8321SOL    HW225863   0.703   1.296   6.519
 8322SOL     OW25864   0.043   6.894   6.997
 8322SOL    HW125865   0.074   6.825   0.043
 8322SOL    HW225866   0.067   6.985   0.010
 8323SOL     OW25867   0.237   0.056   2.547
 8323SOL    HW125868   0.152   0.003   2.542
 8323SOL    HW225869   0.233   0.131   2.481
 8324SOL     OW25870   6.629   0.558   2.162
 8324SOL    HW125871   6.669   0.646   2.134
 8324SOL    HW225872   6.566   0.573   2.238
 8325SOL     OW25873   4.183   3.403   4.332
 8325SOL    HW125874   4.165   3.500   4.316
 8325SOL    HW225875   4.183   3.354   4.245
 8326SOL     OW25876   4.393   3.761   5.544
 8326SOL    HW125877   4.438   3.772   5.456
 8326SOL    HW225878   4.343   3.844   5.567
 8327SOL     OW25879   4.777   2.229   5.567
 8327SOL    HW125880   4.841   2.222   5.643
 8327SOL    HW225881   4.733   2.319   5.567
 8328SOL     OW25882   2.580   3.739   6.121
 8328SOL    HW125883   2.540   3.830   6.131
 8328SOL    HW225884   2.673   3.747   6.085
 8329SOL     OW25885   0.046   3.107   5.447
 8329SOL    HW125886   0.079   3.133   5.538
 8329SOL    HW225887   0.102   3.033   5.411
 8330SOL     OW25888   1.895   6.577   0.860
 8330SOL    HW125889   1.990   6.583   0.891
 8330SOL    HW225890   1.855   6.668   0.857
 8331SOL     OW25891   3.112   6.826   0.792
 8331SOL    HW125892   3.159   6.893   0.734
 8331SOL    HW225893   3.052   6.770   0.735
 8332SOL     OW25894   4.730   5.229   2.354
 8332SOL    HW125895   4.797   5.156   2.338
 8332SOL    HW225896   4.679   5.247   2.270
 8333SOL     OW25897   0.016   5.674   0.309
 8333SOL    HW125898   0.072   5.592   0.313
 8333SOL    HW225899   0.074   5.755   0.321
 8334SOL     OW25900   5.727   1.436   4.047
 8334SOL    HW125901   5.769   1.399   3.964
 8334SOL    HW225902   5.690   1.527   4.028
 8335SOL     OW25903   6.261   5.316   5.863
 8335SOL    HW125904   6.196   5.363   5.923
 8335SOL    HW225905   6.352   5.316   5.905
 8336SOL     OW25906   6.649   0.860   2.877
 8336SOL    HW125907   6.721   0.816   2.822
 8336SOL    HW225908   6.589   0.790   2.915
 8337SOL     OW25909   0.508   6.681   3.920
 8337SOL    HW125910   0.599   6.684   3.879
 8337SOL    HW225911   0.447   6.627   3.862
 8338SOL     OW25912   2.089   5.007   1.839
 8338SOL    HW125913   2.114   4.943   1.911
 8338SOL    HW225914   2.089   5.100   1.875
 8339SOL     OW25915   6.985   0.927   2.590
 8339SOL    HW125916   6.936   0.865   2.530
 8339SOL    HW225917   7.006   1.012   2.542
 8340SOL     OW25918   4.856   3.708   0.921
 8340SOL    HW125919   4.785   3.713   0.851
 8340SOL    HW225920   4.928   3.775   0.901
 8341SOL     OW25921   1.913   6.744   0.571
 8341SOL    HW125922   1.948   6.658   0.534
 8341SOL    HW225923   1.977   6.780   0.639
 8342SOL     OW25924   3.965   6.859   1.073
 8342SOL    HW125925   4.037   6.899   1.130
 8342SOL    HW225926   3.982   6.761   1.061
 8343SOL     OW25927   1.897   5.330   6.108
 8343SOL    HW125928   1.851   5.282   6.032
 8343SOL    HW225929   1.906   5.268   6.186
 8344SOL     OW25930   4.671   6.489   5.830
 8344SOL    HW125931   4.698   6.539   5.912
 8344SOL    HW225932   4.572   6.478   5.828
 8345SOL     OW25933   5.569   1.786   3.669
 8345SOL    HW125934   5.489   1.757   3.616
 8345SOL    HW225935   5.540   1.824   3.756
 8346SOL     OW25936   2.446   4.791   0.260
 8346SOL    HW125937   2.463   4.740   0.345
 8346SOL    HW225938   2.456   4.730   0.182
 8347SOL     OW25939   2.747   6.935   5.171
 8347SOL    HW125940   2.725   6.938   5.269
 8347SOL    HW225941   2.680   6.989   5.120
 8348SOL     OW25942   1.437   0.199   1.531
 8348SOL    HW125943   1.353   0.250   1.550
 8348SOL    HW225944   1.487   0.184   1.616
 8349SOL     OW25945   5.729   3.641   0.965
 8349SOL    HW125946   5.650   3.612   1.019
 8349SOL    HW225947   5.805   3.662   1.026
 8350SOL     OW25948   5.832   0.871   5.116
 8350SOL    HW125949   5.762   0.924   5.164
 8350SOL    HW225950   5.798   0.842   5.027
 8351SOL     OW25951   3.477   5.469   4.450
 8351SOL    HW125952   3.429   5.441   4.533
 8351SOL    HW225953   3.447   5.413   4.374
 8352SOL     OW25954   6.452   6.881   2.027
 8352SOL    HW125955   6.423   6.798   1.980
 8352SOL    HW225956   6.513   6.933   1.968
 8353SOL     OW25957   5.907   3.850   2.325
 8353SOL    HW125958   5.833   3.830   2.261
 8353SOL    HW225959   5.971   3.915   2.282
 8354SOL     OW25960   3.031   1.443   6.657
 8354SOL    HW125961   3.109   1.475   6.603
 8354SOL    HW225962   2.949   1.493   6.630
 8355SOL     OW25963   2.777   0.794   0.102
 8355SOL    HW125964   2.796   0.887   0.071
 8355SOL    HW225965   2.678   0.782   0.114
 8356SOL     OW25966   0.603   6.722   0.492
 8356SOL    HW125967   0.635   6.796   0.432
 8356SOL    HW225968   0.670   6.649   0.495
 8357SOL     OW25969   3.907   5.379   5.351
 8357SOL    HW125970   3.980   5.335   5.403
 8357SOL    HW225971   3.947   5.439   5.282
 8358SOL     OW25972   2.180   2.572   5.778
 8358SOL    HW125973   2.231   2.558   5.863
 8358SOL    HW225974   2.242   2.565   5.700
 8359SOL     OW25975   4.048   5.860   4.675
 8359SOL    HW125976   4.129   5.875   4.732
 8359SOL    HW225977   3.968   5.898   4.721
 8360SOL     OW25978   3.961   0.492   2.852
 8360SOL    HW125979   4.056   0.460   2.854
 8360SOL    HW225980   3.945   0.542   2.767
 8361SOL     OW25981   1.608   1.107   2.330
 8361SOL    HW125982   1.695   1.071   2.365
 8361SOL    HW225983   1.554   1.142   2.407
 8362SOL     OW25984   3.118   2.011   0.565
 8362SOL    HW125985   3.202   1.989   0.616
 8362SOL    HW225986   3.039   2.005   0.627
 8363SOL     OW25987   1.166   2.740   0.801
 8363SOL    HW125988   1.075   2.710   0.774
 8363SOL    HW225989   1.177   2.730   0.899
 8364SOL     OW25990   0.085   3.337   2.913
 8364SOL    HW125991   0.076   3.243   2.946
 8364SOL    HW225992   0.086   3.337   2.813
 8365SOL     OW25993   2.213   3.839   0.801
 8365SOL    HW125994   2.300   3.825   0.848
 8365SOL    HW225995   2.185   3.754   0.757
 8366SOL     OW25996   4.755   6.066   2.126
 8366SOL    HW125997   4.771   6.161   2.097
 8366SOL    HW225998   4.805   6.048   2.211
 8367SOL     OW25999   4.909   6.246   3.727
 8367SOL    HW126000   4.851   6.275   3.804
 8367SOL    HW226001   4.877   6.159   3.692
 8368SOL     OW26002   2.455   5.942   6.309
 8368SOL    HW126003   2.545   5.982   6.328
 8368SOL    HW226004   2.446   5.925   6.211
 8369SOL     OW26005   1.654   1.041   0.150
 8369SOL    HW126006   1.735   1.094   0.127
 8369SOL    HW226007   1.577   1.071   0.095
 8370SOL     OW26008   2.859   2.060   5.603
 8370SOL    HW126009   2.943   2.108   5.579
 8370SOL    HW226010   2.841   2.071   5.700
 8371SOL     OW26011   1.531   3.469   0.257
 8371SOL    HW126012   1.513   3.531   0.180
 8371SOL    HW226013   1.554   3.379   0.221
 8372SOL     OW26014   0.650   6.953   2.821
 8372SOL    HW126015   0.552   6.942   2.831
 8372SOL    HW226016   0.686   6.882   2.760
 8373SOL     OW26017   0.607   6.418   5.499
 8373SOL    HW126018   0.626   6.437   5.596
 8373SOL    HW226019   0.569   6.500   5.456
 8374SOL     OW26020   0.314   0.850   6.861
 8374SOL    HW126021   0.344   0.871   6.768
 8374SOL    HW226022   0.387   0.872   6.925
 8375SOL     OW26023   3.281   6.064   6.041
 8375SOL    HW126024   3.286   6.164   6.041
 8375SOL    HW226025   3.372   6.026   6.026
 8376SOL     OW26026   2.520   0.444   4.543
 8376SOL    HW126027   2.556   0.515   4.482
 8376SOL    HW226028   2.508   0.359   4.492
 8377SOL     OW26029   5.865   5.769   1.283
 8377SOL    HW126030   5.806   5.843   1.315
 8377SOL    HW226031   5.960   5.791   1.305
 8378SOL     OW26032   4.959   4.101   3.449
 8378SOL    HW126033   4.905   4.047   3.514
 8378SOL    HW226034   5.014   4.168   3.500
 8379SOL     OW26035   6.612   3.553   1.912
 8379SOL    HW126036   6.612   3.653   1.908
 8379SOL    HW226037   6.596   3.516   1.821
 8380SOL     OW26038   6.213   1.133   2.282
 8380SOL    HW126039   6.255   1.070   2.348
 8380SOL    HW226040   6.119   1.151   2.309
 8381SOL     OW26041   0.712   5.029   4.650
 8381SOL    HW126042   0.781   5.099   4.667
 8381SOL    HW226043   0.753   4.938   4.660
 8382SOL     OW26044   1.182   1.671   2.341
 8382SOL    HW126045   1.266   1.725   2.344
 8382SOL    HW226046   1.146   1.672   2.248
 8383SOL     OW26047   2.568   1.932   6.733
 8383SOL    HW126048   2.519   2.017   6.755
 8383SOL    HW226049   2.601   1.937   6.639
 8384SOL     OW26050   6.892   6.503   0.922
 8384SOL    HW126051   6.905   6.494   1.021
 8384SOL    HW226052   6.944   6.582   0.889
 8385SOL     OW26053   5.538   2.381   1.980
 8385SOL    HW126054   5.500   2.463   2.021
 8385SOL    HW226055   5.517   2.378   1.883
 8386SOL     OW26056   0.956   4.190   2.511
 8386SOL    HW126057   0.876   4.129   2.514
 8386SOL    HW226058   1.003   4.179   2.423
 8387SOL     OW26059   1.450   1.148   1.020
 8387SOL    HW126060   1.517   1.102   0.962
 8387SOL    HW226061   1.476   1.138   1.115
 8388SOL     OW26062   2.865   5.868   1.674
 8388SOL    HW126063   2.886   5.966   1.684
 8388SOL    HW226064   2.782   5.846   1.726
 8389SOL     OW26065   5.463   3.674   2.013
 8389SOL    HW126066   5.462   3.608   1.937
 8389SOL    HW226067   5.378   3.726   2.013
 8390SOL     OW26068   3.773   2.258   6.552
 8390SOL    HW126069   3.733   2.300   6.471
 8390SOL    HW226070   3.733   2.167   6.565
 8391SOL     OW26071   5.972   6.975   0.602
 8391SOL    HW126072   5.965   6.903   0.533
 8391SOL    HW226073   5.886   0.008   0.605
 8392SOL     OW26074   6.572   3.788   4.479
 8392SOL    HW126075   6.615   3.821   4.563
 8392SOL    HW226076   6.477   3.762   4.499
 8393SOL     OW26077   5.055   0.394   2.242
 8393SOL    HW126078   5.124   0.430   2.179
 8393SOL    HW226079   5.099   0.338   2.312
 8394SOL     OW26080   6.005   3.630   2.520
 8394SOL    HW126081   6.003   3.633   2.620
 8394SOL    HW226082   5.982   3.721   2.483
 8395SOL     OW26083   2.215   0.327   5.367
 8395SOL    HW126084   2.145   0.372   5.423
 8395SOL    HW226085   2.295   0.308   5.423
 8396SOL     OW26086   3.859   5.210   4.208
 8396SOL    HW126087   3.930   5.280   4.210
 8396SOL    HW226088   3.808   5.211   4.293
 8397SOL     OW26089   6.503   1.452   4.208
 8397SOL    HW126090   6.523   1.427   4.303
 8397SOL    HW226091   6.403   1.458   4.196
 8398SOL     OW26092   4.853   1.640   6.154
 8398SOL    HW126093   4.806   1.728   6.160
 8398SOL    HW226094   4.790   1.571   6.118
 8399SOL     OW26095   6.885   5.986   6.667
 8399SOL    HW126096   6.849   5.901   6.629
 8399SOL    HW226097   6.984   5.988   6.654
 8400SOL     OW26098   1.572   2.150   4.180
 8400SOL    HW126099   1.590   2.171   4.084
 8400SOL    HW226100   1.571   2.051   4.193
 8401SOL     OW26101   2.319   0.266   5.103
 8401SOL    HW126102   2.286   0.277   5.196
 8401SOL    HW226103   2.304   0.351   5.052
 8402SOL     OW26104   4.637   1.041   5.923
 8402SOL    HW126105   4.661   1.081   6.012
 8402SOL    HW226106   4.611   0.946   5.936
 8403SOL     OW26107   6.544   4.681   3.927
 8403SOL    HW126108   6.617   4.629   3.970
 8403SOL    HW226109   6.471   4.697   3.993
 8404SOL     OW26110   2.470   2.071   6.177
 8404SOL    HW126111   2.498   2.143   6.113
 8404SOL    HW226112   2.371   2.073   6.188
 8405SOL     OW26113   3.676   1.620   5.766
 8405SOL    HW126114   3.716   1.551   5.706
 8405SOL    HW226115   3.688   1.710   5.726
 8406SOL     OW26116   4.945   0.831   6.706
 8406SOL    HW126117   5.007   0.774   6.652
 8406SOL    HW226118   4.998   0.882   6.774
 8407SOL     OW26119   4.101   6.283   3.457
 8407SOL    HW126120   4.053   6.319   3.377
 8407SOL    HW226121   4.035   6.251   3.525
 8408SOL     OW26122   5.288   6.584   0.880
 8408SOL    HW126123   5.296   6.682   0.864
 8408SOL    HW226124   5.246   6.541   0.800
 8409SOL     OW26125   4.339   2.371   1.896
 8409SOL    HW126126   4.388   2.285   1.883
 8409SOL    HW226127   4.283   2.390   1.815
 8410SOL     OW26128   6.886   1.953   1.687
 8410SOL    HW126129   6.872   2.030   1.749
 8410SOL    HW226130   6.969   1.969   1.633
 8411SOL     OW26131   0.393   6.038   1.366
 8411SOL    HW126132   0.363   6.125   1.327
 8411SOL    HW226133   0.322   6.002   1.427
 8412SOL     OW26134   3.283   3.018   0.926
 8412SOL    HW126135   3.296   2.919   0.922
 8412SOL    HW226136   3.363   3.064   0.886
 8413SOL     OW26137   3.964   5.338   6.080
 8413SOL    HW126138   4.061   5.350   6.064
 8413SOL    HW226139   3.951   5.279   6.160
 8414SOL     OW26140   1.723   0.867   2.685
 8414SOL    HW126141   1.817   0.883   2.715
 8414SOL    HW226142   1.676   0.809   2.752
 8415SOL     OW26143   3.132   0.028   4.292
 8415SOL    HW126144   3.116   0.118   4.251
 8415SOL    HW226145   3.223   0.027   4.335
 8416SOL     OW26146   5.952   1.730   4.858
 8416SOL    HW126147   6.011   1.661   4.898
 8416SOL    HW226148   5.932   1.800   4.926
 8417SOL     OW26149   1.528   3.119   5.305
 8417SOL    HW126150   1.597   3.048   5.297
 8417SOL    HW226151   1.462   3.111   5.230
 8418SOL     OW26152   0.902   5.572   2.233
 8418SOL    HW126153   1.000   5.564   2.249
 8418SOL    HW226154   0.857   5.602   2.317
 8419SOL     OW26155   5.377   1.077   2.912
 8419SOL    HW126156   5.289   1.067   2.960
 8419SOL    HW226157   5.445   1.117   2.973
 8420SOL     OW26158   3.708   6.863   2.139
 8420SOL    HW126159   3.614   6.837   2.162
 8420SOL    HW226160   3.722   6.959   2.162
 8421SOL     OW26161   3.788   6.506   6.128
 8421SOL    HW126162   3.864   6.569   6.138
 8421SOL    HW226163   3.822   6.417   6.097
 8422SOL     OW26164   4.707   2.829   2.495
 8422SOL    HW126165   4.622   2.779   2.477
 8422SOL    HW226166   4.750   2.854   2.409
 8423SOL     OW26167   5.396   4.274   5.589
 8423SOL    HW126168   5.336   4.236   5.518
 8423SOL    HW226169   5.350   4.352   5.633
 8424SOL     OW26170   1.991   0.404   3.741
 8424SOL    HW126171   2.010   0.488   3.790
 8424SOL    HW226172   1.979   0.424   3.644
 8425SOL     OW26173   3.214   3.887   3.654
 8425SOL    HW126174   3.227   3.978   3.693
 8425SOL    HW226175   3.150   3.835   3.711
 8426SOL     OW26176   3.888   3.385   2.403
 8426SOL    HW126177   3.819   3.456   2.387
 8426SOL    HW226178   3.899   3.369   2.501
 8427SOL     OW26179   2.909   3.329   3.384
 8427SOL    HW126180   2.887   3.353   3.290
 8427SOL    HW226181   2.989   3.382   3.414
 8428SOL     OW26182   0.134   0.318   0.611
 8428SOL    HW126183   0.200   0.294   0.540
 8428SOL    HW226184   0.162   0.404   0.654
 8429SOL     OW26185   1.807   5.588   6.206
 8429SOL    HW126186   1.842   5.505   6.163
 8429SOL    HW226187   1.830   5.667   6.149
 8430SOL     OW26188   4.301   5.520   4.133
 8430SOL    HW126189   4.256   5.605   4.159
 8430SOL    HW226190   4.240   5.442   4.150
 8431SOL     OW26191   2.746   2.779   6.446
 8431SOL    HW126192   2.840   2.801   6.422
 8431SOL    HW226193   2.692   2.863   6.449
 8432SOL     OW26194   6.728   5.120   6.005
 8432SOL    HW126195   6.806   5.145   5.948
 8432SOL    HW226196   6.725   5.021   6.017
 8433SOL     OW26197   4.781   2.467   1.446
 8433SOL    HW126198   4.839   2.396   1.486
 8433SOL    HW226199   4.838   2.533   1.398
 8434SOL     OW26200   1.911   5.393   4.610
 8434SOL    HW126201   1.880   5.486   4.589
 8434SOL    HW226202   1.933   5.346   4.525
 8435SOL     OW26203   5.155   0.909   2.583
 8435SOL    HW126204   5.102   0.973   2.528
 8435SOL    HW226205   5.252   0.930   2.576
 8436SOL     OW26206   2.584   6.445   3.536
 8436SOL    HW126207   2.578   6.478   3.630
 8436SOL    HW226208   2.657   6.378   3.529
 8437SOL     OW26209   2.187   3.070   2.485
 8437SOL    HW126210   2.142   3.016   2.414
 8437SOL    HW226211   2.122   3.091   2.558
 8438SOL     OW26212   1.759   3.810   3.108
 8438SOL    HW126213   1.786   3.832   3.202
 8438SOL    HW226214   1.751   3.895   3.056
 8439SOL     OW26215   6.163   4.903   3.543
 8439SOL    HW126216   6.146   4.963   3.464
 8439SOL    HW226217   6.091   4.915   3.611
 8440SOL     OW26218   1.927   1.892   3.287
 8440SOL    HW126219   1.984   1.966   3.320
 8440SOL    HW226220   1.939   1.812   3.346
 8441SOL     OW26221   5.657   5.968   5.389
 8441SOL    HW126222   5.593   5.945   5.463
 8441SOL    HW226223   5.721   5.892   5.376
 8442SOL     OW26224   3.898   0.761   5.578
 8442SOL    HW126225   3.845   0.833   5.532
 8442SOL    HW226226   3.942   0.798   5.659
 8443SOL     OW26227   2.087   4.801   3.031
 8443SOL    HW126228   2.080   4.714   3.079
 8443SOL    HW226229   2.026   4.800   2.951
 8444SOL     OW26230   4.520   6.519   2.485
 8444SOL    HW126231   4.576   6.533   2.567
 8444SOL    HW226232   4.423   6.520   2.510
 8445SOL     OW26233   2.813   6.947   6.949
 8445SOL    HW126234   2.772   6.983   0.014
 8445SOL    HW226235   2.909   6.926   6.965
 8446SOL     OW26236   0.093   6.399   5.151
 8446SOL    HW126237   0.081   6.497   5.162
 8446SOL    HW226238   0.187   6.380   5.123
 8447SOL     OW26239   4.384   1.572   2.762
 8447SOL    HW126240   4.332   1.488   2.773
 8447SOL    HW226241   4.456   1.576   2.831
 8448SOL     OW26242   5.045   6.677   3.439
 8448SOL    HW126243   5.002   6.739   3.503
 8448SOL    HW226244   5.122   6.723   3.394
 8449SOL     OW26245   1.883   2.882   3.230
 8449SOL    HW126246   1.837   2.888   3.141
 8449SOL    HW226247   1.822   2.839   3.296
 8450SOL     OW26248   6.848   0.738   6.844
 8450SOL    HW126249   6.782   0.809   6.817
 8450SOL    HW226250   6.871   0.750   6.941
 8451SOL     OW26251   3.819   1.435   1.265
 8451SOL    HW126252   3.846   1.508   1.328
 8451SOL    HW226253   3.900   1.389   1.230
 8452SOL     OW26254   5.223   1.644   4.748
 8452SOL    HW126255   5.259   1.717   4.690
 8452SOL    HW226256   5.266   1.557   4.721
 8453SOL     OW26257   0.935   5.757   6.742
 8453SOL    HW126258   0.897   5.674   6.702
 8453SOL    HW226259   1.035   5.754   6.735
 8454SOL     OW26260   0.978   4.137   6.962
 8454SOL    HW126261   0.916   4.167   0.014
 8454SOL    HW226262   1.065   4.185   6.971
 8455SOL     OW26263   0.819   0.470   2.476
 8455SOL    HW126264   0.869   0.467   2.563
 8455SOL    HW226265   0.724   0.497   2.493
 8456SOL     OW26266   5.107   0.606   3.163
 8456SOL    HW126267   5.119   0.508   3.151
 8456SOL    HW226268   5.186   0.655   3.126
 8457SOL     OW26269   6.123   6.812   4.560
 8457SOL    HW126270   6.172   6.861   4.632
 8457SOL    HW226271   6.036   6.779   4.595
 8458SOL     OW26272   0.295   6.936   0.204
 8458SOL    HW126273   0.240   7.017   0.183
 8458SOL    HW226274   0.237   6.865   0.242
 8459SOL     OW26275   1.214   5.527   3.195
 8459SOL    HW126276   1.144   5.470   3.237
 8459SOL    HW226277   1.186   5.623   3.198
 8460SOL     OW26278   4.138   4.054   5.263
 8460SOL    HW126279   4.199   3.976   5.250
 8460SOL    HW226280   4.170   4.109   5.339
 8461SOL     OW26281   0.094   3.084   4.858
 8461SOL    HW126282   0.117   3.170   4.903
 8461SOL    HW226283   0.028   3.102   4.785
 8462SOL     OW26284   2.588   1.892   1.582
 8462SOL    HW126285   2.594   1.904   1.681
 8462SOL    HW226286   2.624   1.973   1.536
 8463SOL     OW26287   6.234   0.548   2.206
 8463SOL    HW126288   6.300   0.553   2.280
 8463SOL    HW226289   6.170   0.473   2.223
 8464SOL     OW26290   6.058   3.272   5.002
 8464SOL    HW126291   6.110   3.233   5.078
 8464SOL    HW226292   6.096   3.361   4.977
 8465SOL     OW26293   1.427   1.763   0.771
 8465SOL    HW126294   1.459   1.774   0.677
 8465SOL    HW226295   1.505   1.763   0.833
 8466SOL     OW26296   0.938   5.978   3.369
 8466SOL    HW126297   0.949   6.054   3.432
 8466SOL    HW226298   0.867   5.916   3.403
 8467SOL     OW26299   2.609   5.423   0.874
 8467SOL    HW126300   2.630   5.422   0.777
 8467SOL    HW226301   2.645   5.507   0.915
 8468SOL     OW26302   3.918   2.100   0.192
 8468SOL    HW126303   3.832   2.099   0.242
 8468SOL    HW226304   3.967   2.014   0.206
 8469SOL     OW26305   3.326   2.739   6.549
 8469SOL    HW126306   3.346   2.831   6.514
 8469SOL    HW226307   3.287   2.683   6.476
 8470SOL     OW26308   2.404   2.804   0.815
 8470SOL    HW126309   2.404   2.795   0.914
 8470SOL    HW226310   2.482   2.859   0.786
 8471SOL     OW26311   3.219   0.474   4.164
 8471SOL    HW126312   3.137   0.427   4.131
 8471SOL    HW226313   3.201   0.571   4.172
 8472SOL     OW26314   0.640   6.944   4.550
 8472SOL    HW126315   0.682   6.918   4.463
 8472SOL    HW226316   0.551   6.988   4.532
 8473SOL     OW26317   6.421   5.349   6.995
 8473SOL    HW126318   6.443   5.303   0.062
 8473SOL    HW226319   6.350   5.417   7.011
 8474SOL     OW26320   3.549   3.096   1.768
 8474SOL    HW126321   3.501   3.135   1.846
 8474SOL    HW226322   3.499   3.017   1.734
 8475SOL     OW26323   6.097   1.778   2.891
 8475SOL    HW126324   6.156   1.858   2.903
 8475SOL    HW226325   6.028   1.798   2.821
 8476SOL     OW26326   5.272   0.457   2.051
 8476SOL    HW126327   5.262   0.442   1.953
 8476SOL    HW226328   5.299   0.551   2.069
 8477SOL     OW26329   2.836   6.686   1.276
 8477SOL    HW126330   2.899   6.620   1.235
 8477SOL    HW226331   2.753   6.639   1.305
 8478SOL     OW26332   1.820   0.541   5.701
 8478SOL    HW126333   1.723   0.553   5.724
 8478SOL    HW226334   1.833   0.549   5.603
 8479SOL     OW26335   6.108   1.035   0.515
 8479SOL    HW126336   6.205   1.022   0.495
 8479SOL    HW226337   6.068   1.097   0.447
 8480SOL     OW26338   3.393   0.423   1.342
 8480SOL    HW126339   3.443   0.394   1.423
 8480SOL    HW226340   3.376   0.344   1.283
 8481SOL     OW26341   3.417   1.739   4.793
 8481SOL    HW126342   3.446   1.644   4.788
 8481SOL    HW226343   3.408   1.777   4.701
 8482SOL     OW26344   1.318   0.056   2.145
 8482SOL    HW126345   1.258   0.084   2.220
 8482SOL    HW226346   1.413   0.063   2.174
 8483SOL     OW26347   3.584   5.619   1.801
 8483SOL    HW126348   3.675   5.647   1.831
 8483SOL    HW226349   3.521   5.696   1.806
 8484SOL     OW26350   0.749   5.183   4.378
 8484SOL    HW126351   0.775   5.209   4.471
 8484SOL    HW226352   0.816   5.117   4.341
 8485SOL     OW26353   2.280   4.106   0.191
 8485SOL    HW126354   2.325   4.044   0.126
 8485SOL    HW226355   2.273   4.197   0.150
 8486SOL     OW26356   5.923   0.901   2.316
 8486SOL    HW126357   5.888   0.809   2.334
 8486SOL    HW226358   5.928   0.916   2.217
 8487SOL     OW26359   5.505   0.410   1.426
 8487SOL    HW126360   5.465   0.495   1.391
 8487SOL    HW226361   5.602   0.407   1.401
 8488SOL     OW26362   5.180   4.686   4.276
 8488SOL    HW126363   5.151   4.591   4.285
 8488SOL    HW226364   5.158   4.735   4.361
 8489SOL     OW26365   5.197   4.535   1.196
 8489SOL    HW126366   5.170   4.472   1.269
 8489SOL    HW226367   5.119   4.592   1.170
 8490SOL     OW26368   4.188   5.804   3.123
 8490SOL    HW126369   4.272   5.753   3.138
 8490SOL    HW226370   4.110   5.741   3.125
 8491SOL     OW26371   2.607   0.441   1.961
 8491SOL    HW126372   2.536   0.376   1.935
 8491SOL    HW226373   2.697   0.401   1.944
 8492SOL     OW26374   6.186   2.641   5.351
 8492SOL    HW126375   6.091   2.668   5.338
 8492SOL    HW226376   6.191   2.558   5.407
 8493SOL     OW26377   4.346   1.752   0.437
 8493SOL    HW126378   4.424   1.781   0.491
 8493SOL    HW226379   4.359   1.780   0.342
 8494SOL     OW26380   2.548   5.757   0.037
 8494SOL    HW126381   2.502   5.722   6.975
 8494SOL    HW226382   2.484   5.810   0.092
 8495SOL     OW26383   6.828   2.458   0.886
 8495SOL    HW126384   6.824   2.360   0.906
 8495SOL    HW226385   6.921   2.492   0.903
 8496SOL     OW26386   0.471   2.441   3.160
 8496SOL    HW126387   0.416   2.406   3.236
 8496SOL    HW226388   0.486   2.369   3.093
 8497SOL     OW26389   6.048   5.167   3.945
 8497SOL    HW126390   5.951   5.151   3.962
 8497SOL    HW226391   6.075   5.253   3.988
 8498SOL     OW26392   0.665   0.225   1.038
 8498SOL    HW126393   0.648   0.318   1.073
 8498SOL    HW226394   0.760   0.218   1.007
 8499SOL     OW26395   3.115   4.960   6.381
 8499SOL    HW126396   3.169   5.028   6.429
 8499SOL    HW226397   3.162   4.871   6.385
 8500SOL     OW26398   2.098   6.770   6.063
 8500SOL    HW126399   2.096   6.789   5.965
 8500SOL    HW226400   2.186   6.797   6.101
 8501SOL     OW26401   2.050   3.649   6.272
 8501SOL    HW126402   2.019   3.597   6.192
 8501SOL    HW226403   1.986   3.635   6.347
 8502SOL     OW26404   0.151   6.333   1.546
 8502SOL    HW126405   0.122   6.426   1.522
 8502SOL    HW226406   0.150   6.323   1.645
 8503SOL     OW26407   2.539   5.117   3.379
 8503SOL    HW126408   2.455   5.131   3.327
 8503SOL    HW226409   2.518   5.120   3.477
 8504SOL     OW26410   1.754   5.641   3.525
 8504SOL    HW126411   1.796   5.560   3.484
 8504SOL    HW226412   1.711   5.615   3.612
 8505SOL     OW26413   5.559   4.298   3.926
 8505SOL    HW126414   5.536   4.203   3.904
 8505SOL    HW226415   5.478   4.355   3.910
 8506SOL     OW26416   1.172   6.208   0.348
 8506SOL    HW126417   1.111   6.263   0.291
 8506SOL    HW226418   1.163   6.236   0.444
 8507SOL     OW26419   2.207   1.426   5.904
 8507SOL    HW126420   2.232   1.329   5.912
 8507SOL    HW226421   2.261   1.469   5.832
 8508SOL     OW26422   0.213   2.667   5.378
 8508SOL    HW126423   0.206   2.649   5.476
 8508SOL    HW226424   0.125   2.698   5.343
 8509SOL     OW26425   5.803   1.362   4.538
 8509SOL    HW126426   5.714   1.391   4.504
 8509SOL    HW226427   5.858   1.442   4.560
 8510SOL     OW26428   5.331   5.733   3.088
 8510SOL    HW126429   5.369   5.796   3.156
 8510SOL    HW226430   5.284   5.785   3.017
 8511SOL     OW26431   6.575   4.509   1.034
 8511SOL    HW126432   6.568   4.534   1.130
 8511SOL    HW226433   6.523   4.573   0.978
 8512SOL     OW26434   4.173   2.394   0.011
 8512SOL    HW126435   4.204   2.313   6.980
 8512SOL    HW226436   4.229   2.406   0.093
 8513SOL     OW26437   5.704   3.661   0.695
 8513SOL    HW126438   5.671   3.754   0.681
 8513SOL    HW226439   5.697   3.637   0.791
 8514SOL     OW26440   2.524   1.551   4.885
 8514SOL    HW126441   2.583   1.632   4.893
 8514SOL    HW226442   2.448   1.571   4.823
 8515SOL     OW26443   0.765   1.389   0.190
 8515SOL    HW126444   0.716   1.444   0.122
 8515SOL    HW226445   0.802   1.450   0.261
 8516SOL     OW26446   6.024   2.977   2.544
 8516SOL    HW126447   6.036   2.883   2.575
 8516SOL    HW226448   6.100   3.033   2.578
 8517SOL     OW26449   2.080   2.751   5.517
 8517SOL    HW126450   2.175   2.783   5.521
 8517SOL    HW226451   2.069   2.689   5.439
 8518SOL     OW26452   4.819   4.988   6.150
 8518SOL    HW126453   4.864   5.065   6.196
 8518SOL    HW226454   4.721   5.003   6.150
 8519SOL     OW26455   1.583   4.541   0.668
 8519SOL    HW126456   1.663   4.485   0.690
 8519SOL    HW226457   1.504   4.507   0.719
 8520SOL     OW26458   4.130   3.661   5.071
 8520SOL    HW126459   4.077   3.715   5.006
 8520SOL    HW226460   4.084   3.574   5.087
 8521SOL     OW26461   1.064   6.470   5.385
 8521SOL    HW126462   1.134   6.458   5.315
 8521SOL    HW226463   0.975   6.445   5.347
 8522SOL     OW26464   1.126   6.826   0.154
 8522SOL    HW126465   1.163   6.738   0.124
 8522SOL    HW226466   1.167   6.852   0.241
 8523SOL     OW26467   2.820   6.857   6.319
 8523SOL    HW126468   2.775   6.768   6.316
 8523SOL    HW226469   2.888   6.863   6.245
 8524SOL     OW26470   1.054   5.371   5.125
 8524SOL    HW126471   1.057   5.278   5.163
 8524SOL    HW226472   1.147   5.402   5.107
 8525SOL     OW26473   6.463   4.803   0.986
 8525SOL    HW126474   6.425   4.815   1.078
 8525SOL    HW226475   6.392   4.823   0.918
 8526SOL     OW26476   2.381   6.335   0.501
 8526SOL    HW126477   2.326   6.312   0.581
 8526SOL    HW226478   2.371   6.263   0.432
 8527SOL     OW26479   3.310   0.558   6.773
 8527SOL    HW126480   3.284   0.636   6.830
 8527SOL    HW226481   3.228   0.513   6.739
 8528SOL     OW26482   5.011   2.055   1.117
 8528SOL    HW126483   4.932   2.026   1.063
 8528SOL    HW226484   5.085   2.082   1.056
 8529SOL     OW26485   0.967   6.573   6.600
 8529SOL    HW126486   1.034   6.609   6.535
 8529SOL    HW226487   0.914   6.500   6.556
 8530SOL     OW26488   3.062   3.167   4.059
 8530SOL    HW126489   2.989   3.229   4.089
 8530SOL    HW226490   3.067   3.168   3.959
 8531SOL     OW26491   6.747   5.823   3.366
 8531SOL    HW126492   6.827   5.814   3.306
 8531SOL    HW226493   6.670   5.858   3.314
 8532SOL     OW26494   3.815   6.441   4.109
 8532SOL    HW126495   3.807   6.372   4.038
 8532SOL    HW226496   3.821   6.532   4.067
 8533SOL     OW26497   0.899   6.031   6.637
 8533SOL    HW126498   0.866   5.938   6.650
 8533SOL    HW226499   0.832   6.096   6.675
 8534SOL     OW26500   4.563   2.161   4.090
 8534SOL    HW126501   4.509   2.166   4.174
 8534SOL    HW226502   4.546   2.241   4.034
 8535SOL     OW26503   5.510   0.696   3.674
 8535SOL    HW126504   5.518   0.795   3.665
 8535SOL    HW226505   5.432   0.663   3.621
 8536SOL     OW26506   0.403   1.526   4.523
 8536SOL    HW126507   0.470   1.580   4.472
 8536SOL    HW226508   0.420   1.535   4.621
 8537SOL     OW26509   6.104   1.463   3.587
 8537SOL    HW126510   6.082   1.483   3.682
 8537SOL    HW226511   6.051   1.523   3.527
 8538SOL     OW26512   1.258   1.476   0.243
 8538SOL    HW126513   1.254   1.557   0.185
 8538SOL    HW226514   1.280   1.504   0.337
 8539SOL     OW26515   6.351   2.676   2.999
 8539SOL    HW126516   6.371   2.689   2.902
 8539SOL    HW226517   6.280   2.607   3.010
 8540SOL     OW26518   4.469   0.290   6.614
 8540SOL    HW126519   4.413   0.373   6.611
 8540SOL    HW226520   4.561   0.312   6.583
 8541SOL     OW26521   2.636   1.932   4.273
 8541SOL    HW126522   2.695   1.933   4.354
 8541SOL    HW226523   2.605   2.025   4.254
 8542SOL     OW26524   3.884   4.297   6.440
 8542SOL    HW126525   3.850   4.390   6.431
 8542SOL    HW226526   3.845   4.239   6.368
 8543SOL     OW26527   1.962   2.342   7.019
 8543SOL    HW126528   1.997   2.405   6.949
 8543SOL    HW226529   1.876   2.302   6.987
 8544SOL     OW26530   5.312   2.461   4.284
 8544SOL    HW126531   5.374   2.451   4.206
 8544SOL    HW226532   5.307   2.557   4.312
 8545SOL     OW26533   4.996   6.326   5.526
 8545SOL    HW126534   5.078   6.272   5.545
 8545SOL    HW226535   4.928   6.310   5.598
 8546SOL     OW26536   5.378   1.589   3.793
 8546SOL    HW126537   5.360   1.586   3.695
 8546SOL    HW226538   5.350   1.678   3.829
 8547SOL     OW26539   1.353   5.289   4.768
 8547SOL    HW126540   1.342   5.235   4.852
 8547SOL    HW226541   1.405   5.237   4.701
 8548SOL     OW26542   5.602   1.623   5.760
 8548SOL    HW126543   5.619   1.709   5.711
 8548SOL    HW226544   5.519   1.632   5.815
 8549SOL     OW26545   6.499   4.141   3.886
 8549SOL    HW126546   6.509   4.053   3.932
 8549SOL    HW226547   6.497   4.126   3.787
 8550SOL     OW26548   1.767   5.339   6.398
 8550SOL    HW126549   1.846   5.377   6.447
 8550SOL    HW226550   1.716   5.413   6.354
 8551SOL     OW26551   3.336   4.476   6.622
 8551SOL    HW126552   3.412   4.533   6.651
 8551SOL    HW226553   3.275   4.458   6.700
 8552SOL     OW26554   3.318   5.553   3.218
 8552SOL    HW126555   3.308   5.636   3.164
 8552SOL    HW226556   3.264   5.560   3.301
 8553SOL     OW26557   5.049   6.726   0.386
 8553SOL    HW126558   4.975   6.786   0.417
 8553SOL    HW226559   5.079   6.754   0.295
 8554SOL     OW26560   0.591   4.478   0.130
 8554SOL    HW126561   0.503   4.451   0.169
 8554SOL    HW226562   0.628   4.403   0.075
 8555SOL     OW26563   0.773   1.204   3.624
 8555SOL    HW126564   0.715   1.201   3.706
 8555SOL    HW226565   0.809   1.297   3.613
 8556SOL     OW26566   6.970   0.810   3.535
 8556SOL    HW126567   6.905   0.734   3.532
 8556SOL    HW226568   6.982   0.840   3.629
 8557SOL     OW26569   0.122   6.626   1.507
 8557SOL    HW126570   0.211   6.611   1.464
 8557SOL    HW226571   0.134   6.652   1.602
 8558SOL     OW26572   2.368   5.300   2.352
 8558SOL    HW126573   2.321   5.388   2.358
 8558SOL    HW226574   2.353   5.248   2.436
 8559SOL     OW26575   0.754   0.860   1.574
 8559SOL    HW126576   0.670   0.898   1.612
 8559SOL    HW226577   0.830   0.924   1.589
 8560SOL     OW26578   0.099   1.570   0.652
 8560SOL    HW126579   0.195   1.597   0.665
 8560SOL    HW226580   0.083   1.550   0.556
 8561SOL     OW26581   4.416   6.217   2.617
 8561SOL    HW126582   4.422   6.266   2.704
 8561SOL    HW226583   4.353   6.265   2.556
 8562SOL     OW26584   3.586   6.270   4.689
 8562SOL    HW126585   3.673   6.288   4.734
 8562SOL    HW226586   3.596   6.285   4.590
 8563SOL     OW26587   2.600   3.068   6.774
 8563SOL    HW126588   2.576   3.082   6.870
 8563SOL    HW226589   2.520   3.036   6.723
 8564SOL     OW26590   0.795   0.150   3.653
 8564SOL    HW126591   0.771   0.240   3.616
 8564SOL    HW226592   0.718   0.087   3.640
 8565SOL     OW26593   3.989   6.925   0.484
 8565SOL    HW126594   4.010   6.994   0.415
 8565SOL    HW226595   3.889   6.913   0.490
 8566SOL     OW26596   1.153   2.496   3.061
 8566SOL    HW126597   1.160   2.418   3.123
 8566SOL    HW226598   1.064   2.541   3.073
 8567SOL     OW26599   5.713   1.523   0.869
 8567SOL    HW126600   5.712   1.461   0.948
 8567SOL    HW226601   5.783   1.593   0.883
 8568SOL     OW26602   4.922   1.953   0.159
 8568SOL    HW126603   4.940   1.937   0.256
 8568SOL    HW226604   5.008   1.971   0.112
 8569SOL     OW26605   4.769   1.148   4.605
 8569SOL    HW126606   4.685   1.108   4.643
 8569SOL    HW226607   4.756   1.247   4.594
 8570SOL     OW26608   1.017   3.990   6.499
 8570SOL    HW126609   1.062   3.911   6.542
 8570SOL    HW226610   0.954   3.958   6.428
 8571SOL     OW26611   6.708   4.356   4.417
 8571SOL    HW126612   6.696   4.324   4.511
 8571SOL    HW226613   6.682   4.453   4.411
 8572SOL     OW26614   2.033   4.826   5.436
 8572SOL    HW126615   2.052   4.840   5.338
 8572SOL    HW226616   1.940   4.857   5.456
 8573SOL     OW26617   4.588   6.342   6.399
 8573SOL    HW126618   4.594   6.437   6.430
 8573SOL    HW226619   4.680   6.305   6.387
 8574SOL     OW26620   0.619   3.984   6.152
 8574SOL    HW126621   0.547   4.004   6.086
 8574SOL    HW226622   0.601   3.896   6.195
 8575SOL     OW26623   2.635   2.925   0.696
 8575SOL    HW126624   2.676   2.993   0.757
 8575SOL    HW226625   2.703   2.854   0.674
 8576SOL     OW26626   1.033   6.912   1.672
 8576SOL    HW126627   0.978   6.831   1.652
 8576SOL    HW226628   1.130   6.887   1.670
 8577SOL     OW26629   6.414   5.428   3.022
 8577SOL    HW126630   6.479   5.502   3.002
 8577SOL    HW226631   6.324   5.466   3.042
 8578SOL     OW26632   4.766   0.217   3.750
 8578SOL    HW126633   4.759   0.309   3.787
 8578SOL    HW226634   4.861   0.186   3.754
 8579SOL     OW26635   1.203   4.827   3.303
 8579SOL    HW126636   1.241   4.887   3.374
 8579SOL    HW226637   1.239   4.734   3.315
 8580SOL     OW26638   1.377   6.120   1.728
 8580SOL    HW126639   1.285   6.148   1.755
 8580SOL    HW226640   1.444   6.187   1.760
 8581SOL     OW26641   3.258   1.502   1.339
 8581SOL    HW126642   3.264   1.483   1.437
 8581SOL    HW226643   3.347   1.485   1.296
 8582SOL     OW26644   4.492   4.709   2.237
 8582SOL    HW126645   4.445   4.648   2.173
 8582SOL    HW226646   4.493   4.802   2.200
 8583SOL     OW26647   6.379   6.965   6.003
 8583SOL    HW126648   6.350   6.993   5.911
 8583SOL    HW226649   6.478   6.953   6.005
 8584SOL     OW26650   6.900   4.717   0.366
 8584SOL    HW126651   6.956   4.643   0.330
 8584SOL    HW226652   6.805   4.687   0.374
 8585SOL     OW26653   0.152   0.529   0.358
 8585SOL    HW126654   0.214   0.466   0.405
 8585SOL    HW226655   0.163   0.621   0.394
 8586SOL     OW26656   3.707   6.228   3.211
 8586SOL    HW126657   3.697   6.134   3.242
 8586SOL    HW226658   3.800   6.244   3.179
 8587SOL     OW26659   6.928   1.867   2.530
 8587SOL    HW126660   6.849   1.910   2.486
 8587SOL    HW226661   7.005   1.931   2.527
 8588SOL     OW26662   4.017   2.356   0.511
 8588SOL    HW126663   4.001   2.454   0.509
 8588SOL    HW226664   4.115   2.337   0.503
 8589SOL     OW26665   3.316   1.173   4.782
 8589SOL    HW126666   3.251   1.146   4.711
 8589SOL    HW226667   3.374   1.247   4.747
 8590SOL     OW26668   6.382   5.291   4.388
 8590SOL    HW126669   6.398   5.305   4.485
 8590SOL    HW226670   6.469   5.273   4.342
 8591SOL     OW26671   1.333   3.494   6.185
 8591SOL    HW126672   1.336   3.414   6.125
 8591SOL    HW226673   1.418   3.500   6.238
 8592SOL     OW26674   6.930   4.413   1.290
 8592SOL    HW126675   7.013   4.427   1.236
 8592SOL    HW226676   6.884   4.330   1.259
 8593SOL     OW26677   1.816   6.395   1.942
 8593SOL    HW126678   1.765   6.452   2.007
 8593SOL    HW226679   1.825   6.442   1.855
 8594SOL     OW26680   3.017   3.798   3.827
 8594SOL    HW126681   2.976   3.726   3.883
 8594SOL    HW226682   3.055   3.869   3.887
 8595SOL     OW26683   1.691   2.240   2.557
 8595SOL    HW126684   1.691   2.240   2.457
 8595SOL    HW226685   1.605   2.278   2.590
 8596SOL     OW26686   5.453   4.871   1.571
 8596SOL    HW126687   5.458   4.861   1.670
 8596SOL    HW226688   5.359   4.854   1.541
 8597SOL     OW26689   2.875   1.278   0.811
 8597SOL    HW126690   2.776   1.295   0.817
 8597SOL    HW226691   2.895   1.229   0.727
 8598SOL     OW26692   6.384   3.741   0.963
 8598SOL    HW126693   6.389   3.645   0.991
 8598SOL    HW226694   6.297   3.757   0.915
 8599SOL     OW26695   0.944   2.860   3.186
 8599SOL    HW126696   1.008   2.938   3.184
 8599SOL    HW226697   0.964   2.799   3.110
 8600SOL     OW26698   6.746   4.878   6.503
 8600SOL    HW126699   6.656   4.883   6.460
 8600SOL    HW226700   6.736   4.881   6.602
 8601SOL     OW26701   6.913   0.392   3.979
 8601SOL    HW126702   6.921   0.438   4.068
 8601SOL    HW226703   6.838   0.326   3.982
 8602SOL     OW26704   2.931   5.792   2.352
 8602SOL    HW126705   3.008   5.768   2.411
 8602SOL    HW226706   2.933   5.736   2.269
 8603SOL     OW26707   3.783   2.943   0.281
 8603SOL    HW126708   3.841   2.941   0.200
 8603SOL    HW226709   3.710   3.010   0.269
 8604SOL     OW26710   5.517   3.040   3.721
 8604SOL    HW126711   5.476   2.974   3.658
 8604SOL    HW226712   5.447   3.104   3.752
 8605SOL     OW26713   2.741   5.730   3.844
 8605SOL    HW126714   2.814   5.757   3.906
 8605SOL    HW226715   2.778   5.670   3.773
 8606SOL     OW26716   3.141   4.994   5.952
 8606SOL    HW126717   3.104   5.016   5.862
 8606SOL    HW226718   3.185   4.904   5.949
 8607SOL     OW26719   4.168   5.997   2.019
 8607SOL    HW126720   4.146   6.028   1.926
 8607SOL    HW226721   4.265   6.009   2.036
 8608SOL     OW26722   3.988   5.035   2.808
 8608SOL    HW126723   3.918   4.988   2.754
 8608SOL    HW226724   3.963   5.032   2.905
 8609SOL     OW26725   3.445   0.398   5.121
 8609SOL    HW126726   3.415   0.347   5.201
 8609SOL    HW226727   3.370   0.455   5.087
 8610SOL     OW26728   1.008   6.362   3.286
 8610SOL    HW126729   0.934   6.338   3.349
 8610SOL    HW226730   1.039   6.455   3.306
 8611SOL     OW26731   1.857   2.220   4.705
 8611SOL    HW126732   1.860   2.121   4.690
 8611SOL    HW226733   1.767   2.245   4.741
 8612SOL     OW26734   3.542   2.841   0.087
 8612SOL    HW126735   3.584   2.754   0.062
 8612SOL    HW226736   3.496   2.832   0.176
 8613SOL     OW26737   1.847   1.443   1.020
 8613SOL    HW126738   1.784   1.520   1.028
 8613SOL    HW226739   1.924   1.457   1.083
 8614SOL     OW26740   1.142   3.711   2.978
 8614SOL    HW126741   1.154   3.724   2.880
 8614SOL    HW226742   1.228   3.735   3.025
 8615SOL     OW26743   3.771   2.246   5.969
 8615SOL    HW126744   3.842   2.315   5.954
 8615SOL    HW226745   3.814   2.162   6.004
 8616SOL     OW26746   1.535   4.748   0.003
 8616SOL    HW126747   1.504   4.682   6.954
 8616SOL    HW226748   1.600   4.704   0.065
 8617SOL     OW26749   6.233   2.390   0.705
 8617SOL    HW126750   6.275   2.300   0.699
 8617SOL    HW226751   6.202   2.406   0.799
 8618SOL     OW26752   4.408   0.432   2.753
 8618SOL    HW126753   4.323   0.468   2.714
 8618SOL    HW226754   4.451   0.503   2.810
 8619SOL     OW26755   4.394   5.033   6.821
 8619SOL    HW126756   4.442   4.964   6.767
 8619SOL    HW226757   4.445   5.119   6.819
 8620SOL     OW26758   5.615   6.750   2.502
 8620SOL    HW126759   5.561   6.788   2.578
 8620SOL    HW226760   5.625   6.819   2.431
 8621SOL     OW26761   5.916   1.120   3.895
 8621SOL    HW126762   5.838   1.155   3.844
 8621SOL    HW226763   5.960   1.196   3.944
 8622SOL     OW26764   5.000   5.339   0.290
 8622SOL    HW126765   5.067   5.309   0.222
 8622SOL    HW226766   4.916   5.367   0.243
 8623SOL     OW26767   1.076   3.974   2.891
 8623SOL    HW126768   1.091   3.892   2.946
 8623SOL    HW226769   0.978   3.994   2.887
 8624SOL     OW26770   0.935   4.147   3.231
 8624SOL    HW126771   0.982   4.076   3.285
 8624SOL    HW226772   0.838   4.147   3.254
 8625SOL     OW26773   4.405   0.700   4.680
 8625SOL    HW126774   4.482   0.704   4.616
 8625SOL    HW226775   4.327   0.748   4.641
 8626SOL     OW26776   3.345   3.242   4.196
 8626SOL    HW126777   3.321   3.145   4.186
 8626SOL    HW226778   3.431   3.250   4.245
 8627SOL     OW26779   1.129   0.732   1.148
 8627SOL    HW126780   1.178   0.769   1.069
 8627SOL    HW226781   1.170   0.645   1.175
 8628SOL     OW26782   6.501   1.304   6.883
 8628SOL    HW126783   6.510   1.236   6.810
 8628SOL    HW226784   6.586   1.307   6.936
 8629SOL     OW26785   0.820   4.861   4.034
 8629SOL    HW126786   0.910   4.818   4.043
 8629SOL    HW226787   0.771   4.819   3.957
 8630SOL     OW26788   5.861   4.093   4.109
 8630SOL    HW126789   5.876   4.183   4.069
 8630SOL    HW226790   5.939   4.069   4.167
 8631SOL     OW26791   3.733   5.764   5.038
 8631SOL    HW126792   3.666   5.745   5.110
 8631SOL    HW226793   3.824   5.767   5.078
 8632SOL     OW26794   3.465   0.317   3.800
 8632SOL    HW126795   3.561   0.325   3.826
 8632SOL    HW226796   3.418   0.255   3.862
 8633SOL     OW26797   5.518   1.334   3.682
 8633SOL    HW126798   5.470   1.271   3.621
 8633SOL    HW226799   5.452   1.391   3.730
 8634SOL     OW26800   6.453   4.235   1.895
 8634SOL    HW126801   6.378   4.173   1.872
 8634SOL    HW226802   6.525   4.184   1.942
 8635SOL     OW26803   6.192   3.961   5.915
 8635SOL    HW126804   6.096   3.980   5.897
 8635SOL    HW226805   6.246   3.985   5.835
 8636SOL     OW26806   6.244   5.725   0.642
 8636SOL    HW126807   6.241   5.824   0.655
 8636SOL    HW226808   6.332   5.690   0.673
 8637SOL     OW26809   1.535   0.907   0.684
 8637SOL    HW126810   1.445   0.903   0.725
 8637SOL    HW226811   1.526   0.915   0.584
 8638SOL     OW26812   2.412   4.540   6.790
 8638SOL    HW126813   2.446   4.502   6.704
 8638SOL    HW226814   2.314   4.556   6.783
 8639SOL     OW26815   5.150   3.458   1.840
 8639SOL    HW126816   5.070   3.513   1.814
 8639SOL    HW226817   5.124   3.394   1.912
 8640SOL     OW26818   4.825   4.115   0.998
 8640SOL    HW126819   4.902   4.178   1.004
 8640SOL    HW226820   4.763   4.131   1.074
 8641SOL     OW26821   0.291   4.430   3.454
 8641SOL    HW126822   0.351   4.442   3.532
 8641SOL    HW226823   0.345   4.404   3.374
 8642SOL     OW26824   4.710   0.840   1.818
 8642SOL    HW126825   4.779   0.768   1.823
 8642SOL    HW226826   4.723   0.894   1.735
 8643SOL     OW26827   4.283   0.497   6.586
 8643SOL    HW126828   4.283   0.537   6.677
 8643SOL    HW226829   4.207   0.535   6.533
 8644SOL     OW26830   5.339   2.561   5.055
 8644SOL    HW126831   5.260   2.564   4.994
 8644SOL    HW226832   5.320   2.617   5.136
 8645SOL     OW26833   6.586   3.728   1.317
 8645SOL    HW126834   6.665   3.700   1.371
 8645SOL    HW226835   6.614   3.797   1.250
 8646SOL     OW26836   4.917   1.182   0.261
 8646SOL    HW126837   4.848   1.113   0.239
 8646SOL    HW226838   4.920   1.251   0.189
 8647SOL     OW26839   3.778   4.939   6.848
 8647SOL    HW126840   3.739   4.990   6.924
 8647SOL    HW226841   3.705   4.890   6.799
 8648SOL     OW26842   5.519   0.507   4.793
 8648SOL    HW126843   5.423   0.508   4.820
 8648SOL    HW226844   5.550   0.601   4.776
 8649SOL     OW26845   6.119   4.268   5.372
 8649SOL    HW126846   6.130   4.212   5.291
 8649SOL    HW226847   6.062   4.220   5.439
 8650SOL     OW26848   2.170   5.216   3.962
 8650SOL    HW126849   2.151   5.314   3.958
 8650SOL    HW226850   2.264   5.199   3.932
 8651SOL     OW26851   3.677   1.881   0.335
 8651SOL    HW126852   3.726   1.794   0.322
 8651SOL    HW226853   3.583   1.871   0.303
 8652SOL     OW26854   2.073   3.860   3.295
 8652SOL    HW126855   2.134   3.938   3.308
 8652SOL    HW226856   2.094   3.816   3.207
 8653SOL     OW26857   0.428   2.426   6.451
 8653SOL    HW126858   0.431   2.524   6.466
 8653SOL    HW226859   0.362   2.384   6.514
 8654SOL     OW26860   0.325   6.717   3.429
 8654SOL    HW126861   0.227   6.731   3.440
 8654SOL    HW226862   0.362   6.675   3.512
 8655SOL     OW26863   5.954   6.625   3.961
 8655SOL    HW126864   5.893   6.675   3.899
 8655SOL    HW226865   5.910   6.539   3.987
 8656SOL     OW26866   6.013   0.921   1.007
 8656SOL    HW126867   6.112   0.933   1.003
 8656SOL    HW226868   5.979   0.960   1.092
 8657SOL     OW26869   5.083   5.135   6.212
 8657SOL    HW126870   5.105   5.148   6.115
 8657SOL    HW226871   5.166   5.142   6.267
 8658SOL     OW26872   5.294   4.843   0.001
 8658SOL    HW126873   5.346   4.765   0.035
 8658SOL    HW226874   5.198   4.832   0.025
 8659SOL     OW26875   4.469   0.734   2.957
 8659SOL    HW126876   4.531   0.805   2.925
 8659SOL    HW226877   4.476   0.725   3.056
 8660SOL     OW26878   6.295   4.139   0.214
 8660SOL    HW126879   6.358   4.132   0.137
 8660SOL    HW226880   6.326   4.080   0.289
 8661SOL     OW26881   6.229   4.096   1.861
 8661SOL    HW126882   6.175   4.054   1.788
 8661SOL    HW226883   6.246   4.029   1.933
 8662SOL     OW26884   6.040   6.486   1.025
 8662SOL    HW126885   6.024   6.560   0.960
 8662SOL    HW226886   5.955   6.466   1.074
 8663SOL     OW26887   2.225   5.455   0.692
 8663SOL    HW126888   2.267   5.378   0.741
 8663SOL    HW226889   2.127   5.455   0.707
 8664SOL     OW26890   4.222   5.589   0.097
 8664SOL    HW126891   4.154   5.652   0.133
 8664SOL    HW226892   4.202   5.496   0.129
 8665SOL     OW26893   4.515   5.649   5.349
 8665SOL    HW126894   4.556   5.663   5.258
 8665SOL    HW226895   4.511   5.551   5.368
 8666SOL     OW26896   4.948   2.055   5.416
 8666SOL    HW126897   4.930   2.009   5.328
 8666SOL    HW226898   4.867   2.106   5.444
 8667SOL     OW26899   5.212   1.956   2.947
 8667SOL    HW126900   5.207   1.875   2.889
 8667SOL    HW226901   5.138   1.954   3.015
 8668SOL     OW26902   5.356   2.684   4.445
 8668SOL    HW126903   5.325   2.760   4.503
 8668SOL    HW226904   5.395   2.612   4.502
 8669SOL     OW26905   4.180   1.399   6.446
 8669SOL    HW126906   4.215   1.322   6.501
 8669SOL    HW226907   4.156   1.366   6.355
 8670SOL     OW26908   3.821   5.697   4.572
 8670SOL    HW126909   3.878   5.627   4.529
 8670SOL    HW226910   3.880   5.769   4.608
 8671SOL     OW26911   5.786   6.770   3.778
 8671SOL    HW126912   5.818   6.803   3.689
 8671SOL    HW226913   5.715   6.701   3.765
 8672SOL     OW26914   2.624   5.206   4.416
 8672SOL    HW126915   2.572   5.288   4.439
 8672SOL    HW226916   2.612   5.138   4.489
 8673SOL     OW26917   0.271   2.078   0.309
 8673SOL    HW126918   0.271   1.989   0.354
 8673SOL    HW226919   0.199   2.081   0.240
 8674SOL     OW26920   0.120   6.836   2.848
 8674SOL    HW126921   0.063   6.816   2.927
 8674SOL    HW226922   0.106   6.766   2.778
 8675SOL     OW26923   2.641   1.885   3.981
 8675SOL    HW126924   2.637   1.889   4.081
 8675SOL    HW226925   2.736   1.890   3.952
 8676SOL     OW26926   3.538   0.473   2.379
 8676SOL    HW126927   3.481   0.555   2.384
 8676SOL    HW226928   3.634   0.500   2.369
 8677SOL     OW26929   2.700   5.212   6.255
 8677SOL    HW126930   2.699   5.282   6.184
 8677SOL    HW226931   2.707   5.122   6.212
 8678SOL     OW26932   1.520   0.210   6.729
 8678SOL    HW126933   1.474   0.258   6.803
 8678SOL    HW226934   1.463   0.211   6.648
 8679SOL     OW26935   6.287   1.836   5.267
 8679SOL    HW126936   6.267   1.933   5.283
 8679SOL    HW226937   6.203   1.783   5.275
 8680SOL     OW26938   2.107   3.339   0.591
 8680SOL    HW126939   2.118   3.322   0.493
 8680SOL    HW226940   2.092   3.253   0.639
 8681SOL     OW26941   4.548   4.789   0.509
 8681SOL    HW126942   4.538   4.770   0.411
 8681SOL    HW226943   4.458   4.780   0.553
 8682SOL     OW26944   2.279   6.767   2.858
 8682SOL    HW126945   2.263   6.727   2.768
 8682SOL    HW226946   2.310   6.695   2.921
 8683SOL     OW26947   1.194   2.893   1.194
 8683SOL    HW126948   1.163   2.986   1.216
 8683SOL    HW226949   1.131   2.827   1.236
 8684SOL     OW26950   5.848   3.087   5.088
 8684SOL    HW126951   5.922   3.140   5.046
 8684SOL    HW226952   5.871   3.066   5.182
 8685SOL     OW26953   0.970   1.828   6.432
 8685SOL    HW126954   0.953   1.925   6.450
 8685SOL    HW226955   1.067   1.814   6.412
 8686SOL     OW26956   0.160   1.990   2.501
 8686SOL    HW126957   0.259   1.983   2.499
 8686SOL    HW226958   0.132   2.084   2.480
 8687SOL     OW26959   3.649   6.940   2.471
 8687SOL    HW126960   3.638   6.856   2.525
 8687SOL    HW226961   3.567   6.956   2.416
 8688SOL     OW26962   2.829   6.829   0.985
 8688SOL    HW126963   2.830   6.818   1.085
 8688SOL    HW226964   2.899   6.894   0.958
 8689SOL     OW26965   4.174   5.843   0.256
 8689SOL    HW126966   4.140   5.932   0.226
 8689SOL    HW226967   4.150   5.830   0.353
 8690SOL     OW26968   1.285   2.209   3.462
 8690SOL    HW126969   1.213   2.228   3.528
 8690SOL    HW226970   1.322   2.117   3.478
 8691SOL     OW26971   4.981   3.169   6.367
 8691SOL    HW126972   4.937   3.109   6.435
 8691SOL    HW226973   4.936   3.258   6.367
 8692SOL     OW26974   3.358   2.112   3.645
 8692SOL    HW126975   3.266   2.124   3.608
 8692SOL    HW226976   3.356   2.130   3.743
 8693SOL     OW26977   5.701   2.462   0.693
 8693SOL    HW126978   5.680   2.490   0.787
 8693SOL    HW226979   5.723   2.542   0.638
 8694SOL     OW26980   5.144   6.773   6.405
 8694SOL    HW126981   5.069   6.807   6.461
 8694SOL    HW226982   5.117   6.774   6.309
 8695SOL     OW26983   5.177   2.954   5.687
 8695SOL    HW126984   5.093   2.902   5.669
 8695SOL    HW226985   5.235   2.952   5.605
 8696SOL     OW26986   3.355   5.296   0.528
 8696SOL    HW126987   3.346   5.359   0.451
 8696SOL    HW226988   3.380   5.346   0.610
 8697SOL     OW26989   6.388   3.198   1.133
 8697SOL    HW126990   6.308   3.168   1.079
 8697SOL    HW226991   6.409   3.293   1.111
 8698SOL     OW26992   5.752   5.695   4.479
 8698SOL    HW126993   5.693   5.731   4.407
 8698SOL    HW226994   5.696   5.662   4.555
 8699SOL     OW26995   1.242   2.249   5.677
 8699SOL    HW126996   1.273   2.214   5.588
 8699SOL    HW226997   1.244   2.349   5.676
 8700SOL     OW26998   1.938   0.807   4.456
 8700SOL    HW126999   1.948   0.812   4.357
 8700SOL    HW227000   1.982   0.887   4.498
 8701SOL     OW27001   0.816   1.189   5.917
 8701SOL    HW127002   0.803   1.279   5.958
 8701SOL    HW227003   0.751   1.124   5.955
 8702SOL     OW27004   5.458   4.656   0.106
 8702SOL    HW127005   5.545   4.613   0.082
 8702SOL    HW227006   5.475   4.736   0.163
 8703SOL     OW27007   3.120   5.750   0.966
 8703SOL    HW127008   3.025   5.746   0.996
 8703SOL    HW227009   3.129   5.708   0.876
 8704SOL     OW27010   6.422   4.580   2.703
 8704SOL    HW127011   6.439   4.524   2.784
 8704SOL    HW227012   6.426   4.677   2.728
 8705SOL     OW27013   5.113   0.877   6.444
 8705SOL    HW127014   5.180   0.830   6.502
 8705SOL    HW227015   5.087   0.963   6.486
 8706SOL     OW27016   4.592   2.313   6.797
 8706SOL    HW127017   4.611   2.333   6.701
 8706SOL    HW227018   4.516   2.369   6.829
 8707SOL     OW27019   4.277   2.702   0.074
 8707SOL    HW127020   4.178   2.686   0.071
 8707SOL    HW227021   4.312   2.709   7.000
 8708SOL     OW27022   3.408   0.513   1.944
 8708SOL    HW127023   3.347   0.458   2.000
 8708SOL    HW227024   3.459   0.577   2.002
 8709SOL     OW27025   0.317   4.390   0.182
 8709SOL    HW127026   0.318   4.337   0.267
 8709SOL    HW227027   0.231   4.374   0.134
 8710SOL     OW27028   1.331   3.345   2.911
 8710SOL    HW127029   1.277   3.309   2.987
 8710SOL    HW227030   1.269   3.389   2.845
 8711SOL     OW27031   0.216   0.420   2.563
 8711SOL    HW127032   0.202   0.516   2.588
 8711SOL    HW227033   0.310   0.393   2.586
 8712SOL     OW27034   3.532   1.574   4.066
 8712SOL    HW127035   3.442   1.596   4.104
 8712SOL    HW227036   3.589   1.656   4.068
 8713SOL     OW27037   6.822   4.399   3.695
 8713SOL    HW127038   6.848   4.479   3.640
 8713SOL    HW227039   6.734   4.415   3.739
 8714SOL     OW27040   1.608   0.839   5.982
 8714SOL    HW127041   1.701   0.861   6.011
 8714SOL    HW227042   1.609   0.803   5.889
 8715SOL     OW27043   5.698   0.814   0.971
 8715SOL    HW127044   5.710   0.850   0.878
 8715SOL    HW227045   5.649   0.726   0.966
 8716SOL     OW27046   0.518   1.494   1.638
 8716SOL    HW127047   0.493   1.483   1.734
 8716SOL    HW227048   0.617   1.509   1.630
 8717SOL     OW27049   4.138   3.701   2.082
 8717SOL    HW127050   4.126   3.655   2.171
 8717SOL    HW227051   4.219   3.759   2.086
 8718SOL     OW27052   6.893   2.710   4.697
 8718SOL    HW127053   6.967   2.767   4.736
 8718SOL    HW227054   6.871   2.744   4.606
 8719SOL     OW27055   1.574   0.587   5.797
 8719SOL    HW127056   1.572   0.610   5.895
 8719SOL    HW227057   1.581   0.671   5.743
 8720SOL     OW27058   6.450   5.194   4.990
 8720SOL    HW127059   6.517   5.194   5.064
 8720SOL    HW227060   6.497   5.191   4.902
 8721SOL     OW27061   6.210   2.231   4.572
 8721SOL    HW127062   6.259   2.305   4.620
 8721SOL    HW227063   6.254   2.144   4.593
 8722SOL     OW27064   3.610   1.543   0.398
 8722SOL    HW127065   3.686   1.483   0.421
 8722SOL    HW227066   3.582   1.594   0.479
 8723SOL     OW27067   6.203   5.482   0.934
 8723SOL    HW127068   6.115   5.517   0.901
 8723SOL    HW227069   6.257   5.558   0.971
 8724SOL     OW27070   5.710   0.229   5.766
 8724SOL    HW127071   5.742   0.229   5.861
 8724SOL    HW227072   5.611   0.246   5.764
 8725SOL     OW27073   2.087   0.301   0.358
 8725SOL    HW127074   2.182   0.332   0.358
 8725SOL    HW227075   2.035   0.353   0.290
 8726SOL     OW27076   5.696   0.102   1.419
 8726SOL    HW127077   5.761   0.038   1.377
 8726SOL    HW227078   5.703   0.190   1.374
 8727SOL     OW27079   6.636   6.542   1.616
 8727SOL    HW127080   6.555   6.586   1.654
 8727SOL    HW227081   6.641   6.447   1.648
 8728SOL     OW27082   2.984   6.904   5.408
 8728SOL    HW127083   3.007   6.904   5.311
 8728SOL    HW227084   3.055   6.856   5.460
 8729SOL     OW27085   4.443   5.651   3.177
 8729SOL    HW127086   4.460   5.631   3.274
 8729SOL    HW227087   4.508   5.601   3.121
 8730SOL     OW27088   0.069   5.767   2.808
 8730SOL    HW127089   0.005   5.709   2.756
 8730SOL    HW227090   0.124   5.821   2.744
 8731SOL     OW27091   1.441   2.417   3.363
 8731SOL    HW127092   1.369   2.484   3.382
 8731SOL    HW227093   1.417   2.329   3.404
 8732SOL     OW27094   5.130   4.204   1.951
 8732SOL    HW127095   5.099   4.249   2.035
 8732SOL    HW227096   5.220   4.164   1.966
 8733SOL     OW27097   0.777   6.355   2.654
 8733SOL    HW127098   0.753   6.344   2.751
 8733SOL    HW227099   0.701   6.321   2.598
 8734SOL     OW27100   0.471   4.882   1.211
 8734SOL    HW127101   0.444   4.869   1.306
 8734SOL    HW227102   0.398   4.929   1.162
 8735SOL     OW27103   0.603   1.840   0.544
 8735SOL    HW127104   0.576   1.936   0.544
 8735SOL    HW227105   0.539   1.787   0.489
 8736SOL     OW27106   0.982   6.093   0.012
 8736SOL    HW127107   0.957   6.163   0.080
 8736SOL    HW227108   1.069   6.117   6.990
 8737SOL     OW27109   3.691   6.032   5.752
 8737SOL    HW127110   3.783   5.996   5.765
 8737SOL    HW227111   3.687   6.126   5.786
 8738SOL     OW27112   1.417   4.143   4.240
 8738SOL    HW127113   1.367   4.157   4.326
 8738SOL    HW227114   1.505   4.190   4.244
 8739SOL     OW27115   6.727   3.905   5.942
 8739SOL    HW127116   6.807   3.929   5.887
 8739SOL    HW227117   6.742   3.816   5.985
 8740SOL     OW27118   3.225   0.662   5.995
 8740SOL    HW127119   3.325   0.663   5.986
 8740SOL    HW227120   3.196   0.573   6.029
 8741SOL     OW27121   1.621   2.478   2.300
 8741SOL    HW127122   1.619   2.378   2.296
 8741SOL    HW227123   1.655   2.508   2.389
 8742SOL     OW27124   4.741   6.458   1.224
 8742SOL    HW127125   4.773   6.486   1.133
 8742SOL    HW227126   4.787   6.513   1.293
 8743SOL     OW27127   2.304   5.525   1.929
 8743SOL    HW127128   2.385   5.468   1.939
 8743SOL    HW227129   2.278   5.563   2.018
 8744SOL     OW27130   4.690   2.595   6.561
 8744SOL    HW127131   4.643   2.678   6.589
 8744SOL    HW227132   4.626   2.536   6.511
 8745SOL     OW27133   6.123   2.243   5.049
 8745SOL    HW127134   6.037   2.192   5.043
 8745SOL    HW227135   6.145   2.259   5.146
 8746SOL     OW27136   4.768   4.521   5.881
 8746SOL    HW127137   4.823   4.588   5.831
 8746SOL    HW227138   4.671   4.539   5.866
 8747SOL     OW27139   0.813   2.742   3.386
 8747SOL    HW127140   0.875   2.782   3.319
 8747SOL    HW227141   0.750   2.679   3.341
 8748SOL     OW27142   1.146   0.457   6.845
 8748SOL    HW127143   1.227   0.484   6.792
 8748SOL    HW227144   1.088   0.397   6.789
 8749SOL     OW27145   3.281   0.954   3.986
 8749SOL    HW127146   3.352   0.915   4.045
 8749SOL    HW227147   3.302   0.932   3.891
 8750SOL     OW27148   2.081   2.333   5.170
 8750SOL    HW127149   2.112   2.327   5.075
 8750SOL    HW227150   1.994   2.285   5.181
 8751SOL     OW27151   0.248   7.005   2.102
 8751SOL    HW127152   0.318   0.054   2.122
 8751SOL    HW227153   0.291   6.916   2.089
 8752SOL     OW27154   2.534   3.729   6.556
 8752SOL    HW127155   2.596   3.782   6.498
 8752SOL    HW227156   2.440   3.739   6.524
 8753SOL     OW27157   5.184   1.778   5.048
 8753SOL    HW127158   5.176   1.697   4.990
 8753SOL    HW227159   5.280   1.805   5.053
 8754SOL     OW27160   0.597   1.965   5.952
 8754SOL    HW127161   0.582   2.061   5.974
 8754SOL    HW227162   0.671   1.929   6.008
 8755SOL     OW27163   2.179   0.645   0.400
 8755SOL    HW127164   2.260   0.590   0.421
 8755SOL    HW227165   2.148   0.691   0.483
 8756SOL     OW27166   2.139   3.149   3.784
 8756SOL    HW127167   2.188   3.066   3.756
 8756SOL    HW227168   2.042   3.141   3.760
 8757SOL     OW27169   4.587   6.424   4.975
 8757SOL    HW127170   4.554   6.517   4.991
 8757SOL    HW227171   4.687   6.424   4.969
 8758SOL     OW27172   5.271   6.640   2.150
 8758SOL    HW127173   5.306   6.574   2.217
 8758SOL    HW227174   5.179   6.669   2.177
 8759SOL     OW27175   5.042   0.775   6.006
 8759SOL    HW127176   4.975   0.747   6.074
 8759SOL    HW227177   5.000   0.842   5.944
 8760SOL     OW27178   1.870   1.574   4.667
 8760SOL    HW127179   1.800   1.617   4.724
 8760SOL    HW227180   1.842   1.578   4.571
 8761SOL     OW27181   5.108   0.842   0.071
 8761SOL    HW127182   5.141   0.907   0.139
 8761SOL    HW227183   5.095   0.889   7.003
 8762SOL     OW27184   1.096   3.384   1.526
 8762SOL    HW127185   1.191   3.354   1.515
 8762SOL    HW227186   1.046   3.317   1.581
 8763SOL     OW27187   6.423   6.146   5.477
 8763SOL    HW127188   6.511   6.154   5.525
 8763SOL    HW227189   6.435   6.088   5.396
 8764SOL     OW27190   5.035   1.687   3.954
 8764SOL    HW127191   4.941   1.677   3.989
 8764SOL    HW227192   5.094   1.622   4.001
 8765SOL     OW27193   5.550   6.850   4.698
 8765SOL    HW127194   5.487   6.928   4.702
 8765SOL    HW227195   5.621   6.862   4.768
 8766SOL     OW27196   3.096   4.974   3.506
 8766SOL    HW127197   3.119   5.071   3.515
 8766SOL    HW227198   3.073   4.937   3.597
 8767SOL     OW27199   4.320   1.317   3.101
 8767SOL    HW127200   4.297   1.230   3.143
 8767SOL    HW227201   4.274   1.391   3.150
 8768SOL     OW27202   1.586   2.809   0.482
 8768SOL    HW127203   1.497   2.765   0.476
 8768SOL    HW227204   1.575   2.899   0.524
 8769SOL     OW27205   0.790   0.310   5.682
 8769SOL    HW127206   0.843   0.227   5.666
 8769SOL    HW227207   0.742   0.335   5.598
 8770SOL     OW27208   4.984   4.395   1.835
 8770SOL    HW127209   4.919   4.343   1.890
 8770SOL    HW227210   5.077   4.374   1.866
 8771SOL     OW27211   1.912   1.535   6.570
 8771SOL    HW127212   2.007   1.506   6.572
 8771SOL    HW227213   1.858   1.470   6.516
 8772SOL     OW27214   6.426   1.069   6.755
 8772SOL    HW127215   6.336   1.031   6.777
 8772SOL    HW227216   6.438   1.069   6.656
 8773SOL     OW27217   3.739   2.141   3.235
 8773SOL    HW127218   3.658   2.159   3.291
 8773SOL    HW227219   3.711   2.105   3.146
 8774SOL     OW27220   1.052   1.350   0.797
 8774SOL    HW127221   1.000   1.431   0.823
 8774SOL    HW227222   1.085   1.304   0.879
 8775SOL     OW27223   6.090   6.811   3.273
 8775SOL    HW127224   6.091   6.870   3.354
 8775SOL    HW227225   6.175   6.826   3.221
 8776SOL     OW27226   3.331   3.390   4.784
 8776SOL    HW127227   3.359   3.486   4.797
 8776SOL    HW227228   3.413   3.332   4.781
 8777SOL     OW27229   6.542   4.875   1.639
 8777SOL    HW127230   6.599   4.880   1.558
 8777SOL    HW227231   6.486   4.792   1.636
 8778SOL     OW27232   0.115   2.225   3.224
 8778SOL    HW127233   0.100   2.162   3.148
 8778SOL    HW227234   0.189   2.192   3.281
 8779SOL     OW27235   1.721   4.594   1.421
 8779SOL    HW127236   1.687   4.586   1.328
 8779SOL    HW227237   1.648   4.570   1.485
 8780SOL     OW27238   1.158   5.872   4.174
 8780SOL    HW127239   1.147   5.832   4.084
 8780SOL    HW227240   1.250   5.910   4.183
 8781SOL     OW27241   0.381   1.950   2.982
 8781SOL    HW127242   0.375   1.866   3.036
 8781SOL    HW227243   0.389   1.928   2.885
 8782SOL     OW27244   4.256   1.421   2.353
 8782SOL    HW127245   4.245   1.515   2.383
 8782SOL    HW227246   4.201   1.360   2.411
 8783SOL     OW27247   5.990   3.772   4.372
 8783SOL    HW127248   5.929   3.827   4.429
 8783SOL    HW227249   6.045   3.832   4.314
 8784SOL     OW27250   5.744   5.362   5.898
 8784SOL    HW127251   5.751   5.352   5.998
 8784SOL    HW227252   5.735   5.459   5.876
 8785SOL     OW27253   5.515   4.234   6.614
 8785SOL    HW127254   5.516   4.297   6.536
 8785SOL    HW227255   5.551   4.145   6.585
 8786SOL     OW27256   1.418   6.437   6.559
 8786SOL    HW127257   1.331   6.401   6.593
 8786SOL    HW227258   1.463   6.490   6.631
 8787SOL     OW27259   2.150   3.205   1.916
 8787SOL    HW127260   2.184   3.294   1.946
 8787SOL    HW227261   2.093   3.217   1.834
 8788SOL     OW27262   6.673   1.949   5.303
 8788SOL    HW127263   6.756   1.894   5.299
 8788SOL    HW227264   6.648   1.979   5.211
 8789SOL     OW27265   6.801   0.477   5.916
 8789SOL    HW127266   6.828   0.381   5.900
 8789SOL    HW227267   6.728   0.501   5.852
 8790SOL     OW27268   0.161   1.731   6.796
 8790SOL    HW127269   0.193   1.769   6.883
 8790SOL    HW227270   0.225   1.662   6.764
 8791SOL     OW27271   5.031   6.841   5.224
 8791SOL    HW127272   5.021   6.774   5.151
 8791SOL    HW227273   4.953   6.835   5.286
 8792SOL     OW27274   4.395   6.948   3.168
 8792SOL    HW127275   4.386   0.027   3.151
 8792SOL    HW227276   4.323   6.918   3.230
 8793SOL     OW27277   2.698   6.030   3.820
 8793SOL    HW127278   2.692   5.931   3.806
 8793SOL    HW227279   2.606   6.068   3.823
 8794SOL     OW27280   1.979   6.984   2.840
 8794SOL    HW127281   2.071   6.989   2.880
 8794SOL    HW227282   1.968   6.898   2.791
 8795SOL     OW27283   1.421   6.511   5.423
 8795SOL    HW127284   1.384   6.429   5.467
 8795SOL    HW227285   1.455   6.574   5.492
 8796SOL     OW27286   4.625   1.856   5.340
 8796SOL    HW127287   4.695   1.789   5.318
 8796SOL    HW227288   4.567   1.872   5.261
 8797SOL     OW27289   0.792   6.713   6.270
 8797SOL    HW127290   0.863   6.646   6.249
 8797SOL    HW227291   0.771   6.766   6.188
 8798SOL     OW27292   5.663   3.865   5.228
 8798SOL    HW127293   5.605   3.788   5.206
 8798SOL    HW227294   5.634   3.945   5.176
 8799SOL     OW27295   2.753   4.663   3.039
 8799SOL    HW127296   2.754   4.753   2.996
 8799SOL    HW227297   2.807   4.599   2.983
 8800SOL     OW27298   4.504   4.706   6.005
 8800SOL    HW127299   4.414   4.739   6.033
 8800SOL    HW227300   4.502   4.607   5.995
 8801SOL     OW27301   2.224   1.305   4.341
 8801SOL    HW127302   2.277   1.273   4.419
 8801SOL    HW227303   2.127   1.305   4.365
 8802SOL     OW27304   1.538   6.321   2.491
 8802SOL    HW127305   1.492   6.302   2.578
 8802SOL    HW227306   1.506   6.256   2.421
 8803SOL     OW27307   2.388   5.996   6.881
 8803SOL    HW127308   2.346   5.909   6.904
 8803SOL    HW227309   2.486   5.993   6.902
 8804SOL     OW27310   4.319   0.149   1.021
 8804SOL    HW127311   4.387   0.152   0.949
 8804SOL    HW227312   4.230   0.178   0.985
 8805SOL     OW27313   0.964   0.145   3.265
 8805SOL    HW127314   1.030   0.179   3.331
 8805SOL    HW227315   1.012   0.096   3.192
 8806SOL     OW27316   1.515   5.453   0.478
 8806SOL    HW127317   1.586   5.394   0.440
 8806SOL    HW227318   1.441   5.464   0.411
 8807SOL     OW27319   6.534   6.077   6.109
 8807SOL    HW127320   6.539   6.171   6.143
 8807SOL    HW227321   6.615   6.027   6.138
 8808SOL     OW27322   5.729   0.893   0.443
 8808SOL    HW127323   5.652   0.832   0.426
 8808SOL    HW227324   5.810   0.860   0.393
 8809SOL     OW27325   5.332   3.702   1.617
 8809SOL    HW127326   5.319   3.769   1.689
 8809SOL    HW227327   5.429   3.678   1.610
 8810SOL     OW27328   4.730   1.724   3.764
 8810SOL    HW127329   4.821   1.740   3.726
 8810SOL    HW227330   4.736   1.710   3.863
 8811SOL     OW27331   2.517   1.713   3.495
 8811SOL    HW127332   2.535   1.695   3.398
 8811SOL    HW227333   2.520   1.627   3.546
 8812SOL     OW27334   0.968   1.046   0.835
 8812SOL    HW127335   0.903   1.048   0.911
 8812SOL    HW227336   0.945   1.118   0.769
 8813SOL     OW27337   0.791   6.237   1.948
 8813SOL    HW127338   0.811   6.183   2.030
 8813SOL    HW227339   0.758   6.177   1.876
 8814SOL     OW27340   6.712   0.575   6.685
 8814SOL    HW127341   6.784   0.623   6.735
 8814SOL    HW227342   6.710   0.479   6.714
 8815SOL     OW27343   0.211   5.639   2.139
 8815SOL    HW127344   0.289   5.699   2.120
 8815SOL    HW227345   0.205   5.570   2.067
 8816SOL     OW27346   1.158   5.927   0.904
 8816SOL    HW127347   1.131   5.908   0.810
 8816SOL    HW227348   1.255   5.905   0.917
 8817SOL     OW27349   1.634   5.862   5.265
 8817SOL    HW127350   1.603   5.783   5.317
 8817SOL    HW227351   1.651   5.835   5.170
 8818SOL     OW27352   6.968   4.252   4.081
 8818SOL    HW127353   6.977   4.331   4.021
 8818SOL    HW227354   6.871   4.233   4.095
 8819SOL     OW27355   4.714   6.585   4.245
 8819SOL    HW127356   4.638   6.520   4.243
 8819SOL    HW227357   4.786   6.555   4.182
 8820SOL     OW27358   1.965   2.990   4.022
 8820SOL    HW127359   1.897   3.060   4.003
 8820SOL    HW227360   1.930   2.901   3.994
 8821SOL     OW27361   2.669   0.585   6.482
 8821SOL    HW127362   2.604   0.650   6.522
 8821SOL    HW227363   2.684   0.509   6.545
 8822SOL     OW27364   0.693   1.817   3.417
 8822SOL    HW127365   0.708   1.860   3.506
 8822SOL    HW227366   0.601   1.779   3.413
 8823SOL     OW27367   1.854   0.039   0.713
 8823SOL    HW127368   1.889   7.014   0.630
 8823SOL    HW227369   1.886   0.134   0.716
 8824SOL     OW27370   3.332   3.824   0.942
 8824SOL    HW127371   3.323   3.748   0.878
 8824SOL    HW227372   3.315   3.910   0.895
 8825SOL     OW27373   1.595   1.175   2.062
 8825SOL    HW127374   1.589   1.155   2.160
 8825SOL    HW227375   1.653   1.107   2.018
 8826SOL     OW27376   5.876   0.650   6.653
 8826SOL    HW127377   5.972   0.644   6.681
 8826SOL    HW227378   5.850   0.747   6.646
 8827SOL     OW27379   2.351   1.611   2.889
 8827SOL    HW127380   2.259   1.593   2.854
 8827SOL    HW227381   2.396   1.524   2.908
 8828SOL     OW27382   2.930   6.242   3.455
 8828SOL    HW127383   2.926   6.313   3.384
 8828SOL    HW227384   3.025   6.213   3.468
 8829SOL     OW27385   0.334   2.978   6.441
 8829SOL    HW127386   0.423   2.978   6.395
 8829SOL    HW227387   0.346   3.006   6.536
 8830SOL     OW27388   0.555   0.889   0.055
 8830SOL    HW127389   0.619   0.966   0.053
 8830SOL    HW227390   0.605   0.803   0.040
 8831SOL     OW27391   6.050   0.749   2.748
 8831SOL    HW127392   6.089   0.657   2.751
 8831SOL    HW227393   6.039   0.783   2.842
 8832SOL     OW27394   0.396   0.255   2.030
 8832SOL    HW127395   0.313   0.304   2.057
 8832SOL    HW227396   0.444   0.306   1.959
 8833SOL     OW27397   2.558   5.468   4.473
 8833SOL    HW127398   2.636   5.519   4.439
 8833SOL    HW227399   2.510   5.522   4.542
 8834SOL     OW27400   6.303   2.945   4.830
 8834SOL    HW127401   6.331   2.996   4.911
 8834SOL    HW227402   6.237   2.998   4.778
 8835SOL     OW27403   6.675   6.783   5.427
 8835SOL    HW127404   6.665   6.737   5.516
 8835SOL    HW227405   6.762   6.756   5.385
 8836SOL     OW27406   4.288   1.285   0.442
 8836SOL    HW127407   4.321   1.319   0.531
 8836SOL    HW227408   4.208   1.339   0.414
 8837SOL     OW27409   0.539   0.751   1.869
 8837SOL    HW127410   0.444   0.720   1.875
 8837SOL    HW227411   0.600   0.674   1.888
 8838SOL     OW27412   2.730   5.129   3.189
 8838SOL    HW127413   2.812   5.089   3.229
 8838SOL    HW227414   2.664   5.148   3.261
 8839SOL     OW27415   6.513   6.400   3.258
 8839SOL    HW127416   6.589   6.362   3.310
 8839SOL    HW227417   6.433   6.412   3.318
 8840SOL     OW27418   5.274   2.437   2.447
 8840SOL    HW127419   5.341   2.396   2.509
 8840SOL    HW227420   5.243   2.524   2.484
 8841SOL     OW27421   1.052   2.049   5.407
 8841SOL    HW127422   1.017   1.986   5.476
 8841SOL    HW227423   1.143   2.081   5.434
 8842SOL     OW27424   2.545   2.755   1.475
 8842SOL    HW127425   2.525   2.815   1.553
 8842SOL    HW227426   2.541   2.809   1.391
 8843SOL     OW27427   1.199   2.828   5.412
 8843SOL    HW127428   1.277   2.806   5.354
 8843SOL    HW227429   1.179   2.926   5.406
 8844SOL     OW27430   6.215   1.122   5.938
 8844SOL    HW127431   6.117   1.109   5.951
 8844SOL    HW227432   6.237   1.115   5.840
 8845SOL     OW27433   4.743   3.931   0.212
 8845SOL    HW127434   4.767   3.835   0.230
 8845SOL    HW227435   4.682   3.936   0.133
 8846SOL     OW27436   1.904   4.850   4.290
 8846SOL    HW127437   1.901   4.870   4.192
 8846SOL    HW227438   1.823   4.890   4.333
 8847SOL     OW27439   2.625   0.092   2.589
 8847SOL    HW127440   2.628   0.027   2.514
 8847SOL    HW227441   2.584   0.049   2.670
 8848SOL     OW27442   1.859   0.497   2.125
 8848SOL    HW127443   1.842   0.593   2.149
 8848SOL    HW227444   1.940   0.491   2.067
 8849SOL     OW27445   1.992   6.184   2.311
 8849SOL    HW127446   1.907   6.132   2.306
 8849SOL    HW227447   2.057   6.146   2.245
 8850SOL     OW27448   3.160   2.310   6.553
 8850SOL    HW127449   3.258   2.329   6.562
 8850SOL    HW227450   3.120   2.375   6.489
 8851SOL     OW27451   1.501   4.669   2.125
 8851SOL    HW127452   1.544   4.603   2.186
 8851SOL    HW227453   1.571   4.731   2.089
 8852SOL     OW27454   1.508   1.118   6.047
 8852SOL    HW127455   1.522   1.184   5.974
 8852SOL    HW227456   1.518   1.025   6.011
 8853SOL     OW27457   3.354   0.885   1.164
 8853SOL    HW127458   3.447   0.896   1.200
 8853SOL    HW227459   3.339   0.788   1.142
 8854SOL     OW27460   1.535   2.924   4.713
 8854SOL    HW127461   1.436   2.935   4.710
 8854SOL    HW227462   1.576   3.002   4.760
 8855SOL     OW27463   5.544   5.069   1.421
 8855SOL    HW127464   5.623   5.046   1.365
 8855SOL    HW227465   5.525   4.994   1.484
 8856SOL     OW27466   0.299   5.169   6.526
 8856SOL    HW127467   0.218   5.123   6.489
 8856SOL    HW227468   0.369   5.177   6.455
 8857SOL     OW27469   6.629   1.486   5.358
 8857SOL    HW127470   6.618   1.564   5.419
 8857SOL    HW227471   6.545   1.472   5.306
 8858SOL     OW27472   5.909   5.044   4.909
 8858SOL    HW127473   5.976   4.973   4.931
 8858SOL    HW227474   5.837   5.006   4.852
 8859SOL     OW27475   0.386   1.122   3.635
 8859SOL    HW127476   0.293   1.139   3.669
 8859SOL    HW227477   0.380   1.079   3.545
 8860SOL     OW27478   6.498   2.364   1.710
 8860SOL    HW127479   6.430   2.295   1.738
 8860SOL    HW227480   6.498   2.439   1.776
 8861SOL     OW27481   4.535   1.660   1.555
 8861SOL    HW127482   4.537   1.710   1.641
 8861SOL    HW227483   4.617   1.682   1.501
 8862SOL     OW27484   4.545   5.207   5.260
 8862SOL    HW127485   4.614   5.135   5.261
 8862SOL    HW227486   4.580   5.288   5.307
 8863SOL     OW27487   1.845   4.254   3.859
 8863SOL    HW127488   1.844   4.154   3.857
 8863SOL    HW227489   1.897   4.288   3.781
 8864SOL     OW27490   5.802   2.226   6.186
 8864SOL    HW127491   5.856   2.245   6.269
 8864SOL    HW227492   5.706   2.215   6.211
 8865SOL     OW27493   2.301   1.802   6.466
 8865SOL    HW127494   2.263   1.889   6.435
 8865SOL    HW227495   2.278   1.788   6.563
 8866SOL     OW27496   5.747   6.510   1.960
 8866SOL    HW127497   5.719   6.449   2.035
 8866SOL    HW227498   5.837   6.483   1.926
 8867SOL     OW27499   6.227   3.643   2.807
 8867SOL    HW127500   6.285   3.659   2.887
 8867SOL    HW227501   6.264   3.692   2.729
 8868SOL     OW27502   6.853   3.674   3.017
 8868SOL    HW127503   6.943   3.654   3.054
 8868SOL    HW227504   6.813   3.591   2.978
 8869SOL     OW27505   3.210   6.178   3.512
 8869SOL    HW127506   3.262   6.105   3.557
 8869SOL    HW227507   3.261   6.213   3.434
 8870SOL     OW27508   1.735   0.054   1.933
 8870SOL    HW127509   1.680   0.051   2.016
 8870SOL    HW227510   1.821   0.005   1.947
 8871SOL     OW27511   0.791   0.996   2.890
 8871SOL    HW127512   0.839   0.949   2.816
 8871SOL    HW227513   0.732   0.931   2.938
 8872SOL     OW27514   0.208   4.444   5.138
 8872SOL    HW127515   0.150   4.497   5.077
 8872SOL    HW227516   0.300   4.481   5.138
 8873SOL     OW27517   1.418   0.690   2.343
 8873SOL    HW127518   1.435   0.731   2.432
 8873SOL    HW227519   1.448   0.753   2.271
 8874SOL     OW27520   2.361   5.417   0.298
 8874SOL    HW127521   2.391   5.410   0.203
 8874SOL    HW227522   2.286   5.352   0.314
 8875SOL     OW27523   0.074   3.282   3.289
 8875SOL    HW127524   0.039   3.189   3.291
 8875SOL    HW227525   0.029   3.337   3.360
 8876SOL     OW27526   3.581   0.448   6.342
 8876SOL    HW127527   3.596   0.536   6.388
 8876SOL    HW227528   3.627   0.375   6.392
 8877SOL     OW27529   1.971   3.673   1.038
 8877SOL    HW127530   2.030   3.631   1.107
 8877SOL    HW227531   1.940   3.762   1.070
 8878SOL     OW27532   3.887   4.745   0.716
 8878SOL    HW127533   3.973   4.796   0.718
 8878SOL    HW227534   3.824   4.790   0.653
 8879SOL     OW27535   6.461   4.475   3.024
 8879SOL    HW127536   6.500   4.556   3.068
 8879SOL    HW227537   6.532   4.407   3.010
 8880SOL     OW27538   4.681   6.700   3.618
 8880SOL    HW127539   4.746   6.770   3.589
 8880SOL    HW227540   4.715   6.655   3.700
 8881SOL     OW27541   3.783   4.918   4.158
 8881SOL    HW127542   3.731   4.927   4.243
 8881SOL    HW227543   3.842   4.997   4.146
 8882SOL     OW27544   4.072   0.472   1.032
 8882SOL    HW127545   4.130   0.536   0.980
 8882SOL    HW227546   3.980   0.510   1.040
 8883SOL     OW27547   0.318   5.874   5.126
 8883SOL    HW127548   0.350   5.810   5.196
 8883SOL    HW227549   0.219   5.865   5.115
 8884SOL     OW27550   5.627   3.892   4.838
 8884SOL    HW127551   5.632   3.793   4.823
 8884SOL    HW227552   5.606   3.937   4.751
 8885SOL     OW27553   5.758   5.732   0.621
 8885SOL    HW127554   5.665   5.753   0.651
 8885SOL    HW227555   5.770   5.757   0.525
 8886SOL     OW27556   2.941   5.929   0.194
 8886SOL    HW127557   2.958   6.024   0.169
 8886SOL    HW227558   2.901   5.925   0.286
 8887SOL     OW27559   5.019   1.784   1.210
 8887SOL    HW127560   5.007   1.883   1.197
 8887SOL    HW227561   5.103   1.768   1.262
 8888SOL     OW27562   2.375   1.932   3.542
 8888SOL    HW127563   2.427   1.847   3.533
 8888SOL    HW227564   2.355   1.968   3.451
 8889SOL     OW27565   0.353   6.495   6.048
 8889SOL    HW127566   0.451   6.479   6.062
 8889SOL    HW227567   0.334   6.501   5.950
 8890SOL     OW27568   0.225   0.025   6.687
 8890SOL    HW127569   0.284   6.988   6.745
 8890SOL    HW227570   0.270   0.042   6.600
 8891SOL     OW27571   6.088   4.597   0.061
 8891SOL    HW127572   6.158   4.668   0.073
 8891SOL    HW227573   6.108   4.545   6.997
 8892SOL     OW27574   3.196   5.282   3.501
 8892SOL    HW127575   3.293   5.295   3.520
 8892SOL    HW227576   3.147   5.268   3.586
 8893SOL     OW27577   1.497   4.981   4.982
 8893SOL    HW127578   1.520   4.893   4.939
 8893SOL    HW227579   1.513   4.975   5.080
 8894SOL     OW27580   4.407   2.013   0.269
 8894SOL    HW127581   4.356   2.076   0.327
 8894SOL    HW227582   4.361   2.004   0.180
 8895SOL     OW27583   0.866   3.976   0.966
 8895SOL    HW127584   0.935   4.040   0.934
 8895SOL    HW227585   0.806   3.950   0.891
 8896SOL     OW27586   0.058   2.225   4.153
 8896SOL    HW127587   0.045   2.146   4.094
 8896SOL    HW227588   6.991   2.276   4.160
 8897SOL     OW27589   2.208   4.014   3.614
 8897SOL    HW127590   2.115   4.010   3.579
 8897SOL    HW227591   2.258   3.932   3.585
 8898SOL     OW27592   4.868   3.735   3.055
 8898SOL    HW127593   4.859   3.636   3.047
 8898SOL    HW227594   4.843   3.778   2.968
 8899SOL     OW27595   6.837   3.854   6.283
 8899SOL    HW127596   6.935   3.875   6.293
 8899SOL    HW227597   6.785   3.939   6.279
 8900SOL     OW27598   5.526   2.770   4.204
 8900SOL    HW127599   5.576   2.696   4.158
 8900SOL    HW227600   5.499   2.739   4.295
 8901SOL     OW27601   1.186   2.325   3.935
 8901SOL    HW127602   1.153   2.314   3.841
 8901SOL    HW227603   1.205   2.422   3.952
 8902SOL     OW27604   1.248   4.350   6.904
 8902SOL    HW127605   1.167   4.391   6.947
 8902SOL    HW227606   1.254   4.254   6.929
 8903SOL     OW27607   1.182   0.872   4.725
 8903SOL    HW127608   1.249   0.898   4.656
 8903SOL    HW227609   1.215   0.898   4.816
 8904SOL     OW27610   0.622   1.291   2.925
 8904SOL    HW127611   0.644   1.194   2.939
 8904SOL    HW227612   0.691   1.333   2.866
 8905SOL     OW27613   1.559   3.514   2.124
 8905SOL    HW127614   1.633   3.447   2.122
 8905SOL    HW227615   1.536   3.541   2.031
 8906SOL     OW27616   0.058   0.099   0.777
 8906SOL    HW127617   0.085   0.170   0.711
 8906SOL    HW227618   7.007   0.135   0.838
 8907SOL     OW27619   3.731   2.870   5.119
 8907SOL    HW127620   3.649   2.921   5.145
 8907SOL    HW227621   3.752   2.888   5.023
 8908SOL     OW27622   1.457   6.155   0.507
 8908SOL    HW127623   1.520   6.095   0.557
 8908SOL    HW227624   1.440   6.116   0.416
 8909SOL     OW27625   2.863   1.089   6.862
 8909SOL    HW127626   2.942   1.129   6.815
 8909SOL    HW227627   2.859   1.124   6.956
 8910SOL     OW27628   1.625   2.233   4.424
 8910SOL    HW127629   1.706   2.291   4.425
 8910SOL    HW227630   1.591   2.225   4.330
 8911SOL     OW27631   4.753   1.943   4.196
 8911SOL    HW127632   4.693   2.018   4.168
 8911SOL    HW227633   4.733   1.917   4.291
 8912SOL     OW27634   3.608   3.885   4.868
 8912SOL    HW127635   3.528   3.931   4.831
 8912SOL    HW227636   3.689   3.913   4.816
 8913SOL     OW27637   4.699   5.632   6.894
 8913SOL    HW127638   4.792   5.667   6.887
 8913SOL    HW227639   4.654   5.641   6.805
 8914SOL     OW27640   5.105   6.548   5.656
 8914SOL    HW127641   5.195   6.528   5.694
 8914SOL    HW227642   5.080   6.478   5.589
 8915SOL     OW27643   0.412   1.403   3.492
 8915SOL    HW127644   0.429   1.351   3.576
 8915SOL    HW227645   0.444   1.350   3.414
 8916SOL     OW27646   5.378   1.868   6.679
 8916SOL    HW127647   5.466   1.837   6.644
 8916SOL    HW227648   5.356   1.818   6.762
 8917SOL     OW27649   5.960   1.602   0.218
 8917SOL    HW127650   5.969   1.697   0.191
 8917SOL    HW227651   6.046   1.554   0.203
 8918SOL     OW27652   1.198   4.836   1.505
 8918SOL    HW127653   1.160   4.926   1.482
 8918SOL    HW227654   1.199   4.825   1.604
 8919SOL     OW27655   5.799   4.086   6.684
 8919SOL    HW127656   5.879   4.130   6.726
 8919SOL    HW227657   5.788   4.120   6.591
 8920SOL     OW27658   0.144   1.222   6.853
 8920SOL    HW127659   0.205   1.151   6.817
 8920SOL    HW227660   0.158   1.307   6.802
 8921SOL     OW27661   1.080   2.570   1.041
 8921SOL    HW127662   1.176   2.579   1.066
 8921SOL    HW227663   1.072   2.518   0.956
 8922SOL     OW27664   3.428   0.654   4.013
 8922SOL    HW127665   3.481   0.577   4.049
 8922SOL    HW227666   3.341   0.620   3.977
 8923SOL     OW27667   1.866   2.168   5.266
 8923SOL    HW127668   1.805   2.094   5.238
 8923SOL    HW227669   1.831   2.211   5.349
 8924SOL     OW27670   5.041   5.283   4.574
 8924SOL    HW127671   4.946   5.261   4.598
 8924SOL    HW227672   5.098   5.203   4.592
 8925SOL     OW27673   0.911   0.750   3.056
 8925SOL    HW127674   0.982   0.683   3.079
 8925SOL    HW227675   0.924   0.832   3.112
 8926SOL     OW27676   6.683   3.484   5.447
 8926SOL    HW127677   6.630   3.437   5.377
 8926SOL    HW227678   6.780   3.468   5.433
 8927SOL     OW27679   7.012   2.191   6.031
 8927SOL    HW127680   0.082   2.146   6.026
 8927SOL    HW227681   6.967   2.169   6.117
 8928SOL     OW27682   2.136   6.712   5.144
 8928SOL    HW127683   2.193   6.768   5.204
 8928SOL    HW227684   2.087   6.770   5.080
 8929SOL     OW27685   0.004   2.531   4.986
 8929SOL    HW127686   6.942   2.532   5.045
 8929SOL    HW227687   0.004   2.449   4.930
 8930SOL     OW27688   1.485   4.549   3.533
 8930SOL    HW127689   1.443   4.491   3.603
 8930SOL    HW227690   1.430   4.548   3.450
 8931SOL     OW27691   3.745   3.294   1.604
 8931SOL    HW127692   3.686   3.373   1.621
 8931SOL    HW227693   3.700   3.211   1.637
 8932SOL     OW27694   6.867   2.383   2.953
 8932SOL    HW127695   6.861   2.380   2.853
 8932SOL    HW227696   6.849   2.292   2.989
 8933SOL     OW27697   3.536   2.151   6.279
 8933SOL    HW127698   3.578   2.240   6.260
 8933SOL    HW227699   3.467   2.130   6.210
 8934SOL     OW27700   3.017   5.675   4.243
 8934SOL    HW127701   3.101   5.701   4.290
 8934SOL    HW227702   2.955   5.754   4.241
 8935SOL     OW27703   6.799   5.171   1.068
 8935SOL    HW127704   6.767   5.076   1.068
 8935SOL    HW227705   6.880   5.180   1.010
 8936SOL     OW27706   2.050   3.044   0.753
 8936SOL    HW127707   2.130   2.988   0.732
 8936SOL    HW227708   1.973   3.016   0.695
 8937SOL     OW27709   6.955   6.193   5.252
 8937SOL    HW127710   6.871   6.228   5.212
 8937SOL    HW227711   0.010   6.257   5.234
 8938SOL     OW27712   6.148   5.135   1.627
 8938SOL    HW127713   6.060   5.089   1.628
 8938SOL    HW227714   6.208   5.093   1.696
 8939SOL     OW27715   5.169   2.103   4.746
 8939SOL    HW127716   5.212   2.128   4.833
 8939SOL    HW227717   5.181   2.178   4.681
 8940SOL     OW27718   6.329   0.682   3.541
 8940SOL    HW127719   6.414   0.686   3.595
 8940SOL    HW227720   6.331   0.752   3.470
 8941SOL     OW27721   5.525   2.134   6.259
 8941SOL    HW127722   5.538   2.130   6.159
 8941SOL    HW227723   5.436   2.093   6.282
 8942SOL     OW27724   0.568   2.402   5.219
 8942SOL    HW127725   0.582   2.446   5.307
 8942SOL    HW227726   0.475   2.366   5.213
 8943SOL     OW27727   4.880   3.317   1.054
 8943SOL    HW127728   4.789   3.320   1.013
 8943SOL    HW227729   4.936   3.391   1.017
 8944SOL     OW27730   4.750   5.939   0.376
 8944SOL    HW127731   4.842   5.921   0.412
 8944SOL    HW227732   4.720   5.861   0.321
 8945SOL     OW27733   2.280   0.678   4.719
 8945SOL    HW127734   2.190   0.668   4.762
 8945SOL    HW227735   2.351   0.645   4.782
 8946SOL     OW27736   3.625   1.843   5.429
 8946SOL    HW127737   3.607   1.751   5.395
 8946SOL    HW227738   3.663   1.900   5.356
 8947SOL     OW27739   3.582   3.577   5.637
 8947SOL    HW127740   3.542   3.533   5.557
 8947SOL    HW227741   3.652   3.642   5.608
 8948SOL     OW27742   5.514   4.713   3.142
 8948SOL    HW127743   5.548   4.710   3.236
 8948SOL    HW227744   5.476   4.803   3.123
 8949SOL     OW27745   1.795   6.646   6.986
 8949SOL    HW127746   1.867   6.645   6.917
 8949SOL    HW227747   1.740   6.728   6.975
 8950SOL     OW27748   5.044   3.021   5.369
 8950SOL    HW127749   4.947   3.001   5.354
 8950SOL    HW227750   5.098   2.938   5.357
 8951SOL     OW27751   1.905   2.948   5.573
 8951SOL    HW127752   1.941   2.855   5.567
 8951SOL    HW227753   1.977   3.013   5.552
 8952SOL     OW27754   1.371   1.541   3.147
 8952SOL    HW127755   1.450   1.598   3.168
 8952SOL    HW227756   1.292   1.574   3.198
 8953SOL     OW27757   1.810   3.228   0.080
 8953SOL    HW127758   1.812   3.281   7.014
 8953SOL    HW227759   1.716   3.214   0.108
 8954SOL     OW27760   1.146   5.931   6.156
 8954SOL    HW127761   1.182   5.973   6.072
 8954SOL    HW227762   1.054   5.896   6.139
 8955SOL     OW27763   0.123   4.650   3.427
 8955SOL    HW127764   0.157   4.556   3.425
 8955SOL    HW227765   0.194   4.713   3.394
 8956SOL     OW27766   0.683   0.854   6.282
 8956SOL    HW127767   0.775   0.832   6.315
 8956SOL    HW227768   0.642   0.773   6.243
 8957SOL     OW27769   2.783   4.805   1.785
 8957SOL    HW127770   2.780   4.726   1.846
 8957SOL    HW227771   2.873   4.848   1.791
 8958SOL     OW27772   1.264   0.168   4.132
 8958SOL    HW127773   1.346   0.223   4.146
 8958SOL    HW227774   1.284   0.072   4.152
 8959SOL     OW27775   1.123   4.684   0.598
 8959SOL    HW127776   1.089   4.765   0.646
 8959SOL    HW227777   1.127   4.703   0.500
 8960SOL     OW27778   4.225   5.684   2.249
 8960SOL    HW127779   4.146   5.744   2.235
 8960SOL    HW227780   4.209   5.597   2.203
 8961SOL     OW27781   1.161   1.631   4.025
 8961SOL    HW127782   1.226   1.601   3.955
 8961SOL    HW227783   1.177   1.727   4.046
 8962SOL     OW27784   5.908   0.456   3.399
 8962SOL    HW127785   5.846   0.508   3.457
 8962SOL    HW227786   5.888   0.358   3.408
 8963SOL     OW27787   5.186   0.289   4.304
 8963SOL    HW127788   5.135   0.323   4.383
 8963SOL    HW227789   5.267   0.346   4.289
 8964SOL     OW27790   4.703   4.557   1.909
 8964SOL    HW127791   4.748   4.644   1.931
 8964SOL    HW227792   4.759   4.481   1.942
 8965SOL     OW27793   1.324   5.253   1.230
 8965SOL    HW127794   1.357   5.333   1.279
 8965SOL    HW227795   1.279   5.190   1.294
 8966SOL     OW27796   1.890   2.579   6.167
 8966SOL    HW127797   1.886   2.620   6.258
 8966SOL    HW227798   1.935   2.641   6.104
 8967SOL     OW27799   3.882   0.079   1.025
 8967SOL    HW127800   3.836   0.115   1.106
 8967SOL    HW227801   3.914   7.005   1.044
 8968SOL     OW27802   5.203   6.143   1.807
 8968SOL    HW127803   5.207   6.107   1.714
 8968SOL    HW227804   5.225   6.070   1.872
 8969SOL     OW27805   5.913   0.737   3.553
 8969SOL    HW127806   5.849   0.672   3.592
 8969SOL    HW227807   5.999   0.734   3.603
 8970SOL     OW27808   3.422   2.459   1.233
 8970SOL    HW127809   3.400   2.554   1.255
 8970SOL    HW227810   3.484   2.456   1.155
 8971SOL     OW27811   3.553   5.793   2.307
 8971SOL    HW127812   3.579   5.698   2.289
 8971SOL    HW227813   3.543   5.807   2.405
 8972SOL     OW27814   5.508   6.298   6.008
 8972SOL    HW127815   5.411   6.310   6.025
 8972SOL    HW227816   5.559   6.317   6.092
 8973SOL     OW27817   1.367   4.894   0.788
 8973SOL    HW127818   1.406   4.923   0.875
 8973SOL    HW227819   1.427   4.922   0.713
 8974SOL     OW27820   1.177   4.205   6.483
 8974SOL    HW127821   1.108   4.133   6.485
 8974SOL    HW227822   1.149   4.277   6.420
 8975SOL     OW27823   2.571   0.288   0.708
 8975SOL    HW127824   2.585   0.260   0.613
 8975SOL    HW227825   2.497   0.235   0.748
 8976SOL     OW27826   1.513   5.130   4.622
 8976SOL    HW127827   1.553   5.198   4.562
 8976SOL    HW227828   1.575   5.052   4.631
 8977SOL     OW27829   5.894   1.367   5.990
 8977SOL    HW127830   5.933   1.351   5.899
 8977SOL    HW227831   5.904   1.285   6.045
 8978SOL     OW27832   5.486   5.886   0.575
 8978SOL    HW127833   5.497   5.959   0.642
 8978SOL    HW227834   5.543   5.905   0.495
 8979SOL     OW27835   1.900   3.730   4.721
 8979SOL    HW127836   1.838   3.741   4.798
 8979SOL    HW227837   1.883   3.643   4.676
 8980SOL     OW27838   3.373   3.527   5.186
 8980SOL    HW127839   3.421   3.551   5.102
 8980SOL    HW227840   3.282   3.569   5.185
 8981SOL     OW27841   3.711   1.559   5.354
 8981SOL    HW127842   3.749   1.524   5.439
 8981SOL    HW227843   3.686   1.483   5.294
 8982SOL     OW27844   2.422   3.382   0.291
 8982SOL    HW127845   2.340   3.359   0.343
 8982SOL    HW227846   2.502   3.372   0.350
 8983SOL     OW27847   3.694   5.826   6.968
 8983SOL    HW127848   3.608   5.835   0.001
 8983SOL    HW227849   3.681   5.761   6.894
 8984SOL     OW27850   2.279   6.083   3.071
 8984SOL    HW127851   2.291   5.993   3.115
 8984SOL    HW227852   2.365   6.110   3.027
 8985SOL     OW27853   3.215   2.433   0.498
 8985SOL    HW127854   3.289   2.369   0.519
 8985SOL    HW227855   3.187   2.421   0.403
 8986SOL     OW27856   3.406   4.986   3.052
 8986SOL    HW127857   3.327   4.941   3.010
 8986SOL    HW227858   3.467   5.021   2.980
 8987SOL     OW27859   5.077   5.948   2.727
 8987SOL    HW127860   5.171   5.978   2.711
 8987SOL    HW227861   5.071   5.850   2.713
 8988SOL     OW27862   0.634   5.917   3.691
 8988SOL    HW127863   0.541   5.923   3.728
 8988SOL    HW227864   0.648   5.990   3.624
 8989SOL     OW27865   5.034   2.950   6.084
 8989SOL    HW127866   5.125   2.950   6.125
 8989SOL    HW227867   5.024   3.031   6.025
 8990SOL     OW27868   1.143   4.982   3.854
 8990SOL    HW127869   1.101   4.938   3.933
 8990SOL    HW227870   1.207   5.053   3.885
 8991SOL     OW27871   1.489   2.574   4.340
 8991SOL    HW127872   1.541   2.505   4.390
 8991SOL    HW227873   1.507   2.664   4.380
 8992SOL     OW27874   5.340   1.623   0.171
 8992SOL    HW127875   5.277   1.676   0.228
 8992SOL    HW227876   5.432   1.628   0.210
 8993SOL     OW27877   3.943   3.234   6.723
 8993SOL    HW127878   4.022   3.195   6.674
 8993SOL    HW227879   3.975   3.298   6.792
 8994SOL     OW27880   1.827   4.658   4.680
 8994SOL    HW127881   1.923   4.633   4.675
 8994SOL    HW227882   1.772   4.576   4.699
 8995SOL     OW27883   6.970   1.497   1.724
 8995SOL    HW127884   7.009   1.569   1.667
 8995SOL    HW227885   0.003   1.489   1.809
 8996SOL     OW27886   5.252   4.345   6.401
 8996SOL    HW127887   5.336   4.399   6.399
 8996SOL    HW227888   5.259   4.277   6.474
 8997SOL     OW27889   4.703   0.775   5.283
 8997SOL    HW127890   4.760   0.796   5.362
 8997SOL    HW227891   4.721   0.682   5.253
 8998SOL     OW27892   6.329   3.903   4.043
 8998SOL    HW127893   6.360   3.812   4.016
 8998SOL    HW227894   6.381   3.935   4.122
 8999SOL     OW27895   4.481   6.789   5.854
 8999SOL    HW127896   4.408   6.747   5.800
 8999SOL    HW227897   4.458   6.783   5.951
 9000SOL     OW27898   1.421   3.781   1.422
 9000SOL    HW127899   1.424   3.881   1.429
 9000SOL    HW227900   1.437   3.754   1.327
 9001SOL     OW27901   0.018   4.703   2.168
 9001SOL    HW127902   0.038   4.797   2.143
 9001SOL    HW227903   0.001   4.648   2.086
 9002SOL     OW27904   1.183   4.830   5.212
 9002SOL    HW127905   1.183   4.920   5.255
 9002SOL    HW227906   1.091   4.791   5.215
 9003SOL     OW27907   5.318   3.108   1.313
 9003SOL    HW127908   5.233   3.069   1.349
 9003SOL    HW227909   5.297   3.162   1.231
 9004SOL     OW27910   4.362   5.047   0.982
 9004SOL    HW127911   4.461   5.061   0.985
 9004SOL    HW227912   4.320   5.094   1.059
 9005SOL     OW27913   5.661   1.091   6.195
 9005SOL    HW127914   5.582   1.148   6.175
 9005SOL    HW227915   5.691   1.107   6.288
 9006SOL     OW27916   3.063   6.592   0.957
 9006SOL    HW127917   3.083   6.678   0.910
 9006SOL    HW227918   3.086   6.515   0.897
 9007SOL     OW27919   2.264   1.303   2.308
 9007SOL    HW127920   2.262   1.317   2.407
 9007SOL    HW227921   2.243   1.207   2.289
 9008SOL     OW27922   0.349   5.049   2.874
 9008SOL    HW127923   0.275   5.062   2.940
 9008SOL    HW227924   0.414   5.124   2.883
 9009SOL     OW27925   3.520   5.042   0.885
 9009SOL    HW127926   3.516   5.103   0.806
 9009SOL    HW227927   3.615   5.016   0.902
 9010SOL     OW27928   1.970   6.712   4.268
 9010SOL    HW127929   1.953   6.811   4.269
 9010SOL    HW227930   1.900   6.666   4.324
 9011SOL     OW27931   3.942   1.078   1.828
 9011SOL    HW127932   3.888   1.113   1.752
 9011SOL    HW227933   3.898   0.997   1.866
 9012SOL     OW27934   2.339   5.634   0.457
 9012SOL    HW127935   2.365   5.551   0.407
 9012SOL    HW227936   2.376   5.630   0.550
 9013SOL     OW27937   1.273   0.334   4.716
 9013SOL    HW127938   1.202   0.385   4.667
 9013SOL    HW227939   1.357   0.334   4.663
 9014SOL     OW27940   6.024   2.954   1.747
 9014SOL    HW127941   5.944   2.988   1.696
 9014SOL    HW227942   6.022   2.990   1.840
 9015SOL     OW27943   4.989   2.577   1.065
 9015SOL    HW127944   5.065   2.514   1.046
 9015SOL    HW227945   4.940   2.597   0.980
 9016SOL     OW27946   5.613   5.152   6.427
 9016SOL    HW127947   5.702   5.196   6.434
 9016SOL    HW227948   5.618   5.074   6.365
 9017SOL     OW27949   3.685   1.333   5.187
 9017SOL    HW127950   3.597   1.302   5.152
 9017SOL    HW227951   3.747   1.255   5.197
 9018SOL     OW27952   3.771   3.344   6.546
 9018SOL    HW127953   3.683   3.382   6.572
 9018SOL    HW227954   3.813   3.299   6.625
 9019SOL     OW27955   1.106   4.217   2.736
 9019SOL    HW127956   1.103   4.136   2.794
 9019SOL    HW227957   1.061   4.197   2.649
 9020SOL     OW27958   6.618   4.603   1.280
 9020SOL    HW127959   6.543   4.660   1.313
 9020SOL    HW227960   6.664   4.560   1.358
 9021SOL     OW27961   0.220   0.359   3.978
 9021SOL    HW127962   0.124   0.331   3.978
 9021SOL    HW227963   0.264   0.325   4.060
 9022SOL     OW27964   3.476   2.127   0.142
 9022SOL    HW127965   3.428   2.215   0.129
 9022SOL    HW227966   3.545   2.117   0.071
 9023SOL     OW27967   4.297   3.202   1.483
 9023SOL    HW127968   4.373   3.242   1.432
 9023SOL    HW227969   4.214   3.255   1.466
 9024SOL     OW27970   1.018   4.332   5.487
 9024SOL    HW127971   1.037   4.409   5.548
 9024SOL    HW227972   0.944   4.357   5.424
 9025SOL     OW27973   0.370   5.280   1.064
 9025SOL    HW127974   0.313   5.240   0.992
 9025SOL    HW227975   0.320   5.278   1.151
 9026SOL     OW27976   3.413   1.506   0.737
 9026SOL    HW127977   3.397   1.560   0.820
 9026SOL    HW227978   3.511   1.489   0.727
 9027SOL     OW27979   1.291   3.866   3.822
 9027SOL    HW127980   1.265   3.918   3.903
 9027SOL    HW227981   1.344   3.786   3.849
 9028SOL     OW27982   3.688   3.014   5.396
 9028SOL    HW127983   3.592   2.997   5.372
 9028SOL    HW227984   3.747   2.977   5.325
 9029SOL     OW27985   4.237   0.697   4.915
 9029SOL    HW127986   4.306   0.686   4.843
 9029SOL    HW227987   4.282   0.717   5.002
 9030SOL     OW27988   2.099   2.647   3.975
 9030SOL    HW127989   2.166   2.717   3.998
 9030SOL    HW227990   2.007   2.683   3.991
 9031SOL     OW27991   4.157   0.439   4.614
 9031SOL    HW127992   4.147   0.379   4.693
 9031SOL    HW227993   4.175   0.384   4.533
 9032SOL     OW27994   4.648   4.166   1.191
 9032SOL    HW127995   4.610   4.075   1.209
 9032SOL    HW227996   4.581   4.236   1.217
 9033SOL     OW27997   0.649   4.576   2.571
 9033SOL    HW127998   0.605   4.507   2.628
 9033SOL    HW227999   0.727   4.536   2.523
 9034SOL     OW28000   3.565   6.142   5.060
 9034SOL    HW128001   3.575   6.089   5.144
 9034SOL    HW228002   3.503   6.095   4.997
 9035SOL     OW28003   1.721   6.296   0.105
 9035SOL    HW128004   1.682   6.277   0.015
 9035SOL    HW228005   1.808   6.343   0.094
 9036SOL     OW28006   1.633   3.850   5.467
 9036SOL    HW128007   1.631   3.764   5.519
 9036SOL    HW228008   1.549   3.858   5.414
 9037SOL     OW28009   1.226   2.791   4.548
 9037SOL    HW128010   1.248   2.697   4.573
 9037SOL    HW228011   1.199   2.795   4.452
 9038SOL     OW28012   4.690   3.141   6.531
 9038SOL    HW128013   4.627   3.071   6.566
 9038SOL    HW228014   4.665   3.164   6.436
 9039SOL     OW28015   3.183   4.474   6.848
 9039SOL    HW128016   3.221   4.506   6.935
 9039SOL    HW228017   3.186   4.374   6.845
 9040SOL     OW28018   2.769   2.284   2.269
 9040SOL    HW128019   2.811   2.306   2.182
 9040SOL    HW228020   2.671   2.305   2.265
 9041SOL     OW28021   0.888   2.425   1.169
 9041SOL    HW128022   0.960   2.495   1.162
 9041SOL    HW228023   0.906   2.368   1.249
 9042SOL     OW28024   3.933   6.089   5.201
 9042SOL    HW128025   3.885   6.115   5.285
 9042SOL    HW228026   3.889   6.133   5.122
 9043SOL     OW28027   2.229   1.467   6.778
 9043SOL    HW128028   2.207   1.386   6.832
 9043SOL    HW228029   2.306   1.515   6.821
 9044SOL     OW28030   0.540   0.521   6.883
 9044SOL    HW128031   0.479   0.457   6.836
 9044SOL    HW228032   0.602   0.563   6.817
 9045SOL     OW28033   3.974   0.581   3.749
 9045SOL    HW128034   3.974   0.661   3.810
 9045SOL    HW228035   3.985   0.611   3.655
 9046SOL     OW28036   4.123   3.277   2.582
 9046SOL    HW128037   4.120   3.297   2.680
 9046SOL    HW228038   4.052   3.210   2.559
 9047SOL     OW28039   1.394   3.901   5.274
 9047SOL    HW128040   1.419   3.985   5.324
 9047SOL    HW228041   1.362   3.925   5.183
 9048SOL     OW28042   6.182   2.172   6.362
 9048SOL    HW128043   6.173   2.248   6.297
 9048SOL    HW228044   6.211   2.208   6.451
 9049SOL     OW28045   3.632   6.276   5.868
 9049SOL    HW128046   3.698   6.285   5.943
 9049SOL    HW228047   3.540   6.272   5.906
 9050SOL     OW28048   0.610   4.359   1.630
 9050SOL    HW128049   0.700   4.315   1.624
 9050SOL    HW228050   0.540   4.295   1.599
 9051SOL     OW28051   2.757   0.828   1.448
 9051SOL    HW128052   2.830   0.763   1.427
 9051SOL    HW228053   2.798   0.915   1.478
 9052SOL     OW28054   1.702   3.093   3.940
 9052SOL    HW128055   1.755   3.106   3.856
 9052SOL    HW228056   1.685   3.182   3.983
 9053SOL     OW28057   2.560   1.042   1.007
 9053SOL    HW128058   2.652   1.033   0.968
 9053SOL    HW228059   2.555   1.124   1.064
 9054SOL     OW28060   2.204   5.556   4.179
 9054SOL    HW128061   2.138   5.514   4.116
 9054SOL    HW228062   2.286   5.582   4.129
 9055SOL     OW28063   6.452   4.585   4.866
 9055SOL    HW128064   6.526   4.586   4.799
 9055SOL    HW228065   6.481   4.632   4.950
 9056SOL     OW28066   6.459   2.331   2.573
 9056SOL    HW128067   6.512   2.251   2.599
 9056SOL    HW228068   6.411   2.314   2.487
 9057SOL     OW28069   4.936   1.768   4.501
 9057SOL    HW128070   4.841   1.800   4.508
 9057SOL    HW228071   4.949   1.688   4.559
 9058SOL     OW28072   1.544   0.551   6.590
 9058SOL    HW128073   1.455   0.560   6.635
 9058SOL    HW228074   1.614   0.592   6.648
 9059SOL     OW28075   1.469   2.693   2.258
 9059SOL    HW128076   1.505   2.768   2.314
 9059SOL    HW228077   1.529   2.614   2.265
 9060SOL     OW28078   5.309   3.107   4.779
 9060SOL    HW128079   5.317   3.084   4.877
 9060SOL    HW228080   5.325   3.025   4.725
 9061SOL     OW28081   4.397   5.537   2.412
 9061SOL    HW128082   4.342   5.614   2.379
 9061SOL    HW228083   4.494   5.558   2.399
 9062SOL     OW28084   1.201   5.392   1.549
 9062SOL    HW128085   1.136   5.464   1.528
 9062SOL    HW228086   1.286   5.407   1.499
 9063SOL     OW28087   2.883   1.521   3.920
 9063SOL    HW128088   2.899   1.425   3.942
 9063SOL    HW228089   2.785   1.540   3.916
 9064SOL     OW28090   6.735   3.583   0.097
 9064SOL    HW128091   6.803   3.607   0.028
 9064SOL    HW228092   6.713   3.485   0.088
 9065SOL     OW28093   3.342   0.611   0.523
 9065SOL    HW128094   3.397   0.597   0.441
 9065SOL    HW228095   3.249   0.636   0.498
 9066SOL     OW28096   5.599   6.879   0.082
 9066SOL    HW128097   5.688   6.850   0.047
 9066SOL    HW228098   5.581   6.834   0.170
 9067SOL     OW28099   1.928   6.822   3.389
 9067SOL    HW128100   1.941   6.862   3.299
 9067SOL    HW228101   1.968   6.881   3.458
 9068SOL     OW28102   1.362   6.203   5.493
 9068SOL    HW128103   1.413   6.139   5.436
 9068SOL    HW228104   1.266   6.177   5.496
 9069SOL     OW28105   1.744   2.668   6.395
 9069SOL    HW128106   1.693   2.588   6.427
 9069SOL    HW228107   1.681   2.742   6.373
 9070SOL     OW28108   1.823   3.981   4.395
 9070SOL    HW128109   1.870   3.954   4.479
 9070SOL    HW228110   1.878   3.954   4.316
 9071SOL     OW28111   6.185   6.455   0.439
 9071SOL    HW128112   6.097   6.409   0.431
 9071SOL    HW228113   6.258   6.387   0.433
 9072SOL     OW28114   6.778   3.627   0.608
 9072SOL    HW128115   6.731   3.651   0.524
 9072SOL    HW228116   6.832   3.705   0.640
 9073SOL     OW28117   2.260   1.071   1.694
 9073SOL    HW128118   2.216   1.138   1.755
 9073SOL    HW228119   2.306   1.002   1.750
 9074SOL     OW28120   1.566   6.730   2.607
 9074SOL    HW128121   1.640   6.663   2.605
 9074SOL    HW228122   1.478   6.683   2.602
 9075SOL     OW28123   6.647   0.848   1.932
 9075SOL    HW128124   6.547   0.853   1.928
 9075SOL    HW228125   6.680   0.787   1.859
 9076SOL     OW28126   6.944   1.355   5.554
 9076SOL    HW128127   6.911   1.346   5.460
 9076SOL    HW228128   6.959   1.264   5.593
 9077SOL     OW28129   4.905   6.653   2.524
 9077SOL    HW128130   4.861   6.578   2.573
 9077SOL    HW228131   4.837   6.723   2.503
 9078SOL     OW28132   3.758   3.247   4.902
 9078SOL    HW128133   3.828   3.206   4.960
 9078SOL    HW228134   3.712   3.321   4.952
 9079SOL     OW28135   3.578   6.509   4.209
 9079SOL    HW128136   3.668   6.487   4.171
 9079SOL    HW228137   3.510   6.507   4.136
 9080SOL     OW28138   5.535   2.660   0.023
 9080SOL    HW128139   5.535   2.748   6.994
 9080SOL    HW228140   5.621   2.651   0.073
 9081SOL     OW28141   5.375   6.287   2.502
 9081SOL    HW128142   5.435   6.366   2.513
 9081SOL    HW228143   5.401   6.237   2.420
 9082SOL     OW28144   2.352   0.732   3.854
 9082SOL    HW128145   2.345   0.656   3.919
 9082SOL    HW228146   2.403   0.807   3.896
 9083SOL     OW28147   4.723   4.482   5.130
 9083SOL    HW128148   4.788   4.495   5.055
 9083SOL    HW228149   4.766   4.429   5.203
 9084SOL     OW28150   3.191   3.480   2.985
 9084SOL    HW128151   3.153   3.573   2.989
 9084SOL    HW228152   3.235   3.466   2.896
 9085SOL     OW28153   2.291   1.901   1.514
 9085SOL    HW128154   2.380   1.932   1.547
 9085SOL    HW228155   2.304   1.830   1.444
 9086SOL     OW28156   0.483   4.093   1.099
 9086SOL    HW128157   0.579   4.102   1.127
 9086SOL    HW228158   0.455   4.175   1.050
 9087SOL     OW28159   4.898   3.815   2.186
 9087SOL    HW128160   4.881   3.716   2.191
 9087SOL    HW228161   4.907   3.842   2.091
 9088SOL     OW28162   6.750   0.763   6.432
 9088SOL    HW128163   6.737   0.747   6.335
 9088SOL    HW228164   6.730   0.679   6.483
 9089SOL     OW28165   4.641   0.001   5.923
 9089SOL    HW128166   4.731   6.993   5.887
 9089SOL    HW228167   4.572   6.957   5.890
 9090SOL     OW28168   5.504   0.246   4.906
 9090SOL    HW128169   5.519   0.341   4.878
 9090SOL    HW228170   5.593   0.203   4.922
 9091SOL     OW28171   3.375   3.870   0.080
 9091SOL    HW128172   3.424   3.795   0.124
 9091SOL    HW228173   3.277   3.850   0.079
 9092SOL     OW28174   0.030   2.093   0.143
 9092SOL    HW128175   7.016   2.157   0.212
 9092SOL    HW228176   6.980   2.023   0.125
 9093SOL     OW28177   1.431   6.933   5.310
 9093SOL    HW128178   1.515   6.881   5.326
 9093SOL    HW228179   1.432   6.969   5.217
 9094SOL     OW28180   0.515   3.452   2.034
 9094SOL    HW128181   0.588   3.413   2.089
 9094SOL    HW228182   0.427   3.412   2.061
 9095SOL     OW28183   5.356   5.859   5.372
 9095SOL    HW128184   5.360   5.766   5.335
 9095SOL    HW228185   5.428   5.871   5.440
 9096SOL     OW28186   6.521   5.302   2.763
 9096SOL    HW128187   6.490   5.329   2.854
 9096SOL    HW228188   6.442   5.269   2.710
 9097SOL     OW28189   0.594   3.354   5.659
 9097SOL    HW128190   0.608   3.268   5.610
 9097SOL    HW228191   0.567   3.335   5.754
 9098SOL     OW28192   1.988   2.834   4.549
 9098SOL    HW128193   1.962   2.845   4.645
 9098SOL    HW228194   2.018   2.923   4.513
 9099SOL     OW28195   2.415   3.446   6.720
 9099SOL    HW128196   2.490   3.509   6.742
 9099SOL    HW228197   2.354   3.439   6.799
 9100SOL     OW28198   1.232   4.586   2.427
 9100SOL    HW128199   1.133   4.582   2.441
 9100SOL    HW228200   1.274   4.507   2.471
 9101SOL     OW28201   2.083   1.453   1.636
 9101SOL    HW128202   1.983   1.446   1.639
 9101SOL    HW228203   2.112   1.469   1.541
 9102SOL     OW28204   3.901   5.905   2.543
 9102SOL    HW128205   3.965   5.907   2.466
 9102SOL    HW228206   3.817   5.953   2.517
 9103SOL     OW28207   6.431   1.824   0.639
 9103SOL    HW128208   6.395   1.774   0.718
 9103SOL    HW228209   6.401   1.780   0.554
 9104SOL     OW28210   6.560   0.751   0.008
 9104SOL    HW128211   6.638   0.786   6.975
 9104SOL    HW228212   6.583   0.661   0.046
 9105SOL     OW28213   1.986   0.012   6.324
 9105SOL    HW128214   2.036   0.041   6.406
 9105SOL    HW228215   1.925   0.086   6.295
 9106SOL     OW28216   1.053   5.045   6.666
 9106SOL    HW128217   1.037   4.946   6.672
 9106SOL    HW228218   1.124   5.071   6.731
 9107SOL     OW28219   2.429   1.029   0.535
 9107SOL    HW128220   2.460   1.026   0.440
 9107SOL    HW228221   2.506   1.056   0.594
 9108SOL     OW28222   5.457   5.545   6.095
 9108SOL    HW128223   5.452   5.445   6.097
 9108SOL    HW228224   5.553   5.573   6.089
 9109SOL     OW28225   5.304   2.734   2.480
 9109SOL    HW128226   5.294   2.803   2.552
 9109SOL    HW228227   5.301   2.779   2.391
 9110SOL     OW28228   1.423   5.519   4.887
 9110SOL    HW128229   1.411   5.438   4.829
 9110SOL    HW228230   1.365   5.593   4.853
 9111SOL     OW28231   4.391   2.952   5.342
 9111SOL    HW128232   4.457   2.934   5.414
 9111SOL    HW228233   4.368   3.049   5.342
 9112SOL     OW28234   2.081   5.257   2.029
 9112SOL    HW128235   2.152   5.198   2.066
 9112SOL    HW228236   2.103   5.352   2.049
 9113SOL     OW28237   4.736   1.979   3.470
 9113SOL    HW128238   4.709   1.889   3.434
 9113SOL    HW228239   4.828   1.972   3.510
 9114SOL     OW28240   1.635   6.061   4.517
 9114SOL    HW128241   1.559   6.054   4.581
 9114SOL    HW228242   1.713   6.105   4.561
 9115SOL     OW28243   5.746   4.366   4.128
 9115SOL    HW128244   5.719   4.450   4.175
 9115SOL    HW228245   5.673   4.337   4.066
 9116SOL     OW28246   0.800   6.766   3.632
 9116SOL    HW128247   0.834   6.682   3.590
 9116SOL    HW228248   0.877   6.821   3.664
 9117SOL     OW28249   3.915   0.815   0.068
 9117SOL    HW128250   3.857   0.738   0.096
 9117SOL    HW228251   3.950   0.798   6.995
 9118SOL     OW28252   6.035   3.894   1.008
 9118SOL    HW128253   5.957   3.955   1.018
 9118SOL    HW228254   6.120   3.943   1.027
 9119SOL     OW28255   3.713   0.364   0.678
 9119SOL    HW128256   3.765   0.449   0.675
 9119SOL    HW228257   3.691   0.341   0.773
 9120SOL     OW28258   5.651   2.934   5.340
 9120SOL    HW128259   5.578   2.996   5.308
 9120SOL    HW228260   5.627   2.840   5.317
 9121SOL     OW28261   3.202   0.363   5.389
 9121SOL    HW128262   3.132   0.415   5.341
 9121SOL    HW228263   3.162   0.282   5.431
 9122SOL     OW28264   2.324   4.206   2.283
 9122SOL    HW128265   2.349   4.301   2.299
 9122SOL    HW228266   2.406   4.149   2.287
 9123SOL     OW28267   0.706   1.211   3.904
 9123SOL    HW128268   0.672   1.305   3.902
 9123SOL    HW228269   0.787   1.205   3.962
 9124SOL     OW28270   2.953   5.823   1.364
 9124SOL    HW128271   2.964   5.886   1.441
 9124SOL    HW228272   2.939   5.730   1.399
 9125SOL     OW28273   4.772   6.791   0.419
 9125SOL    HW128274   4.681   6.760   0.391
 9125SOL    HW228275   4.773   6.808   0.518
 9126SOL     OW28276   3.830   4.565   0.098
 9126SOL    HW128277   3.846   4.484   0.155
 9126SOL    HW228278   3.908   4.578   0.036
 9127SOL     OW28279   0.006   4.019   5.761
 9127SOL    HW128280   0.010   3.978   5.852
 9127SOL    HW228281   0.067   3.969   5.699
 9128SOL     OW28282   5.764   3.467   5.567
 9128SOL    HW128283   5.737   3.559   5.540
 9128SOL    HW228284   5.863   3.458   5.559
 9129SOL     OW28285   1.539   1.762   0.536
 9129SOL    HW128286   1.559   1.809   0.450
 9129SOL    HW228287   1.621   1.714   0.567
 9130SOL     OW28288   2.582   3.885   5.266
 9130SOL    HW128289   2.511   3.937   5.220
 9130SOL    HW228290   2.581   3.907   5.364
 9131SOL     OW28291   5.720   2.744   1.091
 9131SOL    HW128292   5.748   2.682   1.164
 9131SOL    HW228293   5.622   2.733   1.074
 9132SOL     OW28294   0.458   4.436   3.670
 9132SOL    HW128295   0.518   4.492   3.726
 9132SOL    HW228296   0.491   4.341   3.671
 9133SOL     OW28297   5.000   0.888   0.817
 9133SOL    HW128298   5.019   0.792   0.835
 9133SOL    HW228299   5.035   0.944   0.893
 9134SOL     OW28300   4.445   5.346   0.879
 9134SOL    HW128301   4.513   5.351   0.953
 9134SOL    HW228302   4.369   5.408   0.901
 9135SOL     OW28303   0.386   6.934   2.843
 9135SOL    HW128304   0.305   6.881   2.820
 9135SOL    HW228305   0.396   6.937   2.943
 9136SOL     OW28306   6.173   4.758   6.756
 9136SOL    HW128307   6.174   4.786   6.660
 9136SOL    HW228308   6.262   4.720   6.781
 9137SOL     OW28309   5.384   6.122   6.297
 9137SOL    HW128310   5.362   6.156   6.388
 9137SOL    HW228311   5.458   6.177   6.257
 9138SOL     OW28312   3.239   3.103   1.215
 9138SOL    HW128313   3.216   3.096   1.118
 9138SOL    HW228314   3.338   3.111   1.226
 9139SOL     OW28315   6.739   0.224   1.164
 9139SOL    HW128316   6.761   0.301   1.224
 9139SOL    HW228317   6.668   0.168   1.206
 9140SOL     OW28318   0.976   4.381   2.922
 9140SOL    HW128319   0.991   4.288   2.888
 9140SOL    HW228320   1.061   4.433   2.918
 9141SOL     OW28321   6.644   6.027   5.316
 9141SOL    HW128322   6.574   5.956   5.315
 9141SOL    HW228323   6.718   6.000   5.378
 9142SOL     OW28324   1.310   4.209   3.480
 9142SOL    HW128325   1.275   4.278   3.417
 9142SOL    HW228326   1.394   4.168   3.443
 9143SOL     OW28327   6.179   3.381   2.506
 9143SOL    HW128328   6.114   3.452   2.479
 9143SOL    HW228329   6.228   3.410   2.589
 9144SOL     OW28330   2.556   4.395   5.447
 9144SOL    HW128331   2.521   4.339   5.372
 9144SOL    HW228332   2.653   4.376   5.459
 9145SOL     OW28333   1.316   6.416   5.830
 9145SOL    HW128334   1.279   6.400   5.922
 9145SOL    HW228335   1.251   6.382   5.762
 9146SOL     OW28336   6.312   3.164   3.166
 9146SOL    HW128337   6.245   3.209   3.107
 9146SOL    HW228338   6.315   3.066   3.145
 9147SOL     OW28339   4.409   0.169   4.213
 9147SOL    HW128340   4.470   0.147   4.136
 9147SOL    HW228341   4.326   0.212   4.178
 9148SOL     OW28342   6.150   6.439   1.582
 9148SOL    HW128343   6.218   6.476   1.518
 9148SOL    HW228344   6.134   6.342   1.561
 9149SOL     OW28345   0.291   3.724   1.785
 9149SOL    HW128346   0.253   3.774   1.708
 9149SOL    HW228347   0.345   3.786   1.843
 9150SOL     OW28348   2.777   2.456   1.076
 9150SOL    HW128349   2.739   2.548   1.066
 9150SOL    HW228350   2.854   2.458   1.140
 9151SOL     OW28351   1.795   3.330   3.502
 9151SOL    HW128352   1.807   3.280   3.417
 9151SOL    HW228353   1.759   3.421   3.483
 9152SOL     OW28354   2.231   4.905   3.267
 9152SOL    HW128355   2.311   4.845   3.272
 9152SOL    HW228356   2.158   4.861   3.215
 9153SOL     OW28357   6.377   3.589   0.238
 9153SOL    HW128358   6.375   3.500   0.194
 9153SOL    HW228359   6.289   3.605   0.284
 9154SOL     OW28360   5.861   4.404   2.674
 9154SOL    HW128361   5.954   4.439   2.683
 9154SOL    HW228362   5.798   4.480   2.659
 9155SOL     OW28363   1.119   6.797   2.789
 9155SOL    HW128364   1.148   6.858   2.716
 9155SOL    HW228365   1.027   6.763   2.769
 9156SOL     OW28366   0.209   3.996   0.384
 9156SOL    HW128367   0.279   3.930   0.413
 9156SOL    HW228368   0.118   3.958   0.402
 9157SOL     OW28369   2.139   5.377   6.016
 9157SOL    HW128370   2.191   5.297   6.046
 9157SOL    HW228371   2.045   5.371   6.050
 9158SOL     OW28372   6.680   3.418   5.001
 9158SOL    HW128373   6.706   3.411   4.904
 9158SOL    HW228374   6.595   3.469   5.009
 9159SOL     OW28375   3.782   1.213   3.700
 9159SOL    HW128376   3.698   1.190   3.651
 9159SOL    HW228377   3.763   1.285   3.767
 9160SOL     OW28378   6.851   4.478   0.964
 9160SOL    HW128379   6.892   4.388   0.982
 9160SOL    HW228380   6.761   4.482   1.007
 9161SOL     OW28381   6.637   4.323   1.465
 9161SOL    HW128382   6.711   4.294   1.525
 9161SOL    HW228383   6.564   4.365   1.519
 9162SOL     OW28384   4.130   1.918   1.671
 9162SOL    HW128385   4.184   1.845   1.630
 9162SOL    HW228386   4.168   1.942   1.761
 9163SOL     OW28387   1.707   2.445   3.351
 9163SOL    HW128388   1.722   2.395   3.265
 9163SOL    HW228389   1.610   2.446   3.373
 9164SOL     OW28390   2.620   0.454   0.310
 9164SOL    HW128391   2.707   0.472   0.265
 9164SOL    HW228392   2.598   0.531   0.371
 9165SOL     OW28393   5.120   1.370   6.250
 9165SOL    HW128394   5.107   1.468   6.263
 9165SOL    HW228395   5.187   1.355   6.177
 9166SOL     OW28396   5.529   5.914   1.872
 9166SOL    HW128397   5.564   5.989   1.815
 9166SOL    HW228398   5.594   5.838   1.869
 9167SOL     OW28399   1.669   1.382   5.008
 9167SOL    HW128400   1.756   1.420   5.037
 9167SOL    HW228401   1.685   1.309   4.941
 9168SOL     OW28402   6.685   5.961   4.122
 9168SOL    HW128403   6.716   5.872   4.155
 9168SOL    HW228404   6.635   6.009   4.194
 9169SOL     OW28405   6.448   5.699   0.964
 9169SOL    HW128406   6.471   5.725   0.871
 9169SOL    HW228407   6.532   5.697   1.020
 9170SOL     OW28408   1.804   1.279   6.123
 9170SOL    HW128409   1.754   1.366   6.112
 9170SOL    HW228410   1.744   1.203   6.098
 9171SOL     OW28411   3.307   4.553   0.071
 9171SOL    HW128412   3.282   4.650   0.074
 9171SOL    HW228413   3.407   4.545   0.062
 9172SOL     OW28414   4.473   1.281   4.274
 9172SOL    HW128415   4.548   1.219   4.294
 9172SOL    HW228416   4.508   1.364   4.230
 9173SOL     OW28417   5.534   2.792   4.904
 9173SOL    HW128418   5.518   2.773   4.808
 9173SOL    HW228419   5.577   2.712   4.947
 9174SOL     OW28420   0.309   4.658   0.339
 9174SOL    HW128421   0.383   4.725   0.341
 9174SOL    HW228422   0.318   4.602   0.257
 9175SOL     OW28423   1.976   6.787   6.543
 9175SOL    HW128424   1.927   6.753   6.462
 9175SOL    HW228425   2.073   6.768   6.533
 9176SOL     OW28426   1.824   1.448   2.445
 9176SOL    HW128427   1.784   1.520   2.502
 9176SOL    HW228428   1.912   1.478   2.409
 9177SOL     OW28429   0.606   4.213   3.821
 9177SOL    HW128430   0.593   4.257   3.910
 9177SOL    HW228431   0.662   4.131   3.832
 9178SOL     OW28432   2.086   5.925   0.506
 9178SOL    HW128433   2.134   5.926   0.593
 9178SOL    HW228434   2.116   5.847   0.452
 9179SOL     OW28435   3.354   5.375   4.707
 9179SOL    HW128436   3.339   5.276   4.712
 9179SOL    HW228437   3.309   5.419   4.785
 9180SOL     OW28438   6.960   0.925   4.862
 9180SOL    HW128439   6.965   0.858   4.936
 9180SOL    HW228440   6.935   0.879   4.777
 9181SOL     OW28441   3.353   2.084   3.922
 9181SOL    HW128442   3.272   2.087   3.980
 9181SOL    HW228443   3.392   1.992   3.924
 9182SOL     OW28444   1.299   1.194   2.789
 9182SOL    HW128445   1.274   1.097   2.784
 9182SOL    HW228446   1.398   1.203   2.798
 9183SOL     OW28447   0.207   2.440   5.997
 9183SOL    HW128448   0.160   2.428   6.085
 9183SOL    HW228449   0.304   2.458   6.013
 9184SOL     OW28450   3.166   3.189   0.386
 9184SOL    HW128451   3.212   3.241   0.458
 9184SOL    HW228452   3.098   3.128   0.427
 9185SOL     OW28453   1.236   0.829   6.722
 9185SOL    HW128454   1.215   0.925   6.703
 9185SOL    HW228455   1.331   0.821   6.752
 9186SOL     OW28456   5.788   0.873   6.457
 9186SOL    HW128457   5.753   0.821   6.379
 9186SOL    HW228458   5.714   0.929   6.495
 9187SOL     OW28459   5.101   2.148   0.529
 9187SOL    HW128460   5.181   2.201   0.558
 9187SOL    HW228461   5.109   2.125   0.432
 9188SOL     OW28462   1.483   0.094   1.781
 9188SOL    HW128463   1.566   0.078   1.834
 9188SOL    HW228464   1.430   0.010   1.777
 9189SOL     OW28465   4.018   1.222   4.656
 9189SOL    HW128466   3.931   1.218   4.705
 9189SOL    HW228467   4.067   1.136   4.668
 9190SOL     OW28468   6.278   2.602   5.709
 9190SOL    HW128469   6.352   2.603   5.776
 9190SOL    HW228470   6.235   2.511   5.709
 9191SOL     OW28471   5.518   6.269   0.533
 9191SOL    HW128472   5.497   6.366   0.516
 9191SOL    HW228473   5.577   6.235   0.460
 9192SOL     OW28474   5.699   5.038   4.577
 9192SOL    HW128475   5.654   5.124   4.549
 9192SOL    HW228476   5.644   4.993   4.647
 9193SOL     OW28477   3.836   3.319   3.874
 9193SOL    HW128478   3.838   3.297   3.776
 9193SOL    HW228479   3.756   3.375   3.894
 9194SOL     OW28480   3.191   5.947   2.456
 9194SOL    HW128481   3.264   5.908   2.399
 9194SOL    HW228482   3.172   5.885   2.532
 9195SOL     OW28483   6.415   3.670   2.979
 9195SOL    HW128484   6.485   3.676   2.907
 9195SOL    HW228485   6.460   3.673   3.069
 9196SOL     OW28486   4.610   0.066   3.583
 9196SOL    HW128487   4.646   0.144   3.635
 9196SOL    HW228488   4.575   0.098   3.495
 9197SOL     OW28489   3.475   3.238   6.442
 9197SOL    HW128490   3.491   3.221   6.344
 9197SOL    HW228491   3.450   3.334   6.455
 9198SOL     OW28492   5.218   2.792   5.322
 9198SOL    HW128493   5.276   2.843   5.385
 9198SOL    HW228494   5.225   2.694   5.342
 9199SOL     OW28495   1.186   3.799   6.677
 9199SOL    HW128496   1.279   3.830   6.662
 9199SOL    HW228497   1.172   3.781   6.775
 9200SOL     OW28498   6.048   0.074   0.209
 9200SOL    HW128499   6.126   0.041   0.155
 9200SOL    HW228500   5.971   0.093   0.148
 9201SOL     OW28501   1.654   4.264   3.213
 9201SOL    HW128502   1.648   4.257   3.312
 9201SOL    HW228503   1.746   4.293   3.187
 9202SOL     OW28504   3.193   5.229   4.321
 9202SOL    HW128505   3.154   5.298   4.259
 9202SOL    HW228506   3.288   5.252   4.340
 9203SOL     OW28507   4.811   0.763   6.159
 9203SOL    HW128508   4.824   0.689   6.225
 9203SOL    HW228509   4.780   0.845   6.207
 9204SOL     OW28510   4.656   4.474   2.237
 9204SOL    HW128511   4.579   4.537   2.247
 9204SOL    HW228512   4.646   4.421   2.153
 9205SOL     OW28513   4.858   3.286   2.865
 9205SOL    HW128514   4.923   3.362   2.871
 9205SOL    HW228515   4.829   3.275   2.770
 9206SOL     OW28516   0.602   6.952   3.582
 9206SOL    HW128517   0.538   6.932   3.656
 9206SOL    HW228518   0.676   6.885   3.583
 9207SOL     OW28519   4.183   6.830   0.049
 9207SOL    HW128520   4.101   6.781   0.077
 9207SOL    HW228521   4.181   6.923   0.086
 9208SOL     OW28522   4.886   4.639   2.639
 9208SOL    HW128523   4.935   4.634   2.726
 9208SOL    HW228524   4.933   4.703   2.578
 9209SOL     OW28525   3.823   1.154   2.739
 9209SOL    HW128526   3.901   1.105   2.700
 9209SOL    HW228527   3.738   1.114   2.704
 9210SOL     OW28528   1.062   0.121   1.436
 9210SOL    HW128529   1.123   0.077   1.370
 9210SOL    HW228530   0.970   0.083   1.427
 9211SOL     OW28531   4.962   1.118   6.411
 9211SOL    HW128532   4.958   1.100   6.312
 9211SOL    HW228533   5.044   1.172   6.431
 9212SOL     OW28534   5.919   3.917   4.852
 9212SOL    HW128535   5.906   3.991   4.786
 9212SOL    HW228536   5.832   3.868   4.864
 9213SOL     OW28537   6.396   0.028   2.648
 9213SOL    HW128538   6.367   0.112   2.600
 9213SOL    HW228539   6.369   0.034   2.744
 9214SOL     OW28540   1.776   2.471   5.720
 9214SOL    HW128541   1.772   2.397   5.653
 9214SOL    HW228542   1.791   2.432   5.811
 9215SOL     OW28543   0.757   3.346   3.030
 9215SOL    HW128544   0.747   3.247   3.021
 9215SOL    HW228545   0.681   3.391   2.982
 9216SOL     OW28546   2.705   5.872   4.690
 9216SOL    HW128547   2.733   5.851   4.596
 9216SOL    HW228548   2.730   5.796   4.750
 9217SOL     OW28549   4.517   1.259   6.323
 9217SOL    HW128550   4.534   1.358   6.323
 9217SOL    HW228551   4.435   1.239   6.377
 9218SOL     OW28552   6.024   5.415   7.012
 9218SOL    HW128553   6.094   5.484   6.994
 9218SOL    HW228554   5.997   5.420   0.089
 9219SOL     OW28555   3.757   3.011   5.686
 9219SOL    HW128556   3.752   3.021   5.587
 9219SOL    HW228557   3.731   2.918   5.712
 9220SOL     OW28558   0.786   6.599   3.852
 9220SOL    HW128559   0.793   6.657   3.771
 9220SOL    HW228560   0.876   6.593   3.896
 9221SOL     OW28561   2.809   0.910   0.857
 9221SOL    HW128562   2.892   0.915   0.914
 9221SOL    HW228563   2.774   0.817   0.856
 9222SOL     OW28564   1.356   3.359   3.863
 9222SOL    HW128565   1.360   3.289   3.791
 9222SOL    HW228566   1.438   3.416   3.859
 9223SOL     OW28567   0.647   3.471   4.830
 9223SOL    HW128568   0.622   3.450   4.735
 9223SOL    HW228569   0.643   3.570   4.844
 9224SOL     OW28570   2.137   4.477   3.826
 9224SOL    HW128571   2.200   4.400   3.833
 9224SOL    HW228572   2.063   4.454   3.762
 9225SOL     OW28573   5.129   6.112   6.907
 9225SOL    HW128574   5.177   6.109   6.819
 9225SOL    HW228575   5.038   6.152   6.894
 9226SOL     OW28576   1.027   0.654   0.893
 9226SOL    HW128577   0.977   0.615   0.816
 9226SOL    HW228578   1.111   0.697   0.860
 9227SOL     OW28579   2.152   4.908   0.638
 9227SOL    HW128580   2.125   4.812   0.647
 9227SOL    HW228581   2.105   4.962   0.708
 9228SOL     OW28582   3.591   3.103   5.899
 9228SOL    HW128583   3.648   3.096   5.817
 9228SOL    HW228584   3.499   3.070   5.877
 9229SOL     OW28585   0.376   4.729   7.017
 9229SOL    HW128586   0.446   4.742   0.068
 9229SOL    HW228587   0.400   4.650   6.960
 9230SOL     OW28588   4.446   1.675   4.804
 9230SOL    HW128589   4.354   1.696   4.838
 9230SOL    HW228590   4.513   1.732   4.850
 9231SOL     OW28591   6.855   5.672   3.597
 9231SOL    HW128592   6.825   5.657   3.691
 9231SOL    HW228593   6.778   5.701   3.541
 9232SOL     OW28594   1.256   5.300   2.080
 9232SOL    HW128595   1.317   5.224   2.102
 9232SOL    HW228596   1.255   5.365   2.156
 9233SOL     OW28597   0.501   6.476   0.170
 9233SOL    HW128598   0.456   6.401   0.119
 9233SOL    HW228599   0.497   6.559   0.115
 9234SOL     OW28600   2.344   4.467   0.667
 9234SOL    HW128601   2.275   4.395   0.673
 9234SOL    HW228602   2.429   4.429   0.630
 9235SOL     OW28603   1.939   2.043   3.891
 9235SOL    HW128604   1.852   2.024   3.847
 9235SOL    HW228605   1.939   2.006   3.984
 9236SOL     OW28606   2.778   3.306   6.764
 9236SOL    HW128607   2.741   3.376   6.703
 9236SOL    HW228608   2.712   3.232   6.774
 9237SOL     OW28609   5.712   4.660   2.971
 9237SOL    HW128610   5.806   4.639   2.998
 9237SOL    HW228611   5.662   4.694   3.051
 9238SOL     OW28612   1.796   2.578   5.305
 9238SOL    HW128613   1.745   2.618   5.381
 9238SOL    HW228614   1.892   2.566   5.332
 9239SOL     OW28615   1.242   4.763   6.727
 9239SOL    HW128616   1.172   4.786   6.794
 9239SOL    HW228617   1.283   4.846   6.690
 9240SOL     OW28618   4.347   2.403   2.906
 9240SOL    HW128619   4.428   2.402   2.965
 9240SOL    HW228620   4.277   2.343   2.944
 9241SOL     OW28621   5.782   6.491   1.123
 9241SOL    HW128622   5.739   6.562   1.178
 9241SOL    HW228623   5.751   6.401   1.154
 9242SOL     OW28624   1.442   2.559   0.779
 9242SOL    HW128625   1.372   2.565   0.708
 9242SOL    HW228626   1.533   2.567   0.737
 9243SOL     OW28627   0.812   0.652   0.042
 9243SOL    HW128628   0.906   0.675   0.018
 9243SOL    HW228629   0.794   0.557   0.015
 9244SOL     OW28630   3.598   6.747   5.502
 9244SOL    HW128631   3.616   6.707   5.412
 9244SOL    HW228632   3.650   6.832   5.512
 9245SOL     OW28633   1.289   4.552   3.325
 9245SOL    HW128634   1.308   4.493   3.247
 9245SOL    HW228635   1.199   4.529   3.362
 9246SOL     OW28636   6.590   0.251   5.524
 9246SOL    HW128637   6.566   0.231   5.429
 9246SOL    HW228638   6.508   0.252   5.581
 9247SOL     OW28639   4.119   6.902   2.869
 9247SOL    HW128640   4.022   6.915   2.848
 9247SOL    HW228641   4.131   6.820   2.924
 9248SOL     OW28642   2.310   1.298   6.317
 9248SOL    HW128643   2.290   1.326   6.410
 9248SOL    HW228644   2.334   1.378   6.262
 9249SOL     OW28645   3.469   5.420   0.995
 9249SOL    HW128646   3.504   5.511   1.018
 9249SOL    HW228647   3.396   5.395   1.059
 9250SOL     OW28648   0.662   2.793   4.214
 9250SOL    HW128649   0.618   2.728   4.275
 9250SOL    HW228650   0.757   2.808   4.244
 9251SOL     OW28651   3.047   2.760   1.212
 9251SOL    HW128652   3.074   2.794   1.302
 9251SOL    HW228653   3.126   2.721   1.165
 9252SOL     OW28654   4.783   1.728   5.548
 9252SOL    HW128655   4.722   1.806   5.556
 9252SOL    HW228656   4.868   1.746   5.598
 9253SOL     OW28657   1.137   5.454   5.520
 9253SOL    HW128658   1.165   5.361   5.545
 9253SOL    HW228659   1.057   5.449   5.460
 9254SOL     OW28660   0.137   5.035   2.662
 9254SOL    HW128661   0.079   5.116   2.671
 9254SOL    HW228662   0.226   5.053   2.705
 9255SOL     OW28663   6.777   4.164   0.886
 9255SOL    HW128664   6.841   4.173   0.962
 9255SOL    HW228665   6.695   4.217   0.904
 9256SOL     OW28666   1.908   6.123   1.914
 9256SOL    HW128667   1.973   6.106   1.987
 9256SOL    HW228668   1.871   6.215   1.922
 9257SOL     OW28669   6.372   6.034   4.034
 9257SOL    HW128670   6.423   6.115   4.006
 9257SOL    HW228671   6.275   6.057   4.044
 9258SOL     OW28672   3.533   5.254   1.219
 9258SOL    HW128673   3.529   5.288   1.125
 9258SOL    HW228674   3.629   5.247   1.247
 9259SOL     OW28675   1.976   1.313   6.822
 9259SOL    HW128676   1.963   1.412   6.821
 9259SOL    HW228677   1.897   1.268   6.780
 9260SOL     OW28678   6.216   3.960   4.775
 9260SOL    HW128679   6.275   3.881   4.760
 9260SOL    HW228680   6.127   3.929   4.810
 9261SOL     OW28681   3.665   2.535   1.696
 9261SOL    HW128682   3.690   2.621   1.742
 9261SOL    HW228683   3.688   2.458   1.756
 9262SOL     OW28684   6.191   5.805   4.718
 9262SOL    HW128685   6.266   5.780   4.656
 9262SOL    HW228686   6.106   5.811   4.667
 9263SOL     OW28687   1.863   3.960   3.865
 9263SOL    HW128688   1.950   3.925   3.834
 9263SOL    HW228689   1.810   3.887   3.907
 9264SOL     OW28690   4.371   3.768   0.126
 9264SOL    HW128691   4.379   3.797   0.030
 9264SOL    HW228692   4.411   3.837   0.185
 9265SOL     OW28693   5.729   2.059   6.976
 9265SOL    HW128694   5.710   2.061   6.878
 9265SOL    HW228695   5.667   1.994   0.001
 9266SOL     OW28696   0.974   4.588   1.243
 9266SOL    HW128697   1.008   4.633   1.160
 9266SOL    HW228698   0.939   4.658   1.306
 9267SOL     OW28699   6.560   0.991   4.935
 9267SOL    HW128700   6.517   1.038   5.012
 9267SOL    HW228701   6.491   0.935   4.887
 9268SOL     OW28702   0.741   0.057   1.960
 9268SOL    HW128703   0.771   0.144   1.999
 9268SOL    HW228704   0.805   0.028   1.889
 9269SOL     OW28705   4.083   0.982   0.541
 9269SOL    HW128706   4.175   0.967   0.506
 9269SOL    HW228707   4.077   1.072   0.583
 9270SOL     OW28708   1.942   0.274   6.210
 9270SOL    HW128709   1.855   0.317   6.185
 9270SOL    HW228710   2.007   0.346   6.239
 9271SOL     OW28711   1.644   6.904   4.487
 9271SOL    HW128712   1.696   6.828   4.525
 9271SOL    HW228713   1.552   6.874   4.462
 9272SOL     OW28714   6.629   0.169   6.072
 9272SOL    HW128715   6.702   0.200   6.133
 9272SOL    HW228716   6.667   0.146   5.982
 9273SOL     OW28717   4.729   5.366   4.530
 9273SOL    HW128718   4.631   5.354   4.543
 9273SOL    HW228719   4.778   5.295   4.581
 9274SOL     OW28720   0.745   2.615   0.506
 9274SOL    HW128721   0.681   2.539   0.496
 9274SOL    HW228722   0.719   2.689   0.445
 9275SOL     OW28723   0.080   0.510   6.955
 9275SOL    HW128724   0.068   0.581   6.885
 9275SOL    HW228725   0.046   0.423   6.920
 9276SOL     OW28726   2.403   5.464   0.033
 9276SOL    HW128727   2.378   5.560   0.020
 9276SOL    HW228728   2.492   5.447   7.010
 9277SOL     OW28729   5.076   5.926   2.063
 9277SOL    HW128730   5.175   5.932   2.061
 9277SOL    HW228731   5.044   5.909   2.156
 9278SOL     OW28732   0.911   0.640   5.208
 9278SOL    HW128733   0.896   0.709   5.278
 9278SOL    HW228734   0.854   0.660   5.128
 9279SOL     OW28735   4.464   6.061   1.688
 9279SOL    HW128736   4.438   5.989   1.752
 9279SOL    HW228737   4.462   6.150   1.735
 9280SOL     OW28738   1.546   6.930   2.789
 9280SOL    HW128739   1.620   6.911   2.855
 9280SOL    HW228740   1.558   6.873   2.708
 9281SOL     OW28741   2.345   5.165   6.790
 9281SOL    HW128742   2.353   5.230   6.713
 9281SOL    HW228743   2.304   5.211   6.868
 9282SOL     OW28744   2.760   6.724   4.908
 9282SOL    HW128745   2.797   6.786   4.978
 9282SOL    HW228746   2.689   6.771   4.856
 9283SOL     OW28747   4.487   6.054   0.196
 9283SOL    HW128748   4.571   6.004   0.176
 9283SOL    HW228749   4.478   6.064   0.295
 9284SOL     OW28750   3.232   3.754   4.863
 9284SOL    HW128751   3.323   3.723   4.836
 9284SOL    HW228752   3.170   3.749   4.785
 9285SOL     OW28753   0.464   4.701   2.389
 9285SOL    HW128754   0.368   4.673   2.389
 9285SOL    HW228755   0.513   4.653   2.462
 9286SOL     OW28756   4.867   6.073   1.325
 9286SOL    HW128757   4.786   6.130   1.340
 9286SOL    HW228758   4.891   6.027   1.411
 9287SOL     OW28759   3.438   4.353   6.348
 9287SOL    HW128760   3.440   4.376   6.445
 9287SOL    HW228761   3.343   4.345   6.318
 9288SOL     OW28762   3.908   2.159   2.734
 9288SOL    HW128763   3.955   2.138   2.648
 9288SOL    HW228764   3.811   2.176   2.716
 9289SOL     OW28765   5.081   6.362   0.081
 9289SOL    HW128766   5.072   6.355   7.001
 9289SOL    HW228767   5.050   6.278   0.124
 9290SOL     OW28768   4.872   0.765   3.843
 9290SOL    HW128769   4.927   0.683   3.831
 9290SOL    HW228770   4.788   0.757   3.789
 9291SOL     OW28771   0.925   4.934   6.288
 9291SOL    HW128772   0.957   5.003   6.352
 9291SOL    HW228773   1.003   4.887   6.246
 9292SOL     OW28774   1.771   1.374   6.389
 9292SOL    HW128775   1.765   1.351   6.292
 9292SOL    HW228776   1.703   1.323   6.440
 9293SOL     OW28777   5.105   2.590   4.929
 9293SOL    HW128778   5.089   2.683   4.897
 9293SOL    HW228779   5.052   2.574   5.012
 9294SOL     OW28780   4.420   1.432   0.142
 9294SOL    HW128781   4.476   1.419   0.224
 9294SOL    HW228782   4.359   1.510   0.155
 9295SOL     OW28783   0.301   1.325   5.049
 9295SOL    HW128784   0.361   1.348   5.125
 9295SOL    HW228785   0.268   1.410   5.006
 9296SOL     OW28786   1.337   4.908   0.145
 9296SOL    HW128787   1.410   4.854   0.102
 9296SOL    HW228788   1.366   5.004   0.149
 9297SOL     OW28789   5.754   5.690   2.492
 9297SOL    HW128790   5.738   5.640   2.408
 9297SOL    HW228791   5.813   5.768   2.474
 9298SOL     OW28792   1.530   5.534   6.308
 9298SOL    HW128793   1.624   5.567   6.315
 9298SOL    HW228794   1.470   5.594   6.362
 9299SOL     OW28795   1.852   2.738   5.056
 9299SOL    HW128796   1.846   2.716   5.153
 9299SOL    HW228797   1.767   2.711   5.010
 9300SOL     OW28798   1.471   5.092   5.629
 9300SOL    HW128799   1.408   5.161   5.593
 9300SOL    HW228800   1.422   5.005   5.639
 9301SOL     OW28801   0.164   4.169   4.941
 9301SOL    HW128802   0.183   4.075   4.912
 9301SOL    HW228803   0.100   4.167   5.018
 9302SOL     OW28804   2.159   3.548   4.902
 9302SOL    HW128805   2.133   3.640   4.930
 9302SOL    HW228806   2.258   3.545   4.886
 9303SOL     OW28807   2.102   4.609   0.633
 9303SOL    HW128808   2.192   4.573   0.656
 9303SOL    HW228809   2.093   4.612   0.533
 9304SOL     OW28810   4.133   5.345   0.186
 9304SOL    HW128811   4.134   5.246   0.198
 9304SOL    HW228812   4.063   5.369   0.118
 9305SOL     OW28813   2.029   1.913   1.229
 9305SOL    HW128814   2.036   1.972   1.310
 9305SOL    HW228815   2.109   1.927   1.172
 9306SOL     OW28816   6.727   5.524   4.720
 9306SOL    HW128817   6.794   5.594   4.694
 9306SOL    HW228818   6.649   5.528   4.657
 9307SOL     OW28819   2.691   3.050   1.674
 9307SOL    HW128820   2.621   2.987   1.710
 9307SOL    HW228821   2.667   3.077   1.581
 9308SOL     OW28822   2.083   3.833   2.114
 9308SOL    HW128823   2.018   3.797   2.180
 9308SOL    HW228824   2.121   3.759   2.060
 9309SOL     OW28825   5.068   5.549   6.164
 9309SOL    HW128826   4.983   5.599   6.180
 9309SOL    HW228827   5.127   5.600   6.102
 9310SOL     OW28828   5.644   5.958   0.369
 9310SOL    HW128829   5.658   5.893   0.295
 9310SOL    HW228830   5.705   6.037   0.357
 9311SOL     OW28831   4.511   3.746   1.573
 9311SOL    HW128832   4.478   3.676   1.509
 9311SOL    HW228833   4.574   3.807   1.526
 9312SOL     OW28834   0.601   2.781   2.039
 9312SOL    HW128835   0.689   2.804   1.998
 9312SOL    HW228836   0.610   2.699   2.096
 9313SOL     OW28837   0.532   0.044   2.125
 9313SOL    HW128838   0.491   0.133   2.103
 9313SOL    HW228839   0.612   0.029   2.067
 9314SOL     OW28840   5.024   3.658   0.547
 9314SOL    HW128841   5.122   3.657   0.525
 9314SOL    HW228842   4.990   3.752   0.542
 9315SOL     OW28843   5.452   0.544   6.063
 9315SOL    HW128844   5.485   0.638   6.067
 9315SOL    HW228845   5.364   0.541   6.015
 9316SOL     OW28846   4.424   0.708   5.418
 9316SOL    HW128847   4.459   0.789   5.371
 9316SOL    HW228848   4.359   0.736   5.489
 9317SOL     OW28849   3.767   6.566   3.148
 9317SOL    HW128850   3.794   6.548   3.242
 9317SOL    HW228851   3.844   6.548   3.087
 9318SOL     OW28852   4.955   6.602   1.382
 9318SOL    HW128853   5.052   6.586   1.364
 9318SOL    HW228854   4.930   6.559   1.468
 9319SOL     OW28855   2.414   3.760   0.199
 9319SOL    HW128856   2.401   3.831   0.130
 9319SOL    HW228857   2.341   3.693   0.193
 9320SOL     OW28858   6.767   6.418   6.782
 9320SOL    HW128859   6.733   6.335   6.825
 9320SOL    HW228860   6.864   6.406   6.758
 9321SOL     OW28861   0.906   3.642   4.716
 9321SOL    HW128862   0.913   3.553   4.761
 9321SOL    HW228863   0.872   3.630   4.623
 9322SOL     OW28864   5.893   3.563   6.294
 9322SOL    HW128865   5.825   3.501   6.255
 9322SOL    HW228866   5.905   3.543   6.391
 9323SOL     OW28867   1.420   2.135   5.104
 9323SOL    HW128868   1.427   2.137   5.005
 9323SOL    HW228869   1.443   2.225   5.141
 9324SOL     OW28870   0.709   4.545   1.492
 9324SOL    HW128871   0.649   4.492   1.553
 9324SOL    HW228872   0.694   4.516   1.398
 9325SOL     OW28873   1.023   4.732   3.112
 9325SOL    HW128874   1.097   4.768   3.168
 9325SOL    HW228875   1.051   4.732   3.016
 9326SOL     OW28876   4.458   4.809   1.763
 9326SOL    HW128877   4.414   4.719   1.766
 9326SOL    HW228878   4.389   4.880   1.782
 9327SOL     OW28879   4.085   0.462   3.958
 9327SOL    HW128880   4.164   0.519   3.981
 9327SOL    HW228881   4.042   0.498   3.875
 9328SOL     OW28882   2.591   6.971   4.126
 9328SOL    HW128883   2.648   6.934   4.199
 9328SOL    HW228884   2.647   0.011   4.068
 9329SOL     OW28885   0.017   5.327   6.538
 9329SOL    HW128886   0.031   5.402   6.472
 9329SOL    HW228887   0.086   5.256   6.522
 9330SOL     OW28888   6.553   5.267   6.465
 9330SOL    HW128889   6.632   5.238   6.411
 9330SOL    HW228890   6.486   5.193   6.469
 9331SOL     OW28891   1.667   3.131   4.857
 9331SOL    HW128892   1.642   3.152   4.951
 9331SOL    HW228893   1.677   3.216   4.805
 9332SOL     OW28894   4.798   5.562   1.007
 9332SOL    HW128895   4.769   5.641   0.952
 9332SOL    HW228896   4.864   5.592   1.076
 9333SOL     OW28897   3.798   4.255   1.119
 9333SOL    HW128898   3.808   4.251   1.218
 9333SOL    HW228899   3.849   4.180   1.077
 9334SOL     OW28900   6.172   6.018   5.641
 9334SOL    HW128901   6.268   6.045   5.632
 9334SOL    HW228902   6.127   6.077   5.708
 9335SOL     OW28903   1.451   3.365   1.272
 9335SOL    HW128904   1.374   3.421   1.240
 9335SOL    HW228905   1.534   3.392   1.222
 9336SOL     OW28906   6.231   6.739   5.101
 9336SOL    HW128907   6.181   6.762   5.184
 9336SOL    HW228908   6.308   6.679   5.124
 9337SOL     OW28909   2.569   0.130   6.581
 9337SOL    HW128910   2.614   0.116   6.493
 9337SOL    HW228911   2.607   0.211   6.625
 9338SOL     OW28912   5.612   6.565   0.016
 9338SOL    HW128913   5.693   6.624   0.011
 9338SOL    HW228914   5.566   6.579   0.103
 9339SOL     OW28915   6.369   4.262   5.467
 9339SOL    HW128916   6.271   4.263   5.446
 9339SOL    HW228917   6.391   4.341   5.525
 9340SOL     OW28918   4.116   6.047   1.761
 9340SOL    HW128919   4.020   6.017   1.755
 9340SOL    HW228920   4.142   6.091   1.675
 9341SOL     OW28921   4.730   4.207   6.933
 9341SOL    HW128922   4.728   4.110   6.956
 9341SOL    HW228923   4.817   4.228   6.887
 9342SOL     OW28924   3.091   0.289   4.583
 9342SOL    HW128925   3.104   0.388   4.597
 9342SOL    HW228926   3.009   0.259   4.631
 9343SOL     OW28927   4.504   4.468   1.768
 9343SOL    HW128928   4.586   4.515   1.801
 9343SOL    HW228929   4.503   4.374   1.801
 9344SOL     OW28930   6.127   5.997   5.224
 9344SOL    HW128931   6.059   5.970   5.293
 9344SOL    HW228932   6.102   5.956   5.136
 9345SOL     OW28933   0.084   6.315   0.922
 9345SOL    HW128934   0.156   6.350   0.861
 9345SOL    HW228935   0.006   6.378   0.921
 9346SOL     OW28936   6.061   5.882   0.974
 9346SOL    HW128937   6.024   5.952   1.035
 9346SOL    HW228938   5.989   5.850   0.913
 9347SOL     OW28939   3.455   5.436   0.725
 9347SOL    HW128940   3.424   5.427   0.820
 9347SOL    HW228941   3.507   5.521   0.714
 9348SOL     OW28942   2.482   6.032   1.676
 9348SOL    HW128943   2.569   6.068   1.643
 9348SOL    HW228944   2.407   6.071   1.623
 9349SOL     OW28945   6.156   5.723   1.971
 9349SOL    HW128946   6.129   5.799   1.911
 9349SOL    HW228947   6.247   5.691   1.945
 9350SOL     OW28948   0.215   0.457   5.552
 9350SOL    HW128949   0.309   0.455   5.586
 9350SOL    HW228950   0.208   0.523   5.478
 9351SOL     OW28951   2.904   1.722   6.563
 9351SOL    HW128952   2.888   1.816   6.533
 9351SOL    HW228953   2.976   1.681   6.507
 9352SOL     OW28954   3.555   2.484   6.246
 9352SOL    HW128955   3.558   2.453   6.151
 9352SOL    HW228956   3.515   2.576   6.249
 9353SOL     OW28957   0.924   3.468   1.114
 9353SOL    HW128958   0.905   3.409   1.036
 9353SOL    HW228959   0.871   3.553   1.106
 9354SOL     OW28960   4.979   2.289   1.251
 9354SOL    HW128961   4.981   2.197   1.214
 9354SOL    HW228962   4.921   2.347   1.194
 9355SOL     OW28963   6.959   6.863   3.059
 9355SOL    HW128964   6.971   6.824   3.151
 9355SOL    HW228965   6.908   6.949   3.066
 9356SOL     OW28966   4.532   4.778   2.504
 9356SOL    HW128967   4.545   4.697   2.561
 9356SOL    HW228968   4.496   4.750   2.414
 9357SOL     OW28969   3.260   2.244   1.143
 9357SOL    HW128970   3.321   2.310   1.187
 9357SOL    HW228971   3.201   2.201   1.211
 9358SOL     OW28972   5.951   4.674   2.129
 9358SOL    HW128973   5.884   4.676   2.203
 9358SOL    HW228974   5.930   4.745   2.063
 9359SOL     OW28975   6.606   4.110   5.773
 9359SOL    HW128976   6.632   4.060   5.855
 9359SOL    HW228977   6.685   4.117   5.712
 9360SOL     OW28978   2.479   1.042   0.240
 9360SOL    HW128979   2.413   1.110   0.210
 9360SOL    HW228980   2.488   0.971   0.171
 9361SOL     OW28981   2.878   6.587   2.560
 9361SOL    HW128982   2.941   6.573   2.484
 9361SOL    HW228983   2.784   6.576   2.528
 9362SOL     OW28984   2.295   1.346   2.576
 9362SOL    HW128985   2.248   1.314   2.657
 9362SOL    HW228986   2.363   1.415   2.602
 9363SOL     OW28987   3.196   6.132   2.207
 9363SOL    HW128988   3.156   6.052   2.253
 9363SOL    HW228989   3.284   6.154   2.249
 9364SOL     OW28990   4.456   3.979   0.297
 9364SOL    HW128991   4.447   4.047   0.370
 9364SOL    HW228992   4.553   3.970   0.272
 9365SOL     OW28993   2.685   1.822   4.831
 9365SOL    HW128994   2.633   1.889   4.884
 9365SOL    HW228995   2.670   1.837   4.733
 9366SOL     OW28996   2.628   1.701   1.002
 9366SOL    HW128997   2.635   1.770   1.074
 9366SOL    HW228998   2.717   1.688   0.959
 9367SOL     OW28999   6.870   5.854   2.968
 9367SOL    HW129000   6.778   5.859   2.931
 9367SOL    HW229001   6.933   5.822   2.897
 9368SOL     OW29002   3.038   1.908   1.908
 9368SOL    HW129003   3.043   1.822   1.857
 9368SOL    HW229004   3.120   1.962   1.888
 9369SOL     OW29005   6.772   2.334   4.996
 9369SOL    HW129006   6.867   2.304   4.986
 9369SOL    HW229007   6.742   2.379   4.912
 9370SOL     OW29008   6.227   1.073   2.786
 9370SOL    HW129009   6.325   1.062   2.769
 9370SOL    HW229010   6.176   1.014   2.723
 9371SOL     OW29011   0.100   6.188   0.102
 9371SOL    HW129012   0.070   6.099   0.069
 9371SOL    HW229013   0.103   6.187   0.202
 9372SOL     OW29014   6.196   6.521   3.889
 9372SOL    HW129015   6.114   6.558   3.934
 9372SOL    HW229016   6.277   6.572   3.921
 9373SOL     OW29017   3.896   1.610   3.506
 9373SOL    HW129018   3.803   1.612   3.543
 9373SOL    HW229019   3.933   1.517   3.515
 9374SOL     OW29020   5.098   3.246   0.059
 9374SOL    HW129021   5.189   3.212   0.083
 9374SOL    HW229022   5.107   3.330   0.006
 9375SOL     OW29023   0.497   1.301   3.253
 9375SOL    HW129024   0.541   1.373   3.200
 9375SOL    HW229025   0.559   1.223   3.262
 9376SOL     OW29026   2.557   3.756   0.900
 9376SOL    HW129027   2.501   3.804   0.968
 9376SOL    HW229028   2.591   3.671   0.939
 9377SOL     OW29029   6.024   5.815   3.665
 9377SOL    HW129030   6.041   5.729   3.616
 9377SOL    HW229031   6.045   5.803   3.761
 9378SOL     OW29032   2.180   6.839   0.313
 9378SOL    HW129033   2.140   6.850   0.222
 9378SOL    HW229034   2.201   6.743   0.329
 9379SOL     OW29035   5.126   5.348   3.987
 9379SOL    HW129036   5.217   5.382   4.011
 9379SOL    HW229037   5.082   5.411   3.922
 9380SOL     OW29038   6.085   6.917   5.306
 9380SOL    HW129039   6.029   6.851   5.356
 9380SOL    HW229040   6.105   6.995   5.365
 9381SOL     OW29041   2.467   1.988   5.821
 9381SOL    HW129042   2.399   2.004   5.892
 9381SOL    HW229043   2.537   1.925   5.854
 9382SOL     OW29044   4.282   1.964   2.471
 9382SOL    HW129045   4.245   2.048   2.432
 9382SOL    HW229046   4.324   1.984   2.560
 9383SOL     OW29047   4.114   6.592   3.957
 9383SOL    HW129048   4.016   6.578   3.974
 9383SOL    HW229049   4.156   6.634   4.037
 9384SOL     OW29050   4.924   6.360   2.258
 9384SOL    HW129051   4.899   6.320   2.170
 9384SOL    HW229052   4.848   6.350   2.322
 9385SOL     OW29053   4.034   0.977   3.427
 9385SOL    HW129054   4.049   1.062   3.478
 9385SOL    HW229055   3.951   0.986   3.371
 9386SOL     OW29056   2.606   6.608   5.676
 9386SOL    HW129057   2.641   6.517   5.697
 9386SOL    HW229058   2.506   6.608   5.680
 9387SOL     OW29059   3.089   6.511   1.222
 9387SOL    HW129060   3.094   6.537   1.126
 9387SOL    HW229061   3.132   6.582   1.279
 9388SOL     OW29062   0.366   0.892   2.600
 9388SOL    HW129063   0.338   0.979   2.560
 9388SOL    HW229064   0.391   0.905   2.696
 9389SOL     OW29065   2.731   1.120   5.631
 9389SOL    HW129066   2.784   1.199   5.662
 9389SOL    HW229067   2.794   1.048   5.600
 9390SOL     OW29068   3.215   5.287   2.208
 9390SOL    HW129069   3.272   5.367   2.229
 9390SOL    HW229070   3.240   5.212   2.269
 9391SOL     OW29071   0.520   1.197   5.514
 9391SOL    HW129072   0.550   1.130   5.582
 9391SOL    HW229073   0.439   1.245   5.547
 9392SOL     OW29074   1.657   6.451   4.692
 9392SOL    HW129075   1.559   6.475   4.690
 9392SOL    HW229076   1.676   6.395   4.773
 9393SOL     OW29077   3.578   2.319   5.438
 9393SOL    HW129078   3.534   2.409   5.436
 9393SOL    HW229079   3.517   2.251   5.396
 9394SOL     OW29080   6.697   3.055   2.913
 9394SOL    HW129081   6.789   3.085   2.889
 9394SOL    HW229082   6.667   2.982   2.851
 9395SOL     OW29083   2.690   3.529   0.987
 9395SOL    HW129084   2.679   3.464   0.912
 9395SOL    HW229085   2.787   3.549   1.000
 9396SOL     OW29086   6.377   0.022   6.274
 9396SOL    HW129087   6.402   0.119   6.269
 9396SOL    HW229088   6.345   7.010   6.185
 9397SOL     OW29089   2.290   7.015   0.526
 9397SOL    HW129090   2.346   6.941   0.561
 9397SOL    HW229091   2.227   6.979   0.457
 9398SOL     OW29092   2.635   1.558   6.662
 9398SOL    HW129093   2.695   1.623   6.614
 9398SOL    HW229094   2.681   1.470   6.669
 9399SOL     OW29095   6.903   1.167   5.919
 9399SOL    HW129096   6.856   1.156   6.007
 9399SOL    HW229097   7.002   1.164   5.934
 9400SOL     OW29098   5.504   3.540   2.265
 9400SOL    HW129099   5.504   3.584   2.175
 9400SOL    HW229100   5.569   3.586   2.325
 9401SOL     OW29101   2.781   6.260   3.688
 9401SOL    HW129102   2.754   6.167   3.712
 9401SOL    HW229103   2.829   6.259   3.601
 9402SOL     OW29104   2.328   5.069   6.381
 9402SOL    HW129105   2.407   5.126   6.403
 9402SOL    HW229106   2.359   4.982   6.342
 9403SOL     OW29107   5.186   1.435   3.497
 9403SOL    HW129108   5.131   1.409   3.577
 9403SOL    HW229109   5.221   1.353   3.452
 9404SOL     OW29110   1.373   4.978   6.665
 9404SOL    HW129111   1.431   5.036   6.608
 9404SOL    HW229112   1.346   5.028   6.747
 9405SOL     OW29113   6.357   0.111   0.989
 9405SOL    HW129114   6.368   0.150   0.897
 9405SOL    HW229115   6.259   0.099   1.008
 9406SOL     OW29116   0.430   1.737   5.214
 9406SOL    HW129117   0.339   1.704   5.185
 9406SOL    HW229118   0.496   1.663   5.204
 9407SOL     OW29119   3.267   6.062   3.190
 9407SOL    HW129120   3.336   6.050   3.118
 9407SOL    HW229121   3.202   6.133   3.162
 9408SOL     OW29122   3.723   2.122   6.966
 9408SOL    HW129123   3.779   2.101   0.026
 9408SOL    HW229124   3.776   2.176   6.901
 9409SOL     OW29125   6.008   3.415   3.742
 9409SOL    HW129126   5.987   3.467   3.824
 9409SOL    HW229127   5.924   3.396   3.691
 9410SOL     OW29128   4.273   6.304   2.327
 9410SOL    HW129129   4.350   6.303   2.263
 9410SOL    HW229130   4.193   6.345   2.283
 9411SOL     OW29131   4.226   5.482   0.483
 9411SOL    HW129132   4.245   5.407   0.546
 9411SOL    HW229133   4.219   5.446   0.390
 9412SOL     OW29134   0.227   2.617   1.314
 9412SOL    HW129135   0.137   2.649   1.344
 9412SOL    HW229136   0.269   2.687   1.256
 9413SOL     OW29137   4.286   5.948   5.467
 9413SOL    HW129138   4.275   6.013   5.392
 9413SOL    HW229139   4.256   5.991   5.553
 9414SOL     OW29140   3.221   1.751   2.953
 9414SOL    HW129141   3.168   1.825   2.910
 9414SOL    HW229142   3.278   1.707   2.884
 9415SOL     OW29143   2.159   6.195   2.529
 9415SOL    HW129144   2.157   6.282   2.578
 9415SOL    HW229145   2.086   6.194   2.460
 9416SOL     OW29146   1.418   2.226   2.102
 9416SOL    HW129147   1.340   2.190   2.052
 9416SOL    HW229148   1.480   2.273   2.039
 9417SOL     OW29149   2.442   5.587   5.598
 9417SOL    HW129150   2.416   5.492   5.615
 9417SOL    HW229151   2.454   5.602   5.500
 9418SOL     OW29152   2.574   4.959   1.777
 9418SOL    HW129153   2.563   4.973   1.678
 9418SOL    HW229154   2.658   4.908   1.793
 9419SOL     OW29155   3.204   6.716   5.119
 9419SOL    HW129156   3.115   6.760   5.116
 9419SOL    HW229157   3.276   6.786   5.117
 9420SOL     OW29158   6.556   1.306   4.831
 9420SOL    HW129159   6.515   1.290   4.741
 9420SOL    HW229160   6.643   1.257   4.837
 9421SOL     OW29161   1.318   3.996   5.633
 9421SOL    HW129162   1.380   3.985   5.711
 9421SOL    HW229163   1.352   4.071   5.575
 9422SOL     OW29164   5.398   0.304   2.257
 9422SOL    HW129165   5.349   0.323   2.172
 9422SOL    HW229166   5.334   0.304   2.333
 9423SOL     OW29167   3.849   0.974   3.795
 9423SOL    HW129168   3.863   1.065   3.756
 9423SOL    HW229169   3.924   0.954   3.858
 9424SOL     OW29170   4.148   0.157   4.835
 9424SOL    HW129171   4.053   0.127   4.836
 9424SOL    HW229172   4.155   0.249   4.874
 9425SOL     OW29173   0.858   4.180   5.262
 9425SOL    HW129174   0.895   4.230   5.184
 9425SOL    HW229175   0.893   4.087   5.262
 9426SOL     OW29176   3.069   0.399   6.926
 9426SOL    HW129177   3.078   0.301   6.907
 9426SOL    HW229178   3.052   0.448   6.841
 9427SOL     OW29179   2.684   5.134   4.976
 9427SOL    HW129180   2.670   5.207   4.909
 9427SOL    HW229181   2.716   5.051   4.930
 9428SOL     OW29182   5.417   0.464   2.968
 9428SOL    HW129183   5.365   0.489   2.886
 9428SOL    HW229184   5.404   0.535   3.038
 9429SOL     OW29185   0.927   4.316   2.066
 9429SOL    HW129186   0.851   4.368   2.105
 9429SOL    HW229187   0.965   4.365   1.988
 9430SOL     OW29188   6.660   6.031   1.785
 9430SOL    HW129189   6.759   6.026   1.776
 9430SOL    HW229190   6.621   5.940   1.774
 9431SOL     OW29191   6.876   3.879   0.574
 9431SOL    HW129192   6.884   3.979   0.578
 9431SOL    HW229193   6.950   3.842   0.517
 9432SOL     OW29194   6.076   0.398   3.170
 9432SOL    HW129195   6.026   0.417   3.085
 9432SOL    HW229196   6.022   0.430   3.248
 9433SOL     OW29197   3.591   4.802   5.229
 9433SOL    HW129198   3.501   4.803   5.186
 9433SOL    HW229199   3.649   4.872   5.187
 9434SOL     OW29200   5.907   4.208   3.165
 9434SOL    HW129201   5.852   4.245   3.091
 9434SOL    HW229202   5.864   4.230   3.253
 9435SOL     OW29203   1.536   1.474   4.084
 9435SOL    HW129204   1.538   1.477   4.184
 9435SOL    HW229205   1.584   1.392   4.052
 9436SOL     OW29206   2.022   3.973   0.536
 9436SOL    HW129207   2.114   3.992   0.502
 9436SOL    HW229208   2.008   3.874   0.543
 9437SOL     OW29209   1.565   5.183   3.359
 9437SOL    HW129210   1.504   5.182   3.438
 9437SOL    HW229211   1.657   5.153   3.387
 9438SOL     OW29212   0.620   6.972   2.375
 9438SOL    HW129213   0.580   6.989   2.285
 9438SOL    HW229214   0.564   6.905   2.424
 9439SOL     OW29215   0.291   3.378   2.168
 9439SOL    HW129216   0.257   3.462   2.210
 9439SOL    HW229217   0.242   3.299   2.205
 9440SOL     OW29218   4.791   6.660   5.373
 9440SOL    HW129219   4.778   6.758   5.387
 9440SOL    HW229220   4.762   6.610   5.455
 9441SOL     OW29221   2.028   4.876   4.884
 9441SOL    HW129222   2.041   4.841   4.792
 9441SOL    HW229223   1.939   4.921   4.890
 9442SOL     OW29224   6.919   2.602   0.245
 9442SOL    HW129225   6.901   2.667   0.170
 9442SOL    HW229226   7.001   2.549   0.224
 9443SOL     OW29227   1.885   4.584   0.817
 9443SOL    HW129228   1.948   4.611   0.744
 9443SOL    HW229229   1.832   4.663   0.846
 9444SOL     OW29230   0.459   2.963   0.220
 9444SOL    HW129231   0.468   3.027   0.143
 9444SOL    HW229232   0.405   3.006   0.292
 9445SOL     OW29233   5.720   3.845   2.554
 9445SOL    HW129234   5.726   3.913   2.627
 9445SOL    HW229235   5.782   3.871   2.479
 9446SOL     OW29236   6.039   6.400   2.123
 9446SOL    HW129237   6.056   6.398   2.025
 9446SOL    HW229238   6.043   6.494   2.156
 9447SOL     OW29239   5.123   3.733   2.339
 9447SOL    HW129240   5.035   3.741   2.292
 9447SOL    HW229241   5.115   3.772   2.431
 9448SOL     OW29242   6.080   6.505   6.651
 9448SOL    HW129243   6.124   6.536   6.568
 9448SOL    HW229244   6.145   6.509   6.727
 9449SOL     OW29245   5.967   5.585   5.664
 9449SOL    HW129246   5.943   5.491   5.639
 9449SOL    HW229247   5.886   5.633   5.696
 9450SOL     OW29248   2.452   5.234   4.196
 9450SOL    HW129249   2.540   5.206   4.235
 9450SOL    HW229250   2.415   5.310   4.249
 9451SOL     OW29251   4.701   5.429   6.579
 9451SOL    HW129252   4.684   5.367   6.656
 9451SOL    HW229253   4.626   5.495   6.573
 9452SOL     OW29254   2.374   3.853   1.062
 9452SOL    HW129255   2.279   3.826   1.079
 9452SOL    HW229256   2.412   3.893   1.145
 9453SOL     OW29257   1.984   5.148   2.872
 9453SOL    HW129258   2.081   5.125   2.872
 9453SOL    HW229259   1.937   5.096   2.944
 9454SOL     OW29260   1.348   3.998   6.344
 9454SOL    HW129261   1.300   4.086   6.354
 9454SOL    HW229262   1.447   4.013   6.351
 9455SOL     OW29263   3.081   1.291   2.748
 9455SOL    HW129264   3.114   1.371   2.696
 9455SOL    HW229265   3.063   1.216   2.685
 9456SOL     OW29266   1.108   3.749   1.095
 9456SOL    HW129267   1.010   3.734   1.109
 9456SOL    HW229268   1.156   3.735   1.181
 9457SOL     OW29269   1.878   3.177   6.753
 9457SOL    HW129270   1.851   3.260   6.801
 9457SOL    HW229271   1.915   3.111   6.818
 9458SOL     OW29272   6.642   4.869   5.998
 9458SOL    HW129273   6.553   4.826   5.987
 9458SOL    HW229274   6.704   4.837   5.926
 9459SOL     OW29275   6.063   5.371   1.733
 9459SOL    HW129276   6.087   5.446   1.671
 9459SOL    HW229277   6.096   5.284   1.695
 9460SOL     OW29278   0.870   1.936   4.948
 9460SOL    HW129279   0.842   2.005   4.881
 9460SOL    HW229280   0.905   1.982   5.030
 9461SOL     OW29281   0.776   1.177   3.328
 9461SOL    HW129282   0.709   1.107   3.307
 9461SOL    HW229283   0.780   1.190   3.428
 9462SOL     OW29284   1.215   2.993   2.791
 9462SOL    HW129285   1.165   3.068   2.747
 9462SOL    HW229286   1.150   2.934   2.840
 9463SOL     OW29287   6.600   1.098   0.117
 9463SOL    HW129288   6.579   1.052   0.031
 9463SOL    HW229289   6.517   1.141   0.152
 9464SOL     OW29290   5.954   6.770   6.257
 9464SOL    HW129291   5.946   6.689   6.200
 9464SOL    HW229292   5.938   6.852   6.202
 9465SOL     OW29293   6.735   0.607   3.433
 9465SOL    HW129294   6.750   0.536   3.502
 9465SOL    HW229295   6.811   0.607   3.368
 9466SOL     OW29296   2.511   3.052   5.863
 9466SOL    HW129297   2.606   3.035   5.838
 9466SOL    HW229298   2.491   3.149   5.851
 9467SOL     OW29299   1.999   2.629   1.991
 9467SOL    HW129300   2.075   2.593   2.045
 9467SOL    HW229301   1.921   2.646   2.050
 9468SOL     OW29302   6.618   2.956   5.936
 9468SOL    HW129303   6.652   2.939   6.029
 9468SOL    HW229304   6.531   3.004   5.941
 9469SOL     OW29305   6.283   5.758   2.484
 9469SOL    HW129306   6.316   5.728   2.574
 9469SOL    HW229307   6.214   5.693   2.451
 9470SOL     OW29308   5.046   3.523   0.185
 9470SOL    HW129309   5.094   3.458   0.243
 9470SOL    HW229310   5.079   3.616   0.205
 9471SOL     OW29311   6.651   2.422   5.758
 9471SOL    HW129312   6.571   2.474   5.788
 9471SOL    HW229313   6.635   2.385   5.667
 9472SOL     OW29314   5.988   4.736   4.612
 9472SOL    HW129315   6.042   4.661   4.650
 9472SOL    HW229316   5.966   4.716   4.517
 9473SOL     OW29317   3.132   6.440   6.112
 9473SOL    HW129318   3.090   6.373   6.050
 9473SOL    HW229319   3.208   6.486   6.066
 9474SOL     OW29320   5.246   4.835   2.037
 9474SOL    HW129321   5.201   4.870   1.955
 9474SOL    HW229322   5.198   4.754   2.070
 9475SOL     OW29323   3.216   3.442   1.303
 9475SOL    HW129324   3.243   3.508   1.233
 9475SOL    HW229325   3.295   3.419   1.360
 9476SOL     OW29326   4.103   3.427   5.491
 9476SOL    HW129327   4.160   3.379   5.557
 9476SOL    HW229328   4.156   3.443   5.407
 9477SOL     OW29329   1.379   2.377   0.969
 9477SOL    HW129330   1.392   2.442   0.894
 9477SOL    HW229331   1.291   2.331   0.958
 9478SOL     OW29332   5.306   4.237   5.159
 9478SOL    HW129333   5.287   4.202   5.067
 9478SOL    HW229334   5.405   4.252   5.169
 9479SOL     OW29335   5.945   5.331   6.761
 9479SOL    HW129336   5.958   5.362   6.855
 9479SOL    HW229337   5.883   5.253   6.761
 9480SOL     OW29338   4.938   4.514   6.725
 9480SOL    HW129339   4.997   4.464   6.787
 9480SOL    HW229340   4.985   4.527   6.637
 9481SOL     OW29341   0.093   4.029   1.838
 9481SOL    HW129342   0.151   4.000   1.762
 9481SOL    HW229343   0.073   4.127   1.829
 9482SOL     OW29344   4.774   0.889   2.568
 9482SOL    HW129345   4.704   0.888   2.495
 9482SOL    HW229346   4.739   0.940   2.646
 9483SOL     OW29347   1.741   1.878   1.211
 9483SOL    HW129348   1.706   1.957   1.162
 9483SOL    HW229349   1.841   1.880   1.212
 9484SOL     OW29350   6.139   1.221   3.732
 9484SOL    HW129351   6.044   1.206   3.760
 9484SOL    HW229352   6.144   1.300   3.671
 9485SOL     OW29353   1.057   1.179   2.019
 9485SOL    HW129354   1.147   1.196   2.059
 9485SOL    HW229355   1.010   1.108   2.070
 9486SOL     OW29356   2.616   5.815   0.651
 9486SOL    HW129357   2.561   5.733   0.665
 9486SOL    HW229358   2.555   5.891   0.626
 9487SOL     OW29359   3.296   4.088   3.460
 9487SOL    HW129360   3.231   4.154   3.500
 9487SOL    HW229361   3.260   3.995   3.472
 9488SOL     OW29362   2.082   6.160   1.184
 9488SOL    HW129363   2.040   6.250   1.173
 9488SOL    HW229364   2.010   6.092   1.201
 9489SOL     OW29365   4.273   4.620   1.446
 9489SOL    HW129366   4.196   4.585   1.394
 9489SOL    HW229367   4.312   4.547   1.502
 9490SOL     OW29368   5.112   1.085   0.659
 9490SOL    HW129369   5.048   1.015   0.692
 9490SOL    HW229370   5.203   1.069   0.699
 9491SOL     OW29371   6.105   5.301   3.615
 9491SOL    HW129372   6.028   5.272   3.673
 9491SOL    HW229373   6.101   5.254   3.527
 9492SOL     OW29374   3.260   3.909   1.989
 9492SOL    HW129375   3.165   3.938   1.974
 9492SOL    HW229376   3.315   3.988   2.016
 9493SOL     OW29377   4.552   5.889   3.100
 9493SOL    HW129378   4.497   5.818   3.144
 9493SOL    HW229379   4.646   5.857   3.090
 9494SOL     OW29380   5.471   3.336   0.204
 9494SOL    HW129381   5.437   3.388   0.125
 9494SOL    HW229382   5.551   3.382   0.242
 9495SOL     OW29383   6.493   2.169   4.333
 9495SOL    HW129384   6.512   2.242   4.398
 9495SOL    HW229385   6.394   2.156   4.324
 9496SOL     OW29386   5.348   4.190   0.074
 9496SOL    HW129387   5.388   4.179   7.003
 9496SOL    HW229388   5.394   4.128   0.138
 9497SOL     OW29389   5.166   4.691   0.891
 9497SOL    HW129390   5.148   4.784   0.860
 9497SOL    HW229391   5.093   4.662   0.954
 9498SOL     OW29392   3.631   7.007   5.280
 9498SOL    HW129393   3.636   0.062   5.212
 9498SOL    HW229394   3.666   6.923   5.239
 9499SOL     OW29395   2.789   3.711   5.259
 9499SOL    HW129396   2.745   3.622   5.251
 9499SOL    HW229397   2.722   3.783   5.243
 9500SOL     OW29398   4.615   5.953   1.487
 9500SOL    HW129399   4.569   6.006   1.559
 9500SOL    HW229400   4.563   5.961   1.402
 9501SOL     OW29401   3.695   1.686   4.444
 9501SOL    HW129402   3.662   1.777   4.418
 9501SOL    HW229403   3.728   1.689   4.539
 9502SOL     OW29404   6.263   2.658   4.864
 9502SOL    HW129405   6.295   2.680   4.957
 9502SOL    HW229406   6.236   2.742   4.818
 9503SOL     OW29407   0.442   0.242   1.623
 9503SOL    HW129408   0.405   0.172   1.685
 9503SOL    HW229409   0.383   0.251   1.543
 9504SOL     OW29410   0.352   2.636   0.842
 9504SOL    HW129411   0.348   2.538   0.822
 9504SOL    HW229412   0.269   2.663   0.891
 9505SOL     OW29413   6.140   3.769   3.146
 9505SOL    HW129414   6.115   3.844   3.085
 9505SOL    HW229415   6.119   3.681   3.103
 9506SOL     OW29416   0.100   3.119   6.853
 9506SOL    HW129417   0.084   3.122   6.952
 9506SOL    HW229418   0.082   3.210   6.815
 9507SOL     OW29419   1.297   1.355   3.890
 9507SOL    HW129420   1.312   1.345   3.988
 9507SOL    HW229421   1.233   1.284   3.859
 9508SOL     OW29422   5.469   2.007   0.377
 9508SOL    HW129423   5.567   1.993   0.360
 9508SOL    HW229424   5.445   1.968   0.466
 9509SOL     OW29425   1.621   6.660   5.274
 9509SOL    HW129426   1.594   6.686   5.181
 9509SOL    HW229427   1.557   6.591   5.309
 9510SOL     OW29428   0.071   4.213   2.240
 9510SOL    HW129429   0.021   4.135   2.202
 9510SOL    HW229430   0.030   4.239   2.327
 9511SOL     OW29431   0.345   2.461   0.431
 9511SOL    HW129432   0.338   2.553   0.392
 9511SOL    HW229433   0.312   2.394   0.365
 9512SOL     OW29434   0.165   2.447   3.678
 9512SOL    HW129435   0.084   2.491   3.640
 9512SOL    HW229436   0.170   2.353   3.646
 9513SOL     OW29437   2.081   3.797   3.787
 9513SOL    HW129438   2.108   3.763   3.698
 9513SOL    HW229439   2.135   3.753   3.858
 9514SOL     OW29440   2.262   3.482   6.483
 9514SOL    HW129441   2.337   3.482   6.549
 9514SOL    HW229442   2.287   3.538   6.404
 9515SOL     OW29443   1.192   6.315   6.648
 9515SOL    HW129444   1.186   6.225   6.605
 9515SOL    HW229445   1.190   6.305   6.747
 9516SOL     OW29446   4.903   3.525   3.869
 9516SOL    HW129447   5.000   3.498   3.867
 9516SOL    HW229448   4.852   3.473   3.801
 9517SOL     OW29449   0.897   5.214   1.375
 9517SOL    HW129450   0.915   5.309   1.352
 9517SOL    HW229451   0.803   5.191   1.351
 9518SOL     OW29452   0.675   2.736   5.910
 9518SOL    HW129453   0.701   2.816   5.965
 9518SOL    HW229454   0.756   2.681   5.891
 9519SOL     OW29455   3.243   3.089   2.788
 9519SOL    HW129456   3.218   3.062   2.695
 9519SOL    HW229457   3.272   3.184   2.788
 9520SOL     OW29458   0.110   1.254   5.222
 9520SOL    HW129459   0.024   1.204   5.220
 9520SOL    HW229460   0.161   1.237   5.138
 9521SOL     OW29461   3.657   6.223   1.550
 9521SOL    HW129462   3.644   6.125   1.565
 9521SOL    HW229463   3.568   6.267   1.538
 9522SOL     OW29464   4.306   5.350   1.795
 9522SOL    HW129465   4.321   5.400   1.710
 9522SOL    HW229466   4.329   5.409   1.872
 9523SOL     OW29467   2.591   5.013   4.617
 9523SOL    HW129468   2.665   5.000   4.683
 9523SOL    HW229469   2.503   5.000   4.662
 9524SOL     OW29470   1.543   4.011   1.007
 9524SOL    HW129471   1.588   3.984   0.922
 9524SOL    HW229472   1.449   3.976   1.007
 9525SOL     OW29473   1.756   2.232   5.550
 9525SOL    HW129474   1.672   2.272   5.586
 9525SOL    HW229475   1.770   2.142   5.592
 9526SOL     OW29476   5.183   5.192   6.665
 9526SOL    HW129477   5.209   5.287   6.679
 9526SOL    HW229478   5.228   5.134   6.733
 9527SOL     OW29479   3.055   6.906   3.790
 9527SOL    HW129480   3.154   6.893   3.781
 9527SOL    HW229481   3.036   6.952   3.877
 9528SOL     OW29482   6.334   0.988   0.933
 9528SOL    HW129483   6.344   1.056   0.860
 9528SOL    HW229484   6.356   1.031   1.021
 9529SOL     OW29485   6.160   2.335   2.017
 9529SOL    HW129486   6.150   2.415   2.077
 9529SOL    HW229487   6.111   2.258   2.056
 9530SOL     OW29488   0.969   5.382   4.354
 9530SOL    HW129489   1.030   5.303   4.361
 9530SOL    HW229490   0.913   5.389   4.436
 9531SOL     OW29491   4.492   4.631   3.726
 9531SOL    HW129492   4.512   4.536   3.750
 9531SOL    HW229493   4.483   4.685   3.809
 9532SOL     OW29494   6.168   4.868   1.838
 9532SOL    HW129495   6.193   4.790   1.896
 9532SOL    HW229496   6.094   4.920   1.881
 9533SOL     OW29497   1.284   5.593   4.285
 9533SOL    HW129498   1.333   5.626   4.205
 9533SOL    HW229499   1.335   5.616   4.368
 9534SOL     OW29500   6.036   5.181   4.346
 9534SOL    HW129501   6.011   5.121   4.421
 9534SOL    HW229502   6.134   5.175   4.329
 9535SOL     OW29503   2.099   1.508   6.195
 9535SOL    HW129504   2.081   1.422   6.242
 9535SOL    HW229505   2.109   1.581   6.263
 9536SOL     OW29506   3.667   3.425   5.095
 9536SOL    HW129507   3.653   3.523   5.109
 9536SOL    HW229508   3.658   3.377   5.182
 9537SOL     OW29509   1.816   1.736   3.942
 9537SOL    HW129510   1.851   1.666   3.880
 9537SOL    HW229511   1.813   1.824   3.895
 9538SOL     OW29512   3.674   0.516   5.104
 9538SOL    HW129513   3.702   0.501   5.199
 9538SOL    HW229514   3.590   0.463   5.086
 9539SOL     OW29515   3.528   2.879   3.760
 9539SOL    HW129516   3.570   2.882   3.851
 9539SOL    HW229517   3.434   2.914   3.765
 9540SOL     OW29518   4.747   4.926   3.855
 9540SOL    HW129519   4.752   5.004   3.917
 9540SOL    HW229520   4.741   4.957   3.761
 9541SOL     OW29521   1.114   0.621   4.888
 9541SOL    HW129522   1.156   0.583   4.970
 9541SOL    HW229523   1.166   0.700   4.856
 9542SOL     OW29524   5.778   4.795   4.090
 9542SOL    HW129525   5.852   4.773   4.027
 9542SOL    HW229526   5.746   4.888   4.073
 9543SOL     OW29527   3.197   0.038   5.911
 9543SOL    HW129528   3.190   0.095   5.993
 9543SOL    HW229529   3.108   7.017   5.891
 9544SOL     OW29530   4.803   3.929   3.627
 9544SOL    HW129531   4.784   3.865   3.552
 9544SOL    HW229532   4.832   3.877   3.708
 9545SOL     OW29533   0.640   4.798   1.677
 9545SOL    HW129534   0.714   4.865   1.669
 9545SOL    HW229535   0.667   4.713   1.633
 9546SOL     OW29536   3.316   1.277   5.779
 9546SOL    HW129537   3.276   1.232   5.699
 9546SOL    HW229538   3.296   1.375   5.776
 9547SOL     OW29539   3.477   5.766   4.878
 9547SOL    HW129540   3.576   5.758   4.895
 9547SOL    HW229541   3.447   5.860   4.897
 9548SOL     OW29542   0.782   5.272   5.284
 9548SOL    HW129543   0.809   5.285   5.379
 9548SOL    HW229544   0.843   5.323   5.224
 9549SOL     OW29545   4.020   1.524   2.613
 9549SOL    HW129546   4.082   1.577   2.555
 9549SOL    HW229547   4.060   1.516   2.705
 9550SOL     OW29548   5.924   2.769   1.552
 9550SOL    HW129549   5.951   2.819   1.634
 9550SOL    HW229550   5.911   2.672   1.575
 9551SOL     OW29551   6.142   2.414   6.164
 9551SOL    HW129552   6.086   2.483   6.211
 9551SOL    HW229553   6.101   2.393   6.075
 9552SOL     OW29554   2.607   0.951   6.794
 9552SOL    HW129555   2.703   0.973   6.815
 9552SOL    HW229556   2.550   1.031   6.813
 9553SOL     OW29557   5.323   2.281   0.607
 9553SOL    HW129558   5.382   2.312   0.533
 9553SOL    HW229559   5.300   2.359   0.665
 9554SOL     OW29560   2.610   6.296   3.975
 9554SOL    HW129561   2.565   6.227   3.918
 9554SOL    HW229562   2.608   6.268   4.070
 9555SOL     OW29563   6.603   1.558   3.815
 9555SOL    HW129564   6.564   1.480   3.863
 9555SOL    HW229565   6.674   1.527   3.752
 9556SOL     OW29566   1.645   4.592   1.132
 9556SOL    HW129567   1.728   4.548   1.098
 9556SOL    HW229568   1.591   4.627   1.055
 9557SOL     OW29569   4.942   6.790   1.820
 9557SOL    HW129570   4.939   6.872   1.763
 9557SOL    HW229571   4.989   6.812   1.906
 9558SOL     OW29572   6.133   6.257   6.095
 9558SOL    HW129573   6.150   6.167   6.136
 9558SOL    HW229574   6.155   6.328   6.163
 9559SOL     OW29575   1.636   3.571   6.774
 9559SOL    HW129576   1.717   3.622   6.744
 9559SOL    HW229577   1.576   3.556   6.696
 9560SOL     OW29578   3.570   0.668   2.082
 9560SOL    HW129579   3.560   0.767   2.092
 9560SOL    HW229580   3.586   0.627   2.171
 9561SOL     OW29581   0.606   6.780   1.325
 9561SOL    HW129582   0.609   6.802   1.423
 9561SOL    HW229583   0.646   6.856   1.273
 9562SOL     OW29584   3.109   6.028   4.755
 9562SOL    HW129585   3.162   5.955   4.711
 9562SOL    HW229586   3.122   6.023   4.854
 9563SOL     OW29587   0.367   6.661   0.386
 9563SOL    HW129588   0.439   6.714   0.429
 9563SOL    HW229589   0.407   6.599   0.317
 9564SOL     OW29590   0.964   1.143   1.765
 9564SOL    HW129591   0.978   1.132   1.863
 9564SOL    HW229592   0.993   1.060   1.717
 9565SOL     OW29593   2.758   1.465   4.632
 9565SOL    HW129594   2.824   1.454   4.557
 9565SOL    HW229595   2.699   1.543   4.612
 9566SOL     OW29596   2.777   6.148   0.535
 9566SOL    HW129597   2.757   6.229   0.478
 9566SOL    HW229598   2.708   6.141   0.607
 9567SOL     OW29599   6.789   4.196   0.449
 9567SOL    HW129600   6.730   4.118   0.428
 9567SOL    HW229601   6.817   4.193   0.545
 9568SOL     OW29602   3.681   1.452   0.741
 9568SOL    HW129603   3.702   1.390   0.817
 9568SOL    HW229604   3.738   1.429   0.662
 9569SOL     OW29605   6.720   0.840   2.206
 9569SOL    HW129606   6.680   0.872   2.120
 9569SOL    HW229607   6.700   0.906   2.278
 9570SOL     OW29608   0.561   2.806   0.954
 9570SOL    HW129609   0.486   2.754   0.912
 9570SOL    HW229610   0.556   2.901   0.926
 9571SOL     OW29611   2.391   2.843   6.005
 9571SOL    HW129612   2.447   2.917   5.967
 9571SOL    HW229613   2.295   2.868   6.001
 9572SOL     OW29614   2.248   4.094   3.287
 9572SOL    HW129615   2.247   4.077   3.188
 9572SOL    HW229616   2.312   4.167   3.307
 9573SOL     OW29617   6.576   0.982   5.555
 9573SOL    HW129618   6.630   0.996   5.637
 9573SOL    HW229619   6.500   0.919   5.575
 9574SOL     OW29620   4.099   3.040   1.810
 9574SOL    HW129621   4.036   3.119   1.807
 9574SOL    HW229622   4.152   3.038   1.726
 9575SOL     OW29623   6.097   0.476   2.746
 9575SOL    HW129624   6.056   0.465   2.655
 9575SOL    HW229625   6.032   0.446   2.816
 9576SOL     OW29626   1.639   1.608   0.218
 9576SOL    HW129627   1.737   1.593   0.234
 9576SOL    HW229628   1.614   1.700   0.248
 9577SOL     OW29629   6.741   5.674   0.358
 9577SOL    HW129630   6.839   5.691   0.374
 9577SOL    HW229631   6.697   5.760   0.332
 9578SOL     OW29632   1.164   2.768   2.973
 9578SOL    HW129633   1.114   2.698   2.922
 9578SOL    HW229634   1.259   2.740   2.984
 9579SOL     OW29635   5.784   0.312   2.510
 9579SOL    HW129636   5.860   0.377   2.502
 9579SOL    HW229637   5.724   0.340   2.585
 9580SOL     OW29638   5.131   4.094   1.161
 9580SOL    HW129639   5.089   4.178   1.127
 9580SOL    HW229640   5.069   4.051   1.227
 9581SOL     OW29641   0.400   0.678   6.419
 9581SOL    HW129642   0.335   0.717   6.353
 9581SOL    HW229643   0.351   0.617   6.481
 9582SOL     OW29644   3.454   6.017   4.775
 9582SOL    HW129645   3.434   5.963   4.694
 9582SOL    HW229646   3.505   6.099   4.749
 9583SOL     OW29647   3.208   4.423   1.495
 9583SOL    HW129648   3.139   4.462   1.556
 9583SOL    HW229649   3.198   4.463   1.404
 9584SOL     OW29650   1.484   4.659   5.582
 9584SOL    HW129651   1.500   4.567   5.619
 9584SOL    HW229652   1.559   4.719   5.607
 9585SOL     OW29653   5.274   6.634   1.797
 9585SOL    HW129654   5.187   6.584   1.805
 9585SOL    HW229655   5.350   6.572   1.816
 9586SOL     OW29656   4.814   5.458   2.037
 9586SOL    HW129657   4.898   5.511   2.044
 9586SOL    HW229658   4.788   5.449   1.941
 9587SOL     OW29659   1.739   6.082   2.320
 9587SOL    HW129660   1.729   6.024   2.401
 9587SOL    HW229661   1.652   6.127   2.300
 9588SOL     OW29662   6.133   6.225   0.884
 9588SOL    HW129663   6.183   6.157   0.938
 9588SOL    HW229664   6.124   6.309   0.937
 9589SOL     OW29665   1.897   3.727   6.670
 9589SOL    HW129666   1.992   3.699   6.681
 9589SOL    HW229667   1.863   3.767   6.756
 9590SOL     OW29668   6.016   2.048   1.819
 9590SOL    HW129669   6.009   2.124   1.883
 9590SOL    HW229670   6.020   1.962   1.869
 9591SOL     OW29671   3.516   6.556   6.230
 9591SOL    HW129672   3.603   6.513   6.203
 9591SOL    HW229673   3.532   6.618   6.306
 9592SOL     OW29674   3.154   4.700   6.655
 9592SOL    HW129675   3.166   4.635   6.730
 9592SOL    HW229676   3.197   4.787   6.678
 9593SOL     OW29677   1.445   1.786   5.528
 9593SOL    HW129678   1.511   1.712   5.514
 9593SOL    HW229679   1.473   1.866   5.476
 9594SOL     OW29680   3.171   6.423   4.249
 9594SOL    HW129681   3.086   6.371   4.262
 9594SOL    HW229682   3.215   6.394   4.164
 9595SOL     OW29683   0.589   3.483   3.246
 9595SOL    HW129684   0.656   3.526   3.306
 9595SOL    HW229685   0.635   3.418   3.185
 9596SOL     OW29686   0.917   5.332   0.528
 9596SOL    HW129687   0.904   5.416   0.476
 9596SOL    HW229688   0.846   5.326   0.598
 9597SOL     OW29689   0.566   4.506   1.268
 9597SOL    HW129690   0.524   4.417   1.252
 9597SOL    HW229691   0.510   4.577   1.226
 9598SOL     OW29692   2.166   3.931   3.010
 9598SOL    HW129693   2.160   3.835   3.036
 9598SOL    HW229694   2.127   3.943   2.919
 9599SOL     OW29695   3.344   6.651   4.281
 9599SOL    HW129696   3.439   6.617   4.282
 9599SOL    HW229697   3.281   6.573   4.274
 9600SOL     OW29698   2.776   0.272   0.878
 9600SOL    HW129699   2.819   0.183   0.862
 9600SOL    HW229700   2.711   0.292   0.804
 9601SOL     OW29701   5.809   4.042   0.928
 9601SOL    HW129702   5.720   4.049   0.884
 9601SOL    HW229703   5.803   4.080   1.020
 9602SOL     OW29704   4.918   4.053   5.657
 9602SOL    HW129705   4.857   3.986   5.616
 9602SOL    HW229706   4.865   4.127   5.698
 9603SOL     OW29707   5.550   6.574   6.193
 9603SOL    HW129708   5.588   6.659   6.231
 9603SOL    HW229709   5.492   6.595   6.115
 9604SOL     OW29710   5.130   0.212   1.583
 9604SOL    HW129711   5.097   0.306   1.568
 9604SOL    HW229712   5.214   0.198   1.530
 9605SOL     OW29713   0.716   5.434   2.671
 9605SOL    HW129714   0.618   5.436   2.689
 9605SOL    HW229715   0.743   5.342   2.642
 9606SOL     OW29716   1.760   0.892   6.724
 9606SOL    HW129717   1.818   0.852   6.794
 9606SOL    HW229718   1.799   0.873   6.633
 9607SOL     OW29719   2.845   1.405   0.147
 9607SOL    HW129720   2.759   1.456   0.149
 9607SOL    HW229721   2.917   1.463   0.109
 9608SOL     OW29722   6.962   4.851   2.598
 9608SOL    HW129723   0.011   4.912   2.638
 9608SOL    HW229724   6.871   4.886   2.616
 9609SOL     OW29725   4.197   3.046   0.089
 9609SOL    HW129726   4.272   3.019   0.149
 9609SOL    HW229727   4.153   3.129   0.124
 9610SOL     OW29728   1.743   4.810   2.667
 9610SOL    HW129729   1.776   4.755   2.590
 9610SOL    HW229730   1.705   4.896   2.631
 9611SOL     OW29731   1.582   6.388   0.435
 9611SOL    HW129732   1.643   6.346   0.368
 9611SOL    HW229733   1.525   6.317   0.477
 9612SOL     OW29734   0.606   3.503   1.777
 9612SOL    HW129735   0.698   3.464   1.790
 9612SOL    HW229736   0.553   3.492   1.862
 9613SOL     OW29737   5.482   6.448   3.150
 9613SOL    HW129738   5.392   6.445   3.194
 9613SOL    HW229739   5.549   6.403   3.209
 9614SOL     OW29740   3.677   1.827   2.208
 9614SOL    HW129741   3.763   1.878   2.202
 9614SOL    HW229742   3.676   1.775   2.293
 9615SOL     OW29743   2.755   1.434   1.279
 9615SOL    HW129744   2.680   1.493   1.306
 9615SOL    HW229745   2.838   1.488   1.267
 9616SOL     OW29746   3.736   3.447   1.051
 9616SOL    HW129747   3.692   3.368   1.008
 9616SOL    HW229748   3.767   3.421   1.143
 9617SOL     OW29749   2.131   2.850   3.347
 9617SOL    HW129750   2.185   2.773   3.311
 9617SOL    HW229751   2.037   2.844   3.314
 9618SOL     OW29752   2.893   0.065   1.159
 9618SOL    HW129753   2.927   0.154   1.189
 9618SOL    HW229754   2.966   0.016   1.111
 9619SOL     OW29755   2.082   0.422   5.579
 9619SOL    HW129756   2.068   0.365   5.660
 9619SOL    HW229757   2.083   0.518   5.605
 9620SOL     OW29758   4.138   0.030   4.547
 9620SOL    HW129759   4.171   0.084   4.624
 9620SOL    HW229760   4.038   0.026   4.549
 9621SOL     OW29761   1.676   3.197   1.587
 9621SOL    HW129762   1.766   3.178   1.548
 9621SOL    HW229763   1.615   3.120   1.569
 9622SOL     OW29764   6.396   1.619   0.868
 9622SOL    HW129765   6.340   1.549   0.824
 9622SOL    HW229766   6.392   1.607   0.968
 9623SOL     OW29767   2.336   3.316   6.094
 9623SOL    HW129768   2.400   3.318   6.017
 9623SOL    HW229769   2.366   3.246   6.159
 9624SOL     OW29770   5.885   3.959   3.238
 9624SOL    HW129771   5.914   4.054   3.221
 9624SOL    HW229772   5.802   3.940   3.185
 9625SOL     OW29773   5.522   5.406   0.434
 9625SOL    HW129774   5.456   5.415   0.360
 9625SOL    HW229775   5.567   5.317   0.429
 9626SOL     OW29776   3.818   5.079   0.503
 9626SOL    HW129777   3.806   4.981   0.488
 9626SOL    HW229778   3.748   5.111   0.568
 9627SOL     OW29779   0.818   6.368   6.482
 9627SOL    HW129780   0.783   6.339   6.393
 9627SOL    HW229781   0.763   6.326   6.554
 9628SOL     OW29782   5.226   4.949   0.776
 9628SOL    HW129783   5.237   5.005   0.694
 9628SOL    HW229784   5.176   5.000   0.846
 9629SOL     OW29785   2.013   0.660   1.689
 9629SOL    HW129786   1.996   0.758   1.678
 9629SOL    HW229787   1.948   0.622   1.754
 9630SOL     OW29788   5.806   6.718   4.587
 9630SOL    HW129789   5.713   6.725   4.623
 9630SOL    HW229790   5.840   6.625   4.600
 9631SOL     OW29791   6.856   0.214   5.838
 9631SOL    HW129792   6.846   0.221   5.738
 9631SOL    HW229793   6.890   0.123   5.861
 9632SOL     OW29794   1.274   6.396   2.836
 9632SOL    HW129795   1.176   6.378   2.837
 9632SOL    HW229796   1.305   6.417   2.929
 9633SOL     OW29797   5.683   4.923   6.608
 9633SOL    HW129798   5.643   4.982   6.537
 9633SOL    HW229799   5.611   4.895   6.672
 9634SOL     OW29800   1.364   6.633   4.208
 9634SOL    HW129801   1.457   6.635   4.170
 9634SOL    HW229802   1.320   6.547   4.182
 9635SOL     OW29803   2.436   5.812   5.107
 9635SOL    HW129804   2.456   5.859   5.021
 9635SOL    HW229805   2.462   5.715   5.099
 9636SOL     OW29806   4.338   1.612   5.541
 9636SOL    HW129807   4.344   1.536   5.477
 9636SOL    HW229808   4.262   1.597   5.604
 9637SOL     OW29809   2.393   2.290   6.397
 9637SOL    HW129810   2.395   2.371   6.338
 9637SOL    HW229811   2.466   2.298   6.465
 9638SOL     OW29812   6.797   3.664   6.076
 9638SOL    HW129813   6.819   3.570   6.102
 9638SOL    HW229814   6.809   3.724   6.155
 9639SOL     OW29815   3.927   1.623   2.260
 9639SOL    HW129816   4.006   1.595   2.205
 9639SOL    HW229817   3.959   1.673   2.340
 9640SOL     OW29818   2.277   2.874   3.689
 9640SOL    HW129819   2.349   2.878   3.620
 9640SOL    HW229820   2.199   2.822   3.652
 9641SOL     OW29821   4.401   0.144   0.255
 9641SOL    HW129822   4.499   0.162   0.254
 9641SOL    HW229823   4.353   0.224   0.291
 9642SOL     OW29824   2.460   0.109   4.784
 9642SOL    HW129825   2.455   0.208   4.796
 9642SOL    HW229826   2.502   0.088   4.696
 9643SOL     OW29827   5.440   3.900   3.661
 9643SOL    HW129828   5.427   3.930   3.755
 9643SOL    HW229829   5.413   3.973   3.598
 9644SOL     OW29830   1.204   3.162   6.252
 9644SOL    HW129831   1.141   3.231   6.217
 9644SOL    HW229832   1.177   3.136   6.345
 9645SOL     OW29833   2.518   5.113   5.378
 9645SOL    HW129834   2.478   5.097   5.288
 9645SOL    HW229835   2.465   5.063   5.447
 9646SOL     OW29836   3.892   4.802   2.379
 9646SOL    HW129837   3.800   4.772   2.353
 9646SOL    HW229838   3.956   4.780   2.305
 9647SOL     OW29839   6.368   3.579   1.451
 9647SOL    HW129840   6.332   3.509   1.389
 9647SOL    HW229841   6.451   3.619   1.412
 9648SOL     OW29842   4.094   1.635   1.288
 9648SOL    HW129843   4.043   1.615   1.204
 9648SOL    HW229844   4.068   1.569   1.358
 9649SOL     OW29845   2.895   6.589   0.172
 9649SOL    HW129846   2.971   6.524   0.162
 9649SOL    HW229847   2.837   6.585   0.091
 9650SOL     OW29848   6.991   5.055   2.282
 9650SOL    HW129849   0.057   5.021   2.321
 9650SOL    HW229850   6.916   5.044   2.348
 9651SOL     OW29851   0.255   2.051   5.392
 9651SOL    HW129852   0.177   1.992   5.415
 9651SOL    HW229853   0.278   2.040   5.295
 9652SOL     OW29854   0.875   4.944   1.620
 9652SOL    HW129855   0.837   5.034   1.642
 9652SOL    HW229856   0.963   4.934   1.666
 9653SOL     OW29857   4.288   4.740   4.690
 9653SOL    HW129858   4.281   4.662   4.752
 9653SOL    HW229859   4.287   4.825   4.742
 9654SOL     OW29860   2.668   2.409   1.834
 9654SOL    HW129861   2.672   2.310   1.825
 9654SOL    HW229862   2.760   2.445   1.848
 9655SOL     OW29863   0.242   2.091   6.078
 9655SOL    HW129864   0.248   1.995   6.105
 9655SOL    HW229865   0.327   2.119   6.033
 9656SOL     OW29866   2.805   0.273   2.574
 9656SOL    HW129867   2.768   0.361   2.546
 9656SOL    HW229868   2.732   0.205   2.579
 9657SOL     OW29869   5.563   0.673   4.267
 9657SOL    HW129870   5.568   0.589   4.214
 9657SOL    HW229871   5.472   0.681   4.308
 9658SOL     OW29872   6.796   2.575   2.317
 9658SOL    HW129873   6.805   2.661   2.267
 9658SOL    HW229874   6.749   2.592   2.404
 9659SOL     OW29875   0.032   4.267   0.494
 9659SOL    HW129876   6.967   4.245   0.446
 9659SOL    HW229877   0.043   4.205   0.572
 9660SOL     OW29878   0.725   5.897   1.085
 9660SOL    HW129879   0.809   5.845   1.073
 9660SOL    HW229880   0.656   5.864   1.020
 9661SOL     OW29881   4.558   6.686   0.656
 9661SOL    HW129882   4.464   6.683   0.621
 9661SOL    HW229883   4.612   6.613   0.613
 9662SOL     OW29884   6.066   2.471   4.879
 9662SOL    HW129885   6.137   2.536   4.850
 9662SOL    HW229886   6.096   2.426   4.963
 9663SOL     OW29887   1.628   5.359   3.189
 9663SOL    HW129888   1.726   5.367   3.177
 9663SOL    HW229889   1.609   5.303   3.270
 9664SOL     OW29890   4.638   6.883   2.728
 9664SOL    HW129891   4.573   6.896   2.803
 9664SOL    HW229892   4.655   6.971   2.684
 9665SOL     OW29893   5.557   4.918   4.836
 9665SOL    HW129894   5.597   5.007   4.860
 9665SOL    HW229895   5.621   4.845   4.861
 9666SOL     OW29896   5.996   3.839   1.917
 9666SOL    HW129897   6.092   3.849   1.942
 9666SOL    HW229898   5.942   3.910   1.962
 9667SOL     OW29899   3.540   3.811   3.725
 9667SOL    HW129900   3.508   3.878   3.658
 9667SOL    HW229901   3.492   3.724   3.712
 9668SOL     OW29902   0.139   1.250   5.834
 9668SOL    HW129903   0.205   1.306   5.785
 9668SOL    HW229904   0.055   1.242   5.781
 9669SOL     OW29905   0.522   0.401   0.224
 9669SOL    HW129906   0.536   0.469   0.296
 9669SOL    HW229907   0.475   0.444   0.146
 9670SOL     OW29908   4.935   4.507   6.243
 9670SOL    HW129909   4.916   4.437   6.175
 9670SOL    HW229910   4.870   4.582   6.234
 9671SOL     OW29911   0.042   5.732   5.862
 9671SOL    HW129912   0.125   5.725   5.806
 9671SOL    HW229913   6.993   5.788   5.815
 9672SOL     OW29914   1.489   6.290   4.368
 9672SOL    HW129915   1.400   6.286   4.414
 9672SOL    HW229916   1.543   6.210   4.395
 9673SOL     OW29917   3.795   3.691   6.526
 9673SOL    HW129918   3.734   3.653   6.596
 9673SOL    HW229919   3.885   3.708   6.566
 9674SOL     OW29920   3.244   6.256   1.340
 9674SOL    HW129921   3.284   6.224   1.255
 9674SOL    HW229922   3.149   6.283   1.324
 9675SOL     OW29923   6.553   1.296   2.366
 9675SOL    HW129924   6.493   1.346   2.428
 9675SOL    HW229925   6.616   1.360   2.322
 9676SOL     OW29926   1.110   3.283   5.119
 9676SOL    HW129927   1.174   3.208   5.103
 9676SOL    HW229928   1.017   3.246   5.127
 9677SOL     OW29929   2.385   4.210   5.747
 9677SOL    HW129930   2.448   4.156   5.803
 9677SOL    HW229931   2.387   4.177   5.653
 9678SOL     OW29932   4.123   3.332   2.861
 9678SOL    HW129933   4.095   3.249   2.910
 9678SOL    HW229934   4.165   3.396   2.925
 9679SOL     OW29935   1.617   2.934   1.495
 9679SOL    HW129936   1.557   2.971   1.425
 9679SOL    HW229937   1.563   2.908   1.575
 9680SOL     OW29938   5.900   6.263   3.263
 9680SOL    HW129939   5.962   6.300   3.193
 9680SOL    HW229940   5.938   6.178   3.299
 9681SOL     OW29941   2.021   0.533   1.279
 9681SOL    HW129942   2.017   0.482   1.365
 9681SOL    HW229943   2.010   0.631   1.297
 9682SOL     OW29944   5.262   5.113   3.433
 9682SOL    HW129945   5.356   5.131   3.460
 9682SOL    HW229946   5.200   5.168   3.489
 9683SOL     OW29947   3.787   5.004   0.097
 9683SOL    HW129948   3.791   5.087   0.152
 9683SOL    HW229949   3.825   4.928   0.150
 9684SOL     OW29950   0.493   3.725   4.761
 9684SOL    HW129951   0.498   3.808   4.705
 9684SOL    HW229952   0.484   3.645   4.701
 9685SOL     OW29953   2.409   3.131   1.001
 9685SOL    HW129954   2.420   3.201   1.071
 9685SOL    HW229955   2.312   3.108   0.991
 9686SOL     OW29956   6.618   0.663   1.385
 9686SOL    HW129957   6.563   0.655   1.302
 9686SOL    HW229958   6.707   0.704   1.363
 9687SOL     OW29959   2.486   0.785   3.124
 9687SOL    HW129960   2.476   0.710   3.059
 9687SOL    HW229961   2.395   0.817   3.152
 9688SOL     OW29962   0.138   2.065   3.020
 9688SOL    HW129963   0.236   2.049   3.003
 9688SOL    HW229964   0.085   1.987   2.986
 9689SOL     OW29965   2.606   6.211   6.953
 9689SOL    HW129966   2.659   6.132   6.981
 9689SOL    HW229967   2.657   6.295   6.973
 9690SOL     OW29968   6.303   4.766   0.086
 9690SOL    HW129969   6.351   4.748   0.171
 9690SOL    HW229970   6.251   4.851   0.094
 9691SOL     OW29971   1.973   5.498   1.459
 9691SOL    HW129972   2.014   5.429   1.399
 9691SOL    HW229973   1.976   5.466   1.553
 9692SOL     OW29974   2.916   5.229   1.814
 9692SOL    HW129975   2.949   5.274   1.898
 9692SOL    HW229976   2.954   5.276   1.734
 9693SOL     OW29977   6.374   5.604   1.778
 9693SOL    HW129978   6.412   5.657   1.702
 9693SOL    HW229979   6.355   5.511   1.746
 9694SOL     OW29980   1.465   2.378   0.411
 9694SOL    HW129981   1.505   2.465   0.382
 9694SOL    HW229982   1.536   2.307   0.411
 9695SOL     OW29983   6.242   4.348   1.055
 9695SOL    HW129984   6.296   4.391   1.128
 9695SOL    HW229985   6.150   4.327   1.090
 9696SOL     OW29986   3.975   2.818   1.662
 9696SOL    HW129987   3.891   2.833   1.714
 9696SOL    HW229988   4.048   2.875   1.701
 9697SOL     OW29989   0.800   4.924   6.991
 9697SOL    HW129990   0.880   4.923   6.931
 9697SOL    HW229991   0.828   4.943   0.066
 9698SOL     OW29992   6.117   0.828   5.005
 9698SOL    HW129993   6.109   0.777   4.919
 9698SOL    HW229994   6.026   0.847   5.042
 9699SOL     OW29995   0.917   3.283   6.471
 9699SOL    HW129996   1.002   3.231   6.480
 9699SOL    HW229997   0.939   3.379   6.449
 9700SOL     OW29998   3.305   4.765   5.502
 9700SOL    HW129999   3.212   4.766   5.540
 9700SOL    HW230000   3.327   4.672   5.471
 9701SOL     OW30001   3.911   5.330   4.683
 9701SOL    HW130002   3.873   5.404   4.739
 9701SOL    HW230003   3.906   5.244   4.734
 9702SOL     OW30004   5.179   1.071   0.234
 9702SOL    HW130005   5.212   1.111   0.319
 9702SOL    HW230006   5.087   1.106   0.214
 9703SOL     OW30007   3.240   5.974   4.362
 9703SOL    HW130008   3.224   5.880   4.392
 9703SOL    HW230009   3.189   5.991   4.278
 9704SOL     OW30010   3.588   6.851   2.898
 9704SOL    HW130011   3.604   6.864   2.995
 9704SOL    HW230012   3.503   6.896   2.872
 9705SOL     OW30013   3.735   4.804   0.491
 9705SOL    HW130014   3.668   4.732   0.508
 9705SOL    HW230015   3.791   4.779   0.412
 9706SOL     OW30016   6.424   2.724   1.630
 9706SOL    HW130017   6.352   2.748   1.695
 9706SOL    HW230018   6.508   2.702   1.680
 9707SOL     OW30019   1.062   4.184   2.267
 9707SOL    HW130020   1.010   4.233   2.196
 9707SOL    HW230021   1.118   4.113   2.224
 9708SOL     OW30022   1.934   1.957   4.147
 9708SOL    HW130023   1.907   2.037   4.199
 9708SOL    HW230024   1.918   1.874   4.201
 9709SOL     OW30025   0.842   6.244   3.525
 9709SOL    HW130026   0.759   6.191   3.508
 9709SOL    HW230027   0.862   6.245   3.623
 9710SOL     OW30028   0.242   1.084   2.976
 9710SOL    HW130029   0.181   1.093   2.897
 9710SOL    HW230030   0.202   1.023   3.043
 9711SOL     OW30031   1.578   3.163   5.905
 9711SOL    HW130032   1.606   3.259   5.916
 9711SOL    HW230033   1.659   3.105   5.901
 9712SOL     OW30034   5.579   1.948   4.689
 9712SOL    HW130035   5.494   1.900   4.712
 9712SOL    HW230036   5.629   1.971   4.772
 9713SOL     OW30037   0.354   4.787   3.344
 9713SOL    HW130038   0.367   4.752   3.251
 9713SOL    HW230039   0.340   4.886   3.340
 9714SOL     OW30040   2.103   1.564   2.012
 9714SOL    HW130041   2.078   1.524   2.101
 9714SOL    HW230042   2.173   1.507   1.969
 9715SOL     OW30043   5.837   5.462   5.042
 9715SOL    HW130044   5.907   5.439   5.109
 9715SOL    HW230045   5.840   5.396   4.966
 9716SOL     OW30046   4.167   1.736   6.971
 9716SOL    HW130047   4.211   1.767   6.887
 9716SOL    HW230048   4.074   1.704   6.950
 9717SOL     OW30049   5.283   5.972   3.902
 9717SOL    HW130050   5.246   6.003   3.814
 9717SOL    HW230051   5.296   6.050   3.962
 9718SOL     OW30052   3.911   3.364   1.279
 9718SOL    HW130053   3.987   3.428   1.290
 9718SOL    HW230054   3.923   3.287   1.342
 9719SOL     OW30055   0.763   2.210   0.105
 9719SOL    HW130056   0.669   2.175   0.099
 9719SOL    HW230057   0.790   2.214   0.201
 9720SOL     OW30058   0.338   6.404   2.423
 9720SOL    HW130059   0.370   6.418   2.330
 9720SOL    HW230060   0.245   6.368   2.422
 9721SOL     OW30061   0.176   3.983   2.101
 9721SOL    HW130062   0.136   4.021   2.017
 9721SOL    HW230063   0.274   4.001   2.101
 9722SOL     OW30064   0.289   0.994   3.383
 9722SOL    HW130065   0.277   0.904   3.424
 9722SOL    HW230066   0.227   1.003   3.305
 9723SOL     OW30067   0.584   0.281   3.113
 9723SOL    HW130068   0.507   0.287   3.050
 9723SOL    HW230069   0.628   0.192   3.104
 9724SOL     OW30070   2.932   2.703   1.683
 9724SOL    HW130071   2.928   2.793   1.726
 9724SOL    HW230072   2.936   2.632   1.754
 9725SOL     OW30073   4.862   3.594   6.104
 9725SOL    HW130074   4.782   3.536   6.118
 9725SOL    HW230075   4.925   3.585   6.181
 9726SOL     OW30076   5.435   6.731   4.468
 9726SOL    HW130077   5.338   6.747   4.451
 9726SOL    HW230078   5.463   6.778   4.553
 9727SOL     OW30079   0.771   3.138   5.491
 9727SOL    HW130080   0.856   3.109   5.448
 9727SOL    HW230081   0.746   3.074   5.564
 9728SOL     OW30082   1.789   6.188   6.401
 9728SOL    HW130083   1.700   6.230   6.388
 9728SOL    HW230084   1.857   6.237   6.346
 9729SOL     OW30085   1.222   4.492   2.872
 9729SOL    HW130086   1.214   4.443   2.785
 9729SOL    HW230087   1.319   4.509   2.892
 9730SOL     OW30088   6.996   2.983   2.584
 9730SOL    HW130089   0.064   2.965   2.630
 9730SOL    HW230090   6.977   3.081   2.585
 9731SOL     OW30091   3.929   5.141   0.816
 9731SOL    HW130092   3.889   5.233   0.817
 9731SOL    HW230093   3.878   5.082   0.879
 9732SOL     OW30094   0.177   5.938   2.594
 9732SOL    HW130095   0.199   5.880   2.515
 9732SOL    HW230096   0.179   6.034   2.566
 9733SOL     OW30097   5.606   5.142   5.306
 9733SOL    HW130098   5.529   5.079   5.295
 9733SOL    HW230099   5.688   5.101   5.265
 9734SOL     OW30100   5.373   1.761   4.444
 9734SOL    HW130101   5.300   1.751   4.377
 9734SOL    HW230102   5.337   1.803   4.527
 9735SOL     OW30103   2.598   5.058   2.264
 9735SOL    HW130104   2.638   5.026   2.349
 9735SOL    HW230105   2.670   5.087   2.201
 9736SOL     OW30106   5.447   1.252   6.822
 9736SOL    HW130107   5.503   1.319   6.870
 9736SOL    HW230108   5.354   1.287   6.812
 9737SOL     OW30109   4.209   2.264   4.890
 9737SOL    HW130110   4.180   2.329   4.960
 9737SOL    HW230111   4.267   2.194   4.932
 9738SOL     OW30112   1.454   0.914   3.490
 9738SOL    HW130113   1.509   0.830   3.498
 9738SOL    HW230114   1.384   0.900   3.420
 9739SOL     OW30115   6.880   5.109   1.779
 9739SOL    HW130116   6.841   5.017   1.772
 9739SOL    HW230117   6.844   5.165   1.705
 9740SOL     OW30118   6.076   3.940   2.942
 9740SOL    HW130119   6.039   3.883   2.868
 9740SOL    HW230120   6.151   3.995   2.906
 9741SOL     OW30121   4.269   1.647   2.499
 9741SOL    HW130122   4.346   1.628   2.560
 9741SOL    HW230123   4.266   1.745   2.480
 9742SOL     OW30124   5.383   0.704   3.094
 9742SOL    HW130125   5.425   0.716   3.004
 9742SOL    HW230126   5.398   0.786   3.149
 9743SOL     OW30127   1.835   3.180   5.759
 9743SOL    HW130128   1.912   3.192   5.822
 9743SOL    HW230129   1.839   3.089   5.717
 9744SOL     OW30130   1.828   0.761   2.220
 9744SOL    HW130131   1.919   0.802   2.221
 9744SOL    HW230132   1.765   0.820   2.169
 9745SOL     OW30133   1.119   2.419   4.989
 9745SOL    HW130134   1.038   2.474   4.970
 9745SOL    HW230135   1.108   2.328   4.949
 9746SOL     OW30136   5.466   0.780   5.272
 9746SOL    HW130137   5.470   0.751   5.367
 9746SOL    HW230138   5.505   0.708   5.214
 9747SOL     OW30139   1.344   0.632   0.741
 9747SOL    HW130140   1.356   0.633   0.642
 9747SOL    HW230141   1.319   0.539   0.770
 9748SOL     OW30142   1.399   5.667   4.046
 9748SOL    HW130143   1.412   5.597   3.976
 9748SOL    HW230144   1.325   5.728   4.019
 9749SOL     OW30145   1.308   3.340   4.764
 9749SOL    HW130146   1.347   3.252   4.738
 9749SOL    HW230147   1.313   3.404   4.687
 9750SOL     OW30148   4.973   4.865   3.501
 9750SOL    HW130149   4.931   4.921   3.431
 9750SOL    HW230150   5.072   4.878   3.499
 9751SOL     OW30151   1.532   2.083   1.080
 9751SOL    HW130152   1.553   2.078   0.982
 9751SOL    HW230153   1.442   2.045   1.097
 9752SOL     OW30154   4.328   0.651   5.987
 9752SOL    HW130155   4.269   0.642   6.067
 9752SOL    HW230156   4.327   0.566   5.934
 9753SOL     OW30157   6.633   5.590   5.028
 9753SOL    HW130158   6.667   5.545   4.946
 9753SOL    HW230159   6.542   5.629   5.010
 9754SOL     OW30160   1.088   1.661   6.924
 9754SOL    HW130161   1.031   1.582   6.901
 9754SOL    HW230162   1.098   1.666   0.005
 9755SOL     OW30163   4.013   3.416   5.126
 9755SOL    HW130164   3.922   3.424   5.165
 9755SOL    HW230165   4.023   3.326   5.084
 9756SOL     OW30166   5.959   3.107   6.868
 9756SOL    HW130167   5.899   3.027   6.876
 9756SOL    HW230168   5.945   3.167   6.948
 9757SOL     OW30169   5.264   2.658   3.767
 9757SOL    HW130170   5.292   2.730   3.830
 9757SOL    HW230171   5.182   2.613   3.802
 9758SOL     OW30172   2.150   0.197   6.777
 9758SOL    HW130173   2.085   0.230   6.845
 9758SOL    HW230174   2.210   0.272   6.750
 9759SOL     OW30175   2.230   6.100   1.570
 9759SOL    HW130176   2.204   6.023   1.627
 9759SOL    HW230177   2.179   6.182   1.599
 9760SOL     OW30178   5.148   4.998   4.996
 9760SOL    HW130179   5.193   5.043   4.918
 9760SOL    HW230180   5.218   4.953   5.052
 9761SOL     OW30181   5.471   4.847   1.839
 9761SOL    HW130182   5.540   4.850   1.911
 9761SOL    HW230183   5.402   4.917   1.857
 9762SOL     OW30184   2.132   1.845   5.090
 9762SOL    HW130185   2.154   1.914   5.158
 9762SOL    HW230186   2.202   1.773   5.091
 9763SOL     OW30187   3.774   1.171   1.625
 9763SOL    HW130188   3.748   1.268   1.635
 9763SOL    HW230189   3.756   1.142   1.531
 9764SOL     OW30190   1.507   3.328   3.223
 9764SOL    HW130191   1.415   3.295   3.201
 9764SOL    HW230192   1.551   3.364   3.141
 9765SOL     OW30193   6.943   2.498   5.455
 9765SOL    HW130194   6.931   2.432   5.381
 9765SOL    HW230195   6.977   2.451   5.537
 9766SOL     OW30196   3.015   0.758   3.191
 9766SOL    HW130197   2.918   0.765   3.213
 9766SOL    HW230198   3.063   0.712   3.266
 9767SOL     OW30199   5.301   0.973   5.215
 9767SOL    HW130200   5.362   0.900   5.244
 9767SOL    HW230201   5.217   0.933   5.178
 9768SOL     OW30202   4.651   1.957   2.365
 9768SOL    HW130203   4.572   1.902   2.340
 9768SOL    HW230204   4.645   2.047   2.320
 9769SOL     OW30205   1.152   2.215   1.409
 9769SOL    HW130206   1.193   2.299   1.446
 9769SOL    HW230207   1.225   2.148   1.392
 9770SOL     OW30208   5.193   5.172   5.971
 9770SOL    HW130209   5.262   5.105   5.998
 9770SOL    HW230210   5.220   5.216   5.885
 9771SOL     OW30211   4.580   5.072   0.126
 9771SOL    HW130212   4.483   5.053   0.111
 9771SOL    HW230213   4.617   5.119   0.046
 9772SOL     OW30214   6.710   6.803   1.944
 9772SOL    HW130215   6.808   6.811   1.961
 9772SOL    HW230216   6.673   6.726   1.996
 9773SOL     OW30217   5.677   5.469   3.294
 9773SOL    HW130218   5.745   5.467   3.368
 9773SOL    HW230219   5.609   5.539   3.315
 9774SOL     OW30220   5.668   5.055   4.022
 9774SOL    HW130221   5.632   5.062   4.115
 9774SOL    HW230222   5.662   5.143   3.976
 9775SOL     OW30223   1.831   2.635   4.401
 9775SOL    HW130224   1.888   2.692   4.461
 9775SOL    HW230225   1.749   2.687   4.375
 9776SOL     OW30226   6.825   5.458   4.427
 9776SOL    HW130227   6.840   5.447   4.525
 9776SOL    HW230228   6.734   5.497   4.411
 9777SOL     OW30229   5.930   3.914   5.864
 9777SOL    HW130230   5.894   4.007   5.871
 9777SOL    HW230231   5.865   3.857   5.814
 9778SOL     OW30232   4.717   6.525   2.708
 9778SOL    HW130233   4.741   6.544   2.804
 9778SOL    HW230234   4.717   6.426   2.693
 9779SOL     OW30235   3.086   1.452   5.079
 9779SOL    HW130236   3.072   1.547   5.107
 9779SOL    HW230237   3.029   1.433   4.999
 9780SOL     OW30238   2.459   3.181   0.701
 9780SOL    HW130239   2.394   3.169   0.625
 9780SOL    HW230240   2.413   3.162   0.788
 9781SOL     OW30241   2.553   4.741   5.106
 9781SOL    HW130242   2.475   4.698   5.060
 9781SOL    HW230243   2.638   4.707   5.066
 9782SOL     OW30244   6.069   0.254   1.135
 9782SOL    HW130245   6.075   0.192   1.213
 9782SOL    HW230246   5.974   0.258   1.104
 9783SOL     OW30247   6.290   1.667   2.616
 9783SOL    HW130248   6.220   1.600   2.639
 9783SOL    HW230249   6.248   1.746   2.571
 9784SOL     OW30250   4.162   1.430   2.887
 9784SOL    HW130251   4.105   1.359   2.928
 9784SOL    HW230252   4.171   1.507   2.950
 9785SOL     OW30253   6.778   2.615   2.830
 9785SOL    HW130254   6.728   2.664   2.901
 9785SOL    HW230255   6.820   2.533   2.869
 9786SOL     OW30256   2.148   5.466   5.770
 9786SOL    HW130257   2.155   5.442   5.866
 9786SOL    HW230258   2.209   5.408   5.716
 9787SOL     OW30259   4.761   3.895   1.807
 9787SOL    HW130260   4.851   3.902   1.851
 9787SOL    HW230261   4.735   3.799   1.798
 9788SOL     OW30262   6.495   0.717   4.453
 9788SOL    HW130263   6.507   0.637   4.512
 9788SOL    HW230264   6.510   0.800   4.506
 9789SOL     OW30265   2.517   5.963   4.898
 9789SOL    HW130266   2.568   5.922   4.822
 9789SOL    HW230267   2.555   6.053   4.919
 9790SOL     OW30268   5.957   1.831   4.306
 9790SOL    HW130269   5.918   1.758   4.363
 9790SOL    HW230270   5.898   1.847   4.228
 9791SOL     OW30271   1.294   1.243   1.426
 9791SOL    HW130272   1.259   1.273   1.515
 9791SOL    HW230273   1.315   1.146   1.430
 9792SOL     OW30274   4.277   4.779   0.951
 9792SOL    HW130275   4.318   4.858   0.997
 9792SOL    HW230276   4.205   4.741   1.009
 9793SOL     OW30277   5.774   5.611   2.233
 9793SOL    HW130278   5.742   5.705   2.221
 9793SOL    HW230279   5.806   5.575   2.145
 9794SOL     OW30280   5.213   3.364   5.909
 9794SOL    HW130281   5.180   3.458   5.899
 9794SOL    HW230282   5.166   3.306   5.842
 9795SOL     OW30283   1.669   3.358   4.028
 9795SOL    HW130284   1.589   3.403   4.068
 9795SOL    HW230285   1.692   3.402   3.941
 9796SOL     OW30286   3.014   5.114   0.136
 9796SOL    HW130287   3.068   5.095   0.218
 9796SOL    HW230288   3.050   5.061   0.060
 9797SOL     OW30289   4.794   3.331   6.723
 9797SOL    HW130290   4.740   3.415   6.723
 9797SOL    HW230291   4.764   3.271   6.649
 9798SOL     OW30292   2.731   0.346   1.169
 9798SOL    HW130293   2.662   0.308   1.230
 9798SOL    HW230294   2.718   0.309   1.077
 9799SOL     OW30295   2.964   3.134   2.426
 9799SOL    HW130296   3.054   3.089   2.427
 9799SOL    HW230297   2.892   3.065   2.418
 9800SOL     OW30298   4.253   5.376   6.775
 9800SOL    HW130299   4.163   5.358   6.736
 9800SOL    HW230300   4.270   5.475   6.775
 9801SOL     OW30301   4.121   5.811   6.829
 9801SOL    HW130302   4.046   5.872   6.804
 9801SOL    HW230303   4.182   5.858   6.894
 9802SOL     OW30304   0.647   3.276   0.929
 9802SOL    HW130305   0.739   3.311   0.913
 9802SOL    HW230306   0.630   3.270   1.027
 9803SOL     OW30307   6.090   0.110   6.909
 9803SOL    HW130308   6.034   0.126   6.991
 9803SOL    HW230309   6.186   0.099   6.937
 9804SOL     OW30310   6.340   5.488   3.901
 9804SOL    HW130311   6.352   5.415   3.834
 9804SOL    HW230312   6.414   5.485   3.969
 9805SOL     OW30313   1.651   5.295   6.940
 9805SOL    HW130314   1.613   5.203   6.944
 9805SOL    HW230315   1.750   5.291   6.933
 9806SOL     OW30316   6.876   2.676   1.972
 9806SOL    HW130317   6.825   2.591   1.974
 9806SOL    HW230318   6.896   2.705   2.066
 9807SOL     OW30319   4.252   2.028   0.512
 9807SOL    HW130320   4.156   2.011   0.493
 9807SOL    HW230321   4.294   1.945   0.550
 9808SOL     OW30322   0.009   1.866   4.676
 9808SOL    HW130323   0.060   1.856   4.761
 9808SOL    HW230324   0.058   1.819   4.602
 9809SOL     OW30325   0.136   1.335   4.293
 9809SOL    HW130326   0.192   1.314   4.373
 9809SOL    HW230327   0.048   1.371   4.322
 9810SOL     OW30328   2.490   1.214   3.007
 9810SOL    HW130329   2.427   1.158   2.953
 9810SOL    HW230330   2.458   1.220   3.101
 9811SOL     OW30331   6.714   6.487   2.674
 9811SOL    HW130332   6.670   6.575   2.655
 9811SOL    HW230333   6.652   6.413   2.652
 9812SOL     OW30334   4.898   2.517   5.963
 9812SOL    HW130335   4.987   2.544   6.001
 9812SOL    HW230336   4.836   2.494   6.038
 9813SOL     OW30337   6.917   4.555   6.941
 9813SOL    HW130338   6.974   4.529   7.019
 9813SOL    HW230339   6.956   4.635   6.895
 9814SOL     OW30340   6.948   6.496   5.448
 9814SOL    HW130341   6.910   6.454   5.365
 9814SOL    HW230342   6.938   6.595   5.442
 9815SOL     OW30343   5.962   3.554   1.672
 9815SOL    HW130344   5.964   3.508   1.584
 9815SOL    HW230345   6.055   3.575   1.701
 9816SOL     OW30346   6.638   0.004   6.698
 9816SOL    HW130347   6.707   6.963   6.738
 9816SOL    HW230348   6.684   0.075   6.644
 9817SOL     OW30349   3.455   5.756   0.791
 9817SOL    HW130350   3.446   5.826   0.720
 9817SOL    HW230351   3.434   5.796   0.880
 9818SOL     OW30352   0.947   6.912   3.405
 9818SOL    HW130353   0.986   6.900   3.496
 9818SOL    HW230354   0.970   7.003   3.370
 9819SOL     OW30355   6.238   4.207   4.960
 9819SOL    HW130356   6.235   4.108   4.949
 9819SOL    HW230357   6.312   4.244   4.905
 9820SOL     OW30358   3.329   1.838   6.346
 9820SOL    HW130359   3.364   1.874   6.432
 9820SOL    HW230360   3.405   1.821   6.283
 9821SOL     OW30361   4.514   2.578   1.848
 9821SOL    HW130362   4.456   2.501   1.874
 9821SOL    HW230363   4.521   2.583   1.749
 9822SOL     OW30364   3.816   6.234   5.006
 9822SOL    HW130365   3.822   6.273   4.914
 9822SOL    HW230366   3.721   6.211   5.026
 9823SOL     OW30367   1.492   0.604   3.130
 9823SOL    HW130368   1.414   0.543   3.144
 9823SOL    HW230369   1.571   0.570   3.182
 9824SOL     OW30370   1.088   6.103   5.644
 9824SOL    HW130371   1.021   6.095   5.570
 9824SOL    HW230372   1.106   6.199   5.663
 9825SOL     OW30373   5.416   5.987   5.935
 9825SOL    HW130374   5.421   6.086   5.934
 9825SOL    HW230375   5.326   5.958   5.901
 9826SOL     OW30376   2.609   6.345   5.726
 9826SOL    HW130377   2.593   6.256   5.684
 9826SOL    HW230378   2.586   6.341   5.823
 9827SOL     OW30379   1.913   5.560   1.945
 9827SOL    HW130380   1.851   5.608   1.883
 9827SOL    HW230381   1.912   5.463   1.925
 9828SOL     OW30382   3.605   2.027   5.199
 9828SOL    HW130383   3.598   1.959   5.126
 9828SOL    HW230384   3.515   2.067   5.216
 9829SOL     OW30385   4.729   5.081   5.569
 9829SOL    HW130386   4.634   5.114   5.567
 9829SOL    HW230387   4.787   5.151   5.610
 9830SOL     OW30388   5.712   2.113   2.711
 9830SOL    HW130389   5.797   2.125   2.660
 9830SOL    HW230390   5.730   2.128   2.809
 9831SOL     OW30391   0.474   3.990   1.774
 9831SOL    HW130392   0.515   4.080   1.790
 9831SOL    HW230393   0.510   3.924   1.841
 9832SOL     OW30394   4.498   4.584   4.555
 9832SOL    HW130395   4.420   4.643   4.576
 9832SOL    HW230396   4.469   4.513   4.491
 9833SOL     OW30397   3.327   4.177   4.344
 9833SOL    HW130398   3.233   4.147   4.358
 9833SOL    HW230399   3.347   4.180   4.246
 9834SOL     OW30400   1.996   5.587   5.396
 9834SOL    HW130401   2.007   5.502   5.449
 9834SOL    HW230402   2.061   5.587   5.320
 9835SOL     OW30403   3.718   4.186   4.581
 9835SOL    HW130404   3.652   4.119   4.546
 9835SOL    HW230405   3.670   4.271   4.603
 9836SOL     OW30406   0.320   3.492   5.127
 9836SOL    HW130407   0.338   3.485   5.225
 9836SOL    HW230408   0.345   3.584   5.096
 9837SOL     OW30409   5.082   2.119   2.228
 9837SOL    HW130410   5.076   2.218   2.245
 9837SOL    HW230411   5.075   2.070   2.315
 9838SOL     OW30412   0.703   6.645   1.675
 9838SOL    HW130413   0.794   6.682   1.654
 9838SOL    HW230414   0.659   6.702   1.744
 9839SOL     OW30415   4.186   0.730   2.884
 9839SOL    HW130416   4.285   0.726   2.899
 9839SOL    HW230417   4.139   0.738   2.972
 9840SOL     OW30418   6.362   0.856   0.224
 9840SOL    HW130419   6.318   0.917   0.158
 9840SOL    HW230420   6.454   0.834   0.192
 9841SOL     OW30421   6.986   6.443   4.060
 9841SOL    HW130422   6.970   6.469   4.155
 9841SOL    HW230423   0.060   6.408   4.050
 9842SOL     OW30424   2.543   2.024   6.461
 9842SOL    HW130425   2.514   1.996   6.370
 9842SOL    HW230426   2.576   2.118   6.458
 9843SOL     OW30427   0.376   6.627   1.359
 9843SOL    HW130428   0.446   6.694   1.333
 9843SOL    HW230429   0.420   6.547   1.401
 9844SOL     OW30430   5.135   0.230   4.014
 9844SOL    HW130431   5.221   0.256   3.969
 9844SOL    HW230432   5.140   0.252   4.111
 9845SOL     OW30433   1.871   3.546   1.438
 9845SOL    HW130434   1.955   3.582   1.478
 9845SOL    HW230435   1.867   3.447   1.454
 9846SOL     OW30436   5.248   1.645   0.726
 9846SOL    HW130437   5.200   1.577   0.671
 9846SOL    HW230438   5.186   1.680   0.797
 9847SOL     OW30439   4.161   4.102   0.756
 9847SOL    HW130440   4.065   4.131   0.764
 9847SOL    HW230441   4.185   4.092   0.659
 9848SOL     OW30442   3.446   3.905   5.292
 9848SOL    HW130443   3.418   3.859   5.208
 9848SOL    HW230444   3.546   3.908   5.297
 9849SOL     OW30445   0.729   1.772   4.784
 9849SOL    HW130446   0.784   1.829   4.845
 9849SOL    HW230447   0.688   1.829   4.713
 9850SOL     OW30448   0.519   0.586   4.627
 9850SOL    HW130449   0.616   0.596   4.607
 9850SOL    HW230450   0.467   0.655   4.576
 9851SOL     OW30451   3.944   5.004   4.430
 9851SOL    HW130452   4.011   4.931   4.443
 9851SOL    HW230453   3.880   5.004   4.507
 9852SOL     OW30454   2.021   1.412   0.131
 9852SOL    HW130455   2.102   1.352   0.135
 9852SOL    HW230456   2.003   1.448   0.223
 9853SOL     OW30457   6.513   4.417   3.793
 9853SOL    HW130458   6.538   4.483   3.864
 9853SOL    HW230459   6.504   4.326   3.833
 9854SOL     OW30460   0.976   5.428   6.131
 9854SOL    HW130461   0.957   5.448   6.035
 9854SOL    HW230462   0.989   5.329   6.142
 9855SOL     OW30463   1.588   4.510   1.651
 9855SOL    HW130464   1.652   4.454   1.704
 9855SOL    HW230465   1.494   4.480   1.670
 9856SOL     OW30466   5.613   4.114   3.437
 9856SOL    HW130467   5.583   4.085   3.346
 9856SOL    HW230468   5.697   4.168   3.428
 9857SOL     OW30469   3.731   1.172   4.864
 9857SOL    HW130470   3.786   1.088   4.863
 9857SOL    HW230471   3.644   1.154   4.911
 9858SOL     OW30472   6.312   6.390   2.363
 9858SOL    HW130473   6.308   6.443   2.449
 9858SOL    HW230474   6.254   6.434   2.295
 9859SOL     OW30475   6.502   5.926   3.243
 9859SOL    HW130476   6.554   5.992   3.188
 9859SOL    HW230477   6.419   5.970   3.278
 9860SOL     OW30478   1.419   3.322   4.409
 9860SOL    HW130479   1.404   3.409   4.456
 9860SOL    HW230480   1.331   3.283   4.383
 9861SOL     OW30481   3.711   1.419   4.733
 9861SOL    HW130482   3.744   1.325   4.736
 9861SOL    HW230483   3.614   1.421   4.758
 9862SOL     OW30484   1.180   5.378   0.600
 9862SOL    HW130485   1.081   5.368   0.597
 9862SOL    HW230486   1.205   5.474   0.586
 9863SOL     OW30487   3.938   6.185   0.480
 9863SOL    HW130488   3.928   6.259   0.547
 9863SOL    HW230489   4.034   6.156   0.477
 9864SOL     OW30490   2.538   5.738   5.384
 9864SOL    HW130491   2.552   5.687   5.299
 9864SOL    HW230492   2.608   5.810   5.391
 9865SOL     OW30493   0.233   6.148   5.249
 9865SOL    HW130494   0.257   6.072   5.188
 9865SOL    HW230495   0.285   6.229   5.223
 9866SOL     OW30496   6.072   5.430   4.043
 9866SOL    HW130497   6.066   5.495   3.968
 9866SOL    HW230498   6.159   5.443   4.092
 9867SOL     OW30499   4.815   2.184   1.824
 9867SOL    HW130500   4.899   2.160   1.873
 9867SOL    HW230501   4.821   2.279   1.793
 9868SOL     OW30502   1.921   4.347   3.188
 9868SOL    HW130503   1.989   4.368   3.117
 9868SOL    HW230504   1.888   4.431   3.229
 9869SOL     OW30505   0.096   2.464   0.995
 9869SOL    HW130506   0.139   2.397   0.934
 9869SOL    HW230507   0.044   2.416   1.065
 9870SOL     OW30508   3.043   1.094   2.586
 9870SOL    HW130509   3.076   1.010   2.628
 9870SOL    HW230510   3.096   1.114   2.504
 9871SOL     OW30511   0.483   4.166   4.371
 9871SOL    HW130512   0.476   4.168   4.271
 9871SOL    HW230513   0.403   4.212   4.410
 9872SOL     OW30514   1.345   4.868   5.614
 9872SOL    HW130515   1.245   4.875   5.611
 9872SOL    HW230516   1.373   4.777   5.584
 9873SOL     OW30517   1.499   1.267   5.836
 9873SOL    HW130518   1.485   1.367   5.834
 9873SOL    HW230519   1.415   1.221   5.807
 9874SOL     OW30520   0.932   2.732   4.779
 9874SOL    HW130521   0.932   2.764   4.684
 9874SOL    HW230522   0.886   2.800   4.837
 9875SOL     OW30523   6.452   5.143   0.808
 9875SOL    HW130524   6.464   5.235   0.771
 9875SOL    HW230525   6.527   5.084   0.777
 9876SOL     OW30526   1.662   6.816   3.704
 9876SOL    HW130527   1.581   6.774   3.664
 9876SOL    HW230528   1.643   6.912   3.726
 9877SOL     OW30529   0.701   5.800   5.527
 9877SOL    HW130530   0.680   5.715   5.479
 9877SOL    HW230531   0.799   5.821   5.517
 9878SOL     OW30532   2.303   2.796   6.977
 9878SOL    HW130533   2.298   2.711   6.924
 9878SOL    HW230534   2.265   2.871   6.923
 9879SOL     OW30535   0.444   5.093   6.265
 9879SOL    HW130536   0.466   5.076   6.169
 9879SOL    HW230537   0.485   5.179   6.294
 9880SOL     OW30538   2.633   1.594   0.217
 9880SOL    HW130539   2.674   1.649   0.289
 9880SOL    HW230540   2.579   1.521   0.258
 9881SOL     OW30541   5.762   0.492   4.376
 9881SOL    HW130542   5.679   0.540   4.404
 9881SOL    HW230543   5.780   0.509   4.279
 9882SOL     OW30544   3.548   3.235   4.737
 9882SOL    HW130545   3.573   3.190   4.651
 9882SOL    HW230546   3.615   3.214   4.807
 9883SOL     OW30547   2.260   6.591   1.808
 9883SOL    HW130548   2.276   6.685   1.780
 9883SOL    HW230549   2.266   6.583   1.907
 9884SOL     OW30550   2.307   3.668   5.679
 9884SOL    HW130551   2.305   3.574   5.645
 9884SOL    HW230552   2.228   3.718   5.644
 9885SOL     OW30553   5.891   3.392   4.236
 9885SOL    HW130554   5.988   3.416   4.222
 9885SOL    HW230555   5.863   3.419   4.328
 9886SOL     OW30556   4.458   5.716   1.565
 9886SOL    HW130557   4.533   5.779   1.542
 9886SOL    HW230558   4.374   5.768   1.581
 9887SOL     OW30559   3.515   0.259   6.803
 9887SOL    HW130560   3.600   0.211   6.782
 9887SOL    HW230561   3.451   0.246   6.727
 9888SOL     OW30562   6.259   5.279   2.645
 9888SOL    HW130563   6.221   5.197   2.688
 9888SOL    HW230564   6.186   5.346   2.629
 9889SOL     OW30565   0.023   5.540   3.441
 9889SOL    HW130566   7.004   5.504   3.356
 9889SOL    HW230567   6.969   5.584   3.494
 9890SOL     OW30568   6.678   4.111   1.992
 9890SOL    HW130569   6.698   4.101   2.090
 9890SOL    HW230570   6.724   4.037   1.942
 9891SOL     OW30571   5.923   4.614   1.133
 9891SOL    HW130572   5.985   4.555   1.080
 9891SOL    HW230573   5.848   4.644   1.075
 9892SOL     OW30574   2.420   4.721   4.027
 9892SOL    HW130575   2.334   4.689   4.068
 9892SOL    HW230576   2.439   4.814   4.058
 9893SOL     OW30577   4.836   5.288   3.758
 9893SOL    HW130578   4.748   5.251   3.731
 9893SOL    HW230579   4.826   5.384   3.782
 9894SOL     OW30580   4.354   3.200   5.897
 9894SOL    HW130581   4.261   3.162   5.901
 9894SOL    HW230582   4.377   3.238   5.986
 9895SOL     OW30583   5.599   2.435   6.838
 9895SOL    HW130584   5.544   2.478   6.909
 9895SOL    HW230585   5.690   2.413   6.874
 9896SOL     OW30586   4.620   4.070   0.827
 9896SOL    HW130587   4.550   4.136   0.853
 9896SOL    HW230588   4.701   4.083   0.885
 9897SOL     OW30589   6.235   2.129   3.559
 9897SOL    HW130590   6.312   2.181   3.597
 9897SOL    HW230591   6.149   2.170   3.589
 9898SOL     OW30592   1.481   4.677   5.283
 9898SOL    HW130593   1.402   4.728   5.249
 9898SOL    HW230594   1.470   4.659   5.381
 9899SOL     OW30595   4.993   5.366   1.656
 9899SOL    HW130596   4.926   5.435   1.685
 9899SOL    HW230597   5.053   5.405   1.586
 9900SOL     OW30598   1.643   2.840   3.718
 9900SOL    HW130599   1.583   2.909   3.678
 9900SOL    HW230600   1.737   2.873   3.716
 9901SOL     OW30601   3.103   2.482   5.403
 9901SOL    HW130602   3.161   2.444   5.331
 9901SOL    HW230603   3.046   2.409   5.442
 9902SOL     OW30604   4.320   3.500   0.152
 9902SOL    HW130605   4.335   3.599   0.152
 9902SOL    HW230606   4.394   3.455   0.102
 9903SOL     OW30607   3.998   1.916   1.974
 9903SOL    HW130608   3.908   1.907   1.932
 9903SOL    HW230609   4.017   2.013   1.991
 9904SOL     OW30610   6.216   0.948   1.283
 9904SOL    HW130611   6.204   0.951   1.382
 9904SOL    HW230612   6.313   0.956   1.261
 9905SOL     OW30613   1.572   6.740   4.876
 9905SOL    HW130614   1.665   6.714   4.849
 9905SOL    HW230615   1.507   6.671   4.845
 9906SOL     OW30616   2.828   3.102   6.240
 9906SOL    HW130617   2.898   3.055   6.186
 9906SOL    HW230618   2.826   3.199   6.215
 9907SOL     OW30619   2.728   6.319   2.670
 9907SOL    HW130620   2.643   6.372   2.662
 9907SOL    HW230621   2.778   6.322   2.584
 9908SOL     OW30622   1.219   3.421   5.732
 9908SOL    HW130623   1.249   3.514   5.710
 9908SOL    HW230624   1.127   3.407   5.696
 9909SOL     OW30625   3.894   0.367   2.483
 9909SOL    HW130626   3.812   0.328   2.524
 9909SOL    HW230627   3.931   0.304   2.415
 9910SOL     OW30628   6.784   4.158   1.286
 9910SOL    HW130629   6.711   4.219   1.318
 9910SOL    HW230630   6.818   4.105   1.363
 9911SOL     OW30631   3.402   4.907   3.339
 9911SOL    HW130632   3.417   4.940   3.246
 9911SOL    HW230633   3.304   4.900   3.357
 9912SOL     OW30634   5.268   0.530   1.001
 9912SOL    HW130635   5.365   0.534   1.026
 9912SOL    HW230636   5.213   0.560   1.079
 9913SOL     OW30637   4.747   2.140   2.859
 9913SOL    HW130638   4.683   2.093   2.920
 9913SOL    HW230639   4.740   2.099   2.767
 9914SOL     OW30640   1.601   7.010   4.882
 9914SOL    HW130641   1.613   6.912   4.897
 9914SOL    HW230642   1.673   0.025   4.821
 9915SOL     OW30643   5.401   3.354   4.425
 9915SOL    HW130644   5.487   3.322   4.387
 9915SOL    HW230645   5.327   3.292   4.398
 9916SOL     OW30646   2.176   2.939   2.000
 9916SOL    HW130647   2.232   2.861   1.971
 9916SOL    HW230648   2.176   3.008   1.928
 9917SOL     OW30649   2.466   3.333   5.830
 9917SOL    HW130650   2.516   3.417   5.851
 9917SOL    HW230651   2.435   3.336   5.735
 9918SOL     OW30652   1.916   1.386   5.911
 9918SOL    HW130653   2.012   1.414   5.912
 9918SOL    HW230654   1.906   1.298   5.957
 9919SOL     OW30655   0.841   5.626   2.498
 9919SOL    HW130656   0.856   5.691   2.573
 9919SOL    HW230657   0.798   5.544   2.535
 9920SOL     OW30658   4.522   6.656   1.098
 9920SOL    HW130659   4.504   6.625   1.191
 9920SOL    HW230660   4.532   6.576   1.038
 9921SOL     OW30661   5.666   0.536   3.299
 9921SOL    HW130662   5.711   0.598   3.235
 9921SOL    HW230663   5.735   0.485   3.350
 9922SOL     OW30664   4.364   4.236   0.897
 9922SOL    HW130665   4.283   4.199   0.852
 9922SOL    HW230666   4.355   4.225   0.996
 9923SOL     OW30667   6.218   1.883   6.342
 9923SOL    HW130668   6.209   1.982   6.349
 9923SOL    HW230669   6.137   1.845   6.298
 9924SOL     OW30670   6.665   0.934   3.201
 9924SOL    HW130671   6.608   0.851   3.201
 9924SOL    HW230672   6.761   0.908   3.215
 9925SOL     OW30673   2.413   2.657   5.237
 9925SOL    HW130674   2.366   2.572   5.261
 9925SOL    HW230675   2.370   2.695   5.155
 9926SOL     OW30676   1.321   0.957   0.103
 9926SOL    HW130677   1.341   0.999   0.191
 9926SOL    HW230678   1.373   0.872   0.094
 9927SOL     OW30679   0.514   1.708   2.092
 9927SOL    HW130680   0.461   1.735   2.172
 9927SOL    HW230681   0.608   1.687   2.120
 9928SOL     OW30682   7.003   4.023   2.452
 9928SOL    HW130683   6.936   3.953   2.428
 9928SOL    HW230684   0.016   4.007   2.545
 9929SOL     OW30685   2.432   3.952   0.006
 9929SOL    HW130686   2.425   3.956   6.925
 9929SOL    HW230687   2.525   3.976   0.033
 9930SOL     OW30688   0.121   6.243   6.206
 9930SOL    HW130689   0.134   6.192   6.121
 9930SOL    HW230690   0.203   6.295   6.227
 9931SOL     OW30691   1.538   5.676   5.442
 9931SOL    HW130692   1.486   5.596   5.413
 9931SOL    HW230693   1.604   5.649   5.512
 9932SOL     OW30694   1.335   1.574   0.504
 9932SOL    HW130695   1.383   1.498   0.548
 9932SOL    HW230696   1.389   1.657   0.511
 9933SOL     OW30697   1.309   1.851   3.840
 9933SOL    HW130698   1.378   1.784   3.867
 9933SOL    HW230699   1.347   1.943   3.847
 9934SOL     OW30700   4.146   1.308   6.194
 9934SOL    HW130701   4.157   1.211   6.171
 9934SOL    HW230702   4.058   1.340   6.159
 9935SOL     OW30703   2.826   1.872   1.120
 9935SOL    HW130704   2.892   1.798   1.132
 9935SOL    HW230705   2.840   1.941   1.191
 9936SOL     OW30706   5.994   5.937   6.504
 9936SOL    HW130707   6.060   5.967   6.573
 9936SOL    HW230708   5.980   6.010   6.437
 9937SOL     OW30709   0.512   0.476   3.419
 9937SOL    HW130710   0.601   0.442   3.391
 9937SOL    HW230711   0.448   0.399   3.429
 9938SOL     OW30712   6.650   1.431   4.479
 9938SOL    HW130713   6.632   1.521   4.517
 9938SOL    HW230714   6.590   1.364   4.523
 9939SOL     OW30715   2.948   4.479   1.351
 9939SOL    HW130716   2.893   4.505   1.431
 9939SOL    HW230717   2.923   4.386   1.323
 9940SOL     OW30718   0.109   1.007   3.789
 9940SOL    HW130719   0.015   0.973   3.782
 9940SOL    HW230720   0.139   1.004   3.884
 9941SOL     OW30721   5.182   4.674   6.195
 9941SOL    HW130722   5.118   4.597   6.186
 9941SOL    HW230723   5.138   4.747   6.247
 9942SOL     OW30724   4.786   5.479   3.208
 9942SOL    HW130725   4.746   5.533   3.133
 9942SOL    HW230726   4.849   5.411   3.169
 9943SOL     OW30727   2.488   4.084   6.731
 9943SOL    HW130728   2.582   4.101   6.763
 9943SOL    HW230729   2.490   4.058   6.635
 9944SOL     OW30730   1.249   5.127   6.857
 9944SOL    HW130731   1.292   5.210   6.822
 9944SOL    HW230732   1.198   5.149   6.940
 9945SOL     OW30733   5.956   3.518   6.587
 9945SOL    HW130734   5.880   3.508   6.651
 9945SOL    HW230735   6.009   3.599   6.611
 9946SOL     OW30736   5.656   1.657   2.319
 9946SOL    HW130737   5.559   1.671   2.340
 9946SOL    HW230738   5.700   1.610   2.396
 9947SOL     OW30739   1.070   2.022   3.672
 9947SOL    HW130740   1.101   1.928   3.656
 9947SOL    HW230741   0.978   2.019   3.712
 9948SOL     OW30742   6.159   6.894   4.254
 9948SOL    HW130743   6.144   6.904   4.353
 9948SOL    HW230744   6.149   6.983   4.210
 9949SOL     OW30745   5.606   5.078   4.279
 9949SOL    HW130746   5.669   5.148   4.314
 9949SOL    HW230747   5.512   5.105   4.301
 9950SOL     OW30748   6.351   4.550   5.310
 9950SOL    HW130749   6.393   4.484   5.371
 9950SOL    HW230750   6.423   4.606   5.267
 9951SOL     OW30751   0.747   2.584   2.129
 9951SOL    HW130752   0.728   2.485   2.131
 9951SOL    HW230753   0.813   2.603   2.056
 9952SOL     OW30754   0.769   4.605   1.901
 9952SOL    HW130755   0.687   4.553   1.923
 9952SOL    HW230756   0.746   4.703   1.895
 9953SOL     OW30757   6.052   2.556   3.473
 9953SOL    HW130758   6.058   2.541   3.571
 9953SOL    HW230759   5.960   2.587   3.449
 9954SOL     OW30760   3.466   1.997   5.726
 9954SOL    HW130761   3.408   1.975   5.647
 9954SOL    HW230762   3.553   1.950   5.718
 9955SOL     OW30763   6.141   3.616   0.397
 9955SOL    HW130764   6.157   3.692   0.460
 9955SOL    HW230765   6.044   3.595   0.394
 9956SOL     OW30766   2.101   3.677   3.071
 9956SOL    HW130767   2.103   3.602   3.137
 9956SOL    HW230768   2.050   3.648   2.990
 9957SOL     OW30769   4.847   0.001   0.943
 9957SOL    HW130770   4.871   6.986   1.034
 9957SOL    HW230771   4.754   6.991   0.919
 9958SOL     OW30772   4.669   4.889   6.834
 9958SOL    HW130773   4.673   4.989   6.840
 9958SOL    HW230774   4.607   4.854   6.904
 9959SOL     OW30775   4.610   4.318   0.550
 9959SOL    HW130776   4.540   4.314   0.478
 9959SOL    HW230777   4.616   4.228   0.594
 9960SOL     OW30778   0.698   0.896   6.749
 9960SOL    HW130779   0.614   0.951   6.746
 9960SOL    HW230780   0.767   0.944   6.804
 9961SOL     OW30781   3.037   4.727   1.415
 9961SOL    HW130782   3.066   4.705   1.508
 9961SOL    HW230783   3.036   4.644   1.360
 9962SOL     OW30784   3.445   6.836   1.112
 9962SOL    HW130785   3.489   6.793   1.034
 9962SOL    HW230786   3.415   6.766   1.177
 9963SOL     OW30787   0.889   1.384   6.262
 9963SOL    HW130788   0.925   1.453   6.325
 9963SOL    HW230789   0.962   1.322   6.234
 9964SOL     OW30790   4.759   3.875   5.524
 9964SOL    HW130791   4.696   3.924   5.464
 9964SOL    HW230792   4.747   3.776   5.511
 9965SOL     OW30793   2.783   5.785   4.455
 9965SOL    HW130794   2.776   5.740   4.366
 9965SOL    HW230795   2.816   5.721   4.523
 9966SOL     OW30796   4.003   4.755   2.616
 9966SOL    HW130797   3.960   4.777   2.529
 9966SOL    HW230798   4.100   4.775   2.612
 9967SOL     OW30799   6.889   0.113   3.080
 9967SOL    HW130800   6.909   0.141   3.174
 9967SOL    HW230801   6.841   0.187   3.032
 9968SOL     OW30802   3.723   6.870   0.466
 9968SOL    HW130803   3.706   6.870   0.368
 9968SOL    HW230804   3.638   6.848   0.514
 9969SOL     OW30805   1.582   5.237   3.756
 9969SOL    HW130806   1.592   5.140   3.781
 9969SOL    HW230807   1.672   5.274   3.733
 9970SOL     OW30808   6.327   3.839   1.693
 9970SOL    HW130809   6.233   3.818   1.664
 9970SOL    HW230810   6.377   3.880   1.618
 9971SOL     OW30811   0.725   4.415   2.229
 9971SOL    HW130812   0.645   4.471   2.206
 9971SOL    HW230813   0.695   4.322   2.252
 9972SOL     OW30814   2.651   2.917   0.096
 9972SOL    HW130815   2.731   2.873   0.137
 9972SOL    HW230816   2.642   3.010   0.133
 9973SOL     OW30817   3.406   1.841   3.590
 9973SOL    HW130818   3.318   1.805   3.562
 9973SOL    HW230819   3.399   1.940   3.605
 9974SOL     OW30820   0.738   3.065   3.041
 9974SOL    HW130821   0.742   2.968   3.067
 9974SOL    HW230822   0.729   3.072   2.941
 9975SOL     OW30823   1.818   5.242   0.188
 9975SOL    HW130824   1.857   5.299   0.116
 9975SOL    HW230825   1.804   5.149   0.154
 9976SOL     OW30826   2.990   3.905   6.311
 9976SOL    HW130827   3.028   3.911   6.403
 9976SOL    HW230828   2.966   3.996   6.278
 9977SOL     OW30829   5.156   5.982   5.552
 9977SOL    HW130830   5.129   5.912   5.617
 9977SOL    HW230831   5.243   5.958   5.510
 9978SOL     OW30832   0.663   3.192   6.480
 9978SOL    HW130833   0.662   3.098   6.516
 9978SOL    HW230834   0.757   3.225   6.475
 9979SOL     OW30835   4.315   3.205   5.329
 9979SOL    HW130836   4.258   3.283   5.357
 9979SOL    HW230837   4.389   3.237   5.271
 9980SOL     OW30838   1.859   0.837   0.489
 9980SOL    HW130839   1.921   0.908   0.523
 9980SOL    HW230840   1.765   0.869   0.495
 9981SOL     OW30841   0.844   2.788   1.867
 9981SOL    HW130842   0.924   2.766   1.923
 9981SOL    HW230843   0.859   2.874   1.819
 9982SOL     OW30844   2.167   2.055   5.264
 9982SOL    HW130845   2.258   2.091   5.245
 9982SOL    HW230846   2.105   2.131   5.288
 9983SOL     OW30847   0.582   3.119   1.726
 9983SOL    HW130848   0.553   3.024   1.722
 9983SOL    HW230849   0.664   3.132   1.670
 9984SOL     OW30850   6.644   6.052   0.553
 9984SOL    HW130851   6.622   6.010   0.466
 9984SOL    HW230852   6.592   6.137   0.564
 9985SOL     OW30853   4.253   5.305   0.659
 9985SOL    HW130854   4.254   5.303   0.759
 9985SOL    HW230855   4.219   5.218   0.623
 9986SOL     OW30856   5.246   4.261   0.436
 9986SOL    HW130857   5.262   4.297   0.344
 9986SOL    HW230858   5.148   4.256   0.454
 9987SOL     OW30859   5.461   3.053   1.764
 9987SOL    HW130860   5.490   3.119   1.833
 9987SOL    HW230861   5.526   2.977   1.761
 9988SOL     OW30862   5.050   6.301   4.367
 9988SOL    HW130863   5.086   6.270   4.279
 9988SOL    HW230864   5.122   6.349   4.417
 9989SOL     OW30865   6.158   4.992   2.114
 9989SOL    HW130866   6.165   5.067   2.049
 9989SOL    HW230867   6.249   4.957   2.136
 9990SOL     OW30868   0.421   0.037   3.807
 9990SOL    HW130869   0.337   7.004   3.822
 9990SOL    HW230870   0.418   0.079   3.716
 9991SOL     OW30871   1.678   4.503   4.185
 9991SOL    HW130872   1.653   4.411   4.217
 9991SOL    HW230873   1.685   4.502   4.085
 9992SOL     OW30874   3.142   4.655   0.850
 9992SOL    HW130875   3.087   4.621   0.926
 9992SOL    HW230876   3.107   4.744   0.820
 9993SOL     OW30877   3.973   6.796   4.312
 9993SOL    HW130878   4.067   6.785   4.281
 9993SOL    HW230879   3.946   6.717   4.367
 9994SOL     OW30880   6.496   5.126   4.590
 9994SOL    HW130881   6.543   5.172   4.666
 9994SOL    HW230882   6.398   5.121   4.611
 9995SOL     OW30883   2.758   0.754   5.244
 9995SOL    HW130884   2.729   0.659   5.254
 9995SOL    HW230885   2.797   0.767   5.152
 9996SOL     OW30886   1.950   4.148   0.735
 9996SOL    HW130887   2.008   4.136   0.817
 9996SOL    HW230888   1.992   4.100   0.658
 9997SOL     OW30889   6.057   2.886   4.369
 9997SOL    HW130890   6.131   2.936   4.414
 9997SOL    HW230891   6.048   2.796   4.411
 9998SOL     OW30892   5.110   4.021   2.632
 9998SOL    HW130893   5.018   4.011   2.593
 9998SOL    HW230894   5.112   3.983   2.724
 9999SOL     OW30895   0.493   6.263   4.572
 9999SOL    HW130896   0.476   6.327   4.497
 9999SOL    HW230897   0.572   6.205   4.548
10000SOL     OW30898   5.265   1.856   1.731
10000SOL    HW130899   5.204   1.800   1.674
10000SOL    HW230900   5.267   1.949   1.697
10001SOL     OW30901   3.739   5.879   2.131
10001SOL    HW130902   3.696   5.910   2.046
10001SOL    HW230903   3.669   5.844   2.193
10002SOL     OW30904   2.400   0.866   1.783
10002SOL    HW130905   2.417   0.826   1.693
10002SOL    HW230906   2.387   0.793   1.850
10003SOL     OW30907   1.422   1.219   3.221
10003SOL    HW130908   1.434   1.245   3.317
10003SOL    HW230909   1.329   1.244   3.192
10004SOL     OW30910   6.099   4.878   4.994
10004SOL    HW130911   6.184   4.889   4.943
10004SOL    HW230912   6.118   4.878   5.092
10005SOL     OW30913   1.998   5.828   3.532
10005SOL    HW130914   1.990   5.926   3.514
10005SOL    HW230915   1.909   5.791   3.558
10006SOL     OW30916   5.431   0.294   5.794
10006SOL    HW130917   5.404   0.258   5.883
10006SOL    HW230918   5.371   0.257   5.724
10007SOL     OW30919   1.287   5.159   5.022
10007SOL    HW130920   1.219   5.133   5.091
10007SOL    HW230921   1.348   5.082   5.004
10008SOL     OW30922   4.131   2.067   5.829
10008SOL    HW130923   4.205   2.083   5.894
10008SOL    HW230924   4.165   2.080   5.735
10009SOL     OW30925   1.191   4.445   1.478
10009SOL    HW130926   1.190   4.466   1.380
10009SOL    HW230927   1.126   4.504   1.525
10010SOL     OW30928   2.409   4.879   6.790
10010SOL    HW130929   2.412   4.834   6.701
10010SOL    HW230930   2.411   4.979   6.778
10011SOL     OW30931   0.998   3.336   0.578
10011SOL    HW130932   0.920   3.385   0.537
10011SOL    HW230933   1.074   3.399   0.590
10012SOL     OW30934   4.861   1.247   1.791
10012SOL    HW130935   4.807   1.185   1.847
10012SOL    HW230936   4.955   1.250   1.825
10013SOL     OW30937   1.364   6.028   4.655
10013SOL    HW130938   1.290   5.990   4.599
10013SOL    HW230939   1.387   5.963   4.727
10014SOL     OW30940   0.771   6.536   3.280
10014SOL    HW130941   0.748   6.633   3.265
10014SOL    HW230942   0.693   6.490   3.324
10015SOL     OW30943   3.809   4.476   5.777
10015SOL    HW130944   3.875   4.401   5.771
10015SOL    HW230945   3.859   4.562   5.789
10016SOL     OW30946   2.328   6.804   3.615
10016SOL    HW130947   2.402   6.852   3.662
10016SOL    HW230948   2.305   6.721   3.667
10017SOL     OW30949   2.835   1.735   2.972
10017SOL    HW130950   2.736   1.750   2.974
10017SOL    HW230951   2.866   1.710   3.064
10018SOL     OW30952   6.479   3.370   5.881
10018SOL    HW130953   6.561   3.426   5.894
10018SOL    HW230954   6.495   3.304   5.807
10019SOL     OW30955   0.437   1.654   2.549
10019SOL    HW130956   0.459   1.576   2.607
10019SOL    HW230957   0.399   1.728   2.606
10020SOL     OW30958   6.743   0.493   1.919
10020SOL    HW130959   6.679   0.504   1.994
10020SOL    HW230960   6.789   0.580   1.900
10021SOL     OW30961   1.347   3.757   1.986
10021SOL    HW130962   1.277   3.733   1.919
10021SOL    HW230963   1.434   3.715   1.960
10022SOL     OW30964   3.031   6.206   0.239
10022SOL    HW130965   3.046   6.148   0.319
10022SOL    HW230966   2.952   6.266   0.256
10023SOL     OW30967   2.498   0.209   5.897
10023SOL    HW130968   2.430   0.272   5.934
10023SOL    HW230969   2.486   0.203   5.797
10024SOL     OW30970   1.628   4.605   2.788
10024SOL    HW130971   1.616   4.522   2.733
10024SOL    HW230972   1.655   4.681   2.729
10025SOL     OW30973   1.493   4.390   1.284
10025SOL    HW130974   1.448   4.467   1.330
10025SOL    HW230975   1.554   4.425   1.213
10026SOL     OW30976   4.949   1.481   3.122
10026SOL    HW130977   4.990   1.556   3.175
10026SOL    HW230978   4.850   1.483   3.132
10027SOL     OW30979   1.753   2.006   5.694
10027SOL    HW130980   1.655   1.999   5.676
10027SOL    HW230981   1.767   2.021   5.792
10028SOL     OW30982   3.939   0.386   1.556
10028SOL    HW130983   4.005   0.389   1.481
10028SOL    HW230984   3.925   0.478   1.592
10029SOL     OW30985   0.389   3.188   4.584
10029SOL    HW130986   0.413   3.107   4.637
10029SOL    HW230987   0.330   3.248   4.638
10030SOL     OW30988   2.610   6.795   4.561
10030SOL    HW130989   2.589   6.799   4.659
10030SOL    HW230990   2.535   6.751   4.512
10031SOL     OW30991   3.707   5.433   4.301
10031SOL    HW130992   3.679   5.364   4.368
10031SOL    HW230993   3.788   5.481   4.335
10032SOL     OW30994   3.328   5.887   5.236
10032SOL    HW130995   3.420   5.921   5.255
10032SOL    HW230996   3.320   5.792   5.268
10033SOL     OW30997   4.088   1.852   3.159
10033SOL    HW130998   4.117   1.947   3.170
10033SOL    HW230999   4.006   1.835   3.213
10034SOL     OW31000   2.060   0.557   3.193
10034SOL    HW131001   2.004   0.600   3.122
10034SOL    HW231002   2.156   0.565   3.168
10035SOL     OW31003   6.179   3.164   0.974
10035SOL    HW131004   6.111   3.094   0.997
10035SOL    HW231005   6.135   3.237   0.923
10036SOL     OW31006   6.451   0.688   6.693
10036SOL    HW131007   6.536   0.636   6.695
10036SOL    HW231008   6.416   0.699   6.786
10037SOL     OW31009   6.405   6.873   6.677
10037SOL    HW131010   6.397   6.815   6.757
10037SOL    HW231011   6.487   6.929   6.684
10038SOL     OW31012   4.213   0.091   0.024
10038SOL    HW131013   4.266   0.116   6.962
10038SOL    HW231014   4.258   0.128   0.105
10039SOL     OW31015   5.392   5.392   4.448
10039SOL    HW131016   5.364   5.316   4.389
10039SOL    HW231017   5.392   5.476   4.395
10040SOL     OW31018   3.850   0.245   0.451
10040SOL    HW131019   3.821   0.283   0.538
10040SOL    HW231020   3.807   0.294   0.376
10041SOL     OW31021   6.373   4.748   5.589
10041SOL    HW131022   6.287   4.782   5.549
10041SOL    HW231023   6.449   4.773   5.529
10042SOL     OW31024   0.415   1.079   5.120
10042SOL    HW131025   0.365   1.151   5.071
10042SOL    HW231026   0.498   1.117   5.159
10043SOL     OW31027   0.957   0.943   3.245
10043SOL    HW131028   0.965   1.038   3.215
10043SOL    HW231029   0.934   0.940   3.342
10044SOL     OW31030   2.141   1.008   5.188
10044SOL    HW131031   2.053   0.975   5.220
10044SOL    HW231032   2.144   1.004   5.088
10045SOL     OW31033   4.467   6.730   4.259
10045SOL    HW131034   4.450   6.813   4.313
10045SOL    HW231035   4.555   6.690   4.286
10046SOL     OW31036   0.132   2.327   1.376
10046SOL    HW131037   0.092   2.396   1.436
10046SOL    HW231038   0.180   2.372   1.301
10047SOL     OW31039   6.339   2.248   4.872
10047SOL    HW131040   6.263   2.257   4.935
10047SOL    HW231041   6.321   2.174   4.807
10048SOL     OW31042   3.412   1.466   1.848
10048SOL    HW131043   3.334   1.410   1.876
10048SOL    HW231044   3.497   1.423   1.880
10049SOL     OW31045   2.078   0.652   6.627
10049SOL    HW131046   2.019   0.574   6.606
10049SOL    HW231047   2.162   0.619   6.670
10050SOL     OW31048   5.081   2.867   4.842
10050SOL    HW131049   5.081   2.898   4.747
10050SOL    HW231050   5.145   2.923   4.895
10051SOL     OW31051   6.925   3.083   4.528
10051SOL    HW131052   6.886   3.136   4.452
10051SOL    HW231053   6.979   3.007   4.492
10052SOL     OW31054   1.894   3.572   1.767
10052SOL    HW131055   1.837   3.585   1.685
10052SOL    HW231056   1.863   3.491   1.816
10053SOL     OW31057   3.538   5.072   3.515
10053SOL    HW131058   3.596   5.144   3.476
10053SOL    HW231059   3.513   5.007   3.444
10054SOL     OW31060   4.531   5.584   6.167
10054SOL    HW131061   4.543   5.495   6.210
10054SOL    HW231062   4.464   5.637   6.219
10055SOL     OW31063   6.761   2.485   5.209
10055SOL    HW131064   6.677   2.461   5.257
10055SOL    HW231065   6.773   2.426   5.130
10056SOL     OW31066   6.106   4.824   1.042
10056SOL    HW131067   6.139   4.831   0.948
10056SOL    HW231068   6.066   4.733   1.057
10057SOL     OW31069   4.063   2.002   4.602
10057SOL    HW131070   4.069   2.073   4.532
10057SOL    HW231071   4.043   2.044   4.690
10058SOL     OW31072   6.117   5.189   3.351
10058SOL    HW131073   6.025   5.171   3.316
10058SOL    HW231074   6.182   5.191   3.275
10059SOL     OW31075   5.243   0.286   0.832
10059SOL    HW131076   5.229   0.359   0.899
10059SOL    HW231077   5.281   0.324   0.748
10060SOL     OW31078   2.832   2.141   1.833
10060SOL    HW131079   2.865   2.204   1.903
10060SOL    HW231080   2.848   2.047   1.862
10061SOL     OW31081   6.073   0.728   4.179
10061SOL    HW131082   5.992   0.727   4.238
10061SOL    HW231083   6.155   0.716   4.234
10062SOL     OW31084   5.966   6.507   3.516
10062SOL    HW131085   6.035   6.567   3.555
10062SOL    HW231086   5.889   6.499   3.579
10063SOL     OW31087   1.190   2.978   3.551
10063SOL    HW131088   1.242   3.028   3.620
10063SOL    HW231089   1.162   2.889   3.588
10064SOL     OW31090   5.302   5.487   4.987
10064SOL    HW131091   5.388   5.514   4.945
10064SOL    HW231092   5.241   5.449   4.917
10065SOL     OW31093   1.624   6.556   2.114
10065SOL    HW131094   1.557   6.602   2.056
10065SOL    HW231095   1.603   6.575   2.210
10066SOL     OW31096   0.408   1.075   4.290
10066SOL    HW131097   0.499   1.059   4.329
10066SOL    HW231098   0.362   1.147   4.342
10067SOL     OW31099   5.201   5.058   4.563
10067SOL    HW131100   5.247   5.072   4.651
10067SOL    HW231101   5.222   4.966   4.529
10068SOL     OW31102   5.363   2.939   4.559
10068SOL    HW131103   5.309   2.989   4.491
10068SOL    HW231104   5.460   2.949   4.540
10069SOL     OW31105   2.244   1.105   3.758
10069SOL    HW131106   2.244   1.193   3.711
10069SOL    HW231107   2.333   1.061   3.745
10070SOL     OW31108   0.117   6.612   4.766
10070SOL    HW131109   0.199   6.555   4.764
10070SOL    HW231110   0.044   6.563   4.815
10071SOL     OW31111   4.342   5.124   3.963
10071SOL    HW131112   4.312   5.184   3.888
10071SOL    HW231113   4.408   5.172   4.020
10072SOL     OW31114   0.830   6.316   3.778
10072SOL    HW131115   0.806   6.395   3.835
10072SOL    HW231116   0.807   6.232   3.827
10073SOL     OW31117   5.826   4.754   4.849
10073SOL    HW131118   5.888   4.768   4.772
10073SOL    HW231119   5.878   4.723   4.929
10074SOL     OW31120   1.414   6.620   5.714
10074SOL    HW131121   1.348   6.672   5.660
10074SOL    HW231122   1.365   6.565   5.782
10075SOL     OW31123   1.409   2.629   3.078
10075SOL    HW131124   1.481   2.599   3.016
10075SOL    HW231125   1.342   2.556   3.090
10076SOL     OW31126   4.807   6.992   4.431
10076SOL    HW131127   4.760   0.061   4.427
10076SOL    HW231128   4.903   7.005   4.405
10077SOL     OW31129   3.905   2.264   6.798
10077SOL    HW131130   3.842   2.342   6.798
10077SOL    HW231131   3.929   2.241   6.703
10078SOL     OW31132   6.303   6.167   4.462
10078SOL    HW131133   6.368   6.242   4.452
10078SOL    HW231134   6.210   6.204   4.471
10079SOL     OW31135   1.579   2.970   1.938
10079SOL    HW131136   1.585   3.045   2.004
10079SOL    HW231137   1.661   2.969   1.881
10080SOL     OW31138   2.326   2.515   0.369
10080SOL    HW131139   2.334   2.545   0.464
10080SOL    HW231140   2.401   2.554   0.315
10081SOL     OW31141   0.917   0.357   6.368
10081SOL    HW131142   0.925   0.447   6.411
10081SOL    HW231143   0.990   0.298   6.402
10082SOL     OW31144   6.361   2.178   1.900
10082SOL    HW131145   6.304   2.237   1.957
10082SOL    HW231146   6.303   2.130   1.834
10083SOL     OW31147   4.622   1.452   3.750
10083SOL    HW131148   4.555   1.466   3.824
10083SOL    HW231149   4.656   1.541   3.719
10084SOL     OW31150   3.138   0.733   6.378
10084SOL    HW131151   3.043   0.763   6.376
10084SOL    HW231152   3.150   0.656   6.314
10085SOL     OW31153   0.753   4.889   2.904
10085SOL    HW131154   0.682   4.824   2.929
10085SOL    HW231155   0.808   4.912   2.985
10086SOL     OW31156   5.997   5.057   2.312
10086SOL    HW131157   6.062   5.019   2.246
10086SOL    HW231158   5.993   4.997   2.392
10087SOL     OW31159   1.042   1.200   4.285
10087SOL    HW131160   1.081   1.253   4.360
10087SOL    HW231161   0.978   1.133   4.321
10088SOL     OW31162   0.349   0.108   5.025
10088SOL    HW131163   0.372   0.193   4.977
10088SOL    HW231164   0.330   0.036   4.959
10089SOL     OW31165   2.868   1.394   2.892
10089SOL    HW131166   2.906   1.371   2.802
10089SOL    HW231167   2.872   1.493   2.906
10090SOL     OW31168   1.261   4.644   0.824
10090SOL    HW131169   1.231   4.635   0.729
10090SOL    HW231170   1.321   4.724   0.833
10091SOL     OW31171   1.153   3.685   4.509
10091SOL    HW131172   1.067   3.661   4.555
10091SOL    HW231173   1.185   3.774   4.543
10092SOL     OW31174   1.835   3.809   5.200
10092SOL    HW131175   1.934   3.799   5.215
10092SOL    HW231176   1.786   3.739   5.251
10093SOL     OW31177   0.498   4.808   5.137
10093SOL    HW131178   0.485   4.812   5.037
10093SOL    HW231179   0.503   4.712   5.165
10094SOL     OW31180   2.443   0.451   2.211
10094SOL    HW131181   2.519   0.485   2.156
10094SOL    HW231182   2.475   0.377   2.270
10095SOL     OW31183   6.123   1.370   5.326
10095SOL    HW131184   6.100   1.355   5.422
10095SOL    HW231185   6.141   1.283   5.282
10096SOL     OW31186   6.742   5.223   2.610
10096SOL    HW131187   6.696   5.246   2.696
10096SOL    HW231188   6.693   5.266   2.534
10097SOL     OW31189   1.104   0.867   0.384
10097SOL    HW131190   1.090   0.880   0.482
10097SOL    HW231191   1.036   0.919   0.333
10098SOL     OW31192   1.859   5.879   5.795
10098SOL    HW131193   1.783   5.945   5.799
10098SOL    HW231194   1.879   5.856   5.700
10099SOL     OW31195   0.054   3.849   5.974
10099SOL    HW131196   0.020   3.757   5.959
10099SOL    HW231197   0.100   3.854   6.063
10100SOL     OW31198   4.737   0.230   5.378
10100SOL    HW131199   4.730   0.167   5.455
10100SOL    HW231200   4.734   0.324   5.411
10101SOL     OW31201   6.903   4.496   2.309
10101SOL    HW131202   6.958   4.561   2.256
10101SOL    HW231203   6.964   4.440   2.365
10102SOL     OW31204   2.814   1.116   2.954
10102SOL    HW131205   2.846   1.202   2.917
10102SOL    HW231206   2.714   1.110   2.944
10103SOL     OW31207   3.341   1.550   5.146
10103SOL    HW131208   3.255   1.509   5.118
10103SOL    HW231209   3.323   1.631   5.202
10104SOL     OW31210   0.567   4.089   5.136
10104SOL    HW131211   0.576   4.163   5.202
10104SOL    HW231212   0.534   4.125   5.049
10105SOL     OW31213   1.293   1.375   6.447
10105SOL    HW131214   1.364   1.423   6.395
10105SOL    HW231215   1.308   1.277   6.442
10106SOL     OW31216   5.125   4.798   0.416
10106SOL    HW131217   5.202   4.754   0.462
10106SOL    HW231218   5.042   4.784   0.471
10107SOL     OW31219   6.667   1.328   5.753
10107SOL    HW131220   6.673   1.297   5.848
10107SOL    HW231221   6.739   1.285   5.699
10108SOL     OW31222   6.211   6.062   0.111
10108SOL    HW131223   6.237   6.104   0.024
10108SOL    HW231224   6.114   6.078   0.128
10109SOL     OW31225   3.881   6.204   2.807
10109SOL    HW131226   3.974   6.205   2.771
10109SOL    HW231227   3.880   6.158   2.896
10110SOL     OW31228   3.624   6.536   5.291
10110SOL    HW131229   3.607   6.496   5.201
10110SOL    HW231230   3.707   6.591   5.289
10111SOL     OW31231   0.012   3.787   3.701
10111SOL    HW131232   0.044   3.882   3.710
10111SOL    HW231233   0.034   3.753   3.609
10112SOL     OW31234   6.137   3.590   5.465
10112SOL    HW131235   6.101   3.577   5.558
10112SOL    HW231236   6.063   3.620   5.405
10113SOL     OW31237   4.126   1.148   0.159
10113SOL    HW131238   4.137   1.056   0.196
10113SOL    HW231239   4.147   1.147   0.061
10114SOL     OW31240   5.417   1.231   0.329
10114SOL    HW131241   5.504   1.197   0.362
10114SOL    HW231242   5.377   1.292   0.397
10115SOL     OW31243   2.381   2.298   3.386
10115SOL    HW131244   2.413   2.270   3.476
10115SOL    HW231245   2.425   2.384   3.360
10116SOL     OW31246   0.959   6.721   1.325
10116SOL    HW131247   1.042   6.770   1.299
10116SOL    HW231248   0.889   6.787   1.352
10117SOL     OW31249   6.412   0.320   4.232
10117SOL    HW131250   6.463   0.260   4.294
10117SOL    HW231251   6.331   0.272   4.199
10118SOL     OW31252   0.433   4.860   2.693
10118SOL    HW131253   0.410   4.934   2.757
10118SOL    HW231254   0.506   4.805   2.732
10119SOL     OW31255   2.225   6.827   4.270
10119SOL    HW131256   2.148   6.763   4.262
10119SOL    HW231257   2.234   6.879   4.185
10120SOL     OW31258   0.602   3.223   3.942
10120SOL    HW131259   0.672   3.174   3.994
10120SOL    HW231260   0.528   3.161   3.919
10121SOL     OW31261   6.631   4.957   4.828
10121SOL    HW131262   6.656   4.974   4.732
10121SOL    HW231263   6.536   4.927   4.832
10122SOL     OW31264   6.182   3.060   0.124
10122SOL    HW131265   6.108   2.995   0.130
10122SOL    HW231266   6.159   3.142   0.177
10123SOL     OW31267   6.756   5.975   0.814
10123SOL    HW131268   6.736   6.028   0.732
10123SOL    HW231269   6.807   6.033   0.879
10124SOL     OW31270   2.244   4.151   6.815
10124SOL    HW131271   2.337   4.134   6.783
10124SOL    HW231272   2.198   4.214   6.753
10125SOL     OW31273   1.583   0.685   2.831
10125SOL    HW131274   1.544   0.657   2.918
10125SOL    HW231275   1.608   0.605   2.777
10126SOL     OW31276   5.912   5.662   6.497
10126SOL    HW131277   5.988   5.608   6.533
10126SOL    HW231278   5.940   5.758   6.491
10127SOL     OW31279   3.186   5.584   5.961
10127SOL    HW131280   3.167   5.498   5.914
10127SOL    HW231281   3.225   5.650   5.897
10128SOL     OW31282   0.539   1.340   1.040
10128SOL    HW131283   0.474   1.342   0.964
10128SOL    HW231284   0.531   1.252   1.088
10129SOL     OW31285   4.659   2.653   3.788
10129SOL    HW131286   4.717   2.598   3.848
10129SOL    HW231287   4.565   2.619   3.791
10130SOL     OW31288   1.432   5.087   2.474
10130SOL    HW131289   1.488   5.005   2.466
10130SOL    HW231290   1.365   5.089   2.400
10131SOL     OW31291   0.603   2.294   2.567
10131SOL    HW131292   0.578   2.368   2.504
10131SOL    HW231293   0.621   2.210   2.515
10132SOL     OW31294   3.491   6.599   3.179
10132SOL    HW131295   3.420   6.606   3.109
10132SOL    HW231296   3.578   6.577   3.135
10133SOL     OW31297   4.387   6.366   2.848
10133SOL    HW131298   4.394   6.301   2.924
10133SOL    HW231299   4.361   6.456   2.884
10134SOL     OW31300   6.593   0.347   3.625
10134SOL    HW131301   6.591   0.324   3.528
10134SOL    HW231302   6.501   0.369   3.656
10135SOL     OW31303   4.866   3.829   2.793
10135SOL    HW131304   4.820   3.909   2.754
10135SOL    HW231305   4.867   3.755   2.726
10136SOL     OW31306   5.717   0.093   3.103
10136SOL    HW131307   5.692   0.005   3.065
10136SOL    HW231308   5.787   0.136   3.046
10137SOL     OW31309   6.903   5.376   4.172
10137SOL    HW131310   6.999   5.389   4.145
10137SOL    HW231311   6.888   5.418   4.261
10138SOL     OW31312   5.023   2.009   0.768
10138SOL    HW131313   4.958   1.944   0.730
10138SOL    HW231314   5.049   2.075   0.697
10139SOL     OW31315   3.800   3.098   2.681
10139SOL    HW131316   3.743   3.017   2.696
10139SOL    HW231317   3.869   3.077   2.612
10140SOL     OW31318   6.277   5.993   6.188
10140SOL    HW131319   6.261   5.909   6.240
10140SOL    HW231320   6.356   5.980   6.128
10141SOL     OW31321   3.188   2.134   4.433
10141SOL    HW131322   3.106   2.191   4.427
10141SOL    HW231323   3.233   2.149   4.520
10142SOL     OW31324   5.320   6.345   5.301
10142SOL    HW131325   5.404   6.390   5.270
10142SOL    HW231326   5.240   6.396   5.267
10143SOL     OW31327   4.620   0.239   1.392
10143SOL    HW131328   4.620   0.328   1.346
10143SOL    HW231329   4.707   0.193   1.376
10144SOL     OW31330   4.087   6.021   5.946
10144SOL    HW131331   4.015   5.967   5.902
10144SOL    HW231332   4.061   6.038   6.041
10145SOL     OW31333   3.103   5.738   5.619
10145SOL    HW131334   3.184   5.793   5.638
10145SOL    HW231335   3.129   5.653   5.573
10146SOL     OW31336   4.041   5.022   5.345
10146SOL    HW131337   4.000   5.070   5.422
10146SOL    HW231338   4.132   5.060   5.327
10147SOL     OW31339   5.132   4.793   4.524
10147SOL    HW131340   5.201   4.746   4.578
10147SOL    HW231341   5.046   4.743   4.528
10148SOL     OW31342   6.340   5.702   0.339
10148SOL    HW131343   6.367   5.611   0.370
10148SOL    HW231344   6.270   5.739   0.400
10149SOL     OW31345   4.646   2.161   0.171
10149SOL    HW131346   4.546   2.154   0.170
10149SOL    HW231347   4.685   2.069   0.161
10150SOL     OW31348   5.152   4.020   0.710
10150SOL    HW131349   5.098   3.972   0.780
10150SOL    HW231350   5.201   4.096   0.753
10151SOL     OW31351   1.694   0.278   6.414
10151SOL    HW131352   1.794   0.284   6.406
10151SOL    HW231353   1.654   0.368   6.398
10152SOL     OW31354   1.775   5.637   3.910
10152SOL    HW131355   1.689   5.621   3.863
10152SOL    HW231356   1.826   5.710   3.864
10153SOL     OW31357   4.272   5.919   3.950
10153SOL    HW131358   4.284   5.976   3.869
10153SOL    HW231359   4.174   5.913   3.972
10154SOL     OW31360   6.086   6.627   5.802
10154SOL    HW131361   6.127   6.668   5.721
10154SOL    HW231362   5.992   6.598   5.781
10155SOL     OW31363   3.987   1.666   6.012
10155SOL    HW131364   3.971   1.747   5.955
10155SOL    HW231365   4.007   1.696   6.106
10156SOL     OW31366   6.561   0.054   1.838
10156SOL    HW131367   6.579   6.983   1.799
10156SOL    HW231368   6.529   0.115   1.767
10157SOL     OW31369   5.906   1.989   6.058
10157SOL    HW131370   5.847   1.908   6.057
10157SOL    HW231371   5.873   2.053   6.127
10158SOL     OW31372   4.653   3.931   6.971
10158SOL    HW131373   4.708   3.851   6.945
10158SOL    HW231374   4.562   3.923   6.930
10159SOL     OW31375   2.841   3.388   6.192
10159SOL    HW131376   2.905   3.385   6.270
10159SOL    HW231377   2.748   3.399   6.227
10160SOL     OW31378   0.994   4.511   2.503
10160SOL    HW131379   0.984   4.440   2.572
10160SOL    HW231380   0.953   4.479   2.417
10161SOL     OW31381   3.532   4.581   0.544
10161SOL    HW131382   3.437   4.603   0.523
10161SOL    HW231383   3.556   4.493   0.503
10162SOL     OW31384   3.105   3.848   0.640
10162SOL    HW131385   3.142   3.898   0.719
10162SOL    HW231386   3.006   3.863   0.634
10163SOL     OW31387   5.756   4.203   6.372
10163SOL    HW131388   5.834   4.266   6.378
10163SOL    HW231389   5.779   4.128   6.310
10164SOL     OW31390   6.371   2.991   5.211
10164SOL    HW131391   6.426   3.002   5.128
10164SOL    HW231392   6.384   3.070   5.271
10165SOL     OW31393   1.888   2.444   3.975
10165SOL    HW131394   1.983   2.468   3.996
10165SOL    HW231395   1.881   2.414   3.880
10166SOL     OW31396   3.744   0.575   1.850
10166SOL    HW131397   3.702   0.617   1.931
10166SOL    HW231398   3.676   0.519   1.803
10167SOL     OW31399   4.452   1.388   6.735
10167SOL    HW131400   4.354   1.391   6.756
10167SOL    HW231401   4.479   1.470   6.685
10168SOL     OW31402   0.065   3.950   4.658
10168SOL    HW131403   0.034   4.044   4.642
10168SOL    HW231404   0.132   3.948   4.732
10169SOL     OW31405   6.642   3.805   3.179
10169SOL    HW131406   6.718   3.774   3.121
10169SOL    HW231407   6.639   3.749   3.262
10170SOL     OW31408   0.913   4.217   5.990
10170SOL    HW131409   0.951   4.151   6.055
10170SOL    HW231410   0.921   4.180   5.897
10171SOL     OW31411   6.473   4.019   6.702
10171SOL    HW131412   6.514   3.927   6.705
10171SOL    HW231413   6.459   4.046   6.607
10172SOL     OW31414   6.553   0.278   3.367
10172SOL    HW131415   6.614   0.317   3.298
10172SOL    HW231416   6.459   0.305   3.348
10173SOL     OW31417   1.773   2.280   0.952
10173SOL    HW131418   1.677   2.251   0.952
10173SOL    HW231419   1.781   2.368   0.999
10174SOL     OW31420   5.761   5.128   1.800
10174SOL    HW131421   5.791   5.201   1.863
10174SOL    HW231422   5.664   5.139   1.781
10175SOL     OW31423   6.770   2.605   4.054
10175SOL    HW131424   6.744   2.673   3.985
10175SOL    HW231425   6.822   2.651   4.127
10176SOL     OW31426   1.246   3.135   5.607
10176SOL    HW131427   1.243   3.203   5.680
10176SOL    HW231428   1.341   3.123   5.577
10177SOL     OW31429   2.347   0.358   0.251
10177SOL    HW131430   2.332   0.405   0.164
10177SOL    HW231431   2.430   0.393   0.294
10178SOL     OW31432   6.487   3.121   4.976
10178SOL    HW131433   6.497   3.220   4.967
10178SOL    HW231434   6.572   3.076   4.950
10179SOL     OW31435   1.217   1.444   5.933
10179SOL    HW131436   1.185   1.359   5.891
10179SOL    HW231437   1.224   1.515   5.863
10180SOL     OW31438   3.950   6.046   6.628
10180SOL    HW131439   3.890   5.966   6.621
10180SOL    HW231440   3.939   6.087   6.719
10181SOL     OW31441   4.954   3.579   2.036
10181SOL    HW131442   4.876   3.602   1.980
10181SOL    HW231443   4.941   3.488   2.076
10182SOL     OW31444   5.827   1.612   2.090
10182SOL    HW131445   5.749   1.550   2.079
10182SOL    HW231446   5.850   1.619   2.187
10183SOL     OW31447   0.777   1.988   6.173
10183SOL    HW131448   0.781   2.082   6.206
10183SOL    HW231449   0.773   1.925   6.250
10184SOL     OW31450   4.672   1.447   6.077
10184SOL    HW131451   4.658   1.428   6.174
10184SOL    HW231452   4.584   1.445   6.030
10185SOL     OW31453   5.138   5.809   1.366
10185SOL    HW131454   5.173   5.889   1.317
10185SOL    HW231455   5.053   5.834   1.413
10186SOL     OW31456   5.495   3.368   3.056
10186SOL    HW131457   5.592   3.365   3.080
10186SOL    HW231458   5.440   3.339   3.135
10187SOL     OW31459   0.616   2.047   1.805
10187SOL    HW131460   0.645   1.960   1.844
10187SOL    HW231461   0.529   2.036   1.758
10188SOL     OW31462   3.627   6.248   0.387
10188SOL    HW131463   3.618   6.297   0.473
10188SOL    HW231464   3.542   6.199   0.367
10189SOL     OW31465   2.527   0.949   5.407
10189SOL    HW131466   2.534   1.002   5.492
10189SOL    HW231467   2.617   0.916   5.381
10190SOL     OW31468   5.068   2.857   1.078
10190SOL    HW131469   5.029   2.765   1.079
10190SOL    HW231470   4.998   2.923   1.053
10191SOL     OW31471   4.484   4.146   6.846
10191SOL    HW131472   4.501   4.162   6.748
10191SOL    HW231473   4.566   4.169   6.898
10192SOL     OW31474   4.458   0.627   5.124
10192SOL    HW131475   4.471   0.722   5.096
10192SOL    HW231476   4.545   0.578   5.119
10193SOL     OW31477   4.291   3.838   1.713
10193SOL    HW131478   4.379   3.798   1.686
10193SOL    HW231479   4.238   3.770   1.763
10194SOL     OW31480   6.039   5.280   4.864
10194SOL    HW131481   6.098   5.297   4.943
10194SOL    HW231482   5.990   5.194   4.876
10195SOL     OW31483   6.178   4.494   1.380
10195SOL    HW131484   6.214   4.584   1.357
10195SOL    HW231485   6.078   4.495   1.371
10196SOL     OW31486   5.105   1.335   4.502
10196SOL    HW131487   5.093   1.423   4.457
10196SOL    HW231488   5.076   1.262   4.440
10197SOL     OW31489   6.892   1.974   5.018
10197SOL    HW131490   6.883   1.928   5.106
10197SOL    HW231491   6.810   2.029   5.000
10198SOL     OW31492   3.876   0.630   1.619
10198SOL    HW131493   3.851   0.591   1.708
10198SOL    HW231494   3.830   0.718   1.608
10199SOL     OW31495   2.577   2.758   6.188
10199SOL    HW131496   2.505   2.772   6.121
10199SOL    HW231497   2.562   2.817   6.267
10200SOL     OW31498   5.209   2.134   0.961
10200SOL    HW131499   5.179   2.083   0.880
10200SOL    HW231500   5.305   2.116   0.978
10201SOL     OW31501   0.630   4.495   0.699
10201SOL    HW131502   0.711   4.437   0.699
10201SOL    HW231503   0.616   4.533   0.791
10202SOL     OW31504   3.998   2.165   6.342
10202SOL    HW131505   4.086   2.164   6.388
10202SOL    HW231506   3.927   2.196   6.405
10203SOL     OW31507   5.507   3.056   4.211
10203SOL    HW131508   5.522   2.962   4.180
10203SOL    HW231509   5.413   3.083   4.190
10204SOL     OW31510   5.416   6.635   6.674
10204SOL    HW131511   5.412   6.717   6.617
10204SOL    HW231512   5.351   6.567   6.639
10205SOL     OW31513   0.354   1.633   0.671
10205SOL    HW131514   0.432   1.625   0.609
10205SOL    HW231515   0.372   1.705   0.738
10206SOL     OW31516   1.097   1.012   6.094
10206SOL    HW131517   1.078   1.109   6.082
10206SOL    HW231518   1.029   0.958   6.045
10207SOL     OW31519   1.296   1.990   6.629
10207SOL    HW131520   1.370   1.925   6.647
10207SOL    HW231521   1.218   1.969   6.687
10208SOL     OW31522   5.374   5.390   4.100
10208SOL    HW131523   5.308   5.418   4.170
10208SOL    HW231524   5.465   5.424   4.124
10209SOL     OW31525   6.954   7.008   5.907
10209SOL    HW131526   0.034   7.014   5.919
10209SOL    HW231527   6.915   6.949   5.978
10210SOL     OW31528   4.584   6.441   0.862
10210SOL    HW131529   4.599   6.505   0.787
10210SOL    HW231530   4.622   6.352   0.838
10211SOL     OW31531   3.289   6.797   4.808
10211SOL    HW131532   3.356   6.804   4.735
10211SOL    HW231533   3.227   6.721   4.790
10212SOL     OW31534   0.908   6.952   4.905
10212SOL    HW131535   0.836   6.948   4.836
10212SOL    HW231536   0.973   6.877   4.889
10213SOL     OW31537   4.600   2.758   1.140
10213SOL    HW131538   4.632   2.726   1.051
10213SOL    HW231539   4.526   2.699   1.172
10214SOL     OW31540   1.253   1.948   1.686
10214SOL    HW131541   1.155   1.960   1.671
10214SOL    HW231542   1.302   1.966   1.600
10215SOL     OW31543   4.031   3.120   3.034
10215SOL    HW131544   4.035   3.128   3.134
10215SOL    HW231545   3.954   3.060   3.009
10216SOL     OW31546   6.326   0.517   1.520
10216SOL    HW131547   6.366   0.555   1.603
10216SOL    HW231548   6.287   0.591   1.465
10217SOL     OW31549   2.398   0.812   3.588
10217SOL    HW131550   2.370   0.795   3.682
10217SOL    HW231551   2.342   0.756   3.526
10218SOL     OW31552   1.071   3.163   1.260
10218SOL    HW131553   0.975   3.176   1.237
10218SOL    HW231554   1.113   3.252   1.280
10219SOL     OW31555   7.002   1.645   2.355
10219SOL    HW131556   6.963   1.723   2.405
10219SOL    HW231557   0.051   1.600   2.413
10220SOL     OW31558   4.030   2.698   1.156
10220SOL    HW131559   3.987   2.667   1.072
10220SOL    HW231560   3.962   2.746   1.212
10221SOL     OW31561   0.730   5.390   3.077
10221SOL    HW131562   0.748   5.485   3.102
10221SOL    HW231563   0.779   5.368   2.993
10222SOL     OW31564   2.947   3.553   4.798
10222SOL    HW131565   2.909   3.527   4.887
10222SOL    HW231566   2.952   3.473   4.739
10223SOL     OW31567   0.804   5.270   0.993
10223SOL    HW131568   0.773   5.365   0.985
10223SOL    HW231569   0.767   5.230   1.077
10224SOL     OW31570   5.878   3.294   3.522
10224SOL    HW131571   5.969   3.318   3.489
10224SOL    HW231572   5.858   3.199   3.498
10225SOL     OW31573   1.699   3.967   5.699
10225SOL    HW131574   1.678   3.950   5.603
10225SOL    HW231575   1.616   3.954   5.754
10226SOL     OW31576   3.474   1.686   0.189
10226SOL    HW131577   3.380   1.652   0.195
10226SOL    HW231578   3.530   1.643   0.260
10227SOL     OW31579   5.296   3.723   0.396
10227SOL    HW131580   5.311   3.771   0.482
10227SOL    HW231581   5.382   3.687   0.361
10228SOL     OW31582   6.591   0.290   0.473
10228SOL    HW131583   6.520   0.350   0.507
10228SOL    HW231584   6.670   0.344   0.443
10229SOL     OW31585   0.585   3.078   4.926
10229SOL    HW131586   0.580   3.177   4.939
10229SOL    HW231587   0.560   3.033   5.012
10230SOL     OW31588   6.545   5.611   2.367
10230SOL    HW131589   6.480   5.618   2.291
10230SOL    HW231590   6.557   5.701   2.409
10231SOL     OW31591   1.344   5.869   3.721
10231SOL    HW131592   1.312   5.898   3.631
10231SOL    HW231593   1.398   5.942   3.762
10232SOL     OW31594   2.975   0.694   3.647
10232SOL    HW131595   2.903   0.734   3.703
10232SOL    HW231596   2.981   0.743   3.560
10233SOL     OW31597   3.942   3.971   5.887
10233SOL    HW131598   3.956   4.008   5.979
10233SOL    HW231599   4.030   3.945   5.847
10234SOL     OW31600   5.835   0.210   1.019
10234SOL    HW131601   5.768   0.137   1.033
10234SOL    HW231602   5.824   0.249   0.928
10235SOL     OW31603   1.135   1.216   3.154
10235SOL    HW131604   1.105   1.281   3.223
10235SOL    HW231605   1.140   1.262   3.065
10236SOL     OW31606   2.476   6.774   0.355
10236SOL    HW131607   2.462   6.792   0.258
10236SOL    HW231608   2.416   6.701   0.385
10237SOL     OW31609   0.534   3.078   6.959
10237SOL    HW131610   0.454   3.113   6.911
10237SOL    HW231611   0.610   3.142   6.948
10238SOL     OW31612   4.132   4.993   1.203
10238SOL    HW131613   4.217   4.982   1.256
10238SOL    HW231614   4.109   4.907   1.158
10239SOL     OW31615   1.559   2.862   4.448
10239SOL    HW131616   1.595   2.949   4.413
10239SOL    HW231617   1.570   2.859   4.547
10240SOL     OW31618   2.359   7.017   1.933
10240SOL    HW131619   2.456   0.025   1.936
10240SOL    HW231620   2.347   6.945   1.865
10241SOL     OW31621   4.955   1.806   2.068
10241SOL    HW131622   4.975   1.904   2.059
10241SOL    HW231623   5.026   1.753   2.024
10242SOL     OW31624   0.381   2.358   0.888
10242SOL    HW131625   0.403   2.390   0.980
10242SOL    HW231626   0.368   2.259   0.890
10243SOL     OW31627   2.476   4.640   1.220
10243SOL    HW131628   2.392   4.591   1.244
10243SOL    HW231629   2.525   4.665   1.304
10244SOL     OW31630   2.450   4.003   1.433
10244SOL    HW131631   2.464   4.025   1.529
10244SOL    HW231632   2.534   3.967   1.394
10245SOL     OW31633   3.592   3.935   0.988
10245SOL    HW131634   3.632   3.894   0.905
10245SOL    HW231635   3.497   3.905   0.997
10246SOL     OW31636   3.314   2.985   4.432
10246SOL    HW131637   3.317   3.080   4.463
10246SOL    HW231638   3.264   2.980   4.346
10247SOL     OW31639   0.959   4.293   5.024
10247SOL    HW131640   0.953   4.235   4.942
10247SOL    HW231641   1.038   4.265   5.079
10248SOL     OW31642   1.402   6.758   3.635
10248SOL    HW131643   1.338   6.831   3.659
10248SOL    HW231644   1.351   6.677   3.607
10249SOL     OW31645   1.901   4.855   6.800
10249SOL    HW131646   1.932   4.854   6.895
10249SOL    HW231647   1.976   4.828   6.740
10250SOL     OW31648   5.843   3.034   0.490
10250SOL    HW131649   5.904   3.042   0.569
10250SOL    HW231650   5.749   3.022   0.522
10251SOL     OW31651   1.595   0.409   3.758
10251SOL    HW131652   1.653   0.489   3.769
10251SOL    HW231653   1.562   0.404   3.663
10252SOL     OW31654   4.888   3.684   5.315
10252SOL    HW131655   4.848   3.657   5.227
10252SOL    HW231656   4.936   3.771   5.305
10253SOL     OW31657   3.940   6.789   6.842
10253SOL    HW131658   4.034   6.793   6.810
10253SOL    HW231659   3.880   6.829   6.773
10254SOL     OW31660   5.008   1.935   4.937
10254SOL    HW131661   5.064   1.877   4.995
10254SOL    HW231662   5.067   1.991   4.879
10255SOL     OW31663   2.854   5.757   1.051
10255SOL    HW131664   2.852   5.845   1.003
10255SOL    HW231665   2.824   5.770   1.146
10256SOL     OW31666   5.375   0.990   1.851
10256SOL    HW131667   5.276   0.976   1.862
10256SOL    HW231668   5.423   0.954   1.930
10257SOL     OW31669   2.933   4.964   3.276
10257SOL    HW131670   3.006   4.989   3.212
10257SOL    HW231671   2.973   4.932   3.362
10258SOL     OW31672   3.304   2.143   3.095
10258SOL    HW131673   3.340   2.229   3.130
10258SOL    HW231674   3.327   2.069   3.158
10259SOL     OW31675   1.059   4.154   4.013
10259SOL    HW131676   1.122   4.093   4.061
10259SOL    HW231677   0.967   4.143   4.051
10260SOL     OW31678   1.536   1.420   3.524
10260SOL    HW131679   1.441   1.398   3.502
10260SOL    HW231680   1.555   1.396   3.619
10261SOL     OW31681   0.239   3.602   0.887
10261SOL    HW131682   0.312   3.631   0.824
10261SOL    HW231683   0.190   3.525   0.848
10262SOL     OW31684   3.702   0.963   6.751
10262SOL    HW131685   3.728   0.869   6.773
10262SOL    HW231686   3.693   0.974   6.652
10263SOL     OW31687   6.001   0.742   0.479
10263SOL    HW131688   6.087   0.692   0.475
10263SOL    HW231689   6.001   0.804   0.557
10264SOL     OW31690   5.933   4.932   6.548
10264SOL    HW131691   5.836   4.938   6.570
10264SOL    HW231692   5.986   4.973   6.622
10265SOL     OW31693   2.111   2.736   0.887
10265SOL    HW131694   2.099   2.653   0.941
10265SOL    HW231695   2.204   2.739   0.850
10266SOL     OW31696   3.196   3.000   3.104
10266SOL    HW131697   3.287   2.970   3.132
10266SOL    HW231698   3.172   2.957   3.016
10267SOL     OW31699   4.967   0.854   0.421
10267SOL    HW131700   4.924   0.811   0.341
10267SOL    HW231701   4.930   0.946   0.432
10268SOL     OW31702   5.595   0.052   1.656
10268SOL    HW131703   5.592   0.116   1.732
10268SOL    HW231704   5.634   0.097   1.576
10269SOL     OW31705   1.485   2.588   6.707
10269SOL    HW131706   1.554   2.622   6.770
10269SOL    HW231707   1.408   2.652   6.704
10270SOL     OW31708   3.495   6.169   2.218
10270SOL    HW131709   3.494   6.104   2.142
10270SOL    HW231710   3.590   6.190   2.242
10271SOL     OW31711   3.132   2.047   0.942
10271SOL    HW131712   3.091   2.108   0.874
10271SOL    HW231713   3.210   2.093   0.985
10272SOL     OW31714   6.705   1.188   4.158
10272SOL    HW131715   6.609   1.214   4.147
10272SOL    HW231716   6.764   1.262   4.127
10273SOL     OW31717   2.900   5.226   4.459
10273SOL    HW131718   2.801   5.222   4.443
10273SOL    HW231719   2.947   5.230   4.371
10274SOL     OW31720   0.422   5.170   5.549
10274SOL    HW131721   0.361   5.091   5.540
10274SOL    HW231722   0.386   5.232   5.619
10275SOL     OW31723   0.159   0.901   3.160
10275SOL    HW131724   0.071   0.906   3.208
10275SOL    HW231725   0.163   0.817   3.106
10276SOL     OW31726   4.478   5.528   5.752
10276SOL    HW131727   4.490   5.613   5.700
10276SOL    HW231728   4.543   5.526   5.828
10277SOL     OW31729   1.389   0.142   4.444
10277SOL    HW131730   1.418   0.093   4.362
10277SOL    HW231731   1.297   0.178   4.431
10278SOL     OW31732   0.230   0.510   4.782
10278SOL    HW131733   0.130   0.504   4.792
10278SOL    HW231734   0.254   0.604   4.757
10279SOL     OW31735   2.197   5.661   4.433
10279SOL    HW131736   2.274   5.627   4.486
10279SOL    HW231737   2.202   5.623   4.340
10280SOL     OW31738   5.661   3.427   0.546
10280SOL    HW131739   5.589   3.379   0.598
10280SOL    HW231740   5.704   3.495   0.605
10281SOL     OW31741   6.571   2.336   3.308
10281SOL    HW131742   6.482   2.326   3.262
10281SOL    HW231743   6.615   2.420   3.277
10282SOL     OW31744   4.895   3.272   3.138
10282SOL    HW131745   4.883   3.268   3.039
10282SOL    HW231746   4.867   3.186   3.180
10283SOL     OW31747   0.416   3.619   1.239
10283SOL    HW131748   0.348   3.545   1.244
10283SOL    HW231749   0.371   3.705   1.215
10284SOL     OW31750   6.969   2.432   3.889
10284SOL    HW131751   0.046   2.432   3.862
10284SOL    HW231752   6.960   2.473   3.980
10285SOL     OW31753   4.257   6.754   3.341
10285SOL    HW131754   4.163   6.731   3.365
10285SOL    HW231755   4.319   6.712   3.408
10286SOL     OW31756   2.684   1.120   3.838
10286SOL    HW131757   2.740   1.053   3.788
10286SOL    HW231758   2.743   1.186   3.883
10287SOL     OW31759   2.046   5.725   1.687
10287SOL    HW131760   1.979   5.663   1.728
10287SOL    HW231761   2.001   5.781   1.617
10288SOL     OW31762   3.379   6.957   5.027
10288SOL    HW131763   3.458   7.002   4.986
10288SOL    HW231764   3.332   6.902   4.958
10289SOL     OW31765   3.267   5.987   0.732
10289SOL    HW131766   3.267   6.085   0.749
10289SOL    HW231767   3.176   5.950   0.751
10290SOL     OW31768   3.184   3.345   2.393
10290SOL    HW131769   3.211   3.413   2.462
10290SOL    HW231770   3.094   3.308   2.415
10291SOL     OW31771   3.126   1.137   3.367
10291SOL    HW131772   3.097   1.123   3.273
10291SOL    HW231773   3.226   1.138   3.372
10292SOL     OW31774   0.316   1.107   6.073
10292SOL    HW131775   0.286   1.045   6.000
10292SOL    HW231776   0.237   1.160   6.105
10293SOL     OW31777   0.707   3.675   3.632
10293SOL    HW131778   0.643   3.746   3.663
10293SOL    HW231779   0.708   3.600   3.698
10294SOL     OW31780   3.697   1.957   3.003
10294SOL    HW131781   3.632   1.886   3.030
10294SOL    HW231782   3.786   1.916   2.986
10295SOL     OW31783   1.080   2.528   6.018
10295SOL    HW131784   1.125   2.614   5.993
10295SOL    HW231785   0.999   2.515   5.961
10296SOL     OW31786   5.620   0.796   5.882
10296SOL    HW131787   5.585   0.720   5.826
10296SOL    HW231788   5.547   0.826   5.944
10297SOL     OW31789   2.622   1.787   7.019
10297SOL    HW131790   2.624   1.694   0.036
10297SOL    HW231791   2.684   1.794   6.941
10298SOL     OW31792   1.338   4.415   1.729
10298SOL    HW131793   1.284   4.437   1.647
10298SOL    HW231794   1.294   4.456   1.809
10299SOL     OW31795   4.639   6.308   2.355
10299SOL    HW131796   4.589   6.293   2.270
10299SOL    HW231797   4.588   6.371   2.414
10300SOL     OW31798   1.351   4.171   1.820
10300SOL    HW131799   1.357   4.265   1.788
10300SOL    HW231800   1.386   4.166   1.914
10301SOL     OW31801   3.965   1.962   5.454
10301SOL    HW131802   4.046   1.977   5.396
10301SOL    HW231803   3.895   2.029   5.430
10302SOL     OW31804   2.748   6.615   4.398
10302SOL    HW131805   2.716   6.698   4.443
10302SOL    HW231806   2.689   6.539   4.421
10303SOL     OW31807   0.986   6.044   3.720
10303SOL    HW131808   0.998   5.946   3.709
10303SOL    HW231809   0.915   6.063   3.787
10304SOL     OW31810   6.314   6.982   0.639
10304SOL    HW131811   6.315   0.019   0.556
10304SOL    HW231812   6.237   7.009   0.697
10305SOL     OW31813   3.259   3.963   6.172
10305SOL    HW131814   3.173   3.934   6.214
10305SOL    HW231815   3.250   3.958   6.072
10306SOL     OW31816   5.167   6.697   1.123
10306SOL    HW131817   5.155   6.638   1.203
10306SOL    HW231818   5.208   6.645   1.049
10307SOL     OW31819   3.163   1.563   4.468
10307SOL    HW131820   3.074   1.518   4.460
10307SOL    HW231821   3.203   1.574   4.377
10308SOL     OW31822   2.117   4.298   2.649
10308SOL    HW131823   2.057   4.302   2.729
10308SOL    HW231824   2.084   4.361   2.579
10309SOL     OW31825   6.349   0.821   5.618
10309SOL    HW131826   6.389   0.743   5.570
10309SOL    HW231827   6.251   0.806   5.630
10310SOL     OW31828   2.844   3.722   0.082
10310SOL    HW131829   2.786   3.705   0.161
10310SOL    HW231830   2.852   3.639   0.027
10311SOL     OW31831   6.128   5.521   0.490
10311SOL    HW131832   6.175   5.585   0.550
10311SOL    HW231833   6.153   5.427   0.515
10312SOL     OW31834   4.543   0.603   1.942
10312SOL    HW131835   4.575   0.513   1.971
10312SOL    HW231836   4.466   0.592   1.879
10313SOL     OW31837   3.859   5.971   2.982
10313SOL    HW131838   3.812   5.904   3.040
10313SOL    HW231839   3.930   6.017   3.035
10314SOL     OW31840   0.369   0.360   6.723
10314SOL    HW131841   0.312   0.297   6.775
10314SOL    HW231842   0.311   0.428   6.678
10315SOL     OW31843   5.242   6.561   3.785
10315SOL    HW131844   5.289   6.553   3.697
10315SOL    HW231845   5.217   6.657   3.801
10316SOL     OW31846   6.271   2.235   5.864
10316SOL    HW131847   6.297   2.313   5.921
10316SOL    HW231848   6.198   2.183   5.908
10317SOL     OW31849   3.530   5.957   5.984
10317SOL    HW131850   3.595   5.946   6.059
10317SOL    HW231851   3.581   5.979   5.900
10318SOL     OW31852   5.204   0.065   6.455
10318SOL    HW131853   5.260   0.143   6.481
10318SOL    HW231854   5.235   7.002   6.503
10319SOL     OW31855   0.464   4.384   5.647
10319SOL    HW131856   0.563   4.372   5.655
10319SOL    HW231857   0.425   4.305   5.600
10320SOL     OW31858   6.894   6.646   3.331
10320SOL    HW131859   6.891   6.549   3.356
10320SOL    HW231860   6.812   6.669   3.278
10321SOL     OW31861   5.776   2.293   2.030
10321SOL    HW131862   5.680   2.319   2.024
10321SOL    HW231863   5.814   2.286   1.938
10322SOL     OW31864   3.988   4.854   4.799
10322SOL    HW131865   4.011   4.792   4.724
10322SOL    HW231866   4.066   4.860   4.862
10323SOL     OW31867   6.120   5.121   5.281
10323SOL    HW131868   6.215   5.149   5.293
10323SOL    HW231869   6.111   5.023   5.301
10324SOL     OW31870   3.015   3.638   2.601
10324SOL    HW131871   2.991   3.567   2.667
10324SOL    HW231872   2.960   3.628   2.519
10325SOL     OW31873   0.214   4.969   2.366
10325SOL    HW131874   0.271   5.013   2.436
10325SOL    HW231875   0.271   4.906   2.312
10326SOL     OW31876   5.522   3.928   6.504
10326SOL    HW131877   5.568   3.959   6.421
10326SOL    HW231878   5.560   3.841   6.534
10327SOL     OW31879   2.474   3.215   1.677
10327SOL    HW131880   2.454   3.303   1.722
10327SOL    HW231881   2.560   3.179   1.712
10328SOL     OW31882   6.276   2.905   2.066
10328SOL    HW131883   6.179   2.882   2.064
10328SOL    HW231884   6.288   3.004   2.059
10329SOL     OW31885   2.948   0.663   2.902
10329SOL    HW131886   3.003   0.680   2.984
10329SOL    HW231887   2.876   0.597   2.923
10330SOL     OW31888   4.665   0.448   1.229
10330SOL    HW131889   4.612   0.477   1.149
10330SOL    HW231890   4.760   0.434   1.203
10331SOL     OW31891   6.472   5.883   6.801
10331SOL    HW131892   6.551   5.867   6.861
10331SOL    HW231893   6.427   5.795   6.782
10332SOL     OW31894   1.018   0.291   6.709
10332SOL    HW131895   1.043   0.226   6.637
10332SOL    HW231896   0.926   0.325   6.693
10333SOL     OW31897   0.232   5.959   4.861
10333SOL    HW131898   0.284   5.883   4.820
10333SOL    HW231899   0.269   5.980   4.951
10334SOL     OW31900   3.377   0.042   4.428
10334SOL    HW131901   3.363   0.040   4.527
10334SOL    HW231902   3.394   0.136   4.399
10335SOL     OW31903   1.493   4.567   6.465
10335SOL    HW131904   1.593   4.566   6.469
10335SOL    HW231905   1.457   4.485   6.510
10336SOL     OW31906   6.472   6.404   2.052
10336SOL    HW131907   6.401   6.411   2.123
10336SOL    HW231908   6.543   6.472   2.070
10337SOL     OW31909   6.867   5.443   0.158
10337SOL    HW131910   6.854   5.513   0.228
10337SOL    HW231911   6.947   5.388   0.182
10338SOL     OW31912   1.319   6.391   2.281
10338SOL    HW131913   1.347   6.408   2.375
10338SOL    HW231914   1.220   6.406   2.272
10339SOL     OW31915   6.437   3.562   6.339
10339SOL    HW131916   6.405   3.548   6.245
10339SOL    HW231917   6.444   3.661   6.357
10340SOL     OW31918   1.868   2.548   6.650
10340SOL    HW131919   1.861   2.448   6.650
10340SOL    HW231920   1.862   2.582   6.556
10341SOL     OW31921   2.087   3.484   2.122
10341SOL    HW131922   1.994   3.484   2.087
10341SOL    HW231923   2.151   3.470   2.046
10342SOL     OW31924   1.596   0.667   3.492
10342SOL    HW131925   1.624   0.583   3.447
10342SOL    HW231926   1.639   0.673   3.582
10343SOL     OW31927   2.760   5.142   0.518
10343SOL    HW131928   2.797   5.192   0.596
10343SOL    HW231929   2.814   5.059   0.504
10344SOL     OW31930   3.671   3.748   6.914
10344SOL    HW131931   3.595   3.778   6.856
10344SOL    HW231932   3.709   3.827   6.962
10345SOL     OW31933   1.523   3.207   5.569
10345SOL    HW131934   1.525   3.220   5.470
10345SOL    HW231935   1.568   3.284   5.614
10346SOL     OW31936   6.808   5.243   1.562
10346SOL    HW131937   6.825   5.341   1.569
10346SOL    HW231938   6.764   5.223   1.474
10347SOL     OW31939   4.455   1.204   3.446
10347SOL    HW131940   4.388   1.172   3.380
10347SOL    HW231941   4.482   1.298   3.424
10348SOL     OW31942   6.181   2.509   0.345
10348SOL    HW131943   6.233   2.558   0.275
10348SOL    HW231944   6.106   2.567   0.377
10349SOL     OW31945   0.506   0.293   6.510
10349SOL    HW131946   0.453   0.339   6.582
10349SOL    HW231947   0.604   0.305   6.528
10350SOL     OW31948   2.895   5.658   5.416
10350SOL    HW131949   2.973   5.675   5.476
10350SOL    HW231950   2.829   5.733   5.424
10351SOL     OW31951   4.682   5.251   5.978
10351SOL    HW131952   4.717   5.261   6.071
10351SOL    HW231953   4.733   5.178   5.932
10352SOL     OW31954   3.426   0.921   6.186
10352SOL    HW131955   3.523   0.923   6.160
10352SOL    HW231956   3.381   0.843   6.141
10353SOL     OW31957   6.716   2.981   4.873
10353SOL    HW131958   6.672   2.923   4.804
10353SOL    HW231959   6.786   2.929   4.921
10354SOL     OW31960   5.405   1.025   0.778
10354SOL    HW131961   5.389   0.989   0.869
10354SOL    HW231962   5.484   0.979   0.737
10355SOL     OW31963   3.070   5.857   2.055
10355SOL    HW131964   3.087   5.866   1.957
10355SOL    HW231965   3.156   5.858   2.105
10356SOL     OW31966   6.929   4.245   6.327
10356SOL    HW131967   6.912   4.339   6.297
10356SOL    HW231968   6.989   4.246   6.407
10357SOL     OW31969   2.274   2.136   5.964
10357SOL    HW131970   2.308   2.215   6.016
10357SOL    HW231971   2.299   2.145   5.868
10358SOL     OW31972   6.632   2.733   3.032
10358SOL    HW131973   6.541   2.703   3.002
10358SOL    HW231974   6.627   2.829   3.060
10359SOL     OW31975   0.456   1.578   1.139
10359SOL    HW131976   0.365   1.611   1.114
10359SOL    HW231977   0.463   1.481   1.115
10360SOL     OW31978   4.570   5.536   2.978
10360SOL    HW131979   4.646   5.554   2.916
10360SOL    HW231980   4.489   5.512   2.925
10361SOL     OW31981   2.829   6.034   2.288
10361SOL    HW131982   2.884   5.955   2.313
10361SOL    HW231983   2.733   6.015   2.305
10362SOL     OW31984   1.901   5.231   4.812
10362SOL    HW131985   1.888   5.308   4.749
10362SOL    HW231986   1.972   5.170   4.775
10363SOL     OW31987   5.506   0.769   2.860
10363SOL    HW131988   5.595   0.757   2.816
10363SOL    HW231989   5.490   0.867   2.876
10364SOL     OW31990   2.666   3.921   1.279
10364SOL    HW131991   2.656   3.824   1.303
10364SOL    HW231992   2.757   3.936   1.240
10365SOL     OW31993   3.960   5.363   6.987
10365SOL    HW131994   3.913   5.439   0.013
10365SOL    HW231995   3.896   5.317   6.925
10366SOL     OW31996   2.530   6.920   3.753
10366SOL    HW131997   2.552   7.002   3.805
10366SOL    HW231998   2.607   6.857   3.756
10367SOL     OW31999   5.958   1.706   3.119
10367SOL    HW132000   6.026   1.713   3.047
10367SOL    HW232001   5.963   1.786   3.178
10368SOL     OW32002   2.312   1.369   1.979
10368SOL    HW132003   2.324   1.322   2.067
10368SOL    HW232004   2.396   1.361   1.926
10369SOL     OW32005   3.910   1.629   1.057
10369SOL    HW132006   3.952   1.674   0.977
10369SOL    HW232007   3.819   1.668   1.073
10370SOL     OW32008   4.173   1.007   5.199
10370SOL    HW132009   4.155   0.912   5.223
10370SOL    HW232010   4.136   1.067   5.270
10371SOL     OW32011   4.130   5.721   5.382
10371SOL    HW132012   4.148   5.661   5.460
10371SOL    HW232013   4.194   5.798   5.384
10372SOL     OW32014   2.618   0.987   4.467
10372SOL    HW132015   2.645   1.045   4.543
10372SOL    HW232016   2.538   0.933   4.493
10373SOL     OW32017   1.160   6.825   4.794
10373SOL    HW132018   1.197   6.766   4.867
10373SOL    HW232019   1.223   6.901   4.778
10374SOL     OW32020   2.810   1.821   3.532
10374SOL    HW132021   2.740   1.882   3.493
10374SOL    HW232022   2.770   1.731   3.550
10375SOL     OW32023   5.486   2.028   1.022
10375SOL    HW132024   5.518   2.035   0.928
10375SOL    HW232025   5.537   1.957   1.071
10376SOL     OW32026   0.013   1.568   3.848
10376SOL    HW132027   6.988   1.489   3.889
10376SOL    HW232028   0.100   1.585   3.894
10377SOL     OW32029   0.634   0.448   3.684
10377SOL    HW132030   0.572   0.484   3.614
10377SOL    HW232031   0.580   0.408   3.758
10378SOL     OW32032   6.772   0.525   5.511
10378SOL    HW132033   6.708   0.459   5.550
10378SOL    HW232034   6.818   0.484   5.432
10379SOL     OW32035   5.254   0.182   5.009
10379SOL    HW132036   5.204   0.203   4.926
10379SOL    HW232037   5.347   0.217   5.002
10380SOL     OW32038   5.737   0.753   2.735
10380SOL    HW132039   5.836   0.756   2.723
10380SOL    HW232040   5.693   0.734   2.647
10381SOL     OW32041   5.078   5.384   5.860
10381SOL    HW132042   5.088   5.353   5.954
10381SOL    HW232043   5.065   5.483   5.859
10382SOL     OW32044   2.534   5.784   5.770
10382SOL    HW132045   2.520   5.714   5.699
10382SOL    HW232046   2.609   5.757   5.829
10383SOL     OW32047   0.895   3.120   0.760
10383SOL    HW132048   0.830   3.048   0.732
10383SOL    HW232049   0.935   3.162   0.678
10384SOL     OW32050   6.911   0.397   0.718
10384SOL    HW132051   7.002   0.385   0.678
10384SOL    HW232052   6.909   0.357   0.809
10385SOL     OW32053   5.899   0.756   5.891
10385SOL    HW132054   5.800   0.765   5.885
10385SOL    HW232055   5.927   0.666   5.857
10386SOL     OW32056   6.668   3.184   5.304
10386SOL    HW132057   6.702   3.129   5.380
10386SOL    HW232058   6.569   3.171   5.295
10387SOL     OW32059   2.054   2.519   2.811
10387SOL    HW132060   2.024   2.551   2.901
10387SOL    HW232061   2.151   2.542   2.798
10388SOL     OW32062   1.555   5.000   3.136
10388SOL    HW132063   1.643   4.980   3.093
10388SOL    HW232064   1.568   5.071   3.206
10389SOL     OW32065   1.327   4.793   3.761
10389SOL    HW132066   1.279   4.706   3.775
10389SOL    HW232067   1.272   4.868   3.797
10390SOL     OW32068   1.771   3.310   2.996
10390SOL    HW132069   1.690   3.274   2.951
10390SOL    HW232070   1.776   3.409   2.982
10391SOL     OW32071   1.634   6.224   6.866
10391SOL    HW132072   1.687   6.193   6.787
10391SOL    HW232073   1.570   6.153   6.895
10392SOL     OW32074   6.184   5.002   0.419
10392SOL    HW132075   6.278   5.003   0.385
10392SOL    HW232076   6.124   4.963   0.348
10393SOL     OW32077   0.373   1.578   4.205
10393SOL    HW132078   0.341   1.526   4.284
10393SOL    HW232079   0.459   1.625   4.228
10394SOL     OW32080   2.782   6.579   6.947
10394SOL    HW132081   2.720   6.648   6.910
10394SOL    HW232082   2.828   6.532   6.871
10395SOL     OW32083   6.895   0.728   4.383
10395SOL    HW132084   6.835   0.664   4.336
10395SOL    HW232085   6.897   0.815   4.334
10396SOL     OW32086   0.802   0.564   4.478
10396SOL    HW132087   0.816   0.530   4.570
10396SOL    HW232088   0.747   0.499   4.426
10397SOL     OW32089   3.578   1.035   3.882
10397SOL    HW132090   3.541   0.960   3.827
10397SOL    HW232091   3.677   1.024   3.890
10398SOL     OW32092   6.121   2.813   1.317
10398SOL    HW132093   6.203   2.757   1.320
10398SOL    HW232094   6.087   2.827   1.411
10399SOL     OW32095   5.140   2.341   5.187
10399SOL    HW132096   5.155   2.426   5.238
10399SOL    HW232097   5.042   2.320   5.186
10400SOL     OW32098   2.891   5.577   2.606
10400SOL    HW132099   2.882   5.562   2.508
10400SOL    HW232100   2.805   5.554   2.652
10401SOL     OW32101   0.588   5.546   1.950
10401SOL    HW132102   0.534   5.629   1.965
10401SOL    HW232103   0.589   5.491   2.034
10402SOL     OW32104   1.052   3.428   4.840
10402SOL    HW132105   1.042   3.428   4.940
10402SOL    HW232106   1.142   3.393   4.816
10403SOL     OW32107   5.566   1.438   1.822
10403SOL    HW132108   5.574   1.439   1.921
10403SOL    HW232109   5.535   1.528   1.790
10404SOL     OW32110   0.734   6.844   4.312
10404SOL    HW132111   0.687   6.763   4.275
10404SOL    HW232112   0.786   6.888   4.238
10405SOL     OW32113   1.808   6.335   5.568
10405SOL    HW132114   1.725   6.290   5.601
10405SOL    HW232115   1.885   6.271   5.572
10406SOL     OW32116   2.602   4.156   5.931
10406SOL    HW132117   2.669   4.089   5.898
10406SOL    HW232118   2.648   4.243   5.949
10407SOL     OW32119   1.023   2.285   6.425
10407SOL    HW132120   1.062   2.267   6.335
10407SOL    HW232121   1.077   2.355   6.471
10408SOL     OW32122   4.394   4.955   3.576
10408SOL    HW132123   4.388   4.919   3.669
10408SOL    HW232124   4.474   4.915   3.530
10409SOL     OW32125   0.405   4.124   2.101
10409SOL    HW132126   0.480   4.121   2.036
10409SOL    HW232127   0.374   4.218   2.111
10410SOL     OW32128   5.006   1.000   1.613
10410SOL    HW132129   4.913   1.013   1.578
10410SOL    HW232130   5.003   0.993   1.713
10411SOL     OW32131   2.312   4.552   2.853
10411SOL    HW132132   2.365   4.576   2.935
10411SOL    HW232133   2.371   4.504   2.789
10412SOL     OW32134   1.591   2.130   0.465
10412SOL    HW132135   1.516   2.111   0.529
10412SOL    HW232136   1.658   2.190   0.509
10413SOL     OW32137   6.939   2.370   6.934
10413SOL    HW132138   6.963   2.386   6.838
10413SOL    HW232139   6.863   2.304   6.938
10414SOL     OW32140   5.506   6.088   6.669
10414SOL    HW132141   5.524   6.014   6.605
10414SOL    HW232142   5.504   6.052   6.762
10415SOL     OW32143   0.397   6.013   4.210
10415SOL    HW132144   0.299   6.001   4.224
10415SOL    HW232145   0.447   5.946   4.266
10416SOL     OW32146   5.419   1.876   5.088
10416SOL    HW132147   5.463   1.858   5.000
10416SOL    HW232148   5.444   1.803   5.153
10417SOL     OW32149   3.769   4.965   3.626
10417SOL    HW132150   3.686   5.010   3.594
10417SOL    HW232151   3.765   4.955   3.726
10418SOL     OW32152   6.737   4.227   6.746
10418SOL    HW132153   6.662   4.211   6.810
10418SOL    HW232154   6.722   4.313   6.698
10419SOL     OW32155   3.436   1.429   4.819
10419SOL    HW132156   3.442   1.362   4.892
10419SOL    HW232157   3.343   1.466   4.814
10420SOL     OW32158   6.891   3.455   3.384
10420SOL    HW132159   6.819   3.522   3.402
10420SOL    HW232160   6.858   3.388   3.317
10421SOL     OW32161   1.180   4.687   4.274
10421SOL    HW132162   1.091   4.670   4.318
10421SOL    HW232163   1.244   4.615   4.300
10422SOL     OW32164   6.709   3.562   4.703
10422SOL    HW132165   6.620   3.602   4.726
10422SOL    HW232166   6.779   3.633   4.708
10423SOL     OW32167   3.419   4.936   3.977
10423SOL    HW132168   3.351   4.989   3.925
10423SOL    HW232169   3.498   4.918   3.920
10424SOL     OW32170   3.463   0.886   0.273
10424SOL    HW132171   3.419   0.930   0.195
10424SOL    HW232172   3.561   0.903   0.271
10425SOL     OW32173   1.844   1.106   0.551
10425SOL    HW132174   1.821   1.108   0.649
10425SOL    HW232175   1.771   1.059   0.501
10426SOL     OW32176   6.171   2.018   6.006
10426SOL    HW132177   6.210   1.939   5.959
10426SOL    HW232178   6.078   1.998   6.035
10427SOL     OW32179   5.830   6.453   4.627
10427SOL    HW132180   5.776   6.483   4.706
10427SOL    HW232181   5.796   6.365   4.595
10428SOL     OW32182   1.836   0.759   4.021
10428SOL    HW132183   1.779   0.804   3.953
10428SOL    HW232184   1.843   0.817   4.103
10429SOL     OW32185   1.090   3.198   2.661
10429SOL    HW132186   1.165   3.259   2.635
10429SOL    HW232187   1.008   3.251   2.679
10430SOL     OW32188   2.925   0.421   4.064
10430SOL    HW132189   2.898   0.510   4.100
10430SOL    HW232190   2.933   0.355   4.138
10431SOL     OW32191   2.889   1.348   3.501
10431SOL    HW132192   2.957   1.309   3.563
10431SOL    HW232193   2.808   1.289   3.498
10432SOL     OW32194   0.894   6.145   5.432
10432SOL    HW132195   0.802   6.110   5.449
10432SOL    HW232196   0.889   6.225   5.373
10433SOL     OW32197   1.732   6.946   2.439
10433SOL    HW132198   1.810   6.893   2.404
10433SOL    HW232199   1.678   6.888   2.500
10434SOL     OW32200   3.955   6.645   5.023
10434SOL    HW132201   3.944   6.710   4.947
10434SOL    HW232202   4.048   6.609   5.022
10435SOL     OW32203   1.720   2.001   6.782
10435SOL    HW132204   1.653   1.964   6.717
10435SOL    HW232205   1.812   1.996   6.742
10436SOL     OW32206   6.665   4.351   4.709
10436SOL    HW132207   6.733   4.424   4.703
10436SOL    HW232208   6.696   4.281   4.774
10437SOL     OW32209   5.033   5.822   5.136
10437SOL    HW132210   5.003   5.877   5.214
10437SOL    HW232211   5.023   5.875   5.052
10438SOL     OW32212   6.498   6.054   6.586
10438SOL    HW132213   6.570   6.018   6.526
10438SOL    HW232214   6.487   5.993   6.665
10439SOL     OW32215   6.361   6.615   4.488
10439SOL    HW132216   6.456   6.603   4.459
10439SOL    HW232217   6.300   6.602   4.410
10440SOL     OW32218   0.157   2.118   6.905
10440SOL    HW132219   0.080   2.139   6.966
10440SOL    HW232220   0.124   2.066   6.826
10441SOL     OW32221   3.613   2.107   1.354
10441SOL    HW132222   3.581   2.194   1.392
10441SOL    HW232223   3.643   2.048   1.429
10442SOL     OW32224   2.049   1.679   5.980
10442SOL    HW132225   2.061   1.594   6.030
10442SOL    HW232226   2.069   1.756   6.041
10443SOL     OW32227   0.472   2.265   2.971
10443SOL    HW132228   0.413   2.297   2.897
10443SOL    HW232229   0.451   2.169   2.991
10444SOL     OW32230   3.599   5.708   4.425
10444SOL    HW132231   3.561   5.617   4.440
10444SOL    HW232232   3.679   5.721   4.484
10445SOL     OW32233   1.311   3.896   2.695
10445SOL    HW132234   1.237   3.913   2.630
10445SOL    HW232235   1.387   3.851   2.648
10446SOL     OW32236   1.802   4.162   5.875
10446SOL    HW132237   1.832   4.117   5.959
10446SOL    HW232238   1.761   4.095   5.814
10447SOL     OW32239   0.243   2.213   2.790
10447SOL    HW132240   0.183   2.233   2.712
10447SOL    HW232241   0.189   2.207   2.873
10448SOL     OW32242   2.511   6.091   2.911
10448SOL    HW132243   2.561   6.151   2.848
10448SOL    HW232244   2.562   6.081   2.996
10449SOL     OW32245   4.200   5.548   5.613
10449SOL    HW132246   4.270   5.616   5.593
10449SOL    HW232247   4.193   5.534   5.712
10450SOL     OW32248   0.223   0.769   5.946
10450SOL    HW132249   0.235   0.831   5.868
10450SOL    HW232250   0.143   0.712   5.932
10451SOL     OW32251   2.289   0.899   3.277
10451SOL    HW132252   2.253   0.817   3.321
10451SOL    HW232253   2.351   0.946   3.338
10452SOL     OW32254   0.451   3.506   4.615
10452SOL    HW132255   0.375   3.444   4.631
10452SOL    HW232256   0.531   3.455   4.584
10453SOL     OW32257   3.984   5.545   3.429
10453SOL    HW132258   4.013   5.518   3.521
10453SOL    HW232259   3.997   5.469   3.365
10454SOL     OW32260   6.859   0.191   5.572
10454SOL    HW132261   6.768   0.218   5.541
10454SOL    HW232262   6.927   0.255   5.535
10455SOL     OW32263   6.299   6.312   3.761
10455SOL    HW132264   6.261   6.385   3.818
10455SOL    HW232265   6.225   6.253   3.729
10456SOL     OW32266   1.043   5.273   7.012
10456SOL    HW132267   0.971   5.245   6.950
10456SOL    HW232268   1.003   5.316   0.074
10457SOL     OW32269   3.433   2.382   0.040
10457SOL    HW132270   3.509   2.440   0.072
10457SOL    HW232271   3.427   2.387   6.960
10458SOL     OW32272   6.907   5.584   6.301
10458SOL    HW132273   6.931   5.681   6.311
10458SOL    HW232274   6.839   5.560   6.370
10459SOL     OW32275   0.362   5.215   0.416
10459SOL    HW132276   0.303   5.229   0.496
10459SOL    HW232277   0.334   5.132   0.368
10460SOL     OW32278   0.748   2.576   0.891
10460SOL    HW132279   0.694   2.657   0.910
10460SOL    HW232280   0.787   2.541   0.976
10461SOL     OW32281   0.179   5.147   5.299
10461SOL    HW132282   0.182   5.099   5.387
10461SOL    HW232283   0.270   5.142   5.256
10462SOL     OW32284   3.940   1.790   0.821
10462SOL    HW132285   3.852   1.778   0.775
10462SOL    HW232286   4.014   1.786   0.754
10463SOL     OW32287   4.875   2.898   6.307
10463SOL    HW132288   4.827   2.813   6.286
10463SOL    HW232289   4.934   2.923   6.230
10464SOL     OW32290   6.629   5.016   2.810
10464SOL    HW132291   6.624   5.115   2.794
10464SOL    HW232292   6.596   4.967   2.730
10465SOL     OW32293   5.091   4.379   2.159
10465SOL    HW132294   5.099   4.467   2.205
10465SOL    HW232295   5.068   4.309   2.225
10466SOL     OW32296   6.265   4.820   6.472
10466SOL    HW132297   6.201   4.767   6.417
10466SOL    HW232298   6.357   4.780   6.464
10467SOL     OW32299   1.725   2.687   6.832
10467SOL    HW132300   1.757   2.631   6.756
10467SOL    HW232301   1.689   2.773   6.796
10468SOL     OW32302   2.881   5.072   3.749
10468SOL    HW132303   2.948   5.000   3.769
10468SOL    HW232304   2.825   5.044   3.671
10469SOL     OW32305   6.360   1.608   4.727
10469SOL    HW132306   6.434   1.627   4.663
10469SOL    HW232307   6.383   1.647   4.816
10470SOL     OW32308   2.561   2.457   3.993
10470SOL    HW132309   2.478   2.459   4.048
10470SOL    HW232310   2.558   2.531   3.925
10471SOL     OW32311   3.262   6.745   0.330
10471SOL    HW132312   3.238   6.702   0.418
10471SOL    HW232313   3.180   6.753   0.273
10472SOL     OW32314   2.723   4.765   0.145
10472SOL    HW132315   2.778   4.823   0.204
10472SOL    HW232316   2.676   4.821   0.076
10473SOL     OW32317   5.032   4.789   6.952
10473SOL    HW132318   4.965   4.796   0.006
10473SOL    HW232319   4.986   4.796   6.864
10474SOL     OW32320   5.004   0.966   3.681
10474SOL    HW132321   5.103   0.975   3.694
10474SOL    HW232322   4.972   0.885   3.729
10475SOL     OW32323   0.997   6.665   1.601
10475SOL    HW132324   0.988   6.571   1.634
10475SOL    HW232325   0.999   6.666   1.501
10476SOL     OW32326   3.616   6.125   0.014
10476SOL    HW132327   3.591   6.028   0.005
10476SOL    HW232328   3.698   6.133   0.070
10477SOL     OW32329   6.147   6.156   3.113
10477SOL    HW132330   6.172   6.252   3.124
10477SOL    HW232331   6.126   6.138   3.017
10478SOL     OW32332   6.217   0.474   0.070
10478SOL    HW132333   6.121   0.450   0.067
10478SOL    HW232334   6.268   0.405   0.120
10479SOL     OW32335   0.290   2.110   2.156
10479SOL    HW132336   0.248   2.138   2.070
10479SOL    HW232337   0.234   2.039   2.199
10480SOL     OW32338   1.877   0.140   2.279
10480SOL    HW132339   1.945   0.067   2.280
10480SOL    HW232340   1.789   0.104   2.313
10481SOL     OW32341   0.164   0.702   2.595
10481SOL    HW132342   0.237   0.770   2.584
10481SOL    HW232343   0.083   0.745   2.634
10482SOL     OW32344   5.326   3.586   4.025
10482SOL    HW132345   5.261   3.537   3.967
10482SOL    HW232346   5.390   3.637   3.968
10483SOL     OW32347   5.955   5.585   0.758
10483SOL    HW132348   6.035   5.592   0.698
10483SOL    HW232349   5.880   5.639   0.720
10484SOL     OW32350   6.183   1.061   1.530
10484SOL    HW132351   6.110   1.013   1.579
10484SOL    HW232352   6.176   1.159   1.547
10485SOL     OW32353   5.570   3.324   5.476
10485SOL    HW132354   5.588   3.288   5.385
10485SOL    HW232355   5.650   3.376   5.507
10486SOL     OW32356   5.641   2.855   1.783
10486SOL    HW132357   5.729   2.843   1.828
10486SOL    HW232358   5.589   2.770   1.788
10487SOL     OW32359   6.279   6.578   1.390
10487SOL    HW132360   6.330   6.664   1.390
10487SOL    HW232361   6.185   6.596   1.359
10488SOL     OW32362   2.662   2.488   6.171
10488SOL    HW132363   2.639   2.585   6.173
10488SOL    HW232364   2.739   2.471   6.233
10489SOL     OW32365   6.963   5.509   6.038
10489SOL    HW132366   0.011   5.573   6.000
10489SOL    HW232367   6.940   5.536   6.131
10490SOL     OW32368   6.862   0.933   3.759
10490SOL    HW132369   6.813   0.990   3.693
10490SOL    HW232370   6.800   0.907   3.833
10491SOL     OW32371   2.275   4.558   6.069
10491SOL    HW132372   2.318   4.565   5.980
10491SOL    HW232373   2.197   4.621   6.074
10492SOL     OW32374   4.900   3.375   5.130
10492SOL    HW132375   4.839   3.348   5.204
10492SOL    HW232376   4.881   3.469   5.104
10493SOL     OW32377   3.748   0.871   1.593
10493SOL    HW132378   3.652   0.872   1.568
10493SOL    HW232379   3.782   0.965   1.600
10494SOL     OW32380   6.088   1.833   4.604
10494SOL    HW132381   6.054   1.760   4.663
10494SOL    HW232382   6.128   1.794   4.522
10495SOL     OW32383   1.549   6.712   0.793
10495SOL    HW132384   1.618   6.647   0.760
10495SOL    HW232385   1.476   6.721   0.725
10496SOL     OW32386   0.152   6.602   6.236
10496SOL    HW132387   0.093   6.543   6.182
10496SOL    HW232388   0.247   6.573   6.226
10497SOL     OW32389   1.315   0.426   1.180
10497SOL    HW132390   1.229   0.430   1.129
10497SOL    HW232391   1.375   0.501   1.151
10498SOL     OW32392   1.693   6.597   6.001
10498SOL    HW132393   1.755   6.519   6.010
10498SOL    HW232394   1.630   6.600   6.079
10499SOL     OW32395   3.105   5.624   3.405
10499SOL    HW132396   3.026   5.570   3.376
10499SOL    HW232397   3.087   5.721   3.390
10500SOL     OW32398   1.112   2.230   6.158
10500SOL    HW132399   1.092   2.147   6.106
10500SOL    HW232400   1.071   2.309   6.112
10501SOL     OW32401   1.840   3.732   2.708
10501SOL    HW132402   1.823   3.723   2.610
10501SOL    HW232403   1.923   3.786   2.723
10502SOL     OW32404   3.383   6.369   0.157
10502SOL    HW132405   3.378   6.281   0.203
10502SOL    HW232406   3.442   6.362   0.077
10503SOL     OW32407   3.137   2.760   0.234
10503SOL    HW132408   3.120   2.690   0.165
10503SOL    HW232409   3.085   2.843   0.211
10504SOL     OW32410   2.872   3.032   0.537
10504SOL    HW132411   2.809   3.053   0.463
10504SOL    HW232412   2.883   3.112   0.596
10505SOL     OW32413   6.468   5.896   1.507
10505SOL    HW132414   6.397   5.925   1.571
10505SOL    HW232415   6.527   5.828   1.551
10506SOL     OW32416   0.576   3.746   6.284
10506SOL    HW132417   0.535   3.673   6.229
10506SOL    HW232418   0.619   3.706   6.365
10507SOL     OW32419   1.244   0.389   6.342
10507SOL    HW132420   1.298   0.409   6.260
10507SOL    HW232421   1.178   0.463   6.357
10508SOL     OW32422   5.434   4.682   3.585
10508SOL    HW132423   5.347   4.679   3.636
10508SOL    HW232424   5.480   4.594   3.593
10509SOL     OW32425   1.080   6.339   6.349
10509SOL    HW132426   0.998   6.385   6.383
10509SOL    HW232427   1.087   6.249   6.393
10510SOL     OW32428   6.241   5.585   7.011
10510SOL    HW132429   6.260   5.646   6.934
10510SOL    HW232430   6.223   5.640   0.074
10511SOL     OW32431   4.170   2.732   0.539
10511SOL    HW132432   4.083   2.687   0.561
10511SOL    HW232433   4.152   2.812   0.482
10512SOL     OW32434   4.257   0.215   5.917
10512SOL    HW132435   4.259   0.172   5.827
10512SOL    HW232436   4.226   0.310   5.908
10513SOL     OW32437   0.456   2.522   6.025
10513SOL    HW132438   0.512   2.535   6.107
10513SOL    HW232439   0.483   2.590   5.956
10514SOL     OW32440   6.725   4.478   0.441
10514SOL    HW132441   6.749   4.384   0.463
10514SOL    HW232442   6.674   4.482   0.355
10515SOL     OW32443   6.697   1.918   3.649
10515SOL    HW132444   6.762   1.874   3.589
10515SOL    HW232445   6.604   1.893   3.622
10516SOL     OW32446   4.389   0.936   6.213
10516SOL    HW132447   4.474   0.989   6.219
10516SOL    HW232448   4.403   0.846   6.254
10517SOL     OW32449   6.566   1.730   2.563
10517SOL    HW132450   6.472   1.706   2.588
10517SOL    HW232451   6.605   1.656   2.507
10518SOL     OW32452   0.928   6.386   0.713
10518SOL    HW132453   0.900   6.423   0.802
10518SOL    HW232454   0.857   6.324   0.680
10519SOL     OW32455   3.504   3.195   6.173
10519SOL    HW132456   3.416   3.243   6.170
10519SOL    HW232457   3.518   3.148   6.085
10520SOL     OW32458   3.124   2.576   6.959
10520SOL    HW132459   3.165   2.502   7.012
10520SOL    HW232460   3.043   2.541   6.912
10521SOL     OW32461   6.605   6.112   1.416
10521SOL    HW132462   6.546   6.034   1.438
10521SOL    HW232463   6.607   6.125   1.317
10522SOL     OW32464   6.654   0.734   0.607
10522SOL    HW132465   6.598   0.651   0.605
10522SOL    HW232466   6.721   0.727   0.680
10523SOL     OW32467   6.688   5.374   5.723
10523SOL    HW132468   6.672   5.419   5.810
10523SOL    HW232469   6.664   5.436   5.648
10524SOL     OW32470   2.008   0.311   4.630
10524SOL    HW132471   2.058   0.227   4.646
10524SOL    HW232472   1.993   0.323   4.531
10525SOL     OW32473   1.876   6.568   5.131
10525SOL    HW132474   1.946   6.497   5.121
10525SOL    HW232475   1.867   6.617   5.044
10526SOL     OW32476   0.229   0.980   2.140
10526SOL    HW132477   0.228   0.973   2.040
10526SOL    HW232478   0.292   1.054   2.167
10527SOL     OW32479   0.879   2.541   4.547
10527SOL    HW132480   0.957   2.597   4.573
10527SOL    HW232481   0.909   2.470   4.483
10528SOL     OW32482   6.977   5.230   5.151
10528SOL    HW132483   0.014   5.169   5.208
10528SOL    HW232484   0.003   5.319   5.144
10529SOL     OW32485   0.046   7.007   3.514
10529SOL    HW132486   0.037   0.080   3.550
10529SOL    HW232487   6.975   6.969   3.495
10530SOL     OW32488   2.683   2.300   5.742
10530SOL    HW132489   2.641   2.289   5.651
10530SOL    HW232490   2.779   2.324   5.731
10531SOL     OW32491   1.371   3.547   4.550
10531SOL    HW132492   1.434   3.615   4.587
10531SOL    HW232493   1.278   3.584   4.550
10532SOL     OW32494   4.238   2.431   6.520
10532SOL    HW132495   4.275   2.476   6.602
10532SOL    HW232496   4.150   2.473   6.498
10533SOL     OW32497   2.737   1.367   5.418
10533SOL    HW132498   2.761   1.463   5.405
10533SOL    HW232499   2.660   1.360   5.481
10534SOL     OW32500   0.053   5.421   0.749
10534SOL    HW132501   0.052   5.438   0.847
10534SOL    HW232502   6.979   5.431   0.712
10535SOL     OW32503   0.572   1.364   2.260
10535SOL    HW132504   0.568   1.290   2.328
10535SOL    HW232505   0.604   1.448   2.304
10536SOL     OW32506   4.625   0.463   2.969
10536SOL    HW132507   4.569   0.426   3.043
10536SOL    HW232508   4.673   0.544   3.001
10537SOL     OW32509   3.124   5.358   2.606
10537SOL    HW132510   3.089   5.451   2.615
10537SOL    HW232511   3.048   5.296   2.584
10538SOL     OW32512   4.222   4.166   0.140
10538SOL    HW132513   4.250   4.080   0.099
10538SOL    HW232514   4.219   4.237   0.069
10539SOL     OW32515   0.693   3.345   6.091
10539SOL    HW132516   0.614   3.319   6.036
10539SOL    HW232517   0.737   3.262   6.127
10540SOL     OW32518   1.956   0.770   5.767
10540SOL    HW132519   1.908   0.701   5.714
10540SOL    HW232520   2.000   0.727   5.846
10541SOL     OW32521   4.097   3.286   0.230
10541SOL    HW132522   4.056   3.319   0.315
10541SOL    HW232523   4.179   3.340   0.209
10542SOL     OW32524   0.120   2.475   0.580
10542SOL    HW132525   0.104   2.572   0.601
10542SOL    HW232526   0.209   2.464   0.536
10543SOL     OW32527   0.437   1.807   5.809
10543SOL    HW132528   0.505   1.741   5.777
10543SOL    HW232529   0.480   1.870   5.874
10544SOL     OW32530   1.982   2.027   2.299
10544SOL    HW132531   1.906   1.966   2.275
10544SOL    HW232532   1.963   2.070   2.387
10545SOL     OW32533   0.027   0.053   2.204
10545SOL    HW132534   0.061   0.117   2.273
10545SOL    HW232535   0.103   0.024   2.145
10546SOL     OW32536   2.390   6.968   4.440
10546SOL    HW132537   2.487   6.947   4.452
10546SOL    HW232538   2.358   6.929   4.354
10547SOL     OW32539   4.454   1.499   1.355
10547SOL    HW132540   4.489   1.551   1.433
10547SOL    HW232541   4.494   1.408   1.355
10548SOL     OW32542   5.184   3.562   4.596
10548SOL    HW132543   5.200   3.464   4.594
10548SOL    HW232544   5.137   3.587   4.681
10549SOL     OW32545   0.908   0.302   2.292
10549SOL    HW132546   0.882   0.373   2.356
10549SOL    HW232547   0.879   0.213   2.327
10550SOL     OW32548   5.324   0.236   3.821
10550SOL    HW132549   5.401   0.299   3.828
10550SOL    HW232550   5.287   0.238   3.728
10551SOL     OW32551   1.338   2.177   5.453
10551SOL    HW132552   1.408   2.112   5.425
10551SOL    HW232553   1.310   2.233   5.375
10552SOL     OW32554   3.465   2.481   5.964
10552SOL    HW132555   3.494   2.413   5.896
10552SOL    HW232556   3.489   2.573   5.931
10553SOL     OW32557   0.753   5.734   0.100
10553SOL    HW132558   0.847   5.714   0.072
10553SOL    HW232559   0.690   5.681   0.043
10554SOL     OW32560   7.007   4.798   6.859
10554SOL    HW132561   0.032   4.811   6.771
10554SOL    HW232562   7.007   4.884   6.910
10555SOL     OW32563   3.398   1.589   2.473
10555SOL    HW132564   3.326   1.547   2.529
10555SOL    HW232565   3.407   1.538   2.387
10556SOL     OW32566   1.986   3.346   5.007
10556SOL    HW132567   2.029   3.413   4.946
10556SOL    HW232568   2.040   3.262   5.007
10557SOL     OW32569   6.694   2.550   3.246
10557SOL    HW132570   6.793   2.546   3.235
10557SOL    HW232571   6.654   2.598   3.168
10558SOL     OW32572   4.308   6.880   5.363
10558SOL    HW132573   4.325   6.897   5.460
10558SOL    HW232574   4.300   6.782   5.348
10559SOL     OW32575   4.550   1.803   0.987
10559SOL    HW132576   4.464   1.841   1.022
10559SOL    HW232577   4.627   1.857   1.022
10560SOL     OW32578   1.269   4.183   4.877
10560SOL    HW132579   1.291   4.253   4.945
10560SOL    HW232580   1.312   4.096   4.903
10561SOL     OW32581   1.733   4.960   6.483
10561SOL    HW132582   1.710   4.889   6.551
10561SOL    HW232583   1.669   5.036   6.492
10562SOL     OW32584   4.404   1.089   0.719
10562SOL    HW132585   4.481   1.143   0.752
10562SOL    HW232586   4.322   1.146   0.716
10563SOL     OW32587   2.104   1.872   5.475
10563SOL    HW132588   2.007   1.851   5.466
10563SOL    HW232589   2.132   1.934   5.402
10564SOL     OW32590   5.876   1.187   1.599
10564SOL    HW132591   5.863   1.205   1.502
10564SOL    HW232592   5.828   1.256   1.653
10565SOL     OW32593   6.692   0.941   5.274
10565SOL    HW132594   6.690   0.924   5.372
10565SOL    HW232595   6.608   0.988   5.247
10566SOL     OW32596   3.508   3.981   6.288
10566SOL    HW132597   3.419   3.965   6.246
10566SOL    HW232598   3.536   4.076   6.272
10567SOL     OW32599   2.148   3.536   4.073
10567SOL    HW132600   2.141   3.620   4.128
10567SOL    HW232601   2.109   3.459   4.124
10568SOL     OW32602   5.581   1.013   2.336
10568SOL    HW132603   5.513   1.087   2.332
10568SOL    HW232604   5.670   1.051   2.363
10569SOL     OW32605   6.080   3.176   3.014
10569SOL    HW132606   6.065   3.226   2.928
10569SOL    HW232607   6.065   3.079   2.999
10570SOL     OW32608   2.064   4.552   2.421
10570SOL    HW132609   2.115   4.554   2.335
10570SOL    HW232610   2.120   4.592   2.494
10571SOL     OW32611   6.470   5.998   2.823
10571SOL    HW132612   6.562   5.977   2.791
10571SOL    HW232613   6.407   6.000   2.745
10572SOL     OW32614   5.761   3.990   2.784
10572SOL    HW132615   5.795   3.908   2.830
10572SOL    HW232616   5.768   4.068   2.846
10573SOL     OW32617   6.115   5.667   3.874
10573SOL    HW132618   6.124   5.736   3.946
10573SOL    HW232619   6.200   5.614   3.869
10574SOL     OW32620   1.147   2.294   3.231
10574SOL    HW132621   1.190   2.234   3.163
10574SOL    HW232622   1.193   2.283   3.319
10575SOL     OW32623   0.873   1.174   4.959
10575SOL    HW132624   0.896   1.099   4.898
10575SOL    HW232625   0.914   1.259   4.925
10576SOL     OW32626   1.622   5.748   4.996
10576SOL    HW132627   1.700   5.757   4.934
10576SOL    HW232628   1.600   5.652   5.009
10577SOL     OW32629   1.756   2.967   6.047
10577SOL    HW132630   1.695   2.993   6.122
10577SOL    HW232631   1.848   3.002   6.065
10578SOL     OW32632   5.869   0.016   5.181
10578SOL    HW132633   5.962   7.000   5.189
10578SOL    HW232634   5.804   6.959   5.179
10579SOL     OW32635   4.408   1.995   0.778
10579SOL    HW132636   4.376   1.967   0.868
10579SOL    HW232637   4.337   2.050   0.733
10580SOL     OW32638   6.632   5.904   6.382
10580SOL    HW132639   6.673   5.842   6.449
10580SOL    HW232640   6.704   5.961   6.342
10581SOL     OW32641   5.619   0.658   3.916
10581SOL    HW132642   5.623   0.738   3.976
10581SOL    HW232643   5.571   0.681   3.832
10582SOL     OW32644   3.644   5.369   6.655
10582SOL    HW132645   3.709   5.323   6.716
10582SOL    HW232646   3.686   5.383   6.566
10583SOL     OW32647   3.733   0.958   0.255
10583SOL    HW132648   3.790   0.940   0.175
10583SOL    HW232649   3.728   1.056   0.270
10584SOL     OW32650   5.309   6.405   1.596
10584SOL    HW132651   5.407   6.415   1.583
10584SOL    HW232652   5.291   6.335   1.665
10585SOL     OW32653   0.955   2.717   5.859
10585SOL    HW132654   0.940   2.795   5.920
10585SOL    HW232655   1.020   2.742   5.788
10586SOL     OW32656   2.799   6.061   5.967
10586SOL    HW132657   2.849   5.990   6.016
10586SOL    HW232658   2.798   6.040   5.869
10587SOL     OW32659   5.926   3.743   0.520
10587SOL    HW132660   5.868   3.777   0.445
10587SOL    HW232661   5.869   3.721   0.599
10588SOL     OW32662   0.949   4.958   2.411
10588SOL    HW132663   0.853   4.942   2.388
10588SOL    HW232664   0.981   4.883   2.469
10589SOL     OW32665   5.625   2.984   4.433
10589SOL    HW132666   5.578   3.018   4.351
10589SOL    HW232667   5.721   3.012   4.430
10590SOL     OW32668   1.170   0.248   3.446
10590SOL    HW132669   1.129   0.313   3.510
10590SOL    HW232670   1.211   0.172   3.496
10591SOL     OW32671   1.336   1.635   6.066
10591SOL    HW132672   1.281   1.566   6.017
10591SOL    HW232673   1.417   1.591   6.104
10592SOL     OW32674   6.991   1.437   0.373
10592SOL    HW132675   6.902   1.452   0.329
10592SOL    HW232676   0.004   1.345   0.351
10593SOL     OW32677   1.977   5.380   1.704
10593SOL    HW132678   2.037   5.340   1.773
10593SOL    HW232679   1.882   5.373   1.734
10594SOL     OW32680   6.241   1.528   4.129
10594SOL    HW132681   6.217   1.543   4.226
10594SOL    HW232682   6.248   1.617   4.083
10595SOL     OW32683   4.069   6.802   6.357
10595SOL    HW132684   4.071   6.896   6.323
10595SOL    HW232685   4.128   6.793   6.437
10596SOL     OW32686   4.400   6.927   2.195
10596SOL    HW132687   4.413   6.832   2.222
10596SOL    HW232688   4.315   6.961   2.234
10597SOL     OW32689   2.238   0.932   4.944
10597SOL    HW132690   2.232   0.851   5.002
10597SOL    HW232691   2.321   0.927   4.888
10598SOL     OW32692   1.830   2.284   6.789
10598SOL    HW132693   1.753   2.221   6.801
10598SOL    HW232694   1.916   2.235   6.807
10599SOL     OW32695   6.194   1.016   0.052
10599SOL    HW132696   6.212   0.991   6.976
10599SOL    HW232697   6.095   1.020   0.068
10600SOL     OW32698   2.965   2.643   5.773
10600SOL    HW132699   2.892   2.685   5.719
10600SOL    HW232700   2.939   2.641   5.869
10601SOL     OW32701   2.725   6.544   6.300
10601SOL    HW132702   2.692   6.568   6.209
10601SOL    HW232703   2.648   6.543   6.364
10602SOL     OW32704   5.184   1.375   1.321
10602SOL    HW132705   5.156   1.285   1.355
10602SOL    HW232706   5.137   1.394   1.234
10603SOL     OW32707   1.923   5.166   4.006
10603SOL    HW132708   2.017   5.173   3.972
10603SOL    HW232709   1.886   5.258   4.021
10604SOL     OW32710   6.581   4.594   4.363
10604SOL    HW132711   6.540   4.685   4.361
10604SOL    HW232712   6.666   4.594   4.310
10605SOL     OW32713   1.049   5.126   0.430
10605SOL    HW132714   1.145   5.109   0.453
10605SOL    HW232715   1.013   5.199   0.488
10606SOL     OW32716   0.152   0.494   1.473
10606SOL    HW132717   0.068   0.491   1.420
10606SOL    HW232718   0.174   0.401   1.505
10607SOL     OW32719   4.546   4.350   6.355
10607SOL    HW132720   4.607   4.284   6.312
10607SOL    HW232721   4.594   4.438   6.366
10608SOL     OW32722   5.520   1.396   4.446
10608SOL    HW132723   5.455   1.406   4.522
10608SOL    HW232724   5.520   1.480   4.392
10609SOL     OW32725   4.243   6.403   0.608
10609SOL    HW132726   4.295   6.429   0.689
10609SOL    HW232727   4.254   6.473   0.538
10610SOL     OW32728   1.346   3.281   5.925
10610SOL    HW132729   1.294   3.318   5.847
10610SOL    HW232730   1.418   3.221   5.890
10611SOL     OW32731   5.231   2.543   6.272
10611SOL    HW132732   5.279   2.590   6.347
10611SOL    HW232733   5.296   2.487   6.221
10612SOL     OW32734   2.292   6.785   6.313
10612SOL    HW132735   2.288   6.882   6.293
10612SOL    HW232736   2.360   6.741   6.253
10613SOL     OW32737   0.413   6.764   5.713
10613SOL    HW132738   0.316   6.769   5.738
10613SOL    HW232739   0.444   6.855   5.683
10614SOL     OW32740   6.204   1.153   4.479
10614SOL    HW132741   6.277   1.109   4.427
10614SOL    HW232742   6.127   1.172   4.418
10615SOL     OW32743   4.932   5.575   4.942
10615SOL    HW132744   4.986   5.495   4.916
10615SOL    HW232745   4.991   5.641   4.990
10616SOL     OW32746   3.316   6.257   0.704
10616SOL    HW132747   3.318   6.325   0.631
10616SOL    HW232748   3.311   6.304   0.792
10617SOL     OW32749   1.943   2.584   0.691
10617SOL    HW132750   1.966   2.504   0.746
10617SOL    HW232751   1.954   2.667   0.746
10618SOL     OW32752   5.964   2.823   0.136
10618SOL    HW132753   6.046   2.781   0.176
10618SOL    HW232754   5.947   2.782   0.046
10619SOL     OW32755   0.739   4.005   3.352
10619SOL    HW132756   0.760   3.925   3.297
10619SOL    HW232757   0.779   3.994   3.443
10620SOL     OW32758   1.825   6.216   4.626
10620SOL    HW132759   1.922   6.204   4.607
10620SOL    HW232760   1.802   6.313   4.624
10621SOL     OW32761   1.806   5.878   6.698
10621SOL    HW132762   1.822   5.975   6.678
10621SOL    HW232763   1.755   5.870   6.784
10622SOL     OW32764   3.752   0.030   1.581
10622SOL    HW132765   3.841   0.072   1.603
10622SOL    HW232766   3.680   0.075   1.634
10623SOL     OW32767   5.916   2.452   3.884
10623SOL    HW132768   5.968   2.517   3.828
10623SOL    HW232769   5.958   2.445   3.974
10624SOL     OW32770   1.469   1.141   4.867
10624SOL    HW132771   1.407   1.214   4.896
10624SOL    HW232772   1.436   1.054   4.903
10625SOL     OW32773   0.672   2.840   6.949
10625SOL    HW132774   0.615   2.917   6.975
10625SOL    HW232775   0.763   2.851   6.989
10626SOL     OW32776   0.605   1.736   1.826
10626SOL    HW132777   0.657   1.654   1.799
10626SOL    HW232778   0.559   1.719   1.913
10627SOL     OW32779   6.524   6.713   2.654
10627SOL    HW132780   6.478   6.752   2.574
10627SOL    HW232781   6.557   6.787   2.713
10628SOL     OW32782   6.380   5.729   5.612
10628SOL    HW132783   6.366   5.703   5.708
10628SOL    HW232784   6.471   5.767   5.600
10629SOL     OW32785   2.699   5.303   5.682
10629SOL    HW132786   2.610   5.301   5.636
10629SOL    HW232787   2.737   5.395   5.677
10630SOL     OW32788   5.852   1.447   3.448
10630SOL    HW132789   5.796   1.485   3.521
10630SOL    HW232790   5.808   1.462   3.360
10631SOL     OW32791   0.316   6.527   3.770
10631SOL    HW132792   0.239   6.505   3.710
10631SOL    HW232793   0.387   6.457   3.760
10632SOL     OW32794   6.336   2.443   4.686
10632SOL    HW132795   6.317   2.530   4.730
10632SOL    HW232796   6.387   2.384   4.749
10633SOL     OW32797   2.651   5.627   1.260
10633SOL    HW132798   2.643   5.665   1.352
10633SOL    HW232799   2.671   5.530   1.266
10634SOL     OW32800   3.578   6.029   0.969
10634SOL    HW132801   3.507   5.963   0.995
10634SOL    HW232802   3.668   5.991   0.991
10635SOL     OW32803   2.315   0.446   1.261
10635SOL    HW132804   2.281   0.407   1.346
10635SOL    HW232805   2.259   0.412   1.185
10636SOL     OW32806   0.717   2.063   1.076
10636SOL    HW132807   0.672   2.106   1.154
10636SOL    HW232808   0.730   1.965   1.095
10637SOL     OW32809   3.395   3.987   4.761
10637SOL    HW132810   3.422   3.988   4.665
10637SOL    HW232811   3.296   3.993   4.768
10638SOL     OW32812   6.517   6.353   4.546
10638SOL    HW132813   6.546   6.331   4.639
10638SOL    HW232814   6.431   6.405   4.549
10639SOL     OW32815   1.543   0.944   5.116
10639SOL    HW132816   1.585   0.869   5.065
10639SOL    HW232817   1.579   0.945   5.209
10640SOL     OW32818   4.938   1.509   6.690
10640SOL    HW132819   4.881   1.428   6.673
10640SOL    HW232820   5.012   1.486   6.753
10641SOL     OW32821   5.519   1.472   6.945
10641SOL    HW132822   5.461   1.442   0.001
10641SOL    HW232823   5.546   1.567   6.959
10642SOL     OW32824   0.258   1.935   1.804
10642SOL    HW132825   0.319   1.974   1.735
10642SOL    HW232826   0.278   1.838   1.815
10643SOL     OW32827   2.547   3.584   5.362
10643SOL    HW132828   2.589   3.580   5.453
10643SOL    HW232829   2.525   3.679   5.339
10644SOL     OW32830   4.593   1.589   4.223
10644SOL    HW132831   4.616   1.580   4.320
10644SOL    HW232832   4.494   1.596   4.213
10645SOL     OW32833   2.146   0.079   4.586
10645SOL    HW132834   2.117   7.009   4.621
10645SOL    HW232835   2.240   0.073   4.552
10646SOL     OW32836   1.254   2.779   5.927
10646SOL    HW132837   1.296   2.781   5.836
10646SOL    HW232838   1.210   2.867   5.945
10647SOL     OW32839   6.647   4.994   0.656
10647SOL    HW132840   6.716   4.998   0.583
10647SOL    HW232841   6.613   4.901   0.666
10648SOL     OW32842   4.829   3.017   6.748
10648SOL    HW132843   4.774   2.978   6.823
10648SOL    HW232844   4.775   3.084   6.698
10649SOL     OW32845   6.690   4.830   5.594
10649SOL    HW132846   6.709   4.921   5.558
10649SOL    HW232847   6.716   4.826   5.690
10650SOL     OW32848   2.785   6.643   3.939
10650SOL    HW132849   2.856   6.573   3.927
10650SOL    HW232850   2.758   6.679   3.850
10651SOL     OW32851   4.955   6.803   5.605
10651SOL    HW132852   4.858   6.807   5.626
10651SOL    HW232853   4.989   6.710   5.618
10652SOL     OW32854   3.530   0.416   6.062
10652SOL    HW132855   3.554   0.408   6.159
10652SOL    HW232856   3.441   0.375   6.046
10653SOL     OW32857   5.341   4.213   4.237
10653SOL    HW132858   5.262   4.212   4.299
10653SOL    HW232859   5.309   4.199   4.144
10654SOL     OW32860   3.867   1.076   0.884
10654SOL    HW132861   3.793   1.143   0.889
10654SOL    HW232862   3.955   1.122   0.898
10655SOL     OW32863   2.965   6.275   0.812
10655SOL    HW132864   3.042   6.230   0.855
10655SOL    HW232865   2.983   6.288   0.714
10656SOL     OW32866   6.545   2.648   0.285
10656SOL    HW132867   6.484   2.671   0.360
10656SOL    HW232868   6.595   2.564   0.307
10657SOL     OW32869   5.541   0.590   0.966
10657SOL    HW132870   5.541   0.561   0.870
10657SOL    HW232871   5.547   0.510   1.025
10658SOL     OW32872   0.486   4.903   4.094
10658SOL    HW132873   0.545   4.898   4.174
10658SOL    HW232874   0.446   4.813   4.076
10659SOL     OW32875   5.852   0.203   0.384
10659SOL    HW132876   5.883   0.298   0.380
10659SOL    HW232877   5.929   0.142   0.370
10660SOL     OW32878   4.622   4.844   5.471
10660SOL    HW132879   4.608   4.827   5.569
10660SOL    HW232880   4.646   4.940   5.457
10661SOL     OW32881   0.489   6.500   2.900
10661SOL    HW132882   0.443   6.539   2.980
10661SOL    HW232883   0.439   6.526   2.817
10662SOL     OW32884   6.740   1.103   0.343
10662SOL    HW132885   6.677   1.134   0.415
10662SOL    HW232886   6.699   1.119   0.254
10663SOL     OW32887   0.068   0.098   0.121
10663SOL    HW132888   0.094   0.193   0.141
10663SOL    HW232889   0.018   0.060   0.200
10664SOL     OW32890   2.210   5.261   7.017
10664SOL    HW132891   2.243   5.173   0.031
10664SOL    HW232892   2.285   5.327   7.017
10665SOL     OW32893   6.361   1.800   1.140
10665SOL    HW132894   6.398   1.866   1.073
10665SOL    HW232895   6.416   1.804   1.223
10666SOL     OW32896   2.278   6.176   0.047
10666SOL    HW132897   2.329   6.130   6.993
10666SOL    HW232898   2.276   6.274   0.029
10667SOL     OW32899   3.533   1.770   6.171
10667SOL    HW132900   3.586   1.832   6.112
10667SOL    HW232901   3.584   1.686   6.185
10668SOL     OW32902   1.476   1.599   6.387
10668SOL    HW132903   1.560   1.635   6.428
10668SOL    HW232904   1.406   1.671   6.386
10669SOL     OW32905   1.784   7.003   0.057
10669SOL    HW132906   1.785   0.053   0.129
10669SOL    HW232907   1.693   6.964   0.050
10670SOL     OW32908   5.715   4.383   6.103
10670SOL    HW132909   5.813   4.361   6.108
10670SOL    HW232910   5.699   4.445   6.026
10671SOL     OW32911   2.118   1.787   3.019
10671SOL    HW132912   2.028   1.789   3.062
10671SOL    HW232913   2.182   1.738   3.078
10672SOL     OW32914   0.023   3.154   1.308
10672SOL    HW132915   0.113   3.195   1.293
10672SOL    HW232916   0.014   3.129   1.405
10673SOL     OW32917   2.655   3.159   5.368
10673SOL    HW132918   2.566   3.163   5.323
10673SOL    HW232919   2.678   3.065   5.390
10674SOL     OW32920   4.053   3.318   1.583
10674SOL    HW132921   3.965   3.296   1.626
10674SOL    HW232922   4.047   3.409   1.542
10675SOL     OW32923   0.527   0.303   5.521
10675SOL    HW132924   0.466   0.266   5.450
10675SOL    HW232925   0.527   0.242   5.600
10676SOL     OW32926   6.444   6.788   6.290
10676SOL    HW132927   6.537   6.762   6.318
10676SOL    HW232928   6.433   6.887   6.300
10677SOL     OW32929   0.665   0.327   0.642
10677SOL    HW132930   0.676   0.427   0.639
10677SOL    HW232931   0.599   0.303   0.713
10678SOL     OW32932   2.206   5.826   2.327
10678SOL    HW132933   2.254   5.787   2.248
10678SOL    HW232934   2.223   5.924   2.332
10679SOL     OW32935   5.136   5.353   4.311
10679SOL    HW132936   5.098   5.322   4.398
10679SOL    HW232937   5.164   5.273   4.257
10680SOL     OW32938   1.596   3.285   2.642
10680SOL    HW132939   1.577   3.231   2.724
10680SOL    HW232940   1.558   3.239   2.562
10681SOL     OW32941   6.682   2.163   5.984
10681SOL    HW132942   6.594   2.133   6.022
10681SOL    HW232943   6.737   2.084   5.958
10682SOL     OW32944   0.072   1.573   2.915
10682SOL    HW132945   7.007   1.518   2.915
10682SOL    HW232946   0.079   1.624   2.829
10683SOL     OW32947   1.515   1.453   5.261
10683SOL    HW132948   1.563   1.433   5.176
10683SOL    HW232949   1.430   1.502   5.242
10684SOL     OW32950   6.536   4.689   0.312
10684SOL    HW132951   6.575   4.624   0.248
10684SOL    HW232952   6.472   4.642   0.373
10685SOL     OW32953   0.233   2.991   2.730
10685SOL    HW132954   0.267   2.942   2.810
10685SOL    HW232955   0.282   3.078   2.721
10686SOL     OW32956   3.178   5.193   6.874
10686SOL    HW132957   3.233   5.188   6.791
10686SOL    HW232958   3.235   5.221   6.951
10687SOL     OW32959   0.366   4.698   3.098
10687SOL    HW132960   0.285   4.747   3.066
10687SOL    HW232961   0.430   4.687   3.022
10688SOL     OW32962   6.714   4.927   1.851
10688SOL    HW132963   6.665   4.949   1.935
10688SOL    HW232964   6.648   4.921   1.775
10689SOL     OW32965   0.734   0.773   2.462
10689SOL    HW132966   0.756   0.849   2.401
10689SOL    HW232967   0.657   0.721   2.424
10690SOL     OW32968   4.196   4.898   1.819
10690SOL    HW132969   4.168   4.816   1.869
10690SOL    HW232970   4.179   4.884   1.721
10691SOL     OW32971   0.195   1.235   1.634
10691SOL    HW132972   0.193   1.332   1.611
10691SOL    HW232973   0.103   1.197   1.626
10692SOL     OW32974   3.707   6.178   3.544
10692SOL    HW132975   3.640   6.223   3.485
10692SOL    HW232976   3.698   6.079   3.536
10693SOL     OW32977   6.701   1.866   2.056
10693SOL    HW132978   6.685   1.783   2.002
10693SOL    HW232979   6.781   1.852   2.115
10694SOL     OW32980   3.926   6.297   0.022
10694SOL    HW132981   4.014   6.342   0.005
10694SOL    HW232982   3.870   6.355   0.081
10695SOL     OW32983   0.382   2.787   4.063
10695SOL    HW132984   0.468   2.768   4.016
10695SOL    HW232985   0.401   2.825   4.153
10696SOL     OW32986   0.018   5.861   1.733
10696SOL    HW132987   0.013   5.761   1.728
10696SOL    HW232988   0.031   5.889   1.828
10697SOL     OW32989   2.049   5.625   3.344
10697SOL    HW132990   2.051   5.664   3.252
10697SOL    HW232991   2.044   5.699   3.411
10698SOL     OW32992   2.984   6.701   3.655
10698SOL    HW132993   3.010   6.783   3.707
10698SOL    HW232994   3.043   6.692   3.575
10699SOL     OW32995   2.817   2.247   2.875
10699SOL    HW132996   2.910   2.217   2.895
10699SOL    HW232997   2.795   2.230   2.779
10700SOL     OW32998   0.000   6.727   0.842
10700SOL    HW132999   0.077   6.776   0.883
10700SOL    HW233000   6.960   6.791   0.794
10701SOL     OW33001   2.689   6.425   1.199
10701SOL    HW133002   2.607   6.426   1.141
10701SOL    HW233003   2.663   6.447   1.293
10702SOL     OW33004   6.381   2.717   1.233
10702SOL    HW133005   6.336   2.650   1.174
10702SOL    HW233006   6.472   2.737   1.196
10703SOL     OW33007   3.742   4.127   4.001
10703SOL    HW133008   3.698   4.047   3.960
10703SOL    HW233009   3.728   4.127   4.100
10704SOL     OW33010   4.907   0.027   2.135
10704SOL    HW133011   4.814   0.027   2.173
10704SOL    HW233012   4.932   0.119   2.106
10705SOL     OW33013   0.367   2.948   6.054
10705SOL    HW133014   0.356   2.867   5.997
10705SOL    HW233015   0.323   3.026   6.009
10706SOL     OW33016   3.587   1.112   2.355
10706SOL    HW133017   3.494   1.145   2.368
10706SOL    HW233018   3.646   1.188   2.328
10707SOL     OW33019   6.065   7.012   6.077
10707SOL    HW133020   6.122   6.930   6.066
10707SOL    HW233021   6.115   0.073   6.045
10708SOL     OW33022   4.774   1.411   0.794
10708SOL    HW133023   4.753   1.361   0.710
10708SOL    HW233024   4.871   1.401   0.816
10709SOL     OW33025   6.434   6.038   5.874
10709SOL    HW133026   6.453   6.067   5.968
10709SOL    HW233027   6.379   6.107   5.828
10710SOL     OW33028   5.885   5.328   3.169
10710SOL    HW133029   5.835   5.391   3.229
10710SOL    HW233030   5.902   5.373   3.081
10711SOL     OW33031   1.478   6.659   3.889
10711SOL    HW133032   1.451   6.679   3.795
10711SOL    HW233033   1.492   6.745   3.939
10712SOL     OW33034   3.775   1.795   5.062
10712SOL    HW133035   3.783   1.698   5.040
10712SOL    HW233036   3.735   1.843   4.984
10713SOL     OW33037   1.029   5.897   1.523
10713SOL    HW133038   0.933   5.870   1.515
10713SOL    HW233039   1.085   5.836   1.467
10714SOL     OW33040   6.977   5.053   5.780
10714SOL    HW133041   6.970   5.113   5.859
10714SOL    HW233042   0.033   4.989   5.793
10715SOL     OW33043   5.527   1.313   4.204
10715SOL    HW133044   5.594   1.364   4.149
10715SOL    HW233045   5.530   1.346   4.299
10716SOL     OW33046   6.197   0.275   3.487
10716SOL    HW133047   6.226   0.316   3.574
10716SOL    HW233048   6.247   0.318   3.412
10717SOL     OW33049   6.913   0.269   0.955
10717SOL    HW133050   6.852   0.271   1.034
10717SOL    HW233051   7.007   0.285   0.984
10718SOL     OW33052   0.123   4.850   0.355
10718SOL    HW133053   0.186   4.773   0.362
10718SOL    HW233054   0.029   4.817   0.343
10719SOL     OW33055   5.385   0.735   1.675
10719SOL    HW133056   5.406   0.649   1.720
10719SOL    HW233057   5.442   0.808   1.713
10720SOL     OW33058   0.363   3.276   6.688
10720SOL    HW133059   0.387   3.179   6.684
10720SOL    HW233060   0.447   3.331   6.679
10721SOL     OW33061   5.021   2.421   4.111
10721SOL    HW133062   5.021   2.359   4.190
10721SOL    HW233063   5.088   2.389   4.044
10722SOL     OW33064   0.484   3.847   0.036
10722SOL    HW133065   0.414   3.908   0.073
10722SOL    HW233066   0.440   3.766   7.016
10723SOL     OW33067   6.517   4.187   6.908
10723SOL    HW133068   6.507   4.130   6.989
10723SOL    HW233069   6.482   4.137   6.828
10724SOL     OW33070   3.779   6.384   5.647
10724SOL    HW133071   3.780   6.480   5.677
10724SOL    HW233072   3.745   6.327   5.721
10725SOL     OW33073   6.700   6.042   4.964
10725SOL    HW133074   6.603   6.018   4.958
10725SOL    HW233075   6.712   6.118   5.028
10726SOL     OW33076   5.070   0.628   4.217
10726SOL    HW133077   5.027   0.716   4.236
10726SOL    HW233078   5.007   0.569   4.168
10727SOL     OW33079   2.176   6.018   5.989
10727SOL    HW133080   2.210   5.929   6.017
10727SOL    HW233081   2.187   6.030   5.890
10728SOL     OW33082   5.035   5.747   3.171
10728SOL    HW133083   5.034   5.734   3.270
10728SOL    HW233084   5.074   5.667   3.127
10729SOL     OW33085   5.886   3.077   3.343
10729SOL    HW133086   5.934   2.991   3.361
10729SOL    HW233087   5.814   3.061   3.276
10730SOL     OW33088   2.156   6.145   2.817
10730SOL    HW133089   2.195   6.075   2.758
10730SOL    HW233090   2.189   6.133   2.911
10731SOL     OW33091   4.783   6.743   6.134
10731SOL    HW133092   4.720   6.666   6.127
10731SOL    HW233093   4.731   6.829   6.129
10732SOL     OW33094   6.376   6.327   2.857
10732SOL    HW133095   6.287   6.335   2.902
10732SOL    HW233096   6.413   6.235   2.872
10733SOL     OW33097   0.579   1.043   6.479
10733SOL    HW133098   0.615   0.971   6.420
10733SOL    HW233099   0.654   1.097   6.517
10734SOL     OW33100   1.172   1.433   5.108
10734SOL    HW133101   1.137   1.378   5.184
10734SOL    HW233102   1.136   1.526   5.116
10735SOL     OW33103   1.146   5.551   2.334
10735SOL    HW133104   1.157   5.611   2.414
10735SOL    HW233105   1.211   5.475   2.340
10736SOL     OW33106   5.802   6.682   3.351
10736SOL    HW133107   5.901   6.678   3.338
10736SOL    HW233108   5.782   6.733   3.435
10737SOL     OW33109   6.421   1.228   2.147
10737SOL    HW133110   6.476   1.256   2.226
10737SOL    HW233111   6.339   1.179   2.179
10738SOL     OW33112   3.558   1.047   1.737
10738SOL    HW133113   3.556   1.074   1.833
10738SOL    HW233114   3.628   1.101   1.689
10739SOL     OW33115   5.579   2.497   3.076
10739SOL    HW133116   5.517   2.437   3.127
10739SOL    HW233117   5.527   2.565   3.025
10740SOL     OW33118   1.872   6.803   6.255
10740SOL    HW133119   1.938   6.768   6.189
10740SOL    HW233120   1.913   6.878   6.307
10741SOL     OW33121   2.453   2.551   3.734
10741SOL    HW133122   2.398   2.608   3.673
10741SOL    HW233123   2.450   2.456   3.702
10742SOL     OW33124   6.393   6.479   2.627
10742SOL    HW133125   6.438   6.567   2.639
10742SOL    HW233126   6.400   6.426   2.712
10743SOL     OW33127   3.239   1.071   5.616
10743SOL    HW133128   3.179   1.044   5.692
10743SOL    HW233129   3.315   1.006   5.609
10744SOL     OW33130   1.715   0.634   0.740
10744SOL    HW133131   1.648   0.596   0.676
10744SOL    HW233132   1.750   0.721   0.705
10745SOL     OW33133   1.419   4.966   1.650
10745SOL    HW133134   1.386   5.060   1.655
10745SOL    HW233135   1.363   4.914   1.586
10746SOL     OW33136   2.136   6.091   6.261
10746SOL    HW133137   2.172   6.013   6.313
10746SOL    HW233138   2.133   6.067   6.164
10747SOL     OW33139   5.885   1.265   5.069
10747SOL    HW133140   5.949   1.256   5.145
10747SOL    HW233141   5.870   1.175   5.027
10748SOL     OW33142   4.158   6.064   0.695
10748SOL    HW133143   4.097   6.142   0.707
10748SOL    HW233144   4.104   5.980   0.689
10749SOL     OW33145   5.488   5.616   2.080
10749SOL    HW133146   5.491   5.520   2.052
10749SOL    HW233147   5.570   5.663   2.046
10750SOL     OW33148   4.999   2.200   4.323
10750SOL    HW133149   4.923   2.199   4.388
10750SOL    HW233150   5.083   2.225   4.371
10751SOL     OW33151   0.285   4.938   5.508
10751SOL    HW133152   0.299   4.857   5.450
10751SOL    HW233153   0.244   4.910   5.595
10752SOL     OW33154   5.987   6.284   0.435
10752SOL    HW133155   5.973   6.303   0.533
10752SOL    HW233156   5.999   6.185   0.423
10753SOL     OW33157   4.639   6.578   3.873
10753SOL    HW133158   4.662   6.493   3.921
10753SOL    HW233159   4.547   6.571   3.833
10754SOL     OW33160   0.843   4.214   1.625
10754SOL    HW133161   0.861   4.172   1.713
10754SOL    HW233162   0.894   4.165   1.554
10755SOL     OW33163   6.180   3.139   1.425
10755SOL    HW133164   6.086   3.106   1.428
10755SOL    HW233165   6.241   3.063   1.403
10756SOL     OW33166   0.841   1.529   0.801
10756SOL    HW133167   0.770   1.527   0.731
10756SOL    HW233168   0.803   1.499   0.889
10757SOL     OW33169   0.508   4.106   1.508
10757SOL    HW133170   0.462   4.052   1.578
10757SOL    HW233171   0.598   4.067   1.489
10758SOL     OW33172   0.765   0.374   6.690
10758SOL    HW133173   0.747   0.473   6.689
10758SOL    HW233174   0.730   0.335   6.775
10759SOL     OW33175   2.768   2.166   6.206
10759SOL    HW133176   2.745   2.159   6.303
10759SOL    HW233177   2.684   2.164   6.151
10760SOL     OW33178   1.054   5.390   0.239
10760SOL    HW133179   0.957   5.409   0.254
10760SOL    HW233180   1.074   5.296   0.267
10761SOL     OW33181   0.597   1.055   6.053
10761SOL    HW133182   0.498   1.066   6.056
10761SOL    HW233183   0.628   1.001   6.131
10762SOL     OW33184   2.991   6.438   6.356
10762SOL    HW133185   2.901   6.478   6.339
10762SOL    HW233186   3.051   6.457   6.278
10763SOL     OW33187   5.298   0.018   3.458
10763SOL    HW133188   5.277   0.087   3.390
10763SOL    HW233189   5.286   0.057   3.550
10764SOL     OW33190   4.307   0.585   4.417
10764SOL    HW133191   4.369   0.530   4.361
10764SOL    HW233192   4.269   0.529   4.490
10765SOL     OW33193   6.616   2.134   2.696
10765SOL    HW133194   6.714   2.141   2.713
10765SOL    HW233195   6.569   2.106   2.779
10766SOL     OW33196   1.530   5.201   6.509
10766SOL    HW133197   1.602   5.251   6.461
10766SOL    HW233198   1.475   5.151   6.443
10767SOL     OW33199   1.949   5.511   0.619
10767SOL    HW133200   2.005   5.548   0.545
10767SOL    HW233201   1.902   5.429   0.588
10768SOL     OW33202   5.432   5.767   0.813
10768SOL    HW133203   5.431   5.815   0.725
10768SOL    HW233204   5.340   5.739   0.837
10769SOL     OW33205   3.656   3.098   4.526
10769SOL    HW133206   3.748   3.070   4.499
10769SOL    HW233207   3.604   3.125   4.445
10770SOL     OW33208   5.387   6.991   3.818
10770SOL    HW133209   5.360   0.063   3.849
10770SOL    HW233210   5.486   6.980   3.829
10771SOL     OW33211   4.612   6.051   5.462
10771SOL    HW133212   4.531   6.009   5.504
10771SOL    HW233213   4.587   6.138   5.421
10772SOL     OW33214   5.902   4.855   2.724
10772SOL    HW133215   5.865   4.905   2.803
10772SOL    HW233216   5.844   4.777   2.704
10773SOL     OW33217   0.011   3.740   1.838
10773SOL    HW133218   0.109   3.723   1.830
10773SOL    HW233219   7.015   3.832   1.874
10774SOL     OW33220   1.187   3.004   0.676
10774SOL    HW133221   1.186   2.917   0.726
10774SOL    HW233222   1.242   3.071   0.726
10775SOL     OW33223   1.660   4.216   0.484
10775SOL    HW133224   1.565   4.240   0.507
10775SOL    HW233225   1.722   4.253   0.553
10776SOL     OW33226   1.097   2.305   3.667
10776SOL    HW133227   1.039   2.372   3.619
10776SOL    HW233228   1.049   2.218   3.672
10777SOL     OW33229   3.408   1.469   2.234
10777SOL    HW133230   3.393   1.540   2.165
10777SOL    HW233231   3.506   1.449   2.240
10778SOL     OW33232   6.372   6.842   3.165
10778SOL    HW133233   6.426   6.817   3.245
10778SOL    HW233234   6.410   6.798   3.083
10779SOL     OW33235   5.154   3.987   4.641
10779SOL    HW133236   5.201   3.942   4.565
10779SOL    HW233237   5.209   3.978   4.724
10780SOL     OW33238   1.920   5.978   5.057
10780SOL    HW133239   1.846   5.985   4.990
10780SOL    HW233240   1.996   5.926   5.018
10781SOL     OW33241   5.928   2.200   5.428
10781SOL    HW133242   5.856   2.131   5.424
10781SOL    HW233243   5.896   2.284   5.385
10782SOL     OW33244   1.606   2.736   4.916
10782SOL    HW133245   1.622   2.777   4.826
10782SOL    HW233246   1.528   2.674   4.911
10783SOL     OW33247   1.218   2.636   2.710
10783SOL    HW133248   1.252   2.727   2.731
10783SOL    HW233249   1.119   2.634   2.719
10784SOL     OW33250   3.515   5.831   2.575
10784SOL    HW133251   3.495   5.742   2.617
10784SOL    HW233252   3.513   5.903   2.644
10785SOL     OW33253   2.177   5.518   2.394
10785SOL    HW133254   2.081   5.494   2.382
10785SOL    HW233255   2.186   5.617   2.404
10786SOL     OW33256   3.872   1.270   2.086
10786SOL    HW133257   3.913   1.239   2.172
10786SOL    HW233258   3.942   1.277   2.015
10787SOL     OW33259   3.798   0.803   3.583
10787SOL    HW133260   3.759   0.873   3.522
10787SOL    HW233261   3.825   0.845   3.669
10788SOL     OW33262   1.143   4.426   0.482
10788SOL    HW133263   1.106   4.480   0.558
10788SOL    HW233264   1.068   4.378   0.436
10789SOL     OW33265   6.430   1.294   1.254
10789SOL    HW133266   6.437   1.376   1.310
10789SOL    HW233267   6.368   1.311   1.178
10790SOL     OW33268   0.841   1.777   5.198
10790SOL    HW133269   0.829   1.835   5.118
10790SOL    HW233270   0.767   1.710   5.203
10791SOL     OW33271   1.420   1.983   3.544
10791SOL    HW133272   1.367   1.899   3.561
10791SOL    HW233273   1.517   1.960   3.535
10792SOL     OW33274   4.264   1.727   1.521
10792SOL    HW133275   4.360   1.705   1.535
10792SOL    HW233276   4.222   1.659   1.461
10793SOL     OW33277   4.211   1.770   4.901
10793SOL    HW133278   4.146   1.786   4.976
10793SOL    HW233279   4.161   1.765   4.815
10794SOL     OW33280   4.561   2.297   0.628
10794SOL    HW133281   4.607   2.215   0.662
10794SOL    HW233282   4.612   2.334   0.550
10795SOL     OW33283   0.393   3.698   3.518
10795SOL    HW133284   0.348   3.737   3.438
10795SOL    HW233285   0.431   3.608   3.493
10796SOL     OW33286   0.329   6.819   6.123
10796SOL    HW133287   0.294   6.913   6.117
10796SOL    HW233288   0.256   6.759   6.156
10797SOL     OW33289   4.014   3.915   0.076
10797SOL    HW133290   4.113   3.902   0.084
10797SOL    HW233291   3.983   3.976   0.149
10798SOL     OW33292   2.190   0.113   0.064
10798SOL    HW133293   2.218   0.150   0.153
10798SOL    HW233294   2.270   0.084   0.013
10799SOL     OW33295   2.497   0.829   2.822
10799SOL    HW133296   2.576   0.865   2.772
10799SOL    HW233297   2.525   0.751   2.877
10800SOL     OW33298   1.847   0.062   5.782
10800SOL    HW133299   1.820   0.150   5.819
10800SOL    HW233300   1.822   7.009   5.846
10801SOL     OW33301   2.389   6.573   6.127
10801SOL    HW133302   2.320   6.510   6.090
10801SOL    HW233303   2.423   6.632   6.054
10802SOL     OW33304   0.734   4.691   4.237
10802SOL    HW133305   0.726   4.741   4.323
10802SOL    HW233306   0.721   4.755   4.161
10803SOL     OW33307   0.232   4.300   4.441
10803SOL    HW133308   0.167   4.257   4.378
10803SOL    HW233309   0.196   4.296   4.534
10804SOL     OW33310   4.974   4.696   1.110
10804SOL    HW133311   5.012   4.769   1.166
10804SOL    HW233312   4.881   4.676   1.140
10805SOL     OW33313   4.042   6.548   0.231
10805SOL    HW133314   4.008   6.640   0.251
10805SOL    HW233315   3.966   6.490   0.202
10806SOL     OW33316   5.405   3.519   7.000
10806SOL    HW133317   5.428   3.570   0.064
10806SOL    HW233318   5.315   3.546   6.968
10807SOL     OW33319   4.611   6.803   3.217
10807SOL    HW133320   4.673   6.838   3.287
10807SOL    HW233321   4.537   6.870   3.202
10808SOL     OW33322   0.024   2.458   6.615
10808SOL    HW133323   0.061   2.550   6.624
10808SOL    HW233324   6.943   2.462   6.616
10809SOL     OW33325   2.502   1.016   3.438
10809SOL    HW133326   2.471   0.943   3.498
10809SOL    HW233327   2.576   1.067   3.483
10810SOL     OW33328   0.219   1.679   5.916
10810SOL    HW133329   0.282   1.740   5.867
10810SOL    HW233330   0.154   1.640   5.851
10811SOL     OW33331   4.602   4.494   5.472
10811SOL    HW133332   4.629   4.556   5.545
10811SOL    HW233333   4.676   4.484   5.406
10812SOL     OW33334   6.782   2.152   3.070
10812SOL    HW133335   6.809   2.056   3.079
10812SOL    HW233336   6.735   2.181   3.153
10813SOL     OW33337   2.948   6.101   1.762
10813SOL    HW133338   2.956   6.166   1.686
10813SOL    HW233339   3.013   6.126   1.834
10814SOL     OW33340   2.053   6.530   4.648
10814SOL    HW133341   1.954   6.525   4.643
10814SOL    HW233342   2.085   6.481   4.729
10815SOL     OW33343   5.016   2.454   2.774
10815SOL    HW133344   4.970   2.390   2.712
10815SOL    HW233345   4.973   2.544   2.767
10816SOL     OW33346   2.221   1.740   2.330
10816SOL    HW133347   2.314   1.713   2.303
10816SOL    HW233348   2.213   1.839   2.324
10817SOL     OW33349   4.676   6.928   2.257
10817SOL    HW133350   4.580   6.943   2.234
10817SOL    HW233351   4.682   6.879   2.344
10818SOL     OW33352   5.142   3.537   6.902
10818SOL    HW133353   5.118   3.462   6.841
10818SOL    HW233354   5.071   3.607   6.899
10819SOL     OW33355   0.360   3.964   6.303
10819SOL    HW133356   0.442   3.913   6.275
10819SOL    HW233357   0.370   3.993   6.398
10820SOL     OW33358   0.352   6.996   4.455
10820SOL    HW133359   0.383   0.008   4.365
10820SOL    HW233360   0.348   0.055   4.517
10821SOL     OW33361   6.887   0.188   0.354
10821SOL    HW133362   6.879   0.287   0.360
10821SOL    HW233363   6.919   0.152   0.441
10822SOL     OW33364   1.611   4.319   0.994
10822SOL    HW133365   1.702   4.356   1.011
10822SOL    HW233366   1.610   4.221   1.013
10823SOL     OW33367   1.488   0.743   1.351
10823SOL    HW133368   1.454   0.695   1.270
10823SOL    HW233369   1.524   0.677   1.417
10824SOL     OW33370   5.246   0.502   2.723
10824SOL    HW133371   5.277   0.567   2.653
10824SOL    HW233372   5.159   0.462   2.694
10825SOL     OW33373   3.416   1.139   1.304
10825SOL    HW133374   3.467   1.187   1.374
10825SOL    HW233375   3.356   1.071   1.346
10826SOL     OW33376   6.681   3.121   1.771
10826SOL    HW133377   6.762   3.176   1.751
10826SOL    HW233378   6.662   3.125   1.869
10827SOL     OW33379   0.090   2.666   4.084
10827SOL    HW133380   0.014   2.720   4.120
10827SOL    HW233381   0.170   2.725   4.075
10828SOL     OW33382   1.028   5.845   0.450
10828SOL    HW133383   1.080   5.908   0.507
10828SOL    HW233384   0.930   5.863   0.460
10829SOL     OW33385   2.683   3.639   1.321
10829SOL    HW133386   2.628   3.626   1.239
10829SOL    HW233387   2.725   3.553   1.347
10830SOL     OW33388   4.834   2.305   3.716
10830SOL    HW133389   4.894   2.226   3.727
10830SOL    HW233390   4.742   2.282   3.749
10831SOL     OW33391   5.486   2.251   3.340
10831SOL    HW133392   5.444   2.276   3.426
10831SOL    HW233393   5.580   2.220   3.356
10832SOL     OW33394   0.097   2.043   1.478
10832SOL    HW133395   0.110   2.140   1.457
10832SOL    HW233396   0.184   1.995   1.470
10833SOL     OW33397   2.970   6.649   4.545
10833SOL    HW133398   2.900   6.620   4.480
10833SOL    HW233399   3.045   6.583   4.544
10834SOL     OW33400   0.395   0.693   5.695
10834SOL    HW133401   0.450   0.668   5.616
10834SOL    HW233402   0.312   0.741   5.665
10835SOL     OW33403   6.651   1.970   2.488
10835SOL    HW133404   6.619   1.878   2.510
10835SOL    HW233405   6.645   2.028   2.570
10836SOL     OW33406   2.030   2.355   6.390
10836SOL    HW133407   1.958   2.287   6.402
10836SOL    HW233408   2.064   2.352   6.296
10837SOL     OW33409   0.939   5.477   1.205
10837SOL    HW133410   0.859   5.483   1.145
10837SOL    HW233411   1.022   5.469   1.150
10838SOL     OW33412   5.930   6.776   0.421
10838SOL    HW133413   5.895   6.683   0.413
10838SOL    HW233414   6.028   6.777   0.405
10839SOL     OW33415   2.085   2.481   0.993
10839SOL    HW133416   2.122   2.393   0.965
10839SOL    HW233417   2.063   2.479   1.091
10840SOL     OW33418   3.470   5.297   2.502
10840SOL    HW133419   3.498   5.392   2.488
10840SOL    HW233420   3.425   5.288   2.591
10841SOL     OW33421   4.455   4.004   5.987
10841SOL    HW133422   4.510   4.000   6.071
10841SOL    HW233423   4.504   3.956   5.914
10842SOL     OW33424   6.231   2.781   1.799
10842SOL    HW133425   6.160   2.847   1.776
10842SOL    HW233426   6.271   2.804   1.888
10843SOL     OW33427   0.510   0.950   1.633
10843SOL    HW133428   0.535   1.036   1.677
10843SOL    HW233429   0.483   0.883   1.702
10844SOL     OW33430   3.812   6.482   3.406
10844SOL    HW133431   3.725   6.518   3.439
10844SOL    HW233432   3.826   6.390   3.443
10845SOL     OW33433   2.374   2.597   0.631
10845SOL    HW133434   2.378   2.687   0.673
10845SOL    HW233435   2.403   2.528   0.697
10846SOL     OW33436   3.241   2.061   1.886
10846SOL    HW133437   3.321   2.080   1.943
10846SOL    HW233438   3.266   2.069   1.790
10847SOL     OW33439   4.429   2.938   6.116
10847SOL    HW133440   4.461   2.919   6.023
10847SOL    HW233441   4.337   2.976   6.113
10848SOL     OW33442   1.592   1.293   6.964
10848SOL    HW133443   1.595   1.390   6.986
10848SOL    HW233444   1.501   1.269   6.930
10849SOL     OW33445   2.741   4.968   4.163
10849SOL    HW133446   2.686   4.958   4.080
10849SOL    HW233447   2.685   4.943   4.243
10850SOL     OW33448   5.352   0.077   1.018
10850SOL    HW133449   5.315   0.141   0.950
10850SOL    HW233450   5.277   0.031   1.065
10851SOL     OW33451   4.156   2.073   6.733
10851SOL    HW133452   4.208   1.988   6.737
10851SOL    HW233453   4.100   2.082   6.815
10852SOL     OW33454   0.922   6.862   6.492
10852SOL    HW133455   0.880   6.802   6.423
10852SOL    HW233456   0.853   6.925   6.528
10853SOL     OW33457   2.342   1.646   4.701
10853SOL    HW133458   2.298   1.727   4.739
10853SOL    HW233459   2.287   1.610   4.626
10854SOL     OW33460   6.836   6.337   0.258
10854SOL    HW133461   6.931   6.368   0.253
10854SOL    HW233462   6.834   6.241   0.286
10855SOL     OW33463   1.363   6.292   1.183
10855SOL    HW133464   1.376   6.347   1.265
10855SOL    HW233465   1.268   6.263   1.177
10856SOL     OW33466   6.050   0.030   6.644
10856SOL    HW133467   6.112   6.971   6.636
10856SOL    HW233468   6.054   0.065   6.738
10857SOL     OW33469   6.221   0.406   4.454
10857SOL    HW133470   6.293   0.383   4.388
10857SOL    HW233471   6.136   0.363   4.428
10858SOL     OW33472   1.999   1.662   1.104
10858SOL    HW133473   1.997   1.721   1.024
10858SOL    HW233474   2.003   1.719   1.187
10859SOL     OW33475   0.716   4.831   2.320
10859SOL    HW133476   0.772   4.771   2.263
10859SOL    HW233477   0.632   4.783   2.346
10860SOL     OW33478   6.017   2.253   0.560
10860SOL    HW133479   6.074   2.315   0.614
10860SOL    HW233480   6.047   2.256   0.464
10861SOL     OW33481   3.418   2.835   2.184
10861SOL    HW133482   3.473   2.881   2.255
10861SOL    HW233483   3.469   2.757   2.148
10862SOL     OW33484   3.934   3.218   5.707
10862SOL    HW133485   3.911   3.312   5.683
10862SOL    HW233486   3.865   3.156   5.671
10863SOL     OW33487   2.581   1.785   2.988
10863SOL    HW133488   2.482   1.768   2.984
10863SOL    HW233489   2.600   1.879   2.961
10864SOL     OW33490   3.230   4.969   2.157
10864SOL    HW133491   3.198   5.048   2.105
10864SOL    HW233492   3.166   4.893   2.145
10865SOL     OW33493   3.119   1.302   3.089
10865SOL    HW133494   3.058   1.316   3.010
10865SOL    HW233495   3.214   1.295   3.057
10866SOL     OW33496   0.026   3.681   3.436
10866SOL    HW133497   7.009   3.595   3.402
10866SOL    HW233498   7.018   3.756   3.375
10867SOL     OW33499   4.531   3.503   0.653
10867SOL    HW133500   4.576   3.416   0.633
10867SOL    HW233501   4.432   3.491   0.647
10868SOL     OW33502   1.022   1.385   4.879
10868SOL    HW133503   1.080   1.383   4.960
10868SOL    HW233504   1.019   1.478   4.842
10869NA      NA33505   6.848   2.349   5.934
10870NA      NA33506   4.533   4.594   5.061
10871NA      NA33507   1.263   4.943   2.869
10872NA      NA33508   5.651   3.892   3.523
10873NA      NA33509   3.804   2.322   5.492
10874NA      NA33510   2.247   4.913   0.211
10875NA      NA33511   1.500   5.458   6.904
10876NA      NA33512   3.437   4.380   0.879
10877NA      NA33513   4.510   5.245   0.656
10878NA      NA33514   3.278   0.916   6.417
10879NA      NA33515   5.362   6.786   1.963
10880NA      NA33516   1.874   6.699   5.332
10881NA      NA33517   4.108   5.237   1.750
10882NA      NA33518   3.559   3.054   6.770
   7.01924   7.01924   7.01924
