Generated by trjconv : CNT in water t= 494.00000
33518
    1C        C    1   2.846   2.771   4.749
    1C        C    2   2.901   2.723   4.869
    1C        C    3   2.847   2.777   4.987
    1C        C    4   2.853   2.774   4.263
    1C        C    5   2.903   2.726   4.386
    1C        C    6   2.851   2.774   4.508
    1C        C    7   3.012   2.633   4.627
    1C        C    8   2.900   2.720   4.628
    1C        C    9   3.078   2.603   4.748
    1C        C   10   3.012   2.636   4.868
    1C        C   11   3.184   2.495   4.977
    1C        C   12   3.062   2.565   4.978
    1C        C   13   2.853   2.773   3.771
    1C        C   14   2.903   2.725   3.894
    1C        C   15   2.853   2.774   4.017
    1C        C   16   3.019   2.645   4.140
    1C        C   17   2.903   2.725   4.140
    1C        C   18   3.084   2.616   4.263
    1C        C   19   3.020   2.646   4.385
    1C        C   20   3.210   2.554   4.505
    1C        C   21   3.076   2.601   4.506
    1C        C   22   3.282   2.539   4.625
    1C        C   23   3.211   2.552   4.747
    1C        C   24   3.415   2.484   4.865
    1C        C   25   3.273   2.503   4.865
    1C        C   26   3.492   2.484   4.982
    1C        C   27   2.847   2.766   3.284
    1C        C   28   2.903   2.721   3.406
    1C        C   29   2.850   2.769   3.528
    1C        C   30   3.019   2.640   3.652
    1C        C   31   2.904   2.722   3.649
    1C        C   32   3.078   2.601   3.774
    1C        C   33   3.017   2.641   3.895
    1C        C   34   3.209   2.554   4.019
    1C        C   35   3.077   2.605   4.018
    1C        C   36   3.281   2.539   4.139
    1C        C   37   3.214   2.563   4.262
    1C        C   38   3.419   2.509   4.385
    1C        C   39   3.281   2.538   4.384
    1C        C   40   3.492   2.500   4.505
    1C        C   41   3.419   2.504   4.626
    1C        C   42   3.634   2.480   4.747
    1C        C   43   3.492   2.485   4.745
    1C        C   44   3.710   2.485   4.866
    1C        C   45   3.631   2.480   4.982
    1C        C   46   2.838   2.750   2.796
    1C        C   47   2.891   2.706   2.919
    1C        C   48   2.842   2.763   3.039
    1C        C   49   3.018   2.642   3.162
    1C        C   50   2.901   2.722   3.161
    1C        C   51   3.081   2.607   3.284
    1C        C   52   3.021   2.645   3.406
    1C        C   53   3.208   2.546   3.530
    1C        C   54   3.080   2.605   3.529
    1C        C   55   3.277   2.532   3.652
    1C        C   56   3.212   2.556   3.776
    1C        C   57   3.418   2.510   3.897
    1C        C   58   3.279   2.536   3.898
    1C        C   59   3.489   2.502   4.019
    1C        C   60   3.419   2.510   4.141
    1C        C   61   3.631   2.500   4.262
    1C        C   62   3.489   2.498   4.263
    1C        C   63   3.704   2.507   4.383
    1C        C   64   3.634   2.500   4.505
    1C        C   65   3.840   2.541   4.622
    1C        C   66   3.705   2.498   4.627
    1C        C   67   3.908   2.562   4.744
    1C        C   68   3.845   2.527   4.865
    1C        C   69   4.048   2.591   4.982
    1C        C   70   3.920   2.535   4.983
    1C        C   71   2.823   2.733   2.308
    1C        C   72   2.884   2.694   2.430
    1C        C   73   2.831   2.745   2.550
    1C        C   74   3.001   2.620   2.674
    1C        C   75   2.884   2.699   2.673
    1C        C   76   3.071   2.594   2.794
    1C        C   77   3.011   2.632   2.916
    1C        C   78   3.206   2.551   3.040
    1C        C   79   3.075   2.605   3.039
    1C        C   80   3.275   2.530   3.161
    1C        C   81   3.212   2.554   3.286
    1C        C   82   3.416   2.500   3.405
    1C        C   83   3.277   2.526   3.408
    1C        C   84   3.485   2.498   3.528
    1C        C   85   3.416   2.506   3.651
    1C        C   86   3.627   2.503   3.772
    1C        C   87   3.486   2.500   3.773
    1C        C   88   3.699   2.510   3.894
    1C        C   89   3.631   2.503   4.017
    1C        C   90   3.835   2.551   4.137
    1C        C   91   3.700   2.510   4.140
    1C        C   92   3.905   2.570   4.258
    1C        C   93   3.842   2.538   4.381
    1C        C   94   4.033   2.633   4.498
    1C        C   95   3.910   2.564   4.502
    1C        C   96   4.093   2.670   4.620
    1C        C   97   4.035   2.626   4.741
    1C        C   98   4.191   2.765   4.862
    1C        C   99   4.099   2.655   4.865
    1C        C  100   4.212   2.843   4.977
    1C        C  101   2.824   2.730   2.071
    1C        C  102   2.990   2.590   2.193
    1C        C  103   2.876   2.676   2.189
    1C        C  104   3.063   2.571   2.314
    1C        C  105   3.006   2.623   2.432
    1C        C  106   3.199   2.534   2.552
    1C        C  107   3.068   2.587   2.554
    1C        C  108   3.269   2.519   2.673
    1C        C  109   3.201   2.540   2.795
    1C        C  110   3.411   2.502   2.915
    1C        C  111   3.273   2.529   2.917
    1C        C  112   3.482   2.502   3.038
    1C        C  113   3.414   2.507   3.162
    1C        C  114   3.627   2.503   3.283
    1C        C  115   3.486   2.498   3.283
    1C        C  116   3.697   2.509   3.406
    1C        C  117   3.626   2.497   3.528
    1C        C  118   3.834   2.543   3.648
    1C        C  119   3.698   2.507   3.650
    1C        C  120   3.901   2.572   3.770
    1C        C  121   3.836   2.545   3.892
    1C        C  122   4.027   2.639   4.013
    1C        C  123   3.902   2.573   4.014
    1C        C  124   4.092   2.673   4.134
    1C        C  125   4.032   2.633   4.255
    1C        C  126   4.199   2.766   4.378
    1C        C  127   4.092   2.674   4.376
    1C        C  128   4.248   2.818   4.500
    1C        C  129   4.199   2.764   4.621
    1C        C  130   4.323   2.937   4.742
    1C        C  131   4.246   2.818   4.742
    1C        C  132   4.350   3.009   4.861
    1C        C  133   4.274   2.967   4.971
    1C        C  134   3.170   2.464   2.082
    1C        C  135   3.036   2.507   2.087
    1C        C  136   3.257   2.475   2.192
    1C        C  137   3.197   2.522   2.311
    1C        C  138   3.406   2.482   2.430
    1C        C  139   3.267   2.505   2.432
    1C        C  140   3.482   2.486   2.549
    1C        C  141   3.409   2.498   2.670
    1C        C  142   3.619   2.501   2.793
    1C        C  143   3.479   2.487   2.792
    1C        C  144   3.689   2.514   2.915
    1C        C  145   3.623   2.503   3.039
    1C        C  146   3.833   2.541   3.157
    1C        C  147   3.696   2.508   3.160
    1C        C  148   3.899   2.566   3.280
    1C        C  149   3.834   2.545   3.403
    1C        C  150   4.029   2.625   3.524
    1C        C  151   3.900   2.568   3.526
    1C        C  152   4.087   2.667   3.645
    1C        C  153   4.027   2.635   3.769
    1C        C  154   4.195   2.766   3.889
    1C        C  155   4.088   2.674   3.891
    1C        C  156   4.250   2.812   4.011
    1C        C  157   4.203   2.760   4.134
    1C        C  158   4.342   2.921   4.252
    1C        C  159   4.253   2.811   4.255
    1C        C  160   4.377   2.984   4.373
    1C        C  161   4.330   2.933   4.496
    1C        C  162   4.433   3.118   4.616
    1C        C  163   4.362   2.995   4.619
    1C        C  164   4.467   3.184   4.736
    1C        C  165   4.429   3.125   4.859
    1C        C  166   4.503   3.326   4.972
    1C        C  167   4.475   3.190   4.975
    1C        C  168   3.474   2.436   2.077
    1C        C  169   3.397   2.460   2.191
    1C        C  170   3.618   2.468   2.310
    1C        C  171   3.476   2.465   2.308
    1C        C  172   3.694   2.488   2.427
    1C        C  173   3.623   2.487   2.550
    1C        C  174   3.830   2.534   2.668
    1C        C  175   3.692   2.503   2.672
    1C        C  176   3.895   2.563   2.790
    1C        C  177   3.827   2.543   2.912
    1C        C  178   4.023   2.627   3.034
    1C        C  179   3.897   2.564   3.034
    1C        C  180   4.086   2.666   3.155
    1C        C  181   4.025   2.630   3.277
    1C        C  182   4.201   2.745   3.398
    1C        C  183   4.089   2.658   3.400
    1C        C  184   4.253   2.798   3.519
    1C        C  185   4.199   2.754   3.642
    1C        C  186   4.338   2.913   3.766
    1C        C  187   4.251   2.802   3.764
    1C        C  188   4.377   2.979   3.885
    1C        C  189   4.341   2.919   4.007
    1C        C  190   4.445   3.105   4.128
    1C        C  191   4.382   2.978   4.129
    1C        C  192   4.470   3.172   4.250
    1C        C  193   4.444   3.108   4.373
    1C        C  194   4.503   3.315   4.492
    1C        C  195   4.468   3.179   4.493
    1C        C  196   4.525   3.387   4.612
    1C        C  197   4.509   3.319   4.735
    1C        C  198   4.556   3.537   4.850
    1C        C  199   4.523   3.397   4.853
    1C        C  200   4.582   3.623   4.961
    1C        C  201   3.613   2.418   2.076
    1C        C  202   3.824   2.516   2.184
    1C        C  203   3.690   2.464   2.188
    1C        C  204   3.899   2.542   2.302
    1C        C  205   3.831   2.522   2.424
    1C        C  206   4.020   2.622   2.545
    1C        C  207   3.897   2.553   2.545
    1C        C  208   4.082   2.660   2.665
    1C        C  209   4.021   2.626   2.788
    1C        C  210   4.197   2.745   2.907
    1C        C  211   4.080   2.666   2.911
    1C        C  212   4.256   2.790   3.027
    1C        C  213   4.202   2.745   3.151
    1C        C  214   4.330   2.909   3.273
    1C        C  215   4.249   2.794   3.275
    1C        C  216   4.369   2.971   3.394
    1C        C  217   4.338   2.910   3.517
    1C        C  218   4.429   3.099   3.638
    1C        C  219   4.374   2.969   3.641
    1C        C  220   4.463   3.167   3.757
    1C        C  221   4.441   3.105   3.882
    1C        C  222   4.501   3.308   4.004
    1C        C  223   4.468   3.170   4.005
    1C        C  224   4.512   3.380   4.125
    1C        C  225   4.504   3.309   4.247
    1C        C  226   4.513   3.523   4.368
    1C        C  227   4.512   3.382   4.368
    1C        C  228   4.513   3.599   4.487
    1C        C  229   4.530   3.529   4.608
    1C        C  230   4.505   3.744   4.726
    1C        C  231   4.536   3.605   4.727
    1C        C  232   4.497   3.822   4.843
    1C        C  233   4.543   3.757   4.959
    1C        C  234   4.020   2.604   2.066
    1C        C  235   3.896   2.543   2.067
    1C        C  236   4.085   2.649   2.182
    1C        C  237   4.024   2.610   2.303
    1C        C  238   4.202   2.734   2.422
    1C        C  239   4.084   2.655   2.423
    1C        C  240   4.255   2.785   2.543
    1C        C  241   4.200   2.738   2.664
    1C        C  242   4.335   2.905   2.784
    1C        C  243   4.249   2.793   2.785
    1C        C  244   4.377   2.962   2.906
    1C        C  245   4.340   2.903   3.029
    1C        C  246   4.438   3.092   3.149
    1C        C  247   4.375   2.965   3.151
    1C        C  248   4.460   3.159   3.271
    1C        C  249   4.434   3.097   3.395
    1C        C  250   4.495   3.301   3.515
    1C        C  251   4.455   3.166   3.517
    1C        C  252   4.508   3.374   3.635
    1C        C  253   4.501   3.303   3.758
    1C        C  254   4.517   3.515   3.879
    1C        C  255   4.510   3.374   3.880
    1C        C  256   4.517   3.590   3.999
    1C        C  257   4.519   3.521   4.123
    1C        C  258   4.491   3.732   4.241
    1C        C  259   4.510   3.592   4.244
    1C        C  260   4.472   3.805   4.361
    1C        C  261   4.485   3.738   4.484
    1C        C  262   4.432   3.944   4.602
    1C        C  263   4.479   3.811   4.605
    1C        C  264   4.403   4.012   4.723
    1C        C  265   4.438   3.951   4.845
    1C        C  266   4.323   4.133   4.958
    1C        C  267   4.393   4.013   4.962
    1C        C  268   4.261   2.774   2.062
    1C        C  269   4.200   2.731   2.180
    1C        C  270   4.348   2.889   2.299
    1C        C  271   4.257   2.780   2.300
    1C        C  272   4.379   2.957   2.418
    1C        C  273   4.342   2.896   2.541
    1C        C  274   4.447   3.084   2.663
    1C        C  275   4.378   2.960   2.661
    1C        C  276   4.473   3.150   2.784
    1C        C  277   4.444   3.086   2.907
    1C        C  278   4.503   3.292   3.027
    1C        C  279   4.472   3.155   3.027
    1C        C  280   4.506   3.366   3.147
    1C        C  281   4.491   3.297   3.270
    1C        C  282   4.511   3.510   3.391
    1C        C  283   4.504   3.369   3.391
    1C        C  284   4.506   3.583   3.512
    1C        C  285   4.508   3.515   3.636
    1C        C  286   4.488   3.726   3.754
    1C        C  287   4.511   3.587   3.758
    1C        C  288   4.475   3.798   3.876
    1C        C  289   4.494   3.729   3.997
    1C        C  290   4.432   3.934   4.116
    1C        C  291   4.477   3.800   4.118
    1C        C  292   4.405   4.002   4.237
    1C        C  293   4.427   3.939   4.361
    1C        C  294   4.331   4.131   4.479
    1C        C  295   4.404   4.011   4.481
    1C        C  296   4.286   4.189   4.600
    1C        C  297   4.331   4.134   4.723
    1C        C  298   4.197   4.311   4.838
    1C        C  299   4.288   4.201   4.841
    1C        C  300   4.171   4.406   4.942
    1C        C  301   4.353   2.879   2.064
    1C        C  302   4.472   3.067   2.180
    1C        C  303   4.402   2.943   2.179
    1C        C  304   4.479   3.147   2.298
    1C        C  305   4.444   3.082   2.419
    1C        C  306   4.503   3.286   2.539
    1C        C  307   4.475   3.148   2.540
    1C        C  308   4.509   3.360   2.659
    1C        C  309   4.498   3.289   2.782
    1C        C  310   4.520   3.501   2.902
    1C        C  311   4.513   3.360   2.903
    1C        C  312   4.519   3.575   3.022
    1C        C  313   4.513   3.507   3.146
    1C        C  314   4.489   3.719   3.266
    1C        C  315   4.509   3.579   3.268
    1C        C  316   4.473   3.791   3.386
    1C        C  317   4.485   3.723   3.509
    1C        C  318   4.431   3.929   3.626
    1C        C  319   4.471   3.793   3.631
    1C        C  320   4.402   3.996   3.747
    1C        C  321   4.425   3.930   3.871
    1C        C  322   4.321   4.114   3.990
    1C        C  323   4.397   3.995   3.993
    1C        C  324   4.280   4.172   4.113
    1C        C  325   4.330   4.122   4.235
    1C        C  326   4.192   4.286   4.354
    1C        C  327   4.292   4.186   4.355
    1C        C  328   4.137   4.336   4.474
    1C        C  329   4.194   4.295   4.597
    1C        C  330   4.022   4.431   4.714
    1C        C  331   4.138   4.349   4.715
    1C        C  332   3.970   4.489   4.833
    1C        C  333   4.050   4.477   4.947
    1C        C  334   4.556   3.269   2.063
    1C        C  335   4.536   3.130   2.068
    1C        C  336   4.542   3.351   2.175
    1C        C  337   4.514   3.284   2.296
    1C        C  338   4.516   3.498   2.418
    1C        C  339   4.517   3.357   2.417
    1C        C  340   4.518   3.572   2.538
    1C        C  341   4.519   3.500   2.659
    1C        C  342   4.498   3.713   2.778
    1C        C  343   4.516   3.573   2.781
    1C        C  344   4.483   3.785   2.898
    1C        C  345   4.496   3.715   3.020
    1C        C  346   4.427   3.916   3.138
    1C        C  347   4.475   3.784   3.142
    1C        C  348   4.398   3.986   3.258
    1C        C  349   4.429   3.926   3.382
    1C        C  350   4.326   4.111   3.504
    1C        C  351   4.403   3.993   3.504
    1C        C  352   4.283   4.173   3.623
    1C        C  353   4.327   4.116   3.745
    1C        C  354   4.188   4.276   3.867
    1C        C  355   4.281   4.170   3.867
    1C        C  356   4.131   4.322   3.988
    1C        C  357   4.185   4.276   4.110
    1C        C  358   4.015   4.403   4.233
    1C        C  359   4.135   4.328   4.232
    1C        C  360   3.955   4.448   4.353
    1C        C  361   4.020   4.416   4.474
    1C        C  362   3.828   4.517   4.596
    1C        C  363   3.958   4.460   4.592
    1C        C  364   3.759   4.541   4.717
    1C        C  365   3.838   4.537   4.834
    1C        C  366   3.628   4.588   4.951
    1C        C  367   3.766   4.569   4.950
    1C        C  368   4.512   3.562   2.057
    1C        C  369   4.526   3.491   2.177
    1C        C  370   4.501   3.708   2.287
    1C        C  371   4.519   3.568   2.295
    1C        C  372   4.484   3.778   2.409
    1C        C  373   4.506   3.713   2.532
    1C        C  374   4.432   3.912   2.650
    1C        C  375   4.483   3.780   2.654
    1C        C  376   4.401   3.978   2.771
    1C        C  377   4.431   3.917   2.895
    1C        C  378   4.325   4.102   3.013
    1C        C  379   4.401   3.983   3.016
    1C        C  380   4.283   4.163   3.134
    1C        C  381   4.324   4.106   3.256
    1C        C  382   4.181   4.261   3.377
    1C        C  383   4.280   4.160   3.379
    1C        C  384   4.127   4.312   3.497
    1C        C  385   4.184   4.274   3.621
    1C        C  386   4.011   4.391   3.744
    1C        C  387   4.132   4.318   3.744
    1C        C  388   3.948   4.429   3.865
    1C        C  389   4.010   4.395   3.988
    1C        C  390   3.818   4.480   4.109
    1C        C  391   3.949   4.427   4.111
    1C        C  392   3.752   4.507   4.231
    1C        C  393   3.824   4.502   4.352
    1C        C  394   3.619   4.551   4.477
    1C        C  395   3.759   4.531   4.474
    1C        C  396   3.545   4.561   4.597
    1C        C  397   3.619   4.561   4.717
    1C        C  398   3.408   4.549   4.842
    1C        C  399   3.547   4.573   4.838
    1C        C  400   3.339   4.520   4.960
    1C        C  401   4.509   3.701   2.052
    1C        C  402   4.459   3.917   2.166
    1C        C  403   4.497   3.781   2.167
    1C        C  404   4.414   3.978   2.285
    1C        C  405   4.439   3.912   2.407
    1C        C  406   4.330   4.096   2.527
    1C        C  407   4.408   3.979   2.528
    1C        C  408   4.284   4.153   2.648
    1C        C  409   4.323   4.096   2.771
    1C        C  410   4.182   4.257   2.889
    1C        C  411   4.282   4.158   2.891
    1C        C  412   4.126   4.305   3.010
    1C        C  413   4.180   4.260   3.133
    1C        C  414   4.006   4.379   3.254
    1C        C  415   4.126   4.305   3.255
    1C        C  416   3.944   4.414   3.376
    1C        C  417   4.007   4.387   3.500
    1C        C  418   3.813   4.470   3.621
    1C        C  419   3.945   4.420   3.623
    1C        C  420   3.749   4.499   3.744
    1C        C  421   3.816   4.479   3.867
    1C        C  422   3.610   4.531   3.989
    1C        C  423   3.749   4.506   3.988
    1C        C  424   3.541   4.532   4.113
    1C        C  425   3.613   4.533   4.234
    1C        C  426   3.404   4.541   4.357
    1C        C  427   3.545   4.548   4.357
    1C        C  428   3.334   4.537   4.480
    1C        C  429   3.404   4.555   4.601
    1C        C  430   3.193   4.520   4.723
    1C        C  431   3.333   4.544   4.722
    1C        C  432   3.124   4.500   4.846
    1C        C  433   3.202   4.496   4.963
    1C        C  434   4.387   4.125   2.052
    1C        C  435   4.451   4.001   2.054
    1C        C  436   4.305   4.163   2.163
    1C        C  437   4.341   4.100   2.285
    1C        C  438   4.184   4.248   2.404
    1C        C  439   4.289   4.154   2.405
    1C        C  440   4.130   4.300   2.524
    1C        C  441   4.185   4.254   2.646
    1C        C  442   4.008   4.376   2.767
    1C        C  443   4.129   4.302   2.766
    1C        C  444   3.946   4.417   2.887
    1C        C  445   4.009   4.383   3.009
    1C        C  446   3.811   4.461   3.132
    1C        C  447   3.943   4.411   3.131
    1C        C  448   3.746   4.487   3.255
    1C        C  449   3.813   4.465   3.377
    1C        C  450   3.607   4.521   3.497
    1C        C  451   3.745   4.489   3.499
    1C        C  452   3.541   4.539   3.621
    1C        C  453   3.612   4.532   3.744
    1C        C  454   3.401   4.540   3.866
    1C        C  455   3.542   4.541   3.866
    1C        C  456   3.331   4.532   3.988
    1C        C  457   3.400   4.530   4.112
    1C        C  458   3.193   4.507   4.236
    1C        C  459   3.332   4.531   4.236
    1C        C  460   3.127   4.486   4.360
    1C        C  461   3.195   4.508   4.481
    1C        C  462   2.997   4.432   4.605
    1C        C  463   3.127   4.487   4.603
    1C        C  464   2.933   4.401   4.728
    1C        C  465   2.991   4.447   4.849
    1C        C  466   2.801   4.337   4.961
    1C        C  467   2.905   4.431   4.962
    1C        C  468   4.122   4.286   2.044
    1C        C  469   4.191   4.249   2.160
    1C        C  470   4.014   4.374   2.282
    1C        C  471   4.130   4.293   2.281
    1C        C  472   3.944   4.401   2.402
    1C        C  473   4.011   4.375   2.523
    1C        C  474   3.814   4.459   2.643
    1C        C  475   3.947   4.411   2.644
    1C        C  476   3.745   4.482   2.765
    1C        C  477   3.813   4.465   2.887
    1C        C  478   3.607   4.514   3.009
    1C        C  479   3.744   4.482   3.009
    1C        C  480   3.537   4.524   3.131
    1C        C  481   3.607   4.514   3.254
    1C        C  482   3.395   4.531   3.377
    1C        C  483   3.536   4.526   3.375
    1C        C  484   3.328   4.528   3.501
    1C        C  485   3.400   4.542   3.622
    1C        C  486   3.192   4.501   3.747
    1C        C  487   3.329   4.534   3.744
    1C        C  488   3.126   4.479   3.870
    1C        C  489   3.192   4.505   3.992
    1C        C  490   2.998   4.422   4.115
    1C        C  491   3.126   4.482   4.115
    1C        C  492   2.939   4.388   4.239
    1C        C  493   2.997   4.430   4.361
    1C        C  494   2.827   4.306   4.484
    1C        C  495   2.936   4.395   4.483
    1C        C  496   2.779   4.255   4.607
    1C        C  497   2.821   4.314   4.728
    1C        C  498   2.661   4.168   4.844
    1C        C  499   2.750   4.278   4.845
    1C        C  500   2.596   4.118   4.957
    1C        C  501   4.000   4.354   2.043
    1C        C  502   3.817   4.460   2.158
    1C        C  503   3.947   4.405   2.162
    1C        C  504   3.744   4.470   2.278
    1C        C  505   3.809   4.444   2.401
    1C        C  506   3.605   4.504   2.524
    1C        C  507   3.742   4.471   2.523
    1C        C  508   3.532   4.510   2.645
    1C        C  509   3.606   4.506   2.765
    1C        C  510   3.395   4.524   2.888
    1C        C  511   3.536   4.522   2.887
    1C        C  512   3.324   4.524   3.010
    1C        C  513   3.396   4.532   3.132
    1C        C  514   3.188   4.495   3.258
    1C        C  515   3.325   4.529   3.254
    1C        C  516   3.122   4.472   3.381
    1C        C  517   3.191   4.497   3.503
    1C        C  518   2.995   4.419   3.626
    1C        C  519   3.122   4.481   3.625
    1C        C  520   2.937   4.377   3.748
    1C        C  521   3.000   4.414   3.869
    1C        C  522   2.831   4.293   3.997
    1C        C  523   2.941   4.381   3.993
    1C        C  524   2.786   4.242   4.121
    1C        C  525   2.828   4.301   4.242
    1C        C  526   2.694   4.137   4.367
    1C        C  527   2.776   4.252   4.364
    1C        C  528   2.649   4.078   4.487
    1C        C  529   2.692   4.144   4.605
    1C        C  530   2.587   3.962   4.732
    1C        C  531   2.636   4.095   4.725
    1C        C  532   2.545   3.903   4.854
    1C        C  533   2.528   3.995   4.963
    1C        C  534   3.622   4.554   2.045
    1C        C  535   3.755   4.509   2.042
    1C        C  536   3.537   4.535   2.159
    1C        C  537   3.605   4.501   2.279
    1C        C  538   3.393   4.510   2.400
    1C        C  539   3.535   4.509   2.402
    1C        C  540   3.322   4.503   2.522
    1C        C  541   3.391   4.510   2.645
    1C        C  542   3.182   4.486   2.767
    1C        C  543   3.322   4.508   2.768
    1C        C  544   3.117   4.470   2.891
    1C        C  545   3.187   4.489   3.012
    1C        C  546   2.995   4.407   3.136
    1C        C  547   3.123   4.466   3.136
    1C        C  548   2.937   4.370   3.260
    1C        C  549   2.995   4.410   3.382
    1C        C  550   2.829   4.285   3.506
    1C        C  551   2.935   4.378   3.505
    1C        C  552   2.778   4.238   3.629
    1C        C  553   2.827   4.289   3.751
    1C        C  554   2.699   4.126   3.878
    1C        C  555   2.778   4.244   3.876
    1C        C  556   2.664   4.066   4.000
    1C        C  557   2.698   4.131   4.121
    1C        C  558   2.605   3.945   4.247
    1C        C  559   2.661   4.074   4.245
    1C        C  560   2.569   3.880   4.368
    1C        C  561   2.588   3.950   4.489
    1C        C  562   2.531   3.752   4.617
    1C        C  563   2.564   3.889   4.614
    1C        C  564   2.519   3.683   4.740
    1C        C  565   2.521   3.762   4.859
    1C        C  566   2.523   3.548   4.980
    1C        C  567   2.526   3.687   4.977
    1C        C  568   3.329   4.476   2.044
    1C        C  569   3.396   4.517   2.159
    1C        C  570   3.183   4.475   2.281
    1C        C  571   3.320   4.511   2.279
    1C        C  572   3.114   4.457   2.404
    1C        C  573   3.183   4.477   2.525
    1C        C  574   2.982   4.408   2.650
    1C        C  575   3.112   4.463   2.646
    1C        C  576   2.927   4.368   2.773
    1C        C  577   2.989   4.408   2.893
    1C        C  578   2.824   4.278   3.017
    1C        C  579   2.930   4.371   3.016
    1C        C  580   2.778   4.226   3.141
    1C        C  581   2.828   4.281   3.261
    1C        C  582   2.699   4.116   3.385
    1C        C  583   2.780   4.231   3.385
    1C        C  584   2.666   4.058   3.510
    1C        C  585   2.700   4.120   3.633
    1C        C  586   2.596   3.938   3.756
    1C        C  587   2.662   4.063   3.757
    1C        C  588   2.574   3.874   3.879
    1C        C  589   2.602   3.938   4.002
    1C        C  590   2.546   3.739   4.129
    1C        C  591   2.584   3.875   4.126
    1C        C  592   2.530   3.672   4.252
    1C        C  593   2.539   3.742   4.374
    1C        C  594   2.517   3.535   4.500
    1C        C  595   2.522   3.676   4.498
    1C        C  596   2.521   3.465   4.622
    1C        C  597   2.520   3.541   4.742
    1C        C  598   2.532   3.329   4.863
    1C        C  599   2.525   3.470   4.863
    1C        C  600   2.532   3.249   4.978
    1C        C  601   3.196   4.437   2.044
    1C        C  602   2.982   4.394   2.160
    1C        C  603   3.117   4.443   2.160
    1C        C  604   2.922   4.363   2.285
    1C        C  605   2.982   4.405   2.405
    1C        C  606   2.818   4.273   2.530
    1C        C  607   2.925   4.366   2.528
    1C        C  608   2.769   4.223   2.652
    1C        C  609   2.820   4.276   2.773
    1C        C  610   2.687   4.113   2.897
    1C        C  611   2.771   4.227   2.896
    1C        C  612   2.651   4.053   3.020
    1C        C  613   2.695   4.112   3.141
    1C        C  614   2.594   3.929   3.268
    1C        C  615   2.659   4.054   3.264
    1C        C  616   2.573   3.865   3.392
    1C        C  617   2.606   3.930   3.513
    1C        C  618   2.539   3.731   3.639
    1C        C  619   2.573   3.869   3.635
    1C        C  620   2.524   3.663   3.762
    1C        C  621   2.538   3.737   3.882
    1C        C  622   2.513   3.530   4.012
    1C        C  623   2.530   3.670   4.006
    1C        C  624   2.521   3.460   4.134
    1C        C  625   2.516   3.531   4.256
    1C        C  626   2.543   3.322   4.379
    1C        C  627   2.519   3.461   4.379
    1C        C  628   2.559   3.252   4.501
    1C        C  629   2.544   3.326   4.620
    1C        C  630   2.594   3.121   4.745
    1C        C  631   2.554   3.258   4.743
    1C        C  632   2.620   3.052   4.867
    1C        C  633   2.561   3.112   4.983
    1C        C  634   2.782   4.307   2.054
    1C        C  635   2.891   4.395   2.050
    1C        C  636   2.744   4.237   2.169
    1C        C  637   2.807   4.279   2.288
    1C        C  638   2.674   4.114   2.411
    1C        C  639   2.760   4.226   2.410
    1C        C  640   2.639   4.053   2.534
    1C        C  641   2.683   4.111   2.655
    1C        C  642   2.584   3.924   2.778
    1C        C  643   2.648   4.050   2.777
    1C        C  644   2.560   3.859   2.901
    1C        C  645   2.589   3.926   3.022
    1C        C  646   2.530   3.726   3.151
    1C        C  647   2.564   3.863   3.146
    1C        C  648   2.521   3.657   3.273
    1C        C  649   2.537   3.729   3.394
    1C        C  650   2.513   3.520   3.520
    1C        C  651   2.526   3.661   3.518
    1C        C  652   2.513   3.454   3.645
    1C        C  653   2.509   3.523   3.768
    1C        C  654   2.537   3.316   3.890
    1C        C  655   2.512   3.455   3.892
    1C        C  656   2.553   3.249   4.013
    1C        C  657   2.541   3.320   4.135
    1C        C  658   2.604   3.119   4.259
    1C        C  659   2.558   3.252   4.257
    1C        C  660   2.637   3.056   4.381
    1C        C  661   2.601   3.117   4.504
    1C        C  662   2.709   2.937   4.625
    1C        C  663   2.628   3.053   4.627
    1C        C  664   2.751   2.877   4.746
    1C        C  665   2.698   2.932   4.865
    1C        C  666   2.746   2.872   4.983
    1C        C  667   2.687   4.024   2.059
    1C        C  668   2.680   4.111   2.169
    1C        C  669   2.588   3.917   2.291
    1C        C  670   2.643   4.049   2.290
    1C        C  671   2.558   3.854   2.414
    1C        C  672   2.579   3.925   2.535
    1C        C  673   2.519   3.721   2.659
    1C        C  674   2.558   3.857   2.657
    1C        C  675   2.512   3.652   2.782
    1C        C  676   2.525   3.722   2.904
    1C        C  677   2.501   3.516   3.030
    1C        C  678   2.513   3.657   3.029
    1C        C  679   2.511   3.445   3.152
    1C        C  680   2.514   3.516   3.275
    1C        C  681   2.529   3.308   3.402
    1C        C  682   2.509   3.448   3.398
    1C        C  683   2.553   3.243   3.525
    1C        C  684   2.541   3.316   3.646
    1C        C  685   2.606   3.115   3.772
    1C        C  686   2.560   3.248   3.768
    1C        C  687   2.643   3.054   3.894
    1C        C  688   2.610   3.119   4.015
    1C        C  689   2.716   2.937   4.141
    1C        C  690   2.637   3.054   4.137
    1C        C  691   2.759   2.879   4.263
    1C        C  692   2.717   2.940   4.383
    1C        C  693   2.758   2.881   4.505
    1C        C  694   2.635   3.894   2.059
    1C        C  695   2.526   3.708   2.176
    1C        C  696   2.573   3.841   2.173
    1C        C  697   2.507   3.641   2.298
    1C        C  698   2.526   3.717   2.416
    1C        C  699   2.497   3.507   2.544
    1C        C  700   2.509   3.648   2.538
    1C        C  701   2.503   3.438   2.667
    1C        C  702   2.506   3.511   2.788
    1C        C  703   2.534   3.303   2.913
    1C        C  704   2.508   3.441   2.910
    1C        C  705   2.550   3.235   3.036
    1C        C  706   2.534   3.306   3.157
    1C        C  707   2.598   3.106   3.284
    1C        C  708   2.551   3.239   3.281
    1C        C  709   2.631   3.044   3.406
    1C        C  710   2.606   3.112   3.527
    1C        C  711   2.713   2.931   3.651
    1C        C  712   2.635   3.049   3.650
    1C        C  713   2.761   2.879   3.774
    1C        C  714   2.721   2.936   3.897
    1C        C  715   2.758   2.878   4.020
    1C        C  716   2.446   3.503   2.067
    1C        C  717   2.493   3.634   2.061
    1C        C  718   2.464   3.423   2.185
    1C        C  719   2.487   3.500   2.302
    1C        C  720   2.514   3.292   2.426
    1C        C  721   2.491   3.432   2.425
    1C        C  722   2.541   3.226   2.548
    1C        C  723   2.527   3.299   2.668
    1C        C  724   2.597   3.100   2.792
    1C        C  725   2.548   3.233   2.791
    1C        C  726   2.629   3.039   2.915
    1C        C  727   2.598   3.102   3.038
    1C        C  728   2.711   2.926   3.160
    1C        C  729   2.629   3.042   3.162
    1C        C  730   2.756   2.874   3.283
    1C        C  731   2.716   2.931   3.406
    1C        C  732   2.758   2.876   3.529
    1C        C  733   2.495   3.200   2.072
    1C        C  734   2.491   3.283   2.185
    1C        C  735   2.585   3.089   2.307
    1C        C  736   2.526   3.218   2.307
    1C        C  737   2.616   3.024   2.428
    1C        C  738   2.595   3.095   2.548
    1C        C  739   2.701   2.915   2.672
    1C        C  740   2.623   3.033   2.671
    1C        C  741   2.743   2.855   2.793
    1C        C  742   2.704   2.919   2.912
    1C        C  743   2.748   2.868   3.036
    1C        C  744   2.543   3.069   2.077
    1C        C  745   2.684   2.897   2.187
    1C        C  746   2.613   3.018   2.188
    1C        C  747   2.730   2.840   2.308
    1C        C  748   2.690   2.903   2.428
    1C        C  749   2.742   2.855   2.550
    1C        C  750   2.743   2.843   2.071
    1C        C  751   3.671   2.321   1.980
    1C        O  752   3.716   2.210   2.022
    1C        O  753   3.626   2.307   1.849
    1C        C  754   4.637   3.059   1.987
    1C        O  755   4.647   3.084   1.864
    1C        O  756   4.760   3.028   2.048
    1C        C  757   4.458   4.230   1.975
    1C        O  758   4.445   4.353   1.998
    1C        O  759   4.468   4.220   1.835
    1C        C  760   3.606   4.672   1.957
    1C        O  761   3.649   4.783   1.998
    1C        O  762   3.603   4.664   1.817
    1C        C  763   2.905   4.486   1.934
    1C        O  764   2.915   4.436   1.819
    1C        O  765   2.923   4.622   1.961
    1C        C  766   2.319   3.487   1.992
    1C        O  767   2.314   3.458   1.869
    1C        O  768   2.193   3.464   2.048
    1C        C  769   4.660   3.591   5.083
    1C        O  770   4.612   3.538   5.186
    1C        O  771   4.794   3.556   5.059
    1C        C  772   4.284   4.458   5.022
    1C        O  773   4.297   4.417   5.140
    1C        O  774   4.388   4.539   4.974
    1C        C  775   4.140   2.512   5.068
    1C        O  776   4.166   2.391   5.044
    1C        O  777   4.158   2.550   5.201
    1C        C  778   2.895   4.529   5.073
    1C        O  779   2.859   4.647   5.049
    1C        O  780   2.898   4.497   5.209
    1C        C  781   2.475   3.043   5.081
    1C        O  782   2.363   2.987   5.067
    1C        O  783   2.509   3.058   5.215
    1C        C  784   2.396   4.010   5.028
    1C        O  785   2.316   4.098   4.987
    1C        O  786   2.371   3.957   5.155
    1C        C  787   2.938   2.411   2.030
    1C        O  788   2.919   2.411   1.906
    1C        O  789   2.891   2.303   2.103
    1C        C  790   3.171   2.368   5.051
    1C        O  791   3.108   2.269   5.006
    1C        O  792   3.189   2.371   5.190
    1C        H  793   4.254   3.037   5.050
    1C        H  794   4.225   2.791   5.070
    1C        H  795   4.540   3.136   5.041
    1C        H  796   4.473   3.377   5.060
    1C        H  797   4.536   3.810   5.051
    1C        H  798   4.390   3.960   5.055
    1C        H  799   4.281   4.170   5.049
    1C        H  800   4.008   4.491   5.045
    1C        H  801   3.814   4.620   5.032
    1C        H  802   3.590   4.630   5.042
    1C        H  803   3.391   4.520   5.054
    1C        H  804   3.154   4.513   5.057
    1C        H  805   3.893   2.472   5.065
    1C        H  806   3.679   2.457   5.075
    1C        H  807   2.996   2.559   5.062
    1C        H  808   3.450   2.539   5.063
    1C        H  809   2.888   2.762   5.084
    1C        H  810   2.673   2.865   5.061
    1C        H  811   2.453   3.277   5.046
    1C        H  812   2.497   3.507   5.075
    1C        H  813   2.562   3.736   5.065
    1C        H  814   2.588   4.183   5.041
    1C        H  815   2.797   4.280   5.052
    1C        H  816   2.762   2.917   1.996
    1C        H  817   2.827   2.664   1.987
    1C        H  818   3.185   2.388   2.008
    1C        H  819   3.429   2.460   1.983
    1C        H  820   3.836   2.573   1.984
    1C        H  821   4.078   2.585   1.978
    1C        H  822   4.273   2.704   1.982
    1C        H  823   4.375   2.922   1.968
    1C        H  824   4.616   3.307   1.983
    1C        H  825   4.482   3.509   1.969
    1C        H  826   4.526   3.748   1.957
    1C        H  827   3.819   4.545   1.964
    1C        H  828   3.933   4.325   1.965
    1C        H  829   4.186   4.294   1.959
    1C        H  830   4.503   3.972   1.964
    1C        H  831   2.691   3.824   2.000
    1C        H  832   2.710   4.063   1.962
    1C        H  833   2.715   4.298   1.971
    1C        H  834   3.384   4.468   1.952
    1C        H  835   3.149   4.446   1.948
    1C        H  836   2.524   3.013   1.989
    1C        H  837   2.424   3.224   1.996
    1C        H  838   2.521   3.671   1.965
    2V3OU   H29  839   2.801   3.555   5.548
    2V3OU   C27  840   2.778   3.505   5.645
    2V3OU   H27  841   2.716   3.573   5.708
    2V3OU   H28  842   2.732   3.404   5.628
    2V3OU   O11  843   2.902   3.475   5.710
    2V3OU   C15  844   2.918   3.401   5.824
    2V3OU   C13  845   3.052   3.373   5.860
    2V3OU   C14  846   3.076   3.266   5.947
    2V3OU   C16  847   2.973   3.190   6.002
    2V3OU    H6  848   2.996   3.103   6.065
    2V3OU   C12  849   3.217   3.229   5.973
    2V3OU    O2  850   3.243   3.130   6.045
    2V3OU   C10  851   3.327   3.305   5.913
    2V3OU    C8  852   3.460   3.268   5.927
    2V3OU   O10  853   3.494   3.156   5.997
    2V3OU   H26  854   3.406   3.119   6.013
    2V3OU    C6  855   3.568   3.348   5.880
    2V3OU    C5  856   3.538   3.468   5.817
    2V3OU    C4  857   3.706   3.292   5.877
    2V3OU    H4  858   3.729   3.229   5.968
    2V3OU    H5  859   3.715   3.226   5.786
    2V3OU    C2  860   3.816   3.399   5.878
    2V3OU    O6  861   3.807   3.475   5.999
    2V3OU   H21  862   3.762   3.556   5.971
    2V3OU    C3  863   3.785   3.498   5.766
    2V3OU    H2  864   3.865   3.575   5.754
    2V3OU    H3  865   3.787   3.445   5.668
    2V3OU   C25  866   3.951   3.332   5.848
    2V3OU    O7  867   3.998   3.295   5.741
    2V3OU   C26  868   4.034   3.293   5.969
    2V3OU   H22  869   4.062   3.384   6.028
    2V3OU   H23  870   4.123   3.234   5.935
    2V3OU    O8  871   3.962   3.206   6.053
    2V3OU   H24  872   3.933   3.255   6.132
    2V3OU    C1  873   3.648   3.563   5.781
    2V3OU    H1  874   3.625   3.618   5.685
    2V3OU    O3  875   3.659   3.660   5.885
    2V3OU   C19  876   3.616   3.796   5.868
    2V3OU    H9  877   3.522   3.813   5.808
    2V3OU    O4  878   3.715   3.853   5.785
    2V3OU   C20  879   3.845   3.874   5.840
    2V3OU   H10  880   3.891   3.772   5.855
    2V3OU   C24  881   3.609   3.853   6.009
    2V3OU   H16  882   3.544   3.789   6.074
    2V3OU   H17  883   3.559   3.953   5.999
    2V3OU   C23  884   3.747   3.875   6.070
    2V3OU   H15  885   3.791   3.772   6.095
    2V3OU    N1  886   3.737   3.954   6.191
    2V3OU   H19  887   3.811   3.923   6.251
    2V3OU   H20  888   3.646   3.935   6.228
    2V3OU   C21  889   3.846   3.948   5.974
    2V3OU   H11  890   3.952   3.937   6.011
    2V3OU    O5  891   3.823   4.088   5.961
    2V3OU   H18  892   3.787   4.106   6.049
    2V3OU   C22  893   3.917   3.948   5.728
    2V3OU   H12  894   3.867   4.046   5.709
    2V3OU   H13  895   3.908   3.889   5.633
    2V3OU   H14  896   4.023   3.964   5.758
    2V3OU   C11  897   3.155   3.470   5.822
    2V3OU    O1  898   3.133   3.584   5.777
    2V3OU    C9  899   3.295   3.426   5.846
    2V3OU    C7  900   3.401   3.508   5.807
    2V3OU    O9  901   3.390   3.619   5.726
    2V3OU   H25  902   3.295   3.629   5.709
    2V3OU   C17  903   2.818   3.320   5.881
    2V3OU    H7  904   2.716   3.345   5.852
    2V3OU   C18  905   2.841   3.211   5.965
    2V3OU    H8  906   2.756   3.148   5.994
    3SOL     OW  907   3.636   3.097   3.885
    3SOL    HW1  908   3.637   3.059   3.792
    3SOL    HW2  909   3.550   3.146   3.899
    4SOL     OW  910   6.586   6.300   0.663
    4SOL    HW1  911   6.506   6.314   0.723
    4SOL    HW2  912   6.630   6.214   0.686
    5SOL     OW  913   5.456   1.559   1.356
    5SOL    HW1  914   5.440   1.464   1.330
    5SOL    HW2  915   5.488   1.611   1.277
    6SOL     OW  916   5.159   1.310   3.170
    6SOL    HW1  917   5.209   1.302   3.084
    6SOL    HW2  918   5.068   1.271   3.159
    7SOL     OW  919   2.048   4.146   4.026
    7SOL    HW1  920   2.082   4.067   3.975
    7SOL    HW2  921   2.053   4.127   4.124
    8SOL     OW  922   0.615   3.185   5.010
    8SOL    HW1  923   0.631   3.141   4.921
    8SOL    HW2  924   0.667   3.136   5.081
    9SOL     OW  925   6.962   0.955   6.551
    9SOL    HW1  926   6.895   0.957   6.626
    9SOL    HW2  927   0.005   0.885   6.570
   10SOL     OW  928   5.677   4.983   1.677
   10SOL    HW1  929   5.599   4.998   1.616
   10SOL    HW2  930   5.743   4.921   1.633
   11SOL     OW  931   1.915   1.859   0.972
   11SOL    HW1  932   1.878   1.908   0.893
   11SOL    HW2  933   1.906   1.916   1.054
   12SOL     OW  934   4.308   5.089   2.717
   12SOL    HW1  935   4.215   5.060   2.694
   12SOL    HW2  936   4.340   5.037   2.796
   13SOL     OW  937   5.796   6.081   1.352
   13SOL    HW1  938   5.742   6.028   1.417
   13SOL    HW2  939   5.884   6.036   1.337
   14SOL     OW  940   4.486   6.747   6.180
   14SOL    HW1  941   4.444   6.805   6.110
   14SOL    HW2  942   4.429   6.747   6.262
   15SOL     OW  943   1.041   6.127   6.302
   15SOL    HW1  944   0.951   6.086   6.286
   15SOL    HW2  945   1.034   6.227   6.294
   16SOL     OW  946   2.093   4.768   4.671
   16SOL    HW1  947   2.033   4.816   4.735
   16SOL    HW2  948   2.111   4.676   4.705
   17SOL     OW  949   6.592   1.296   5.370
   17SOL    HW1  950   6.498   1.285   5.339
   17SOL    HW2  951   6.611   1.231   5.444
   18SOL     OW  952   2.867   1.453   6.023
   18SOL    HW1  953   2.834   1.546   6.040
   18SOL    HW2  954   2.878   1.439   5.925
   19SOL     OW  955   3.137   6.246   3.079
   19SOL    HW1  956   3.175   6.169   3.027
   19SOL    HW2  957   3.049   6.272   3.041
   20SOL     OW  958   5.983   1.613   5.057
   20SOL    HW1  959   5.993   1.632   5.154
   20SOL    HW2  960   5.894   1.572   5.039
   21SOL     OW  961   2.419   4.385   2.288
   21SOL    HW1  962   2.365   4.440   2.352
   21SOL    HW2  963   2.385   4.291   2.288
   22SOL     OW  964   0.868   0.656   6.759
   22SOL    HW1  965   0.895   0.560   6.759
   22SOL    HW2  966   0.793   0.669   6.823
   23SOL     OW  967   5.565   4.790   0.952
   23SOL    HW1  968   5.615   4.712   0.989
   23SOL    HW2  969   5.572   4.790   0.852
   24SOL     OW  970   4.916   1.731   0.645
   24SOL    HW1  971   4.873   1.723   0.555
   24SOL    HW2  972   4.920   1.827   0.672
   25SOL     OW  973   1.788   0.410   4.504
   25SOL    HW1  974   1.782   0.441   4.599
   25SOL    HW2  975   1.851   0.470   4.454
   26SOL     OW  976   0.449   2.193   6.327
   26SOL    HW1  977   0.487   2.113   6.374
   26SOL    HW2  978   0.362   2.218   6.368
   27SOL     OW  979   6.569   0.219   2.235
   27SOL    HW1  980   6.595   0.218   2.138
   27SOL    HW2  981   6.568   0.125   2.270
   28SOL     OW  982   1.947   0.847   4.596
   28SOL    HW1  983   1.870   0.787   4.616
   28SOL    HW2  984   1.947   0.870   4.498
   29SOL     OW  985   6.920   6.993   0.844
   29SOL    HW1  986   6.867   6.915   0.878
   29SOL    HW2  987   7.017   6.970   0.843
   30SOL     OW  988   4.283   0.150   4.885
   30SOL    HW1  989   4.198   0.184   4.926
   30SOL    HW2  990   4.267   0.059   4.846
   31SOL     OW  991   0.842   4.190   4.808
   31SOL    HW1  992   0.764   4.134   4.778
   31SOL    HW2  993   0.895   4.218   4.728
   32SOL     OW  994   3.756   0.785   1.031
   32SOL    HW1  995   3.704   0.701   1.047
   32SOL    HW2  996   3.726   0.827   0.945
   33SOL     OW  997   2.193   5.359   6.130
   33SOL    HW1  998   2.290   5.380   6.146
   33SOL    HW2  999   2.144   5.442   6.106
   34SOL     OW 1000   2.965   5.817   5.214
   34SOL    HW1 1001   2.903   5.812   5.292
   34SOL    HW2 1002   2.923   5.770   5.135
   35SOL     OW 1003   1.653   2.930   6.562
   35SOL    HW1 1004   1.611   2.866   6.627
   35SOL    HW2 1005   1.587   2.954   6.491
   36SOL     OW 1006   4.472   0.893   3.253
   36SOL    HW1 1007   4.561   0.937   3.263
   36SOL    HW2 1008   4.422   0.937   3.178
   37SOL     OW 1009   2.471   6.862   3.754
   37SOL    HW1 1010   2.517   6.950   3.765
   37SOL    HW2 1011   2.380   6.868   3.796
   38SOL     OW 1012   0.772   4.068   2.714
   38SOL    HW1 1013   0.827   4.089   2.634
   38SOL    HW2 1014   0.683   4.113   2.707
   39SOL     OW 1015   6.464   4.897   1.212
   39SOL    HW1 1016   6.503   4.819   1.262
   39SOL    HW2 1017   6.468   4.880   1.114
   40SOL     OW 1018   4.978   1.547   0.819
   40SOL    HW1 1019   4.941   1.614   0.754
   40SOL    HW2 1020   4.977   1.456   0.778
   41SOL     OW 1021   5.070   4.028   1.729
   41SOL    HW1 1022   5.018   3.956   1.682
   41SOL    HW2 1023   5.107   3.992   1.814
   42SOL     OW 1024   2.707   4.625   6.672
   42SOL    HW1 1025   2.621   4.623   6.621
   42SOL    HW2 1026   2.714   4.711   6.722
   43SOL     OW 1027   4.537   6.923   5.290
   43SOL    HW1 1028   4.620   6.934   5.235
   43SOL    HW2 1029   4.467   6.986   5.258
   44SOL     OW 1030   6.612   1.140   6.850
   44SOL    HW1 1031   6.619   1.236   6.822
   44SOL    HW2 1032   6.550   1.132   6.928
   45SOL     OW 1033   2.367   4.710   6.230
   45SOL    HW1 1034   2.431   4.636   6.250
   45SOL    HW2 1035   2.381   4.785   6.296
   46SOL     OW 1036   1.347   3.330   5.047
   46SOL    HW1 1037   1.283   3.311   4.973
   46SOL    HW2 1038   1.399   3.413   5.026
   47SOL     OW 1039   5.373   3.908   0.099
   47SOL    HW1 1040   5.292   3.898   0.156
   47SOL    HW2 1041   5.453   3.923   0.157
   48SOL     OW 1042   6.197   3.884   0.414
   48SOL    HW1 1043   6.104   3.886   0.451
   48SOL    HW2 1044   6.246   3.805   0.450
   49SOL     OW 1045   2.986   3.820   6.824
   49SOL    HW1 1046   2.892   3.791   6.810
   49SOL    HW2 1047   3.033   3.826   6.735
   50SOL     OW 1048   6.123   1.711   0.206
   50SOL    HW1 1049   6.139   1.731   0.303
   50SOL    HW2 1050   6.045   1.649   0.197
   51SOL     OW 1051   0.778   5.858   2.351
   51SOL    HW1 1052   0.704   5.791   2.342
   51SOL    HW2 1053   0.825   5.845   2.438
   52SOL     OW 1054   5.895   2.768   2.006
   52SOL    HW1 1055   5.910   2.687   2.064
   52SOL    HW2 1056   5.797   2.789   2.003
   53SOL     OW 1057   3.466   0.799   1.399
   53SOL    HW1 1058   3.547   0.767   1.448
   53SOL    HW2 1059   3.386   0.747   1.429
   54SOL     OW 1060   5.610   6.988   6.467
   54SOL    HW1 1061   5.605   6.888   6.463
   54SOL    HW2 1062   5.656   7.022   6.385
   55SOL     OW 1063   1.136   3.365   6.074
   55SOL    HW1 1064   1.189   3.340   5.993
   55SOL    HW2 1065   1.072   3.439   6.051
   56SOL     OW 1066   0.541   2.089   6.759
   56SOL    HW1 1067   0.565   2.152   6.686
   56SOL    HW2 1068   0.559   2.132   6.848
   57SOL     OW 1069   4.410   6.400   0.968
   57SOL    HW1 1070   4.409   6.492   0.929
   57SOL    HW2 1071   4.319   6.359   0.957
   58SOL     OW 1072   1.154   0.830   6.856
   58SOL    HW1 1073   1.058   0.835   6.884
   58SOL    HW2 1074   1.196   0.920   6.864
   59SOL     OW 1075   4.598   3.305   5.573
   59SOL    HW1 1076   4.656   3.316   5.492
   59SOL    HW2 1077   4.506   3.276   5.545
   60SOL     OW 1078   6.086   2.599   2.124
   60SOL    HW1 1079   6.063   2.558   2.036
   60SOL    HW2 1080   6.152   2.541   2.172
   61SOL     OW 1081   0.888   6.381   4.169
   61SOL    HW1 1082   0.974   6.350   4.209
   61SOL    HW2 1083   0.814   6.363   4.234
   62SOL     OW 1084   6.322   3.227   3.331
   62SOL    HW1 1085   6.227   3.205   3.354
   62SOL    HW2 1086   6.380   3.147   3.345
   63SOL     OW 1087   3.445   0.788   5.986
   63SOL    HW1 1088   3.449   0.867   5.925
   63SOL    HW2 1089   3.401   0.814   6.072
   64SOL     OW 1090   1.369   2.968   5.616
   64SOL    HW1 1091   1.408   2.885   5.576
   64SOL    HW2 1092   1.370   3.041   5.548
   65SOL     OW 1093   0.778   5.133   4.208
   65SOL    HW1 1094   0.731   5.164   4.125
   65SOL    HW2 1095   0.786   5.209   4.272
   66SOL     OW 1096   4.025   1.162   1.846
   66SOL    HW1 1097   4.077   1.242   1.877
   66SOL    HW2 1098   4.047   1.084   1.906
   67SOL     OW 1099   6.906   3.321   1.495
   67SOL    HW1 1100   6.834   3.385   1.468
   67SOL    HW2 1101   6.909   3.244   1.431
   68SOL     OW 1102   0.037   1.644   6.761
   68SOL    HW1 1103   7.003   1.601   6.828
   68SOL    HW2 1104   7.008   1.689   6.691
   69SOL     OW 1105   1.115   6.119   6.777
   69SOL    HW1 1106   1.136   6.069   6.693
   69SOL    HW2 1107   1.200   6.145   6.822
   70SOL     OW 1108   4.965   4.346   4.186
   70SOL    HW1 1109   4.964   4.434   4.139
   70SOL    HW2 1110   4.875   4.303   4.181
   71SOL     OW 1111   5.461   2.162   4.308
   71SOL    HW1 1112   5.468   2.069   4.273
   71SOL    HW2 1113   5.366   2.192   4.306
   72SOL     OW 1114   0.460   1.827   3.227
   72SOL    HW1 1115   0.437   1.738   3.265
   72SOL    HW2 1116   0.380   1.865   3.180
   73SOL     OW 1117   2.335   0.056   0.733
   73SOL    HW1 1118   2.371   0.088   0.820
   73SOL    HW2 1119   2.405   0.002   0.686
   74SOL     OW 1120   3.460   2.251   0.917
   74SOL    HW1 1121   3.479   2.347   0.893
   74SOL    HW2 1122   3.369   2.244   0.958
   75SOL     OW 1123   2.881   2.827   0.199
   75SOL    HW1 1124   2.900   2.858   0.106
   75SOL    HW2 1125   2.793   2.779   0.200
   76SOL     OW 1126   3.729   5.188   5.265
   76SOL    HW1 1127   3.776   5.155   5.183
   76SOL    HW2 1128   3.748   5.286   5.276
   77SOL     OW 1129   0.788   5.328   4.401
   77SOL    HW1 1130   0.846   5.396   4.356
   77SOL    HW2 1131   0.844   5.271   4.461
   78SOL     OW 1132   4.566   1.551   1.358
   78SOL    HW1 1133   4.558   1.585   1.452
   78SOL    HW2 1134   4.640   1.599   1.311
   79SOL     OW 1135   1.472   4.489   3.839
   79SOL    HW1 1136   1.513   4.484   3.748
   79SOL    HW2 1137   1.377   4.518   3.831
   80SOL     OW 1138   3.433   1.581   4.552
   80SOL    HW1 1139   3.489   1.608   4.630
   80SOL    HW2 1140   3.454   1.640   4.473
   81SOL     OW 1141   3.973   5.161   1.674
   81SOL    HW1 1142   3.891   5.210   1.642
   81SOL    HW2 1143   3.953   5.119   1.763
   82SOL     OW 1144   2.411   6.344   1.804
   82SOL    HW1 1145   2.477   6.387   1.742
   82SOL    HW2 1146   2.355   6.414   1.847
   83SOL     OW 1147   5.319   1.428   3.838
   83SOL    HW1 1148   5.334   1.384   3.927
   83SOL    HW2 1149   5.264   1.368   3.780
   84SOL     OW 1150   5.765   2.919   2.775
   84SOL    HW1 1151   5.701   2.898   2.848
   84SOL    HW2 1152   5.859   2.907   2.808
   85SOL     OW 1153   2.865   6.530   3.461
   85SOL    HW1 1154   2.878   6.571   3.551
   85SOL    HW2 1155   2.904   6.438   3.460
   86SOL     OW 1156   5.032   0.027   0.335
   86SOL    HW1 1157   5.006   6.960   0.358
   86SOL    HW2 1158   5.057   0.032   0.239
   87SOL     OW 1159   2.745   3.908   6.526
   87SOL    HW1 1160   2.753   3.821   6.575
   87SOL    HW2 1161   2.778   3.982   6.584
   88SOL     OW 1162   2.617   3.391   1.496
   88SOL    HW1 1163   2.583   3.297   1.498
   88SOL    HW2 1164   2.557   3.450   1.549
   89SOL     OW 1165   2.871   3.478   4.112
   89SOL    HW1 1166   2.954   3.520   4.148
   89SOL    HW2 1167   2.859   3.387   4.152
   90SOL     OW 1168   5.737   3.801   2.225
   90SOL    HW1 1169   5.692   3.812   2.314
   90SOL    HW2 1170   5.829   3.763   2.239
   91SOL     OW 1171   4.655   5.521   5.975
   91SOL    HW1 1172   4.641   5.425   5.948
   91SOL    HW2 1173   4.573   5.554   6.022
   92SOL     OW 1174   5.206   4.268   0.144
   92SOL    HW1 1175   5.177   4.363   0.136
   92SOL    HW2 1176   5.237   4.235   0.055
   93SOL     OW 1177   3.015   3.583   2.070
   93SOL    HW1 1178   3.062   3.617   1.988
   93SOL    HW2 1179   2.976   3.492   2.051
   94SOL     OW 1180   2.878   2.249   4.171
   94SOL    HW1 1181   2.924   2.209   4.250
   94SOL    HW2 1182   2.845   2.341   4.194
   95SOL     OW 1183   0.248   0.643   4.131
   95SOL    HW1 1184   0.336   0.635   4.083
   95SOL    HW2 1185   0.183   0.579   4.091
   96SOL     OW 1186   7.009   5.214   6.720
   96SOL    HW1 1187   6.939   5.261   6.774
   96SOL    HW2 1188   6.971   5.187   6.632
   97SOL     OW 1189   2.356   4.523   5.869
   97SOL    HW1 1190   2.293   4.548   5.942
   97SOL    HW2 1191   2.427   4.593   5.860
   98SOL     OW 1192   0.852   2.162   3.754
   98SOL    HW1 1193   0.773   2.126   3.704
   98SOL    HW2 1194   0.930   2.170   3.692
   99SOL     OW 1195   3.314   4.305   5.205
   99SOL    HW1 1196   3.314   4.393   5.253
   99SOL    HW2 1197   3.395   4.252   5.232
  100SOL     OW 1198   0.162   0.513   4.859
  100SOL    HW1 1199   0.110   0.436   4.821
  100SOL    HW2 1200   0.142   0.521   4.956
  101SOL     OW 1201   5.041   3.597   2.865
  101SOL    HW1 1202   5.016   3.541   2.786
  101SOL    HW2 1203   5.053   3.539   2.945
  102SOL     OW 1204   3.874   0.641   0.019
  102SOL    HW1 1205   3.802   0.613   0.082
  102SOL    HW2 1206   3.832   0.671   6.959
  103SOL     OW 1207   1.316   1.338   2.110
  103SOL    HW1 1208   1.405   1.359   2.149
  103SOL    HW2 1209   1.326   1.271   2.037
  104SOL     OW 1210   6.591   4.538   1.918
  104SOL    HW1 1211   6.613   4.622   1.968
  104SOL    HW2 1212   6.624   4.546   1.824
  105SOL     OW 1213   6.849   0.627   5.154
  105SOL    HW1 1214   6.823   0.610   5.249
  105SOL    HW2 1215   6.820   0.550   5.097
  106SOL     OW 1216   4.583   2.968   1.432
  106SOL    HW1 1217   4.592   3.054   1.383
  106SOL    HW2 1218   4.578   2.985   1.531
  107SOL     OW 1219   6.052   0.030   1.441
  107SOL    HW1 1220   5.982   0.015   1.511
  107SOL    HW2 1221   6.065   6.972   1.388
  108SOL     OW 1222   2.832   1.133   4.781
  108SOL    HW1 1223   2.799   1.222   4.812
  108SOL    HW2 1224   2.803   1.118   4.686
  109SOL     OW 1225   1.865   1.182   4.734
  109SOL    HW1 1226   1.965   1.181   4.739
  109SOL    HW2 1227   1.829   1.103   4.784
  110SOL     OW 1228   3.613   4.143   5.527
  110SOL    HW1 1229   3.680   4.209   5.563
  110SOL    HW2 1230   3.596   4.163   5.430
  111SOL     OW 1231   5.852   2.680   1.143
  111SOL    HW1 1232   5.858   2.773   1.106
  111SOL    HW2 1233   5.865   2.614   1.070
  112SOL     OW 1234   5.215   0.053   6.579
  112SOL    HW1 1235   5.259   6.995   6.547
  112SOL    HW2 1236   5.273   0.097   6.648
  113SOL     OW 1237   0.592   5.158   2.511
  113SOL    HW1 1238   0.539   5.087   2.557
  113SOL    HW2 1239   0.533   5.205   2.445
  114SOL     OW 1240   0.110   2.276   2.223
  114SOL    HW1 1241   0.052   2.230   2.290
  114SOL    HW2 1242   0.095   2.375   2.229
  115SOL     OW 1243   5.226   6.466   3.577
  115SOL    HW1 1244   5.267   6.410   3.505
  115SOL    HW2 1245   5.128   6.445   3.584
  116SOL     OW 1246   6.849   5.143   0.442
  116SOL    HW1 1247   6.940   5.116   0.412
  116SOL    HW2 1248   6.846   5.146   0.541
  117SOL     OW 1249   2.563   2.597   0.088
  117SOL    HW1 1250   2.626   2.617   0.012
  117SOL    HW2 1251   2.476   2.565   0.051
  118SOL     OW 1252   0.131   2.100   2.866
  118SOL    HW1 1253   0.110   2.019   2.811
  118SOL    HW2 1254   0.071   2.102   2.947
  119SOL     OW 1255   6.265   0.482   5.196
  119SOL    HW1 1256   6.294   0.573   5.167
  119SOL    HW2 1257   6.168   0.469   5.174
  120SOL     OW 1258   4.593   0.983   4.121
  120SOL    HW1 1259   4.679   1.007   4.076
  120SOL    HW2 1260   4.539   0.926   4.059
  121SOL     OW 1261   0.318   5.062   0.141
  121SOL    HW1 1262   0.254   4.987   0.155
  121SOL    HW2 1263   0.312   5.094   0.046
  122SOL     OW 1264   6.750   5.135   6.041
  122SOL    HW1 1265   6.662   5.182   6.034
  122SOL    HW2 1266   6.788   5.122   5.949
  123SOL     OW 1267   0.847   2.633   1.871
  123SOL    HW1 1268   0.912   2.698   1.834
  123SOL    HW2 1269   0.891   2.577   1.941
  124SOL     OW 1270   1.321   3.756   7.002
  124SOL    HW1 1271   1.275   3.844   7.019
  124SOL    HW2 1272   1.406   3.772   6.953
  125SOL     OW 1273   4.878   2.930   0.224
  125SOL    HW1 1274   4.820   2.987   0.282
  125SOL    HW2 1275   4.852   2.834   0.235
  126SOL     OW 1276   3.640   3.026   4.147
  126SOL    HW1 1277   3.555   2.984   4.176
  126SOL    HW2 1278   3.642   3.033   4.048
  127SOL     OW 1279   0.824   5.017   5.097
  127SOL    HW1 1280   0.755   5.085   5.122
  127SOL    HW2 1281   0.878   4.993   5.178
  128SOL     OW 1282   5.018   3.916   6.898
  128SOL    HW1 1283   5.035   3.828   6.943
  128SOL    HW2 1284   5.105   3.952   6.864
  129SOL     OW 1285   0.209   5.358   2.372
  129SOL    HW1 1286   0.139   5.296   2.408
  129SOL    HW2 1287   0.215   5.439   2.431
  130SOL     OW 1288   6.099   2.835   4.154
  130SOL    HW1 1289   6.132   2.822   4.248
  130SOL    HW2 1290   6.081   2.932   4.138
  131SOL     OW 1291   0.908   2.746   3.214
  131SOL    HW1 1292   0.989   2.779   3.167
  131SOL    HW2 1293   0.931   2.722   3.308
  132SOL     OW 1294   3.855   2.669   1.094
  132SOL    HW1 1295   3.891   2.731   1.164
  132SOL    HW2 1296   3.925   2.602   1.070
  133SOL     OW 1297   4.934   5.857   5.999
  133SOL    HW1 1298   4.978   5.844   6.088
  133SOL    HW2 1299   4.952   5.950   5.966
  134SOL     OW 1300   5.872   1.836   1.489
  134SOL    HW1 1301   5.870   1.935   1.500
  134SOL    HW2 1302   5.850   1.813   1.394
  135SOL     OW 1303   4.849   3.799   4.005
  135SOL    HW1 1304   4.893   3.765   3.921
  135SOL    HW2 1305   4.783   3.870   3.981
  136SOL     OW 1306   3.526   0.918   6.401
  136SOL    HW1 1307   3.472   0.839   6.430
  136SOL    HW2 1308   3.610   0.924   6.455
  137SOL     OW 1309   2.772   3.614   6.049
  137SOL    HW1 1310   2.827   3.622   5.966
  137SOL    HW2 1311   2.687   3.665   6.038
  138SOL     OW 1312   1.154   5.228   6.572
  138SOL    HW1 1313   1.162   5.326   6.556
  138SOL    HW2 1314   1.059   5.199   6.558
  139SOL     OW 1315   1.302   0.124   0.925
  139SOL    HW1 1316   1.384   0.161   0.881
  139SOL    HW2 1317   1.298   0.025   0.910
  140SOL     OW 1318   4.434   0.417   1.312
  140SOL    HW1 1319   4.428   0.326   1.353
  140SOL    HW2 1320   4.343   0.447   1.284
  141SOL     OW 1321   0.551   3.274   0.450
  141SOL    HW1 1322   0.632   3.324   0.479
  141SOL    HW2 1323   0.555   3.258   0.352
  142SOL     OW 1324   2.326   3.456   0.727
  142SOL    HW1 1325   2.285   3.365   0.715
  142SOL    HW2 1326   2.401   3.468   0.662
  143SOL     OW 1327   4.107   6.309   2.168
  143SOL    HW1 1328   4.010   6.285   2.174
  143SOL    HW2 1329   4.148   6.307   2.259
  144SOL     OW 1330   3.388   5.761   3.068
  144SOL    HW1 1331   3.313   5.783   3.131
  144SOL    HW2 1332   3.405   5.840   3.008
  145SOL     OW 1333   0.269   4.963   3.423
  145SOL    HW1 1334   0.185   4.957   3.477
  145SOL    HW2 1335   0.251   5.013   3.338
  146SOL     OW 1336   4.851   0.931   6.245
  146SOL    HW1 1337   4.941   0.909   6.284
  146SOL    HW2 1338   4.840   0.882   6.158
  147SOL     OW 1339   4.088   0.636   4.679
  147SOL    HW1 1340   4.034   0.554   4.698
  147SOL    HW2 1341   4.167   0.639   4.740
  148SOL     OW 1342   1.973   6.310   1.402
  148SOL    HW1 1343   1.933   6.228   1.444
  148SOL    HW2 1344   1.900   6.366   1.362
  149SOL     OW 1345   2.045   2.479   4.403
  149SOL    HW1 1346   2.131   2.464   4.451
  149SOL    HW2 1347   2.064   2.513   4.311
  150SOL     OW 1348   4.226   1.252   4.837
  150SOL    HW1 1349   4.267   1.343   4.847
  150SOL    HW2 1350   4.266   1.190   4.905
  151SOL     OW 1351   5.046   2.424   0.770
  151SOL    HW1 1352   5.001   2.365   0.837
  151SOL    HW2 1353   5.072   2.510   0.814
  152SOL     OW 1354   0.869   2.278   1.330
  152SOL    HW1 1355   0.827   2.255   1.242
  152SOL    HW2 1356   0.966   2.257   1.328
  153SOL     OW 1357   2.273   1.449   3.725
  153SOL    HW1 1358   2.357   1.398   3.743
  153SOL    HW2 1359   2.276   1.536   3.775
  154SOL     OW 1360   6.379   2.665   2.597
  154SOL    HW1 1361   6.403   2.728   2.671
  154SOL    HW2 1362   6.336   2.715   2.522
  155SOL     OW 1363   6.942   5.514   3.143
  155SOL    HW1 1364   7.002   5.509   3.063
  155SOL    HW2 1365   6.913   5.609   3.156
  156SOL     OW 1366   4.889   2.482   0.546
  156SOL    HW1 1367   4.936   2.434   0.471
  156SOL    HW2 1368   4.925   2.448   0.633
  157SOL     OW 1369   5.114   6.472   1.107
  157SOL    HW1 1370   5.122   6.499   1.011
  157SOL    HW2 1371   5.082   6.377   1.111
  158SOL     OW 1372   0.867   2.731   3.929
  158SOL    HW1 1373   0.889   2.666   4.003
  158SOL    HW2 1374   0.789   2.696   3.877
  159SOL     OW 1375   6.116   5.188   1.031
  159SOL    HW1 1376   6.131   5.193   0.932
  159SOL    HW2 1377   6.125   5.093   1.061
  160SOL     OW 1378   5.581   0.275   1.230
  160SOL    HW1 1379   5.498   0.229   1.261
  160SOL    HW2 1380   5.585   0.367   1.269
  161SOL     OW 1381   6.504   7.019   0.774
  161SOL    HW1 1382   6.470   0.028   0.686
  161SOL    HW2 1383   6.467   6.927   0.789
  162SOL     OW 1384   4.358   7.005   6.485
  162SOL    HW1 1385   4.356   0.029   6.571
  162SOL    HW2 1386   4.348   0.044   6.409
  163SOL     OW 1387   0.945   3.567   2.334
  163SOL    HW1 1388   0.904   3.627   2.265
  163SOL    HW2 1389   1.036   3.601   2.358
  164SOL     OW 1390   2.816   1.910   2.966
  164SOL    HW1 1391   2.777   1.986   3.018
  164SOL    HW2 1392   2.883   1.946   2.901
  165SOL     OW 1393   6.992   0.003   3.871
  165SOL    HW1 1394   6.971   0.080   3.931
  165SOL    HW2 1395   6.919   6.961   3.876
  166SOL     OW 1396   6.617   4.368   4.005
  166SOL    HW1 1397   6.691   4.424   3.968
  166SOL    HW2 1398   6.649   4.273   4.016
  167SOL     OW 1399   2.222   1.632   5.690
  167SOL    HW1 1400   2.284   1.710   5.687
  167SOL    HW2 1401   2.261   1.562   5.750
  168SOL     OW 1402   4.051   3.510   1.742
  168SOL    HW1 1403   4.114   3.462   1.681
  168SOL    HW2 1404   4.004   3.443   1.800
  169SOL     OW 1405   4.839   2.013   1.113
  169SOL    HW1 1406   4.820   1.994   1.209
  169SOL    HW2 1407   4.772   2.079   1.078
  170SOL     OW 1408   6.093   5.623   1.230
  170SOL    HW1 1409   6.047   5.706   1.260
  170SOL    HW2 1410   6.073   5.607   1.133
  171SOL     OW 1411   3.666   3.037   1.208
  171SOL    HW1 1412   3.608   2.971   1.256
  171SOL    HW2 1413   3.609   3.101   1.157
  172SOL     OW 1414   1.098   1.757   6.547
  172SOL    HW1 1415   1.080   1.807   6.462
  172SOL    HW2 1416   1.188   1.782   6.583
  173SOL     OW 1417   6.193   1.504   3.931
  173SOL    HW1 1418   6.112   1.560   3.946
  173SOL    HW2 1419   6.249   1.546   3.859
  174SOL     OW 1420   5.726   4.209   4.308
  174SOL    HW1 1421   5.704   4.264   4.389
  174SOL    HW2 1422   5.766   4.268   4.238
  175SOL     OW 1423   0.133   6.858   2.807
  175SOL    HW1 1424   0.171   6.770   2.779
  175SOL    HW2 1425   0.139   6.923   2.732
  176SOL     OW 1426   5.939   3.580   1.672
  176SOL    HW1 1427   5.983   3.492   1.654
  176SOL    HW2 1428   5.840   3.567   1.676
  177SOL     OW 1429   6.229   2.255   3.645
  177SOL    HW1 1430   6.260   2.280   3.553
  177SOL    HW2 1431   6.293   2.292   3.713
  178SOL     OW 1432   2.558   5.823   4.853
  178SOL    HW1 1433   2.513   5.860   4.772
  178SOL    HW2 1434   2.494   5.768   4.906
  179SOL     OW 1435   3.360   4.122   1.414
  179SOL    HW1 1436   3.308   4.042   1.382
  179SOL    HW2 1437   3.344   4.135   1.512
  180SOL     OW 1438   4.492   0.993   0.119
  180SOL    HW1 1439   4.506   0.903   0.077
  180SOL    HW2 1440   4.526   1.064   0.057
  181SOL     OW 1441   3.473   2.222   6.013
  181SOL    HW1 1442   3.385   2.173   6.012
  181SOL    HW2 1443   3.461   2.311   6.056
  182SOL     OW 1444   3.037   2.517   6.152
  182SOL    HW1 1445   3.043   2.440   6.089
  182SOL    HW2 1446   3.087   2.596   6.116
  183SOL     OW 1447   2.913   0.477   3.511
  183SOL    HW1 1448   2.869   0.403   3.461
  183SOL    HW2 1449   2.873   0.484   3.602
  184SOL     OW 1450   5.124   5.697   4.078
  184SOL    HW1 1451   5.161   5.627   4.139
  184SOL    HW2 1452   5.072   5.654   4.004
  185SOL     OW 1453   6.851   0.322   4.629
  185SOL    HW1 1454   6.878   0.256   4.559
  185SOL    HW2 1455   6.905   0.405   4.618
  186SOL     OW 1456   3.269   6.094   4.839
  186SOL    HW1 1457   3.250   6.000   4.812
  186SOL    HW2 1458   3.314   6.095   4.929
  187SOL     OW 1459   4.155   6.021   1.867
  187SOL    HW1 1460   4.173   5.941   1.810
  187SOL    HW2 1461   4.176   5.999   1.963
  188SOL     OW 1462   1.248   3.322   3.048
  188SOL    HW1 1463   1.163   3.360   3.085
  188SOL    HW2 1464   1.247   3.223   3.058
  189SOL     OW 1465   5.453   5.156   5.474
  189SOL    HW1 1466   5.364   5.189   5.441
  189SOL    HW2 1467   5.524   5.177   5.407
  190SOL     OW 1468   5.953   0.215   0.695
  190SOL    HW1 1469   5.986   0.124   0.722
  190SOL    HW2 1470   5.979   0.282   0.765
  191SOL     OW 1471   0.319   1.780   5.512
  191SOL    HW1 1472   0.333   1.805   5.607
  191SOL    HW2 1473   0.254   1.843   5.470
  192SOL     OW 1474   0.620   5.577   1.065
  192SOL    HW1 1475   0.525   5.558   1.043
  192SOL    HW2 1476   0.630   5.672   1.095
  193SOL     OW 1477   2.447   6.869   0.535
  193SOL    HW1 1478   2.505   6.868   0.454
  193SOL    HW2 1479   2.378   6.796   0.528
  194SOL     OW 1480   3.955   5.818   2.435
  194SOL    HW1 1481   3.957   5.767   2.521
  194SOL    HW2 1482   4.044   5.810   2.390
  195SOL     OW 1483   4.009   0.660   1.404
  195SOL    HW1 1484   4.009   0.590   1.475
  195SOL    HW2 1485   3.924   0.713   1.409
  196SOL     OW 1486   3.704   2.299   0.716
  196SOL    HW1 1487   3.697   2.210   0.762
  196SOL    HW2 1488   3.646   2.366   0.762
  197SOL     OW 1489   1.760   5.998   0.452
  197SOL    HW1 1490   1.691   6.066   0.428
  197SOL    HW2 1491   1.806   6.026   0.536
  198SOL     OW 1492   3.862   6.960   6.736
  198SOL    HW1 1493   3.926   0.001   6.773
  198SOL    HW2 1494   3.791   7.008   6.684
  199SOL     OW 1495   0.463   0.575   2.793
  199SOL    HW1 1496   0.439   0.523   2.875
  199SOL    HW2 1497   0.533   0.526   2.741
  200SOL     OW 1498   0.958   4.599   3.131
  200SOL    HW1 1499   0.878   4.545   3.157
  200SOL    HW2 1500   0.996   4.643   3.212
  201SOL     OW 1501   4.960   1.269   6.357
  201SOL    HW1 1502   4.865   1.243   6.373
  201SOL    HW2 1503   5.021   1.201   6.398
  202SOL     OW 1504   3.504   1.327   2.282
  202SOL    HW1 1505   3.462   1.417   2.268
  202SOL    HW2 1506   3.549   1.298   2.198
  203SOL     OW 1507   5.819   2.697   0.017
  203SOL    HW1 1508   5.801   2.720   0.113
  203SOL    HW2 1509   5.773   2.763   6.984
  204SOL     OW 1510   2.692   6.626   1.674
  204SOL    HW1 1511   2.646   6.650   1.760
  204SOL    HW2 1512   2.720   6.710   1.627
  205SOL     OW 1513   5.811   0.981   0.778
  205SOL    HW1 1514   5.771   1.007   0.690
  205SOL    HW2 1515   5.843   0.886   0.774
  206SOL     OW 1516   0.789   5.232   1.809
  206SOL    HW1 1517   0.864   5.279   1.762
  206SOL    HW2 1518   0.824   5.188   1.892
  207SOL     OW 1519   4.654   1.549   5.314
  207SOL    HW1 1520   4.613   1.508   5.233
  207SOL    HW2 1521   4.609   1.636   5.333
  208SOL     OW 1522   3.763   4.990   6.254
  208SOL    HW1 1523   3.753   5.071   6.197
  208SOL    HW2 1524   3.691   4.989   6.323
  209SOL     OW 1525   6.873   5.425   5.040
  209SOL    HW1 1526   6.775   5.446   5.041
  209SOL    HW2 1527   6.886   5.328   5.058
  210SOL     OW 1528   3.905   2.149   2.198
  210SOL    HW1 1529   3.994   2.181   2.164
  210SOL    HW2 1530   3.834   2.173   2.132
  211SOL     OW 1531   1.245   2.059   1.863
  211SOL    HW1 1532   1.179   2.134   1.861
  211SOL    HW2 1533   1.245   2.016   1.953
  212SOL     OW 1534   0.869   4.701   4.333
  212SOL    HW1 1535   0.832   4.740   4.416
  212SOL    HW2 1536   0.834   4.751   4.253
  213SOL     OW 1537   4.376   2.631   6.497
  213SOL    HW1 1538   4.290   2.603   6.538
  213SOL    HW2 1539   4.446   2.561   6.512
  214SOL     OW 1540   1.434   6.750   2.937
  214SOL    HW1 1541   1.383   6.704   3.009
  214SOL    HW2 1542   1.379   6.752   2.853
  215SOL     OW 1543   3.513   3.363   2.824
  215SOL    HW1 1544   3.521   3.295   2.897
  215SOL    HW2 1545   3.556   3.328   2.741
  216SOL     OW 1546   1.518   6.303   5.704
  216SOL    HW1 1547   1.448   6.276   5.638
  216SOL    HW2 1548   1.503   6.398   5.731
  217SOL     OW 1549   0.131   2.882   3.894
  217SOL    HW1 1550   0.078   2.890   3.979
  217SOL    HW2 1551   0.214   2.829   3.912
  218SOL     OW 1552   1.893   4.090   5.512
  218SOL    HW1 1553   1.802   4.127   5.531
  218SOL    HW2 1554   1.963   4.147   5.555
  219SOL     OW 1555   4.364   5.374   0.737
  219SOL    HW1 1556   4.299   5.370   0.813
  219SOL    HW2 1557   4.455   5.397   0.772
  220SOL     OW 1558   1.819   4.730   0.804
  220SOL    HW1 1559   1.768   4.814   0.787
  220SOL    HW2 1560   1.872   4.706   0.722
  221SOL     OW 1561   6.607   2.793   3.810
  221SOL    HW1 1562   6.530   2.828   3.864
  221SOL    HW2 1563   6.573   2.729   3.741
  222SOL     OW 1564   1.052   6.256   4.737
  222SOL    HW1 1565   0.970   6.279   4.789
  222SOL    HW2 1566   1.099   6.340   4.710
  223SOL     OW 1567   5.993   4.244   2.706
  223SOL    HW1 1568   5.971   4.340   2.687
  223SOL    HW2 1569   6.084   4.238   2.747
  224SOL     OW 1570   3.597   2.039   2.210
  224SOL    HW1 1571   3.639   2.098   2.141
  224SOL    HW2 1572   3.497   2.047   2.205
  225SOL     OW 1573   0.316   0.113   1.216
  225SOL    HW1 1574   0.395   0.173   1.220
  225SOL    HW2 1575   0.288   0.100   1.121
  226SOL     OW 1576   0.351   5.962   1.333
  226SOL    HW1 1577   0.265   6.011   1.323
  226SOL    HW2 1578   0.426   6.020   1.301
  227SOL     OW 1579   1.839   2.726   3.208
  227SOL    HW1 1580   1.898   2.785   3.263
  227SOL    HW2 1581   1.819   2.772   3.121
  228SOL     OW 1582   3.962   6.728   2.556
  228SOL    HW1 1583   4.031   6.656   2.563
  228SOL    HW2 1584   3.984   6.803   2.618
  229SOL     OW 1585   6.281   5.946   3.124
  229SOL    HW1 1586   6.220   6.025   3.127
  229SOL    HW2 1587   6.241   5.873   3.068
  230SOL     OW 1588   1.155   4.218   5.923
  230SOL    HW1 1589   1.088   4.155   5.962
  230SOL    HW2 1590   1.246   4.193   5.955
  231SOL     OW 1591   0.620   2.084   0.301
  231SOL    HW1 1592   0.597   2.172   0.342
  231SOL    HW2 1593   0.581   2.010   0.355
  232SOL     OW 1594   1.929   4.475   6.584
  232SOL    HW1 1595   1.891   4.401   6.639
  232SOL    HW2 1596   1.855   4.534   6.551
  233SOL     OW 1597   3.090   1.111   5.967
  233SOL    HW1 1598   3.004   1.062   5.979
  233SOL    HW2 1599   3.104   1.175   6.042
  234SOL     OW 1600   2.838   5.656   6.882
  234SOL    HW1 1601   2.923   5.619   6.919
  234SOL    HW2 1602   2.852   5.750   6.852
  235SOL     OW 1603   3.904   2.987   4.292
  235SOL    HW1 1604   3.920   3.083   4.315
  235SOL    HW2 1605   3.816   2.978   4.246
  236SOL     OW 1606   6.690   1.873   5.559
  236SOL    HW1 1607   6.785   1.847   5.577
  236SOL    HW2 1608   6.684   1.920   5.471
  237SOL     OW 1609   0.138   6.557   2.008
  237SOL    HW1 1610   0.050   6.512   1.999
  237SOL    HW2 1611   0.188   6.521   2.087
  238SOL     OW 1612   6.908   2.364   2.471
  238SOL    HW1 1613   6.904   2.384   2.569
  238SOL    HW2 1614   6.923   2.448   2.420
  239SOL     OW 1615   0.386   5.658   0.811
  239SOL    HW1 1616   0.472   5.680   0.767
  239SOL    HW2 1617   0.323   5.619   0.744
  240SOL     OW 1618   6.877   2.753   5.590
  240SOL    HW1 1619   6.880   2.839   5.641
  240SOL    HW2 1620   6.788   2.709   5.604
  241SOL     OW 1621   6.662   1.726   4.069
  241SOL    HW1 1622   6.618   1.644   4.105
  241SOL    HW2 1623   6.593   1.782   4.023
  242SOL     OW 1624   2.121   2.702   3.566
  242SOL    HW1 1625   2.184   2.778   3.554
  242SOL    HW2 1626   2.134   2.637   3.491
  243SOL     OW 1627   3.726   1.030   5.964
  243SOL    HW1 1628   3.697   1.011   5.871
  243SOL    HW2 1629   3.811   1.083   5.963
  244SOL     OW 1630   6.527   0.498   6.111
  244SOL    HW1 1631   6.597   0.434   6.142
  244SOL    HW2 1632   6.570   0.584   6.084
  245SOL     OW 1633   5.600   2.977   3.664
  245SOL    HW1 1634   5.610   2.989   3.763
  245SOL    HW2 1635   5.576   2.883   3.643
  246SOL     OW 1636   4.872   3.469   3.812
  246SOL    HW1 1637   4.925   3.553   3.826
  246SOL    HW2 1638   4.846   3.462   3.716
  247SOL     OW 1639   3.047   0.244   3.766
  247SOL    HW1 1640   2.963   0.213   3.811
  247SOL    HW2 1641   3.082   0.325   3.813
  248SOL     OW 1642   6.548   1.795   1.945
  248SOL    HW1 1643   6.620   1.766   1.882
  248SOL    HW2 1644   6.483   1.853   1.896
  249SOL     OW 1645   2.099   6.363   4.131
  249SOL    HW1 1646   2.197   6.349   4.121
  249SOL    HW2 1647   2.056   6.279   4.163
  250SOL     OW 1648   5.311   3.187   6.442
  250SOL    HW1 1649   5.395   3.229   6.477
  250SOL    HW2 1650   5.271   3.247   6.372
  251SOL     OW 1651   1.890   2.325   0.944
  251SOL    HW1 1652   1.908   2.375   0.860
  251SOL    HW2 1653   1.969   2.269   0.967
  252SOL     OW 1654   0.472   1.616   0.541
  252SOL    HW1 1655   0.453   1.521   0.515
  252SOL    HW2 1656   0.541   1.618   0.613
  253SOL     OW 1657   1.605   3.958   5.574
  253SOL    HW1 1658   1.614   3.861   5.598
  253SOL    HW2 1659   1.611   3.969   5.475
  254SOL     OW 1660   5.157   3.703   5.732
  254SOL    HW1 1661   5.075   3.646   5.741
  254SOL    HW2 1662   5.231   3.662   5.785
  255SOL     OW 1663   3.459   2.004   3.265
  255SOL    HW1 1664   3.489   2.044   3.178
  255SOL    HW2 1665   3.387   2.062   3.304
  256SOL     OW 1666   0.021   5.755   0.829
  256SOL    HW1 1667   0.030   5.808   0.914
  256SOL    HW2 1668   0.064   5.666   0.841
  257SOL     OW 1669   3.223   5.549   6.448
  257SOL    HW1 1670   3.229   5.488   6.528
  257SOL    HW2 1671   3.279   5.630   6.463
  258SOL     OW 1672   4.819   4.037   4.319
  258SOL    HW1 1673   4.826   3.974   4.241
  258SOL    HW2 1674   4.886   4.012   4.388
  259SOL     OW 1675   1.196   2.277   3.550
  259SOL    HW1 1676   1.259   2.326   3.610
  259SOL    HW2 1677   1.234   2.187   3.527
  260SOL     OW 1678   6.508   6.771   5.687
  260SOL    HW1 1679   6.529   6.862   5.723
  260SOL    HW2 1680   6.411   6.752   5.702
  261SOL     OW 1681   0.426   1.543   3.063
  261SOL    HW1 1682   0.344   1.549   3.120
  261SOL    HW2 1683   0.469   1.633   3.056
  262SOL     OW 1684   2.181   4.663   1.893
  262SOL    HW1 1685   2.218   4.641   1.983
  262SOL    HW2 1686   2.154   4.759   1.891
  263SOL     OW 1687   6.494   2.261   4.952
  263SOL    HW1 1688   6.430   2.199   4.997
  263SOL    HW2 1689   6.588   2.229   4.966
  264SOL     OW 1690   3.441   3.694   6.290
  264SOL    HW1 1691   3.373   3.622   6.280
  264SOL    HW2 1692   3.524   3.657   6.332
  265SOL     OW 1693   5.459   5.875   4.896
  265SOL    HW1 1694   5.412   5.795   4.859
  265SOL    HW2 1695   5.414   5.904   4.980
  266SOL     OW 1696   3.310   2.699   6.252
  266SOL    HW1 1697   3.390   2.748   6.216
  266SOL    HW2 1698   3.235   2.763   6.265
  267SOL     OW 1699   1.546   1.393   6.244
  267SOL    HW1 1700   1.562   1.477   6.296
  267SOL    HW2 1701   1.571   1.406   6.149
  268SOL     OW 1702   3.106   5.752   3.697
  268SOL    HW1 1703   3.078   5.656   3.703
  268SOL    HW2 1704   3.179   5.769   3.762
  269SOL     OW 1705   1.549   0.901   4.882
  269SOL    HW1 1706   1.455   0.926   4.858
  269SOL    HW2 1707   1.574   0.816   4.836
  270SOL     OW 1708   4.932   6.634   4.674
  270SOL    HW1 1709   4.968   6.606   4.584
  270SOL    HW2 1710   4.860   6.570   4.702
  271SOL     OW 1711   1.182   1.468   0.528
  271SOL    HW1 1712   1.255   1.411   0.564
  271SOL    HW2 1713   1.193   1.562   0.559
  272SOL     OW 1714   5.216   5.729   1.743
  272SOL    HW1 1715   5.184   5.701   1.834
  272SOL    HW2 1716   5.157   5.687   1.674
  273SOL     OW 1717   2.923   6.621   4.224
  273SOL    HW1 1718   2.836   6.672   4.226
  273SOL    HW2 1719   2.928   6.560   4.303
  274SOL     OW 1720   6.077   1.631   0.931
  274SOL    HW1 1721   6.007   1.657   0.865
  274SOL    HW2 1722   6.069   1.533   0.952
  275SOL     OW 1723   5.348   6.172   5.841
  275SOL    HW1 1724   5.379   6.208   5.753
  275SOL    HW2 1725   5.387   6.081   5.855
  276SOL     OW 1726   6.977   6.399   4.066
  276SOL    HW1 1727   0.011   6.350   4.003
  276SOL    HW2 1728   6.901   6.339   4.092
  277SOL     OW 1729   4.643   2.398   5.455
  277SOL    HW1 1730   4.643   2.496   5.437
  277SOL    HW2 1731   4.585   2.352   5.388
  278SOL     OW 1732   5.834   3.987   3.330
  278SOL    HW1 1733   5.874   3.920   3.268
  278SOL    HW2 1734   5.873   3.975   3.421
  279SOL     OW 1735   0.331   3.609   4.193
  279SOL    HW1 1736   0.307   3.668   4.270
  279SOL    HW2 1737   0.292   3.518   4.207
  280SOL     OW 1738   3.892   1.348   3.549
  280SOL    HW1 1739   3.834   1.322   3.472
  280SOL    HW2 1740   3.929   1.265   3.592
  281SOL     OW 1741   5.229   6.534   4.851
  281SOL    HW1 1742   5.182   6.552   4.765
  281SOL    HW2 1743   5.291   6.609   4.872
  282SOL     OW 1744   1.479   2.457   0.262
  282SOL    HW1 1745   1.462   2.405   0.345
  282SOL    HW2 1746   1.578   2.463   0.245
  283SOL     OW 1747   5.014   3.234   4.799
  283SOL    HW1 1748   4.990   3.331   4.811
  283SOL    HW2 1749   5.113   3.223   4.807
  284SOL     OW 1750   5.120   5.691   2.685
  284SOL    HW1 1751   5.151   5.624   2.617
  284SOL    HW2 1752   5.033   5.731   2.655
  285SOL     OW 1753   4.093   0.842   5.989
  285SOL    HW1 1754   4.049   0.914   5.935
  285SOL    HW2 1755   4.132   0.774   5.927
  286SOL     OW 1756   3.024   4.851   5.579
  286SOL    HW1 1757   3.097   4.878   5.517
  286SOL    HW2 1758   3.010   4.752   5.574
  287SOL     OW 1759   3.640   0.081   0.231
  287SOL    HW1 1760   3.555   0.133   0.243
  287SOL    HW2 1761   3.672   0.092   0.137
  288SOL     OW 1762   4.623   1.584   0.799
  288SOL    HW1 1763   4.551   1.654   0.811
  288SOL    HW2 1764   4.704   1.627   0.761
  289SOL     OW 1765   6.369   5.817   4.294
  289SOL    HW1 1766   6.287   5.761   4.281
  289SOL    HW2 1767   6.392   5.822   4.391
  290SOL     OW 1768   3.511   1.072   6.158
  290SOL    HW1 1769   3.602   1.069   6.118
  290SOL    HW2 1770   3.512   1.029   6.248
  291SOL     OW 1771   3.726   0.655   5.434
  291SOL    HW1 1772   3.800   0.613   5.487
  291SOL    HW2 1773   3.661   0.698   5.497
  292SOL     OW 1774   4.466   0.418   3.815
  292SOL    HW1 1775   4.438   0.361   3.892
  292SOL    HW2 1776   4.559   0.453   3.832
  293SOL     OW 1777   5.458   6.379   2.661
  293SOL    HW1 1778   5.441   6.469   2.619
  293SOL    HW2 1779   5.548   6.378   2.703
  294SOL     OW 1780   6.536   1.122   6.504
  294SOL    HW1 1781   6.624   1.145   6.462
  294SOL    HW2 1782   6.499   1.203   6.549
  295SOL     OW 1783   1.152   0.584   4.482
  295SOL    HW1 1784   1.085   0.626   4.421
  295SOL    HW2 1785   1.106   0.552   4.565
  296SOL     OW 1786   0.990   2.245   1.951
  296SOL    HW1 1787   0.987   2.290   1.861
  296SOL    HW2 1788   0.938   2.160   1.948
  297SOL     OW 1789   5.547   3.788   3.300
  297SOL    HW1 1790   5.613   3.745   3.238
  297SOL    HW2 1791   5.538   3.885   3.277
  298SOL     OW 1792   4.241   0.574   6.038
  298SOL    HW1 1793   4.253   0.651   6.101
  298SOL    HW2 1794   4.328   0.555   5.992
  299SOL     OW 1795   1.265   0.741   6.631
  299SOL    HW1 1796   1.198   0.757   6.704
  299SOL    HW2 1797   1.353   0.716   6.671
  300SOL     OW 1798   4.146   0.043   3.460
  300SOL    HW1 1799   4.246   0.036   3.464
  300SOL    HW2 1800   4.106   7.021   3.538
  301SOL     OW 1801   6.406   5.347   6.732
  301SOL    HW1 1802   6.400   5.440   6.696
  301SOL    HW2 1803   6.386   5.347   6.830
  302SOL     OW 1804   6.868   5.852   2.351
  302SOL    HW1 1805   6.824   5.866   2.262
  302SOL    HW2 1806   6.900   5.939   2.387
  303SOL     OW 1807   5.338   5.211   3.597
  303SOL    HW1 1808   5.314   5.121   3.633
  303SOL    HW2 1809   5.403   5.201   3.522
  304SOL     OW 1810   2.627   5.997   5.049
  304SOL    HW1 1811   2.551   5.995   5.113
  304SOL    HW2 1812   2.598   5.959   4.961
  305SOL     OW 1813   0.906   2.404   1.730
  305SOL    HW1 1814   0.865   2.470   1.792
  305SOL    HW2 1815   0.861   2.409   1.640
  306SOL     OW 1816   0.084   0.017   3.420
  306SOL    HW1 1817   0.102   6.981   3.343
  306SOL    HW2 1818   0.139   0.099   3.409
  307SOL     OW 1819   3.658   3.297   4.229
  307SOL    HW1 1820   3.740   3.343   4.194
  307SOL    HW2 1821   3.654   3.204   4.193
  308SOL     OW 1822   6.228   2.209   2.837
  308SOL    HW1 1823   6.224   2.301   2.797
  308SOL    HW2 1824   6.317   2.196   2.882
  309SOL     OW 1825   1.718   5.786   6.609
  309SOL    HW1 1826   1.661   5.835   6.544
  309SOL    HW2 1827   1.777   5.852   6.657
  310SOL     OW 1828   5.551   6.607   5.092
  310SOL    HW1 1829   5.557   6.558   5.005
  310SOL    HW2 1830   5.608   6.689   5.089
  311SOL     OW 1831   1.524   5.735   2.512
  311SOL    HW1 1832   1.547   5.752   2.416
  311SOL    HW2 1833   1.608   5.739   2.567
  312SOL     OW 1834   3.464   0.229   3.866
  312SOL    HW1 1835   3.412   0.180   3.796
  312SOL    HW2 1836   3.446   0.327   3.858
  313SOL     OW 1837   3.062   3.867   2.908
  313SOL    HW1 1838   3.083   3.886   2.813
  313SOL    HW2 1839   3.124   3.917   2.968
  314SOL     OW 1840   3.232   5.775   5.957
  314SOL    HW1 1841   3.211   5.818   6.045
  314SOL    HW2 1842   3.227   5.844   5.884
  315SOL     OW 1843   6.042   1.220   4.688
  315SOL    HW1 1844   6.130   1.266   4.677
  315SOL    HW2 1845   6.056   1.133   4.735
  316SOL     OW 1846   4.200   1.067   6.166
  316SOL    HW1 1847   4.290   1.086   6.127
  316SOL    HW2 1848   4.156   0.994   6.113
  317SOL     OW 1849   1.130   1.898   1.062
  317SOL    HW1 1850   1.151   1.803   1.087
  317SOL    HW2 1851   1.189   1.926   0.987
  318SOL     OW 1852   0.506   0.074   5.244
  318SOL    HW1 1853   0.554   0.138   5.185
  318SOL    HW2 1854   0.432   0.121   5.292
  319SOL     OW 1855   0.218   1.236   3.655
  319SOL    HW1 1856   0.179   1.259   3.744
  319SOL    HW2 1857   0.318   1.248   3.659
  320SOL     OW 1858   5.430   1.749   6.441
  320SOL    HW1 1859   5.440   1.746   6.342
  320SOL    HW2 1860   5.517   1.723   6.485
  321SOL     OW 1861   5.046   2.667   0.902
  321SOL    HW1 1862   5.038   2.651   1.001
  321SOL    HW2 1863   4.978   2.734   0.873
  322SOL     OW 1864   3.026   2.904   6.559
  322SOL    HW1 1865   3.035   2.959   6.642
  322SOL    HW2 1866   3.049   2.809   6.580
  323SOL     OW 1867   2.239   3.998   2.549
  323SOL    HW1 1868   2.334   3.964   2.555
  323SOL    HW2 1869   2.210   3.998   2.454
  324SOL     OW 1870   0.422   0.166   2.628
  324SOL    HW1 1871   0.499   0.106   2.604
  324SOL    HW2 1872   0.422   0.246   2.568
  325SOL     OW 1873   0.065   4.311   0.568
  325SOL    HW1 1874   7.003   4.326   0.614
  325SOL    HW2 1875   0.139   4.337   0.630
  326SOL     OW 1876   0.732   6.264   6.951
  326SOL    HW1 1877   0.745   6.179   6.900
  326SOL    HW2 1878   0.669   6.248   0.001
  327SOL     OW 1879   5.129   5.436   5.130
  327SOL    HW1 1880   5.077   5.521   5.125
  327SOL    HW2 1881   5.200   5.445   5.200
  328SOL     OW 1882   1.317   4.402   3.140
  328SOL    HW1 1883   1.332   4.452   3.225
  328SOL    HW2 1884   1.404   4.389   3.093
  329SOL     OW 1885   3.203   3.481   1.710
  329SOL    HW1 1886   3.248   3.530   1.785
  329SOL    HW2 1887   3.198   3.384   1.733
  330SOL     OW 1888   2.761   4.507   0.735
  330SOL    HW1 1889   2.721   4.598   0.743
  330SOL    HW2 1890   2.836   4.509   0.669
  331SOL     OW 1891   6.347   5.073   5.905
  331SOL    HW1 1892   6.341   5.161   5.858
  331SOL    HW2 1893   6.380   5.086   5.998
  332SOL     OW 1894   5.562   2.494   3.074
  332SOL    HW1 1895   5.571   2.442   3.158
  332SOL    HW2 1896   5.618   2.451   3.002
  333SOL     OW 1897   3.234   0.994   5.312
  333SOL    HW1 1898   3.212   1.006   5.215
  333SOL    HW2 1899   3.178   0.921   5.350
  334SOL     OW 1900   3.959   3.733   3.246
  334SOL    HW1 1901   3.990   3.640   3.228
  334SOL    HW2 1902   3.859   3.737   3.242
  335SOL     OW 1903   4.291   1.555   1.045
  335SOL    HW1 1904   4.333   1.580   0.957
  335SOL    HW2 1905   4.261   1.638   1.092
  336SOL     OW 1906   2.996   1.415   4.389
  336SOL    HW1 1907   3.072   1.414   4.323
  336SOL    HW2 1908   3.029   1.449   4.477
  337SOL     OW 1909   1.271   0.828   5.299
  337SOL    HW1 1910   1.212   0.850   5.377
  337SOL    HW2 1911   1.291   0.912   5.249
  338SOL     OW 1912   4.399   1.297   1.551
  338SOL    HW1 1913   4.456   1.362   1.602
  338SOL    HW2 1914   4.347   1.346   1.481
  339SOL     OW 1915   4.191   5.918   5.723
  339SOL    HW1 1916   4.102   5.904   5.680
  339SOL    HW2 1917   4.180   5.925   5.822
  340SOL     OW 1918   4.953   1.772   4.115
  340SOL    HW1 1919   5.045   1.773   4.154
  340SOL    HW2 1920   4.960   1.762   4.016
  341SOL     OW 1921   6.692   6.199   3.130
  341SOL    HW1 1922   6.594   6.199   3.109
  341SOL    HW2 1923   6.721   6.291   3.153
  342SOL     OW 1924   4.940   2.182   2.306
  342SOL    HW1 1925   4.961   2.193   2.209
  342SOL    HW2 1926   4.843   2.200   2.322
  343SOL     OW 1927   6.823   6.606   2.531
  343SOL    HW1 1928   6.805   6.651   2.618
  343SOL    HW2 1929   6.777   6.517   2.529
  344SOL     OW 1930   0.852   1.752   0.823
  344SOL    HW1 1931   0.884   1.743   0.917
  344SOL    HW2 1932   0.878   1.671   0.771
  345SOL     OW 1933   6.651   2.816   4.310
  345SOL    HW1 1934   6.644   2.764   4.224
  345SOL    HW2 1935   6.596   2.899   4.303
  346SOL     OW 1936   2.487   6.593   3.690
  346SOL    HW1 1937   2.396   6.559   3.712
  346SOL    HW2 1938   2.491   6.691   3.708
  347SOL     OW 1939   2.352   4.827   0.611
  347SOL    HW1 1940   2.361   4.825   0.511
  347SOL    HW2 1941   2.258   4.853   0.635
  348SOL     OW 1942   4.664   5.313   1.430
  348SOL    HW1 1943   4.572   5.281   1.453
  348SOL    HW2 1944   4.658   5.392   1.370
  349SOL     OW 1945   5.858   4.068   0.871
  349SOL    HW1 1946   5.934   4.102   0.815
  349SOL    HW2 1947   5.895   4.029   0.956
  350SOL     OW 1948   3.696   2.885   0.488
  350SOL    HW1 1949   3.777   2.827   0.489
  350SOL    HW2 1950   3.630   2.849   0.421
  351SOL     OW 1951   3.272   4.617   1.078
  351SOL    HW1 1952   3.274   4.535   1.135
  351SOL    HW2 1953   3.341   4.611   1.007
  352SOL     OW 1954   4.620   0.478   2.330
  352SOL    HW1 1955   4.714   0.488   2.299
  352SOL    HW2 1956   4.619   0.445   2.424
  353SOL     OW 1957   1.666   0.150   6.528
  353SOL    HW1 1958   1.567   0.161   6.517
  353SOL    HW2 1959   1.714   0.215   6.468
  354SOL     OW 1960   0.307   2.225   0.171
  354SOL    HW1 1961   0.370   2.160   0.128
  354SOL    HW2 1962   0.300   2.204   0.269
  355SOL     OW 1963   1.304   1.942   2.802
  355SOL    HW1 1964   1.294   1.970   2.897
  355SOL    HW2 1965   1.215   1.917   2.764
  356SOL     OW 1966   1.853   1.043   5.756
  356SOL    HW1 1967   1.820   0.991   5.678
  356SOL    HW2 1968   1.896   0.981   5.822
  357SOL     OW 1969   4.962   0.247   4.951
  357SOL    HW1 1970   5.052   0.268   4.990
  357SOL    HW2 1971   4.922   0.169   5.000
  358SOL     OW 1972   3.662   5.808   6.595
  358SOL    HW1 1973   3.566   5.789   6.578
  358SOL    HW2 1974   3.671   5.892   6.649
  359SOL     OW 1975   1.916   2.098   2.383
  359SOL    HW1 1976   1.830   2.052   2.365
  359SOL    HW2 1977   1.912   2.143   2.472
  360SOL     OW 1978   0.812   4.856   4.127
  360SOL    HW1 1979   0.739   4.925   4.135
  360SOL    HW2 1980   0.812   4.819   4.034
  361SOL     OW 1981   6.847   2.078   2.657
  361SOL    HW1 1982   6.836   2.147   2.728
  361SOL    HW2 1983   6.924   2.018   2.681
  362SOL     OW 1984   3.804   3.842   0.772
  362SOL    HW1 1985   3.715   3.829   0.816
  362SOL    HW2 1986   3.790   3.890   0.685
  363SOL     OW 1987   5.498   5.431   1.343
  363SOL    HW1 1988   5.544   5.348   1.313
  363SOL    HW2 1989   5.454   5.475   1.265
  364SOL     OW 1990   1.046   6.625   6.537
  364SOL    HW1 1991   1.094   6.647   6.621
  364SOL    HW2 1992   0.949   6.616   6.555
  365SOL     OW 1993   4.921   1.981   3.226
  365SOL    HW1 1994   5.012   1.941   3.221
  365SOL    HW2 1995   4.854   1.918   3.187
  366SOL     OW 1996   5.481   1.300   6.716
  366SOL    HW1 1997   5.458   1.329   6.809
  366SOL    HW2 1998   5.403   1.318   6.655
  367SOL     OW 1999   5.972   1.612   6.180
  367SOL    HW1 2000   5.988   1.650   6.271
  367SOL    HW2 2001   5.875   1.586   6.171
  368SOL     OW 2002   6.928   2.318   5.652
  368SOL    HW1 2003   6.863   2.358   5.588
  368SOL    HW2 2004   6.889   2.236   5.693
  369SOL     OW 2005   6.892   3.769   1.745
  369SOL    HW1 2006   6.867   3.818   1.661
  369SOL    HW2 2007   6.822   3.785   1.815
  370SOL     OW 2008   1.417   3.155   3.924
  370SOL    HW1 2009   1.456   3.066   3.950
  370SOL    HW2 2010   1.318   3.152   3.933
  371SOL     OW 2011   0.803   4.746   6.855
  371SOL    HW1 2012   0.857   4.667   6.824
  371SOL    HW2 2013   0.835   4.774   6.946
  372SOL     OW 2014   3.914   6.131   6.365
  372SOL    HW1 2015   4.004   6.151   6.402
  372SOL    HW2 2016   3.897   6.032   6.370
  373SOL     OW 2017   5.733   5.300   3.764
  373SOL    HW1 2018   5.795   5.377   3.776
  373SOL    HW2 2019   5.728   5.275   3.667
  374SOL     OW 2020   2.691   1.344   2.892
  374SOL    HW1 2021   2.766   1.277   2.891
  374SOL    HW2 2022   2.719   1.424   2.944
  375SOL     OW 2023   1.206   5.349   4.487
  375SOL    HW1 2024   1.195   5.259   4.530
  375SOL    HW2 2025   1.218   5.338   4.389
  376SOL     OW 2026   2.958   1.023   3.688
  376SOL    HW1 2027   3.002   1.091   3.747
  376SOL    HW2 2028   3.005   1.021   3.600
  377SOL     OW 2029   1.423   1.827   7.020
  377SOL    HW1 2030   1.521   1.836   0.007
  377SOL    HW2 2031   1.391   1.899   6.958
  378SOL     OW 2032   4.099   0.961   2.034
  378SOL    HW1 2033   4.196   0.941   2.020
  378SOL    HW2 2034   4.078   0.954   2.132
  379SOL     OW 2035   5.423   1.831   6.145
  379SOL    HW1 2036   5.523   1.837   6.138
  379SOL    HW2 2037   5.393   1.741   6.112
  380SOL     OW 2038   4.297   2.630   0.281
  380SOL    HW1 2039   4.258   2.571   0.211
  380SOL    HW2 2040   4.348   2.704   0.236
  381SOL     OW 2041   1.893   3.693   3.284
  381SOL    HW1 2042   1.978   3.701   3.231
  381SOL    HW2 2043   1.904   3.741   3.371
  382SOL     OW 2044   4.569   0.774   0.004
  382SOL    HW1 2045   4.572   0.790   6.932
  382SOL    HW2 2046   4.604   0.683   0.025
  383SOL     OW 2047   5.314   1.782   0.698
  383SOL    HW1 2048   5.355   1.760   0.610
  383SOL    HW2 2049   5.224   1.738   0.705
  384SOL     OW 2050   6.256   3.773   4.827
  384SOL    HW1 2051   6.303   3.860   4.811
  384SOL    HW2 2052   6.270   3.713   4.748
  385SOL     OW 2053   4.028   3.274   0.202
  385SOL    HW1 2054   4.070   3.353   0.247
  385SOL    HW2 2055   3.935   3.298   0.173
  386SOL     OW 2056   3.802   6.091   3.738
  386SOL    HW1 2057   3.726   6.054   3.684
  386SOL    HW2 2058   3.886   6.090   3.683
  387SOL     OW 2059   3.390   6.392   3.361
  387SOL    HW1 2060   3.347   6.377   3.450
  387SOL    HW2 2061   3.334   6.455   3.307
  388SOL     OW 2062   1.679   4.538   6.833
  388SOL    HW1 2063   1.653   4.545   6.929
  388SOL    HW2 2064   1.640   4.615   6.782
  389SOL     OW 2065   2.929   3.397   3.142
  389SOL    HW1 2066   2.968   3.470   3.086
  389SOL    HW2 2067   2.886   3.436   3.223
  390SOL     OW 2068   2.155   1.228   3.788
  390SOL    HW1 2069   2.213   1.307   3.773
  390SOL    HW2 2070   2.100   1.210   3.706
  391SOL     OW 2071   0.705   2.757   6.922
  391SOL    HW1 2072   0.717   2.815   7.002
  391SOL    HW2 2073   0.782   2.769   6.860
  392SOL     OW 2074   3.053   5.586   2.834
  392SOL    HW1 2075   3.022   5.492   2.845
  392SOL    HW2 2076   3.147   5.595   2.868
  393SOL     OW 2077   5.716   4.179   4.783
  393SOL    HW1 2078   5.716   4.087   4.745
  393SOL    HW2 2079   5.788   4.186   4.852
  394SOL     OW 2080   2.313   0.426   6.667
  394SOL    HW1 2081   2.294   0.369   6.747
  394SOL    HW2 2082   2.287   0.521   6.687
  395SOL     OW 2083   6.413   3.147   0.892
  395SOL    HW1 2084   6.336   3.211   0.884
  395SOL    HW2 2085   6.467   3.171   0.973
  396SOL     OW 2086   2.965   3.266   4.588
  396SOL    HW1 2087   2.920   3.271   4.499
  396SOL    HW2 2088   2.950   3.175   4.628
  397SOL     OW 2089   4.725   2.272   6.618
  397SOL    HW1 2090   4.669   2.191   6.633
  397SOL    HW2 2091   4.665   2.351   6.604
  398SOL     OW 2092   1.263   5.363   1.824
  398SOL    HW1 2093   1.326   5.287   1.836
  398SOL    HW2 2094   1.259   5.417   1.908
  399SOL     OW 2095   5.323   5.127   2.057
  399SOL    HW1 2096   5.307   5.174   1.970
  399SOL    HW2 2097   5.421   5.110   2.068
  400SOL     OW 2098   1.294   5.665   5.464
  400SOL    HW1 2099   1.363   5.735   5.483
  400SOL    HW2 2100   1.330   5.601   5.396
  401SOL     OW 2101   5.332   1.334   6.498
  401SOL    HW1 2102   5.255   1.271   6.489
  401SOL    HW2 2103   5.298   1.428   6.498
  402SOL     OW 2104   5.902   4.859   1.077
  402SOL    HW1 2105   5.931   4.897   0.990
  402SOL    HW2 2106   5.978   4.861   1.141
  403SOL     OW 2107   5.123   3.356   6.285
  403SOL    HW1 2108   5.125   3.420   6.362
  403SOL    HW2 2109   5.054   3.385   6.219
  404SOL     OW 2110   0.233   0.141   4.854
  404SOL    HW1 2111   0.155   0.174   4.907
  404SOL    HW2 2112   0.207   0.135   4.757
  405SOL     OW 2113   0.681   2.446   0.448
  405SOL    HW1 2114   0.686   2.444   0.348
  405SOL    HW2 2115   0.761   2.495   0.485
  406SOL     OW 2116   1.667   3.279   3.833
  406SOL    HW1 2117   1.738   3.242   3.893
  406SOL    HW2 2118   1.577   3.256   3.870
  407SOL     OW 2119   2.618   0.529   4.509
  407SOL    HW1 2120   2.711   0.518   4.472
  407SOL    HW2 2121   2.561   0.453   4.479
  408SOL     OW 2122   2.038   0.438   2.880
  408SOL    HW1 2123   2.122   0.401   2.839
  408SOL    HW2 2124   1.968   0.366   2.883
  409SOL     OW 2125   6.188   3.392   3.698
  409SOL    HW1 2126   6.153   3.307   3.737
  409SOL    HW2 2127   6.288   3.392   3.701
  410SOL     OW 2128   2.448   1.454   6.403
  410SOL    HW1 2129   2.403   1.508   6.475
  410SOL    HW2 2130   2.507   1.386   6.446
  411SOL     OW 2131   6.581   4.301   5.463
  411SOL    HW1 2132   6.673   4.262   5.461
  411SOL    HW2 2133   6.561   4.334   5.555
  412SOL     OW 2134   3.468   0.176   2.523
  412SOL    HW1 2135   3.551   0.232   2.528
  412SOL    HW2 2136   3.475   0.100   2.587
  413SOL     OW 2137   2.707   6.704   0.910
  413SOL    HW1 2138   2.641   6.633   0.884
  413SOL    HW2 2139   2.691   6.786   0.856
  414SOL     OW 2140   4.162   3.974   0.571
  414SOL    HW1 2141   4.202   3.965   0.479
  414SOL    HW2 2142   4.126   3.886   0.600
  415SOL     OW 2143   2.968   6.487   1.613
  415SOL    HW1 2144   3.021   6.452   1.691
  415SOL    HW2 2145   2.884   6.529   1.646
  416SOL     OW 2146   3.751   6.357   4.949
  416SOL    HW1 2147   3.674   6.384   4.891
  416SOL    HW2 2148   3.754   6.258   4.956
  417SOL     OW 2149   4.943   5.798   1.250
  417SOL    HW1 2150   4.854   5.783   1.293
  417SOL    HW2 2151   5.014   5.754   1.304
  418SOL     OW 2152   5.542   5.037   1.055
  418SOL    HW1 2153   5.593   5.106   1.003
  418SOL    HW2 2154   5.545   4.950   1.006
  419SOL     OW 2155   6.114   6.798   1.297
  419SOL    HW1 2156   6.141   6.851   1.216
  419SOL    HW2 2157   6.078   6.710   1.268
  420SOL     OW 2158   4.553   5.004   0.246
  420SOL    HW1 2159   4.490   4.995   0.323
  420SOL    HW2 2160   4.514   5.067   0.179
  421SOL     OW 2161   1.867   6.067   6.452
  421SOL    HW1 2162   1.810   6.082   6.533
  421SOL    HW2 2163   1.858   6.145   6.390
  422SOL     OW 2164   5.747   3.500   6.790
  422SOL    HW1 2165   5.830   3.552   6.771
  422SOL    HW2 2166   5.749   3.415   6.738
  423SOL     OW 2167   0.333   2.757   6.763
  423SOL    HW1 2168   0.398   2.681   6.764
  423SOL    HW2 2169   0.290   2.763   6.673
  424SOL     OW 2170   2.597   3.623   0.137
  424SOL    HW1 2171   2.694   3.620   0.110
  424SOL    HW2 2172   2.551   3.541   0.102
  425SOL     OW 2173   2.931   1.428   0.409
  425SOL    HW1 2174   2.972   1.498   0.468
  425SOL    HW2 2175   2.839   1.406   0.443
  426SOL     OW 2176   5.735   4.004   5.719
  426SOL    HW1 2177   5.771   4.069   5.652
  426SOL    HW2 2178   5.768   3.912   5.698
  427SOL     OW 2179   5.101   4.133   0.977
  427SOL    HW1 2180   5.173   4.071   1.007
  427SOL    HW2 2181   5.140   4.208   0.924
  428SOL     OW 2182   3.760   1.176   4.902
  428SOL    HW1 2183   3.783   1.079   4.896
  428SOL    HW2 2184   3.708   1.204   4.822
  429SOL     OW 2185   1.653   5.318   6.851
  429SOL    HW1 2186   1.603   5.397   6.816
  429SOL    HW2 2187   1.719   5.287   6.783
  430SOL     OW 2188   1.306   0.492   5.282
  430SOL    HW1 2189   1.315   0.591   5.290
  430SOL    HW2 2190   1.341   0.463   5.193
  431SOL     OW 2191   3.731   1.709   0.508
  431SOL    HW1 2192   3.711   1.774   0.434
  431SOL    HW2 2193   3.687   1.740   0.592
  432SOL     OW 2194   0.189   1.884   0.922
  432SOL    HW1 2195   0.245   1.831   0.858
  432SOL    HW2 2196   0.176   1.831   1.006
  433SOL     OW 2197   3.268   6.842   5.489
  433SOL    HW1 2198   3.274   6.785   5.571
  433SOL    HW2 2199   3.309   6.794   5.411
  434SOL     OW 2200   0.176   3.948   1.455
  434SOL    HW1 2201   0.114   4.024   1.477
  434SOL    HW2 2202   0.267   3.967   1.492
  435SOL     OW 2203   3.833   4.486   0.080
  435SOL    HW1 2204   3.790   4.453   0.164
  435SOL    HW2 2205   3.835   4.413   0.013
  436SOL     OW 2206   1.912   0.979   0.228
  436SOL    HW1 2207   1.885   1.071   0.255
  436SOL    HW2 2208   1.837   0.915   0.249
  437SOL     OW 2209   6.509   6.851   6.835
  437SOL    HW1 2210   6.550   6.839   6.925
  437SOL    HW2 2211   6.515   6.947   6.807
  438SOL     OW 2212   1.364   2.938   2.016
  438SOL    HW1 2213   1.280   2.888   2.038
  438SOL    HW2 2214   1.443   2.885   2.046
  439SOL     OW 2215   6.832   5.006   2.974
  439SOL    HW1 2216   6.930   4.985   2.968
  439SOL    HW2 2217   6.813   5.049   3.063
  440SOL     OW 2218   0.975   2.559   4.115
  440SOL    HW1 2219   1.032   2.527   4.191
  440SOL    HW2 2220   0.987   2.498   4.036
  441SOL     OW 2221   0.886   1.636   3.627
  441SOL    HW1 2222   0.876   1.665   3.722
  441SOL    HW2 2223   0.949   1.698   3.580
  442SOL     OW 2224   0.217   3.765   0.165
  442SOL    HW1 2225   0.144   3.783   0.230
  442SOL    HW2 2226   0.221   3.667   0.146
  443SOL     OW 2227   0.685   4.070   5.590
  443SOL    HW1 2228   0.593   4.048   5.557
  443SOL    HW2 2229   0.730   4.130   5.524
  444SOL     OW 2230   4.405   3.192   6.473
  444SOL    HW1 2231   4.482   3.133   6.451
  444SOL    HW2 2232   4.330   3.137   6.511
  445SOL     OW 2233   2.243   4.355   3.078
  445SOL    HW1 2234   2.230   4.311   2.990
  445SOL    HW2 2235   2.274   4.449   3.064
  446SOL     OW 2236   4.508   4.896   3.916
  446SOL    HW1 2237   4.560   4.897   3.831
  446SOL    HW2 2238   4.454   4.980   3.924
  447SOL     OW 2239   6.576   5.616   0.795
  447SOL    HW1 2240   6.650   5.661   0.843
  447SOL    HW2 2241   6.552   5.531   0.842
  448SOL     OW 2242   4.121   0.899   4.868
  448SOL    HW1 2243   4.189   0.827   4.886
  448SOL    HW2 2244   4.117   0.917   4.770
  449SOL     OW 2245   5.315   0.130   4.736
  449SOL    HW1 2246   5.317   0.211   4.795
  449SOL    HW2 2247   5.403   0.119   4.691
  450SOL     OW 2248   0.191   6.281   3.675
  450SOL    HW1 2249   0.264   6.336   3.634
  450SOL    HW2 2250   0.116   6.271   3.609
  451SOL     OW 2251   0.718   2.409   2.972
  451SOL    HW1 2252   0.646   2.395   2.903
  451SOL    HW2 2253   0.691   2.481   3.035
  452SOL     OW 2254   6.979   4.890   6.511
  452SOL    HW1 2255   6.963   4.810   6.454
  452SOL    HW2 2256   6.902   4.901   6.575
  453SOL     OW 2257   2.811   1.241   6.433
  453SOL    HW1 2258   2.743   1.240   6.506
  453SOL    HW2 2259   2.885   1.303   6.457
  454SOL     OW 2260   1.028   6.057   0.006
  454SOL    HW1 2261   1.029   6.070   6.933
  454SOL    HW2 2262   1.059   6.140   0.051
  455SOL     OW 2263   5.072   0.949   5.484
  455SOL    HW1 2264   5.085   0.960   5.583
  455SOL    HW2 2265   5.013   1.023   5.450
  456SOL     OW 2266   4.659   5.833   6.057
  456SOL    HW1 2267   4.751   5.843   6.018
  456SOL    HW2 2268   4.648   5.741   6.095
  457SOL     OW 2269   2.144   4.966   2.974
  457SOL    HW1 2270   2.161   5.026   2.895
  457SOL    HW2 2271   2.048   4.974   3.001
  458SOL     OW 2272   6.590   5.126   5.622
  458SOL    HW1 2273   6.496   5.151   5.645
  458SOL    HW2 2274   6.636   5.206   5.582
  459SOL     OW 2275   1.844   0.809   2.788
  459SOL    HW1 2276   1.924   0.801   2.729
  459SOL    HW2 2277   1.873   0.833   2.881
  460SOL     OW 2278   6.529   1.980   3.124
  460SOL    HW1 2279   6.608   1.969   3.185
  460SOL    HW2 2280   6.461   2.038   3.168
  461SOL     OW 2281   4.371   6.314   5.370
  461SOL    HW1 2282   4.296   6.266   5.415
  461SOL    HW2 2283   4.443   6.334   5.436
  462SOL     OW 2284   3.067   3.137   6.728
  462SOL    HW1 2285   3.117   3.192   6.795
  462SOL    HW2 2286   2.976   3.114   6.765
  463SOL     OW 2287   6.698   5.410   2.329
  463SOL    HW1 2288   6.618   5.455   2.291
  463SOL    HW2 2289   6.671   5.352   2.405
  464SOL     OW 2290   1.934   1.522   5.912
  464SOL    HW1 2291   1.905   1.472   5.830
  464SOL    HW2 2292   1.853   1.550   5.964
  465SOL     OW 2293   6.656   2.680   4.063
  465SOL    HW1 2294   6.628   2.746   3.994
  465SOL    HW2 2295   6.748   2.646   4.041
  466SOL     OW 2296   1.398   7.021   3.944
  466SOL    HW1 2297   1.420   0.092   3.948
  466SOL    HW2 2298   1.310   7.005   3.990
  467SOL     OW 2299   1.483   0.921   5.522
  467SOL    HW1 2300   1.445   0.836   5.485
  467SOL    HW2 2301   1.429   0.951   5.601
  468SOL     OW 2302   3.715   4.719   1.070
  468SOL    HW1 2303   3.724   4.796   1.007
  468SOL    HW2 2304   3.691   4.754   1.161
  469SOL     OW 2305   2.130   5.494   6.859
  469SOL    HW1 2306   2.035   5.513   6.881
  469SOL    HW2 2307   2.149   5.523   6.765
  470SOL     OW 2308   4.186   0.447   2.718
  470SOL    HW1 2309   4.205   0.503   2.637
  470SOL    HW2 2310   4.270   0.439   2.773
  471SOL     OW 2311   2.132   2.729   4.741
  471SOL    HW1 2312   2.138   2.812   4.797
  471SOL    HW2 2313   2.211   2.724   4.680
  472SOL     OW 2314   4.026   5.050   5.747
  472SOL    HW1 2315   3.972   4.999   5.814
  472SOL    HW2 2316   4.047   4.991   5.669
  473SOL     OW 2317   1.467   3.315   2.620
  473SOL    HW1 2318   1.564   3.332   2.599
  473SOL    HW2 2319   1.446   3.350   2.711
  474SOL     OW 2320   4.346   4.994   4.583
  474SOL    HW1 2321   4.311   4.913   4.630
  474SOL    HW2 2322   4.438   4.977   4.549
  475SOL     OW 2323   0.131   6.598   6.207
  475SOL    HW1 2324   0.082   6.602   6.120
  475SOL    HW2 2325   0.211   6.658   6.204
  476SOL     OW 2326   6.737   4.676   2.569
  476SOL    HW1 2327   6.703   4.634   2.654
  476SOL    HW2 2328   6.745   4.606   2.499
  477SOL     OW 2329   2.192   5.595   3.530
  477SOL    HW1 2330   2.213   5.498   3.517
  477SOL    HW2 2331   2.242   5.649   3.463
  478SOL     OW 2332   3.495   5.330   3.736
  478SOL    HW1 2333   3.501   5.235   3.766
  478SOL    HW2 2334   3.565   5.348   3.667
  479SOL     OW 2335   3.605   2.775   0.919
  479SOL    HW1 2336   3.636   2.858   0.872
  479SOL    HW2 2337   3.679   2.739   0.975
  480SOL     OW 2338   0.733   6.855   2.292
  480SOL    HW1 2339   0.804   6.789   2.319
  480SOL    HW2 2340   0.695   6.828   2.203
  481SOL     OW 2341   4.044   0.173   1.338
  481SOL    HW1 2342   3.977   0.228   1.387
  481SOL    HW2 2343   4.137   0.202   1.361
  482SOL     OW 2344   5.710   4.452   2.254
  482SOL    HW1 2345   5.750   4.362   2.275
  482SOL    HW2 2346   5.717   4.511   2.333
  483SOL     OW 2347   5.895   1.799   1.972
  483SOL    HW1 2348   5.872   1.751   1.888
  483SOL    HW2 2349   5.875   1.896   1.962
  484SOL     OW 2350   0.157   2.744   4.437
  484SOL    HW1 2351   0.246   2.702   4.421
  484SOL    HW2 2352   0.168   2.840   4.460
  485SOL     OW 2353   3.250   5.259   2.367
  485SOL    HW1 2354   3.176   5.210   2.412
  485SOL    HW2 2355   3.249   5.239   2.269
  486SOL     OW 2356   0.632   0.196   0.947
  486SOL    HW1 2357   0.710   0.141   0.979
  486SOL    HW2 2358   0.551   0.137   0.941
  487SOL     OW 2359   0.293   2.430   6.795
  487SOL    HW1 2360   0.265   2.446   6.890
  487SOL    HW2 2361   0.390   2.451   6.785
  488SOL     OW 2362   0.376   2.366   2.181
  488SOL    HW1 2363   0.411   2.399   2.269
  488SOL    HW2 2364   0.286   2.326   2.194
  489SOL     OW 2365   3.374   5.770   6.536
  489SOL    HW1 2366   3.324   5.839   6.484
  489SOL    HW2 2367   3.335   5.763   6.628
  490SOL     OW 2368   5.830   6.442   4.246
  490SOL    HW1 2369   5.816   6.461   4.149
  490SOL    HW2 2370   5.925   6.416   4.262
  491SOL     OW 2371   1.377   2.639   2.826
  491SOL    HW1 2372   1.425   2.644   2.738
  491SOL    HW2 2373   1.350   2.545   2.845
  492SOL     OW 2374   1.926   0.446   5.604
  492SOL    HW1 2375   1.873   0.362   5.610
  492SOL    HW2 2376   1.870   0.519   5.564
  493SOL     OW 2377   6.219   4.498   5.413
  493SOL    HW1 2378   6.188   4.564   5.344
  493SOL    HW2 2379   6.309   4.525   5.448
  494SOL     OW 2380   0.366   0.171   0.596
  494SOL    HW1 2381   0.357   0.241   0.526
  494SOL    HW2 2382   0.451   0.120   0.582
  495SOL     OW 2383   4.991   4.255   1.555
  495SOL    HW1 2384   5.012   4.209   1.641
  495SOL    HW2 2385   4.915   4.209   1.510
  496SOL     OW 2386   5.631   3.538   2.898
  496SOL    HW1 2387   5.642   3.467   2.968
  496SOL    HW2 2388   5.661   3.502   2.809
  497SOL     OW 2389   3.628   0.709   4.730
  497SOL    HW1 2390   3.535   0.689   4.760
  497SOL    HW2 2391   3.638   0.807   4.714
  498SOL     OW 2392   0.927   2.747   2.775
  498SOL    HW1 2393   0.973   2.707   2.855
  498SOL    HW2 2394   0.994   2.765   2.704
  499SOL     OW 2395   3.168   1.041   5.055
  499SOL    HW1 2396   3.069   1.031   5.046
  499SOL    HW2 2397   3.195   1.135   5.036
  500SOL     OW 2398   1.119   3.817   2.583
  500SOL    HW1 2399   1.119   3.915   2.598
  500SOL    HW2 2400   1.037   3.777   2.623
  501SOL     OW 2401   1.518   3.155   6.763
  501SOL    HW1 2402   1.447   3.087   6.750
  501SOL    HW2 2403   1.543   3.195   6.675
  502SOL     OW 2404   4.177   5.255   0.073
  502SOL    HW1 2405   4.133   5.337   0.109
  502SOL    HW2 2406   4.113   5.205   0.014
  503SOL     OW 2407   5.849   4.646   5.571
  503SOL    HW1 2408   5.831   4.725   5.630
  503SOL    HW2 2409   5.846   4.562   5.625
  504SOL     OW 2410   2.270   6.513   4.454
  504SOL    HW1 2411   2.252   6.554   4.364
  504SOL    HW2 2412   2.213   6.558   4.523
  505SOL     OW 2413   3.917   0.219   5.855
  505SOL    HW1 2414   3.862   0.299   5.880
  505SOL    HW2 2415   3.857   0.142   5.835
  506SOL     OW 2416   2.048   4.382   5.870
  506SOL    HW1 2417   1.989   4.323   5.926
  506SOL    HW2 2418   2.084   4.456   5.927
  507SOL     OW 2419   3.290   0.448   4.737
  507SOL    HW1 2420   3.209   0.408   4.781
  507SOL    HW2 2421   3.352   0.375   4.710
  508SOL     OW 2422   6.729   3.929   3.308
  508SOL    HW1 2423   6.671   4.003   3.274
  508SOL    HW2 2424   6.680   3.842   3.301
  509SOL     OW 2425   4.833   1.486   1.791
  509SOL    HW1 2426   4.927   1.514   1.809
  509SOL    HW2 2427   4.793   1.548   1.723
  510SOL     OW 2428   6.741   4.453   4.729
  510SOL    HW1 2429   6.741   4.519   4.654
  510SOL    HW2 2430   6.828   4.404   4.730
  511SOL     OW 2431   0.683   6.478   0.329
  511SOL    HW1 2432   0.781   6.464   0.340
  511SOL    HW2 2433   0.646   6.409   0.266
  512SOL     OW 2434   1.146   3.800   6.144
  512SOL    HW1 2435   1.109   3.876   6.091
  512SOL    HW2 2436   1.141   3.821   6.241
  513SOL     OW 2437   6.444   6.142   4.604
  513SOL    HW1 2438   6.402   6.232   4.612
  513SOL    HW2 2439   6.429   6.091   4.688
  514SOL     OW 2440   5.988   2.087   4.139
  514SOL    HW1 2441   5.902   2.129   4.110
  514SOL    HW2 2442   6.052   2.085   4.062
  515SOL     OW 2443   1.745   6.476   6.151
  515SOL    HW1 2444   1.664   6.469   6.210
  515SOL    HW2 2445   1.769   6.572   6.140
  516SOL     OW 2446   2.300   5.115   1.837
  516SOL    HW1 2447   2.315   5.149   1.929
  516SOL    HW2 2448   2.352   5.170   1.771
  517SOL     OW 2449   4.525   6.924   1.214
  517SOL    HW1 2450   4.558   7.008   1.256
  517SOL    HW2 2451   4.427   6.930   1.197
  518SOL     OW 2452   2.349   2.552   1.368
  518SOL    HW1 2453   2.318   2.488   1.438
  518SOL    HW2 2454   2.420   2.508   1.312
  519SOL     OW 2455   0.228   7.022   5.918
  519SOL    HW1 2456   0.249   6.974   5.832
  519SOL    HW2 2457   0.139   6.991   5.951
  520SOL     OW 2458   5.449   4.960   5.838
  520SOL    HW1 2459   5.523   4.956   5.905
  520SOL    HW2 2460   5.362   4.977   5.885
  521SOL     OW 2461   0.088   1.653   0.070
  521SOL    HW1 2462   0.173   1.605   0.090
  521SOL    HW2 2463   0.029   1.652   0.151
  522SOL     OW 2464   3.886   3.442   4.146
  522SOL    HW1 2465   3.948   3.396   4.082
  522SOL    HW2 2466   3.936   3.515   4.193
  523SOL     OW 2467   6.738   6.971   4.688
  523SOL    HW1 2468   6.765   6.892   4.633
  523SOL    HW2 2469   6.802   6.983   4.764
  524SOL     OW 2470   2.564   1.022   5.661
  524SOL    HW1 2471   2.555   1.052   5.756
  524SOL    HW2 2472   2.616   1.090   5.610
  525SOL     OW 2473   2.693   3.918   0.034
  525SOL    HW1 2474   2.710   3.996   6.999
  525SOL    HW2 2475   2.741   3.932   0.120
  526SOL     OW 2476   3.351   5.618   4.771
  526SOL    HW1 2477   3.354   5.568   4.857
  526SOL    HW2 2478   3.443   5.641   4.742
  527SOL     OW 2479   0.151   0.788   0.059
  527SOL    HW1 2480   0.137   0.808   6.988
  527SOL    HW2 2481   0.236   0.738   0.071
  528SOL     OW 2482   2.218   1.560   5.150
  528SOL    HW1 2483   2.152   1.635   5.159
  528SOL    HW2 2484   2.243   1.527   5.241
  529SOL     OW 2485   1.240   5.311   4.191
  529SOL    HW1 2486   1.326   5.290   4.144
  529SOL    HW2 2487   1.175   5.236   4.178
  530SOL     OW 2488   2.210   3.258   5.444
  530SOL    HW1 2489   2.288   3.320   5.435
  530SOL    HW2 2490   2.158   3.257   5.358
  531SOL     OW 2491   0.898   0.259   1.128
  531SOL    HW1 2492   0.821   0.251   1.191
  531SOL    HW2 2493   0.944   0.171   1.119
  532SOL     OW 2494   0.941   1.372   5.651
  532SOL    HW1 2495   1.004   1.428   5.598
  532SOL    HW2 2496   0.992   1.304   5.703
  533SOL     OW 2497   5.457   7.011   4.984
  533SOL    HW1 2498   5.500   7.004   5.074
  533SOL    HW2 2499   5.511   0.047   4.927
  534SOL     OW 2500   4.883   5.182   2.237
  534SOL    HW1 2501   4.807   5.246   2.225
  534SOL    HW2 2502   4.861   5.095   2.193
  535SOL     OW 2503   0.236   3.794   3.444
  535SOL    HW1 2504   0.214   3.705   3.485
  535SOL    HW2 2505   0.282   3.780   3.356
  536SOL     OW 2506   1.711   5.419   1.136
  536SOL    HW1 2507   1.805   5.450   1.121
  536SOL    HW2 2508   1.648   5.474   1.081
  537SOL     OW 2509   2.229   0.155   2.351
  537SOL    HW1 2510   2.142   0.184   2.391
  537SOL    HW2 2511   2.292   0.129   2.424
  538SOL     OW 2512   0.799   6.291   3.208
  538SOL    HW1 2513   0.704   6.297   3.178
  538SOL    HW2 2514   0.856   6.347   3.149
  539SOL     OW 2515   1.914   4.926   1.673
  539SOL    HW1 2516   1.949   4.996   1.611
  539SOL    HW2 2517   1.968   4.927   1.758
  540SOL     OW 2518   1.764   2.211   2.633
  540SOL    HW1 2519   1.675   2.170   2.610
  540SOL    HW2 2520   1.759   2.310   2.620
  541SOL     OW 2521   2.789   5.622   5.742
  541SOL    HW1 2522   2.815   5.716   5.765
  541SOL    HW2 2523   2.871   5.564   5.741
  542SOL     OW 2524   6.156   5.212   6.713
  542SOL    HW1 2525   6.253   5.234   6.728
  542SOL    HW2 2526   6.148   5.152   6.633
  543SOL     OW 2527   1.058   5.129   6.832
  543SOL    HW1 2528   1.095   5.183   6.757
  543SOL    HW2 2529   0.968   5.095   6.808
  544SOL     OW 2530   1.165   4.892   0.682
  544SOL    HW1 2531   1.112   4.808   0.698
  544SOL    HW2 2532   1.201   4.892   0.589
  545SOL     OW 2533   3.866   1.303   2.624
  545SOL    HW1 2534   3.803   1.312   2.547
  545SOL    HW2 2535   3.817   1.318   2.710
  546SOL     OW 2536   1.703   3.759   0.528
  546SOL    HW1 2537   1.694   3.680   0.589
  546SOL    HW2 2538   1.647   3.745   0.447
  547SOL     OW 2539   2.868   3.303   0.159
  547SOL    HW1 2540   2.890   3.392   0.199
  547SOL    HW2 2541   2.947   3.241   0.169
  548SOL     OW 2542   3.412   2.909   4.338
  548SOL    HW1 2543   3.328   2.949   4.374
  548SOL    HW2 2544   3.392   2.857   4.255
  549SOL     OW 2545   5.704   3.422   1.629
  549SOL    HW1 2546   5.721   3.384   1.539
  549SOL    HW2 2547   5.671   3.351   1.691
  550SOL     OW 2548   0.031   4.409   2.305
  550SOL    HW1 2549   0.074   4.347   2.370
  550SOL    HW2 2550   0.066   4.391   2.213
  551SOL     OW 2551   6.745   2.277   0.607
  551SOL    HW1 2552   6.763   2.228   0.692
  551SOL    HW2 2553   6.646   2.280   0.592
  552SOL     OW 2554   3.701   5.839   0.298
  552SOL    HW1 2555   3.750   5.901   0.360
  552SOL    HW2 2556   3.616   5.883   0.268
  553SOL     OW 2557   1.818   1.150   1.756
  553SOL    HW1 2558   1.746   1.217   1.775
  553SOL    HW2 2559   1.903   1.199   1.737
  554SOL     OW 2560   5.397   6.362   5.146
  554SOL    HW1 2561   5.432   6.455   5.135
  554SOL    HW2 2562   5.320   6.363   5.209
  555SOL     OW 2563   1.324   4.789   4.270
  555SOL    HW1 2564   1.242   4.844   4.285
  555SOL    HW2 2565   1.331   4.765   4.173
  556SOL     OW 2566   5.356   2.841   4.174
  556SOL    HW1 2567   5.279   2.831   4.111
  556SOL    HW2 2568   5.358   2.935   4.210
  557SOL     OW 2569   0.617   6.472   5.930
  557SOL    HW1 2570   0.617   6.465   6.030
  557SOL    HW2 2571   0.710   6.487   5.897
  558SOL     OW 2572   4.126   4.068   5.426
  558SOL    HW1 2573   4.027   4.054   5.424
  558SOL    HW2 2574   4.172   3.982   5.402
  559SOL     OW 2575   6.888   5.884   6.159
  559SOL    HW1 2576   6.850   5.807   6.211
  559SOL    HW2 2577   6.814   5.937   6.118
  560SOL     OW 2578   4.148   6.969   0.247
  560SOL    HW1 2579   4.063   7.020   0.264
  560SOL    HW2 2580   4.154   6.946   0.150
  561SOL     OW 2581   5.184   6.727   0.721
  561SOL    HW1 2582   5.141   6.817   0.729
  561SOL    HW2 2583   5.262   6.733   0.659
  562SOL     OW 2584   5.585   1.488   5.653
  562SOL    HW1 2585   5.534   1.405   5.630
  562SOL    HW2 2586   5.683   1.471   5.644
  563SOL     OW 2587   2.998   6.782   3.959
  563SOL    HW1 2588   2.950   6.725   4.025
  563SOL    HW2 2589   2.966   6.876   3.966
  564SOL     OW 2590   0.349   1.075   6.982
  564SOL    HW1 2591   0.448   1.093   6.982
  564SOL    HW2 2592   0.332   0.984   6.944
  565SOL     OW 2593   4.795   3.905   5.165
  565SOL    HW1 2594   4.815   3.973   5.094
  565SOL    HW2 2595   4.804   3.948   5.255
  566SOL     OW 2596   4.894   4.508   2.823
  566SOL    HW1 2597   4.845   4.567   2.759
  566SOL    HW2 2598   4.831   4.442   2.863
  567SOL     OW 2599   3.506   3.219   4.668
  567SOL    HW1 2600   3.416   3.263   4.666
  567SOL    HW2 2601   3.498   3.126   4.633
  568SOL     OW 2602   2.548   1.720   6.756
  568SOL    HW1 2603   2.612   1.796   6.767
  568SOL    HW2 2604   2.588   1.637   6.795
  569SOL     OW 2605   2.293   2.511   0.926
  569SOL    HW1 2606   2.368   2.545   0.983
  569SOL    HW2 2607   2.208   2.558   0.950
  570SOL     OW 2608   6.768   6.032   1.455
  570SOL    HW1 2609   6.723   6.061   1.371
  570SOL    HW2 2610   6.812   5.943   1.441
  571SOL     OW 2611   4.362   5.367   3.182
  571SOL    HW1 2612   4.264   5.390   3.177
  571SOL    HW2 2613   4.400   5.404   3.267
  572SOL     OW 2614   1.517   3.580   5.108
  572SOL    HW1 2615   1.507   3.679   5.094
  572SOL    HW2 2616   1.604   3.561   5.154
  573SOL     OW 2617   3.980   2.403   5.957
  573SOL    HW1 2618   4.075   2.430   5.945
  573SOL    HW2 2619   3.975   2.313   5.999
  574SOL     OW 2620   2.162   1.306   4.064
  574SOL    HW1 2621   2.186   1.252   3.984
  574SOL    HW2 2622   2.206   1.267   4.145
  575SOL     OW 2623   5.368   2.325   0.193
  575SOL    HW1 2624   5.457   2.329   0.240
  575SOL    HW2 2625   5.378   2.357   0.099
  576SOL     OW 2626   1.062   1.913   2.668
  576SOL    HW1 2627   1.036   1.819   2.646
  576SOL    HW2 2628   1.045   1.971   2.588
  577SOL     OW 2629   3.030   2.053   3.537
  577SOL    HW1 2630   2.972   2.016   3.464
  577SOL    HW2 2631   3.040   1.985   3.610
  578SOL     OW 2632   6.909   3.581   4.018
  578SOL    HW1 2633   6.885   3.665   3.970
  578SOL    HW2 2634   6.985   3.536   3.972
  579SOL     OW 2635   4.558   3.122   6.790
  579SOL    HW1 2636   4.472   3.153   6.829
  579SOL    HW2 2637   4.553   3.023   6.773
  580SOL     OW 2638   1.010   5.641   6.821
  580SOL    HW1 2639   1.081   5.662   6.754
  580SOL    HW2 2640   0.980   5.547   6.809
  581SOL     OW 2641   3.922   3.840   2.767
  581SOL    HW1 2642   3.938   3.929   2.809
  581SOL    HW2 2643   3.841   3.798   2.807
  582SOL     OW 2644   6.187   3.794   2.046
  582SOL    HW1 2645   6.106   3.787   1.988
  582SOL    HW2 2646   6.250   3.861   2.008
  583SOL     OW 2647   2.448   4.838   7.008
  583SOL    HW1 2648   2.364   4.848   6.954
  583SOL    HW2 2649   2.463   4.920   0.036
  584SOL     OW 2650   0.424   4.899   4.708
  584SOL    HW1 2651   0.332   4.932   4.687
  584SOL    HW2 2652   0.491   4.969   4.683
  585SOL     OW 2653   0.260   1.265   0.163
  585SOL    HW1 2654   0.276   1.216   0.077
  585SOL    HW2 2655   0.241   1.361   0.144
  586SOL     OW 2656   2.699   6.545   0.572
  586SOL    HW1 2657   2.745   6.461   0.601
  586SOL    HW2 2658   2.630   6.570   0.639
  587SOL     OW 2659   0.972   2.670   5.393
  587SOL    HW1 2660   0.969   2.661   5.293
  587SOL    HW2 2661   0.956   2.765   5.418
  588SOL     OW 2662   3.235   6.794   1.683
  588SOL    HW1 2663   3.238   6.705   1.637
  588SOL    HW2 2664   3.219   6.781   1.781
  589SOL     OW 2665   4.384   4.923   2.933
  589SOL    HW1 2666   4.474   4.897   2.897
  589SOL    HW2 2667   4.394   5.001   2.994
  590SOL     OW 2668   0.152   2.043   2.072
  590SOL    HW1 2669   0.057   2.026   2.048
  590SOL    HW2 2670   0.159   2.131   2.121
  591SOL     OW 2671   3.778   6.655   3.161
  591SOL    HW1 2672   3.758   6.565   3.200
  591SOL    HW2 2673   3.864   6.689   3.197
  592SOL     OW 2674   5.011   1.055   0.409
  592SOL    HW1 2675   4.918   1.089   0.419
  592SOL    HW2 2676   5.034   1.048   0.312
  593SOL     OW 2677   5.219   1.872   3.539
  593SOL    HW1 2678   5.147   1.929   3.579
  593SOL    HW2 2679   5.193   1.776   3.546
  594SOL     OW 2680   4.130   2.599   1.263
  594SOL    HW1 2681   4.046   2.559   1.300
  594SOL    HW2 2682   4.107   2.680   1.210
  595SOL     OW 2683   3.510   6.819   4.002
  595SOL    HW1 2684   3.559   6.900   4.034
  595SOL    HW2 2685   3.416   6.822   4.036
  596SOL     OW 2686   1.636   4.438   2.530
  596SOL    HW1 2687   1.559   4.491   2.495
  596SOL    HW2 2688   1.610   4.342   2.539
  597SOL     OW 2689   3.938   1.962   5.360
  597SOL    HW1 2690   3.872   1.921   5.423
  597SOL    HW2 2691   3.901   1.959   5.267
  598SOL     OW 2692   3.583   4.388   0.604
  598SOL    HW1 2693   3.621   4.476   0.632
  598SOL    HW2 2694   3.492   4.402   0.565
  599SOL     OW 2695   6.641   6.405   2.466
  599SOL    HW1 2696   6.713   6.349   2.426
  599SOL    HW2 2697   6.555   6.388   2.418
  600SOL     OW 2698   2.349   0.060   6.844
  600SOL    HW1 2699   2.371   0.143   6.895
  600SOL    HW2 2700   2.402   0.058   6.759
  601SOL     OW 2701   3.447   5.207   4.119
  601SOL    HW1 2702   3.350   5.209   4.099
  601SOL    HW2 2703   3.493   5.281   4.069
  602SOL     OW 2704   1.959   0.832   1.158
  602SOL    HW1 2705   2.015   0.821   1.076
  602SOL    HW2 2706   1.863   0.845   1.131
  603SOL     OW 2707   4.091   2.136   3.298
  603SOL    HW1 2708   4.036   2.212   3.264
  603SOL    HW2 2709   4.032   2.070   3.344
  604SOL     OW 2710   0.150   4.091   6.121
  604SOL    HW1 2711   0.062   4.077   6.076
  604SOL    HW2 2712   0.219   4.113   6.052
  605SOL     OW 2713   5.663   0.389   4.723
  605SOL    HW1 2714   5.755   0.418   4.696
  605SOL    HW2 2715   5.649   0.410   4.820
  606SOL     OW 2716   3.594   0.245   3.377
  606SOL    HW1 2717   3.676   0.270   3.325
  606SOL    HW2 2718   3.600   0.149   3.404
  607SOL     OW 2719   4.502   1.275   4.110
  607SOL    HW1 2720   4.568   1.307   4.178
  607SOL    HW2 2721   4.502   1.175   4.109
  608SOL     OW 2722   4.383   1.075   1.375
  608SOL    HW1 2723   4.308   1.111   1.319
  608SOL    HW2 2724   4.410   1.143   1.442
  609SOL     OW 2725   3.526   4.068   4.412
  609SOL    HW1 2726   3.558   4.105   4.325
  609SOL    HW2 2727   3.595   4.082   4.482
  610SOL     OW 2728   5.198   2.223   4.274
  610SOL    HW1 2729   5.148   2.187   4.195
  610SOL    HW2 2730   5.137   2.224   4.353
  611SOL     OW 2731   0.604   6.892   1.183
  611SOL    HW1 2732   0.678   6.888   1.250
  611SOL    HW2 2733   0.517   6.872   1.227
  612SOL     OW 2734   3.340   5.502   5.375
  612SOL    HW1 2735   3.275   5.544   5.439
  612SOL    HW2 2736   3.432   5.535   5.394
  613SOL     OW 2737   3.241   2.208   0.194
  613SOL    HW1 2738   3.320   2.169   0.146
  613SOL    HW2 2739   3.176   2.135   0.214
  614SOL     OW 2740   5.221   4.397   1.125
  614SOL    HW1 2741   5.210   4.395   1.026
  614SOL    HW2 2742   5.206   4.491   1.158
  615SOL     OW 2743   6.296   6.772   0.786
  615SOL    HW1 2744   6.231   6.723   0.844
  615SOL    HW2 2745   6.247   6.819   0.712
  616SOL     OW 2746   5.539   1.772   4.610
  616SOL    HW1 2747   5.503   1.853   4.562
  616SOL    HW2 2748   5.603   1.724   4.551
  617SOL     OW 2749   0.298   5.366   5.452
  617SOL    HW1 2750   0.346   5.281   5.475
  617SOL    HW2 2751   0.341   5.443   5.500
  618SOL     OW 2752   6.369   3.696   0.482
  618SOL    HW1 2753   6.324   3.619   0.527
  618SOL    HW2 2754   6.440   3.733   0.543
  619SOL     OW 2755   2.554   0.628   6.072
  619SOL    HW1 2756   2.605   0.589   5.995
  619SOL    HW2 2757   2.502   0.556   6.118
  620SOL     OW 2758   6.963   2.121   2.390
  620SOL    HW1 2759   6.892   2.059   2.423
  620SOL    HW2 2760   6.940   2.215   2.418
  621SOL     OW 2761   3.201   1.134   6.842
  621SOL    HW1 2762   3.136   1.210   6.848
  621SOL    HW2 2763   3.260   1.146   6.762
  622SOL     OW 2764   1.243   1.959   4.903
  622SOL    HW1 2765   1.220   2.029   4.971
  622SOL    HW2 2766   1.335   1.976   4.867
  623SOL     OW 2767   5.838   0.267   4.293
  623SOL    HW1 2768   5.905   0.282   4.366
  623SOL    HW2 2769   5.841   0.344   4.229
  624SOL     OW 2770   6.435   0.610   6.367
  624SOL    HW1 2771   6.339   0.620   6.393
  624SOL    HW2 2772   6.441   0.562   6.280
  625SOL     OW 2773   2.275   1.830   0.749
  625SOL    HW1 2774   2.196   1.869   0.798
  625SOL    HW2 2775   2.244   1.787   0.665
  626SOL     OW 2776   0.147   5.715   3.665
  626SOL    HW1 2777   0.123   5.618   3.659
  626SOL    HW2 2778   0.115   5.752   3.752
  627SOL     OW 2779   6.215   0.311   0.163
  627SOL    HW1 2780   6.188   0.221   0.197
  627SOL    HW2 2781   6.167   0.382   0.215
  628SOL     OW 2782   4.421   4.456   5.787
  628SOL    HW1 2783   4.478   4.378   5.761
  628SOL    HW2 2784   4.393   4.447   5.883
  629SOL     OW 2785   1.111   6.976   6.190
  629SOL    HW1 2786   1.126   6.892   6.242
  629SOL    HW2 2787   1.054   6.955   6.111
  630SOL     OW 2788   6.557   1.193   1.481
  630SOL    HW1 2789   6.461   1.199   1.451
  630SOL    HW2 2790   6.589   1.285   1.505
  631SOL     OW 2791   1.795   3.007   3.854
  631SOL    HW1 2792   1.766   2.919   3.892
  631SOL    HW2 2793   1.774   3.010   3.756
  632SOL     OW 2794   3.387   3.858   6.590
  632SOL    HW1 2795   3.451   3.795   6.635
  632SOL    HW2 2796   3.391   3.845   6.491
  633SOL     OW 2797   1.497   6.247   1.238
  633SOL    HW1 2798   1.540   6.157   1.231
  633SOL    HW2 2799   1.467   6.277   1.148
  634SOL     OW 2800   3.174   3.008   4.675
  634SOL    HW1 2801   3.180   3.032   4.772
  634SOL    HW2 2802   3.255   2.957   4.648
  635SOL     OW 2803   5.328   0.609   6.807
  635SOL    HW1 2804   5.343   0.700   6.844
  635SOL    HW2 2805   5.340   0.611   6.707
  636SOL     OW 2806   2.674   0.480   5.849
  636SOL    HW1 2807   2.709   0.392   5.817
  636SOL    HW2 2808   2.575   0.481   5.841
  637SOL     OW 2809   6.571   0.304   2.673
  637SOL    HW1 2810   6.657   0.295   2.623
  637SOL    HW2 2811   6.583   0.272   2.767
  638SOL     OW 2812   6.327   3.633   4.592
  638SOL    HW1 2813   6.317   3.555   4.653
  638SOL    HW2 2814   6.246   3.641   4.534
  639SOL     OW 2815   5.673   4.601   2.471
  639SOL    HW1 2816   5.606   4.624   2.541
  639SOL    HW2 2817   5.750   4.553   2.513
  640SOL     OW 2818   0.537   2.419   1.932
  640SOL    HW1 2819   0.490   2.450   2.015
  640SOL    HW2 2820   0.583   2.496   1.888
  641SOL     OW 2821   2.192   5.128   4.338
  641SOL    HW1 2822   2.218   5.224   4.350
  641SOL    HW2 2823   2.218   5.076   4.419
  642SOL     OW 2824   1.026   4.126   4.614
  642SOL    HW1 2825   1.125   4.121   4.616
  642SOL    HW2 2826   0.988   4.037   4.587
  643SOL     OW 2827   5.326   5.458   0.694
  643SOL    HW1 2828   5.277   5.475   0.780
  643SOL    HW2 2829   5.265   5.478   0.617
  644SOL     OW 2830   6.646   6.602   5.156
  644SOL    HW1 2831   6.691   6.517   5.184
  644SOL    HW2 2832   6.595   6.639   5.234
  645SOL     OW 2833   3.836   5.379   2.145
  645SOL    HW1 2834   3.740   5.370   2.175
  645SOL    HW2 2835   3.845   5.459   2.086
  646SOL     OW 2836   3.417   1.650   4.967
  646SOL    HW1 2837   3.493   1.623   4.906
  646SOL    HW2 2838   3.330   1.630   4.922
  647SOL     OW 2839   3.984   2.727   6.000
  647SOL    HW1 2840   3.913   2.659   5.983
  647SOL    HW2 2841   3.942   2.816   6.017
  648SOL     OW 2842   6.341   1.259   2.983
  648SOL    HW1 2843   6.295   1.174   3.009
  648SOL    HW2 2844   6.322   1.279   2.886
  649SOL     OW 2845   2.028   5.939   0.417
  649SOL    HW1 2846   2.077   5.997   0.482
  649SOL    HW2 2847   1.933   5.969   0.410
  650SOL     OW 2848   0.200   3.964   1.005
  650SOL    HW1 2849   0.201   3.997   0.911
  650SOL    HW2 2850   0.255   3.881   1.013
  651SOL     OW 2851   1.143   0.351   4.675
  651SOL    HW1 2852   1.167   0.423   4.740
  651SOL    HW2 2853   1.044   0.347   4.665
  652SOL     OW 2854   3.898   5.843   1.859
  652SOL    HW1 2855   3.935   5.856   1.767
  652SOL    HW2 2856   3.939   5.910   1.921
  653SOL     OW 2857   1.166   6.919   2.192
  653SOL    HW1 2858   1.103   6.933   2.116
  653SOL    HW2 2859   1.117   6.928   2.278
  654SOL     OW 2860   0.219   0.059   5.178
  654SOL    HW1 2861   0.283   7.015   5.147
  654SOL    HW2 2862   0.258   0.149   5.164
  655SOL     OW 2863   7.022   4.071   1.946
  655SOL    HW1 2864   6.982   4.045   1.858
  655SOL    HW2 2865   0.075   4.012   1.964
  656SOL     OW 2866   3.433   5.964   0.163
  656SOL    HW1 2867   3.399   5.979   0.256
  656SOL    HW2 2868   3.467   6.050   0.125
  657SOL     OW 2869   3.667   3.167   2.312
  657SOL    HW1 2870   3.706   3.195   2.224
  657SOL    HW2 2871   3.732   3.107   2.359
  658SOL     OW 2872   1.511   2.255   5.119
  658SOL    HW1 2873   1.567   2.180   5.084
  658SOL    HW2 2874   1.549   2.342   5.089
  659SOL     OW 2875   2.104   5.969   6.328
  659SOL    HW1 2876   2.047   6.038   6.371
  659SOL    HW2 2877   2.176   5.940   6.391
  660SOL     OW 2878   4.721   4.672   2.679
  660SOL    HW1 2879   4.693   4.746   2.740
  660SOL    HW2 2880   4.724   4.705   2.585
  661SOL     OW 2881   4.728   4.264   4.675
  661SOL    HW1 2882   4.826   4.250   4.664
  661SOL    HW2 2883   4.695   4.212   4.753
  662SOL     OW 2884   5.051   3.634   6.979
  662SOL    HW1 2885   5.135   3.625   0.006
  662SOL    HW2 2886   4.976   3.586   7.025
  663SOL     OW 2887   0.248   3.874   6.934
  663SOL    HW1 2888   0.235   3.837   7.026
  663SOL    HW2 2889   0.159   3.890   6.891
  664SOL     OW 2890   2.268   6.691   6.705
  664SOL    HW1 2891   2.335   6.660   6.772
  664SOL    HW2 2892   2.314   6.744   6.634
  665SOL     OW 2893   3.793   4.971   1.557
  665SOL    HW1 2894   3.827   4.877   1.548
  665SOL    HW2 2895   3.859   5.026   1.609
  666SOL     OW 2896   3.569   1.319   0.243
  666SOL    HW1 2897   3.584   1.376   0.323
  666SOL    HW2 2898   3.657   1.287   0.207
  667SOL     OW 2899   1.117   3.310   3.849
  667SOL    HW1 2900   1.048   3.343   3.786
  667SOL    HW2 2901   1.110   3.358   3.936
  668SOL     OW 2902   5.089   6.784   0.405
  668SOL    HW1 2903   5.112   6.773   0.309
  668SOL    HW2 2904   5.051   6.698   0.440
  669SOL     OW 2905   2.131   5.758   3.063
  669SOL    HW1 2906   2.216   5.809   3.066
  669SOL    HW2 2907   2.067   5.796   3.130
  670SOL     OW 2908   3.241   2.934   3.452
  670SOL    HW1 2909   3.212   2.933   3.357
  670SOL    HW2 2910   3.161   2.924   3.512
  671SOL     OW 2911   1.263   0.309   6.056
  671SOL    HW1 2912   1.271   0.211   6.074
  671SOL    HW2 2913   1.334   0.336   5.991
  672SOL     OW 2914   2.387   2.316   3.888
  672SOL    HW1 2915   2.424   2.226   3.863
  672SOL    HW2 2916   2.460   2.384   3.882
  673SOL     OW 2917   5.630   6.331   0.928
  673SOL    HW1 2918   5.671   6.382   0.852
  673SOL    HW2 2919   5.567   6.391   0.978
  674SOL     OW 2920   6.999   2.230   3.595
  674SOL    HW1 2921   0.035   2.234   3.673
  674SOL    HW2 2922   6.945   2.146   3.599
  675SOL     OW 2923   6.111   2.116   4.827
  675SOL    HW1 2924   6.099   2.214   4.816
  675SOL    HW2 2925   6.164   2.080   4.750
  676SOL     OW 2926   2.188   4.534   4.461
  676SOL    HW1 2927   2.108   4.499   4.412
  676SOL    HW2 2928   2.266   4.539   4.399
  677SOL     OW 2929   5.466   6.885   0.779
  677SOL    HW1 2930   5.436   6.806   0.832
  677SOL    HW2 2931   5.462   6.864   0.682
  678SOL     OW 2932   2.267   1.807   6.061
  678SOL    HW1 2933   2.328   1.802   6.141
  678SOL    HW2 2934   2.257   1.717   6.021
  679SOL     OW 2935   5.703   6.594   2.579
  679SOL    HW1 2936   5.709   6.620   2.483
  679SOL    HW2 2937   5.610   6.608   2.612
  680SOL     OW 2938   5.363   4.131   5.339
  680SOL    HW1 2939   5.385   4.195   5.412
  680SOL    HW2 2940   5.426   4.053   5.342
  681SOL     OW 2941   1.991   6.781   2.121
  681SOL    HW1 2942   1.973   6.694   2.076
  681SOL    HW2 2943   2.089   6.788   2.144
  682SOL     OW 2944   1.185   6.195   0.467
  682SOL    HW1 2945   1.088   6.169   0.471
  682SOL    HW2 2946   1.233   6.136   0.402
  683SOL     OW 2947   5.271   2.006   0.278
  683SOL    HW1 2948   5.172   2.010   0.275
  683SOL    HW2 2949   5.301   1.993   0.373
  684SOL     OW 2950   0.257   5.931   6.506
  684SOL    HW1 2951   0.207   5.990   6.443
  684SOL    HW2 2952   0.197   5.858   6.539
  685SOL     OW 2953   5.521   1.024   5.746
  685SOL    HW1 2954   5.530   1.005   5.844
  685SOL    HW2 2955   5.444   1.086   5.731
  686SOL     OW 2956   5.481   5.126   3.378
  686SOL    HW1 2957   5.520   5.054   3.435
  686SOL    HW2 2958   5.548   5.152   3.307
  687SOL     OW 2959   6.359   2.759   4.853
  687SOL    HW1 2960   6.451   2.721   4.845
  687SOL    HW2 2961   6.357   2.850   4.812
  688SOL     OW 2962   7.000   3.914   5.092
  688SOL    HW1 2963   0.053   3.853   5.092
  688SOL    HW2 2964   6.917   3.861   5.077
  689SOL     OW 2965   5.990   3.955   6.157
  689SOL    HW1 2966   5.922   4.029   6.158
  689SOL    HW2 2967   6.041   3.956   6.243
  690SOL     OW 2968   1.146   2.473   3.354
  690SOL    HW1 2969   1.214   2.542   3.378
  690SOL    HW2 2970   1.152   2.397   3.418
  691SOL     OW 2971   0.465   3.064   7.012
  691SOL    HW1 2972   0.483   3.034   6.918
  691SOL    HW2 2973   0.544   3.042   0.043
  692SOL     OW 2974   1.916   6.937   3.238
  692SOL    HW1 2975   2.012   6.924   3.214
  692SOL    HW2 2976   1.882   6.854   3.283
  693SOL     OW 2977   6.781   1.445   2.237
  693SOL    HW1 2978   6.746   1.537   2.254
  693SOL    HW2 2979   6.765   1.388   2.317
  694SOL     OW 2980   1.662   0.566   1.974
  694SOL    HW1 2981   1.762   0.558   1.968
  694SOL    HW2 2982   1.628   0.506   2.047
  695SOL     OW 2983   4.056   6.120   5.939
  695SOL    HW1 2984   4.008   6.176   6.007
  695SOL    HW2 2985   4.002   6.116   5.856
  696SOL     OW 2986   4.609   5.684   2.414
  696SOL    HW1 2987   4.585   5.717   2.323
  696SOL    HW2 2988   4.548   5.608   2.439
  697SOL     OW 2989   1.256   3.988   3.949
  697SOL    HW1 2990   1.264   4.081   3.913
  697SOL    HW2 2991   1.342   3.962   3.992
  698SOL     OW 2992   4.217   6.601   3.913
  698SOL    HW1 2993   4.194   6.505   3.932
  698SOL    HW2 2994   4.309   6.621   3.948
  699SOL     OW 2995   2.050   4.408   0.498
  699SOL    HW1 2996   2.060   4.309   0.509
  699SOL    HW2 2997   1.987   4.426   0.422
  700SOL     OW 2998   1.904   0.991   3.969
  700SOL    HW1 2999   1.908   0.970   4.066
  700SOL    HW2 3000   1.995   0.982   3.929
  701SOL     OW 3001   0.624   4.729   5.839
  701SOL    HW1 3002   0.722   4.713   5.831
  701SOL    HW2 3003   0.575   4.642   5.833
  702SOL     OW 3004   5.851   5.470   4.823
  702SOL    HW1 3005   5.806   5.492   4.736
  702SOL    HW2 3006   5.878   5.554   4.869
  703SOL     OW 3007   4.341   3.753   6.833
  703SOL    HW1 3008   4.408   3.783   6.901
  703SOL    HW2 3009   4.352   3.807   6.749
  704SOL     OW 3010   2.403   6.784   0.958
  704SOL    HW1 3011   2.463   6.817   0.886
  704SOL    HW2 3012   2.315   6.832   0.952
  705SOL     OW 3013   5.950   2.584   2.736
  705SOL    HW1 3014   5.925   2.520   2.664
  705SOL    HW2 3015   5.899   2.669   2.725
  706SOL     OW 3016   4.212   1.968   3.744
  706SOL    HW1 3017   4.143   1.923   3.800
  706SOL    HW2 3018   4.249   1.902   3.678
  707SOL     OW 3019   5.136   1.218   1.513
  707SOL    HW1 3020   5.136   1.234   1.612
  707SOL    HW2 3021   5.226   1.240   1.476
  708SOL     OW 3022   4.259   0.866   1.698
  708SOL    HW1 3023   4.277   0.819   1.611
  708SOL    HW2 3024   4.293   0.960   1.692
  709SOL     OW 3025   0.968   4.909   0.020
  709SOL    HW1 3026   1.027   4.968   6.991
  709SOL    HW2 3027   1.024   4.856   0.083
  710SOL     OW 3028   3.206   4.083   2.660
  710SOL    HW1 3029   3.142   4.020   2.616
  710SOL    HW2 3030   3.258   4.132   2.591
  711SOL     OW 3031   1.065   0.558   3.826
  711SOL    HW1 3032   0.966   0.554   3.811
  711SOL    HW2 3033   1.084   0.584   3.920
  712SOL     OW 3034   1.602   3.922   1.242
  712SOL    HW1 3035   1.544   3.864   1.299
  712SOL    HW2 3036   1.665   3.865   1.189
  713SOL     OW 3037   4.018   3.240   3.010
  713SOL    HW1 3038   3.981   3.194   2.929
  713SOL    HW2 3039   4.070   3.321   2.982
  714SOL     OW 3040   4.747   5.165   5.317
  714SOL    HW1 3041   4.819   5.097   5.320
  714SOL    HW2 3042   4.716   5.178   5.223
  715SOL     OW 3043   4.083   0.529   6.329
  715SOL    HW1 3044   4.125   0.452   6.280
  715SOL    HW2 3045   3.994   0.548   6.289
  716SOL     OW 3046   0.115   4.743   1.672
  716SOL    HW1 3047   0.019   4.717   1.678
  716SOL    HW2 3048   0.149   4.767   1.763
  717SOL     OW 3049   6.251   2.496   0.460
  717SOL    HW1 3050   6.316   2.553   0.510
  717SOL    HW2 3051   6.296   2.454   0.382
  718SOL     OW 3052   3.755   3.869   6.553
  718SOL    HW1 3053   3.782   3.849   6.648
  718SOL    HW2 3054   3.741   3.783   6.504
  719SOL     OW 3055   5.486   4.318   0.129
  719SOL    HW1 3056   5.479   4.380   0.051
  719SOL    HW2 3057   5.396   4.279   0.148
  720SOL     OW 3058   2.369   1.037   6.168
  720SOL    HW1 3059   2.336   0.948   6.136
  720SOL    HW2 3060   2.290   1.096   6.187
  721SOL     OW 3061   1.499   6.723   6.114
  721SOL    HW1 3062   1.414   6.749   6.067
  721SOL    HW2 3063   1.570   6.706   6.047
  722SOL     OW 3064   4.381   0.172   5.655
  722SOL    HW1 3065   4.365   0.233   5.578
  722SOL    HW2 3066   4.383   0.077   5.623
  723SOL     OW 3067   1.116   3.137   1.639
  723SOL    HW1 3068   1.170   3.221   1.645
  723SOL    HW2 3069   1.153   3.069   1.702
  724SOL     OW 3070   6.760   1.303   5.134
  724SOL    HW1 3071   6.695   1.309   5.210
  724SOL    HW2 3072   6.719   1.252   5.059
  725SOL     OW 3073   1.957   5.476   1.037
  725SOL    HW1 3074   2.050   5.509   1.020
  725SOL    HW2 3075   1.931   5.411   0.966
  726SOL     OW 3076   4.063   0.205   6.664
  726SOL    HW1 3077   4.158   0.179   6.681
  726SOL    HW2 3078   4.045   0.295   6.704
  727SOL     OW 3079   2.749   4.899   3.889
  727SOL    HW1 3080   2.752   4.994   3.919
  727SOL    HW2 3081   2.704   4.844   3.958
  728SOL     OW 3082   6.813   3.708   5.040
  728SOL    HW1 3083   6.717   3.689   5.019
  728SOL    HW2 3084   6.861   3.621   5.053
  729SOL     OW 3085   3.138   6.967   1.281
  729SOL    HW1 3086   3.214   6.979   1.216
  729SOL    HW2 3087   3.057   7.014   1.245
  730SOL     OW 3088   6.032   0.370   4.458
  730SOL    HW1 3089   6.057   0.309   4.534
  730SOL    HW2 3090   6.116   0.400   4.412
  731SOL     OW 3091   5.866   3.735   3.551
  731SOL    HW1 3092   5.798   3.661   3.556
  731SOL    HW2 3093   5.921   3.724   3.468
  732SOL     OW 3094   6.654   2.993   1.801
  732SOL    HW1 3095   6.729   3.031   1.855
  732SOL    HW2 3096   6.619   2.910   1.845
  733SOL     OW 3097   4.632   4.327   3.702
  733SOL    HW1 3098   4.561   4.380   3.748
  733SOL    HW2 3099   4.633   4.349   3.605
  734SOL     OW 3100   6.869   4.387   0.716
  734SOL    HW1 3101   6.780   4.388   0.671
  734SOL    HW2 3102   6.860   4.349   0.808
  735SOL     OW 3103   1.680   5.013   6.550
  735SOL    HW1 3104   1.615   5.088   6.536
  735SOL    HW2 3105   1.675   4.951   6.472
  736SOL     OW 3106   5.982   1.201   3.350
  736SOL    HW1 3107   6.022   1.127   3.405
  736SOL    HW2 3108   6.049   1.276   3.342
  737SOL     OW 3109   5.374   3.234   0.670
  737SOL    HW1 3110   5.373   3.204   0.766
  737SOL    HW2 3111   5.310   3.178   0.617
  738SOL     OW 3112   0.727   3.871   3.966
  738SOL    HW1 3113   0.729   3.951   4.027
  738SOL    HW2 3114   0.820   3.836   3.955
  739SOL     OW 3115   4.965   6.185   6.790
  739SOL    HW1 3116   4.884   6.224   6.833
  739SOL    HW2 3117   4.965   6.207   6.692
  740SOL     OW 3118   5.832   6.749   1.421
  740SOL    HW1 3119   5.808   6.681   1.490
  740SOL    HW2 3120   5.914   6.720   1.372
  741SOL     OW 3121   2.141   0.832   2.704
  741SOL    HW1 3122   2.197   0.913   2.688
  741SOL    HW2 3123   2.192   0.766   2.759
  742SOL     OW 3124   1.328   0.246   3.188
  742SOL    HW1 3125   1.326   0.198   3.100
  742SOL    HW2 3126   1.234   0.264   3.218
  743SOL     OW 3127   2.026   4.174   4.756
  743SOL    HW1 3128   1.943   4.189   4.701
  743SOL    HW2 3129   2.085   4.254   4.750
  744SOL     OW 3130   0.162   6.009   0.521
  744SOL    HW1 3131   0.075   5.961   0.526
  744SOL    HW2 3132   0.170   6.072   0.598
  745SOL     OW 3133   1.608   6.337   3.039
  745SOL    HW1 3134   1.574   6.382   2.956
  745SOL    HW2 3135   1.549   6.260   3.061
  746SOL     OW 3136   1.613   0.701   4.688
  746SOL    HW1 3137   1.532   0.644   4.671
  746SOL    HW2 3138   1.682   0.647   4.736
  747SOL     OW 3139   5.099   4.670   2.909
  747SOL    HW1 3140   5.056   4.595   2.860
  747SOL    HW2 3141   5.045   4.754   2.897
  748SOL     OW 3142   4.518   3.443   1.146
  748SOL    HW1 3143   4.418   3.437   1.142
  748SOL    HW2 3144   4.554   3.452   1.053
  749SOL     OW 3145   6.710   1.575   5.436
  749SOL    HW1 3146   6.747   1.659   5.395
  749SOL    HW2 3147   6.727   1.498   5.375
  750SOL     OW 3148   2.315   4.106   0.652
  750SOL    HW1 3149   2.379   4.031   0.638
  750SOL    HW2 3150   2.346   4.186   0.600
  751SOL     OW 3151   4.693   0.568   0.172
  751SOL    HW1 3152   4.786   0.591   0.143
  751SOL    HW2 3153   4.666   0.628   0.247
  752SOL     OW 3154   5.094   1.868   2.181
  752SOL    HW1 3155   5.015   1.925   2.205
  752SOL    HW2 3156   5.067   1.772   2.181
  753SOL     OW 3157   2.010   2.845   3.898
  753SOL    HW1 3158   1.936   2.911   3.883
  753SOL    HW2 3159   2.091   2.874   3.848
  754SOL     OW 3160   4.571   5.541   0.171
  754SOL    HW1 3161   4.666   5.574   0.171
  754SOL    HW2 3162   4.565   5.456   0.223
  755SOL     OW 3163   0.322   5.960   0.814
  755SOL    HW1 3164   0.306   5.864   0.834
  755SOL    HW2 3165   0.265   6.017   0.872
  756SOL     OW 3166   5.017   0.052   3.514
  756SOL    HW1 3167   5.032   0.037   3.612
  756SOL    HW2 3168   5.034   6.994   3.464
  757SOL     OW 3169   0.248   0.621   3.735
  757SOL    HW1 3170   0.205   0.630   3.825
  757SOL    HW2 3171   0.243   0.526   3.705
  758SOL     OW 3172   3.938   2.360   1.173
  758SOL    HW1 3173   3.920   2.263   1.156
  758SOL    HW2 3174   3.881   2.392   1.248
  759SOL     OW 3175   1.557   1.417   6.726
  759SOL    HW1 3176   1.492   1.431   6.652
  759SOL    HW2 3177   1.520   1.456   6.811
  760SOL     OW 3178   4.456   1.936   6.046
  760SOL    HW1 3179   4.431   1.844   6.015
  760SOL    HW2 3180   4.544   1.961   6.007
  761SOL     OW 3181   5.748   2.482   6.867
  761SOL    HW1 3182   5.819   2.418   6.836
  761SOL    HW2 3183   5.792   2.563   6.906
  762SOL     OW 3184   2.540   6.188   3.725
  762SOL    HW1 3185   2.544   6.271   3.670
  762SOL    HW2 3186   2.455   6.139   3.706
  763SOL     OW 3187   4.054   5.919   6.944
  763SOL    HW1 3188   4.066   5.826   6.976
  763SOL    HW2 3189   3.957   5.939   6.933
  764SOL     OW 3190   4.486   1.289   2.403
  764SOL    HW1 3191   4.400   1.320   2.364
  764SOL    HW2 3192   4.472   1.258   2.497
  765SOL     OW 3193   6.633   0.091   3.369
  765SOL    HW1 3194   6.628   0.085   3.469
  765SOL    HW2 3195   6.704   0.029   3.335
  766SOL     OW 3196   0.040   6.186   6.757
  766SOL    HW1 3197   0.139   6.198   6.766
  766SOL    HW2 3198   7.020   6.244   6.825
  767SOL     OW 3199   5.898   0.223   2.473
  767SOL    HW1 3200   5.934   0.246   2.383
  767SOL    HW2 3201   5.958   0.261   2.544
  768SOL     OW 3202   3.119   6.158   3.445
  768SOL    HW1 3203   3.188   6.221   3.482
  768SOL    HW2 3204   3.046   6.211   3.401
  769SOL     OW 3205   3.903   1.269   6.102
  769SOL    HW1 3206   3.991   1.275   6.150
  769SOL    HW2 3207   3.903   1.334   6.026
  770SOL     OW 3208   3.158   4.856   4.126
  770SOL    HW1 3209   3.112   4.866   4.038
  770SOL    HW2 3210   3.257   4.864   4.113
  771SOL     OW 3211   0.827   5.296   3.600
  771SOL    HW1 3212   0.782   5.363   3.541
  771SOL    HW2 3213   0.846   5.338   3.689
  772SOL     OW 3214   6.746   4.029   6.222
  772SOL    HW1 3215   6.815   4.051   6.153
  772SOL    HW2 3216   6.682   4.105   6.230
  773SOL     OW 3217   0.131   4.183   2.436
  773SOL    HW1 3218   0.097   4.124   2.363
  773SOL    HW2 3219   0.149   4.128   2.518
  774SOL     OW 3220   1.366   1.168   1.861
  774SOL    HW1 3221   1.366   1.234   1.785
  774SOL    HW2 3222   1.330   1.080   1.829
  775SOL     OW 3223   1.902   2.007   4.641
  775SOL    HW1 3224   1.980   2.062   4.610
  775SOL    HW2 3225   1.918   1.911   4.619
  776SOL     OW 3226   2.023   0.650   6.209
  776SOL    HW1 3227   2.016   0.598   6.294
  776SOL    HW2 3228   2.045   0.746   6.230
  777SOL     OW 3229   4.397   1.191   0.867
  777SOL    HW1 3230   4.318   1.205   0.808
  777SOL    HW2 3231   4.475   1.241   0.831
  778SOL     OW 3232   3.905   6.657   4.653
  778SOL    HW1 3233   3.890   6.753   4.675
  778SOL    HW2 3234   3.820   6.606   4.664
  779SOL     OW 3235   1.187   1.400   2.466
  779SOL    HW1 3236   1.265   1.338   2.466
  779SOL    HW2 3237   1.154   1.412   2.560
  780SOL     OW 3238   5.749   3.239   5.007
  780SOL    HW1 3239   5.736   3.247   5.106
  780SOL    HW2 3240   5.840   3.271   4.982
  781SOL     OW 3241   6.767   0.977   5.959
  781SOL    HW1 3242   6.855   1.001   5.916
  781SOL    HW2 3243   6.692   1.016   5.906
  782SOL     OW 3244   6.914   3.069   0.710
  782SOL    HW1 3245   6.963   2.993   0.752
  782SOL    HW2 3246   6.825   3.038   0.678
  783SOL     OW 3247   2.965   4.805   0.561
  783SOL    HW1 3248   3.008   4.875   0.503
  783SOL    HW2 3249   2.866   4.816   0.559
  784SOL     OW 3250   4.267   0.678   4.893
  784SOL    HW1 3251   4.366   0.673   4.887
  784SOL    HW2 3252   4.234   0.619   4.967
  785SOL     OW 3253   6.545   3.008   2.854
  785SOL    HW1 3254   6.451   3.041   2.864
  785SOL    HW2 3255   6.571   3.011   2.758
  786SOL     OW 3256   6.790   6.738   0.150
  786SOL    HW1 3257   6.728   6.804   0.109
  786SOL    HW2 3258   6.845   6.783   0.221
  787SOL     OW 3259   3.235   2.179   6.262
  787SOL    HW1 3260   3.305   2.170   6.332
  787SOL    HW2 3261   3.150   2.137   6.293
  788SOL     OW 3262   1.851   3.752   4.199
  788SOL    HW1 3263   1.808   3.780   4.285
  788SOL    HW2 3264   1.881   3.833   4.149
  789SOL     OW 3265   5.651   3.945   0.984
  789SOL    HW1 3266   5.728   3.999   0.950
  789SOL    HW2 3267   5.567   3.975   0.940
  790SOL     OW 3268   3.034   1.488   3.746
  790SOL    HW1 3269   3.063   1.553   3.816
  790SOL    HW2 3270   3.006   1.537   3.664
  791SOL     OW 3271   3.025   1.711   4.082
  791SOL    HW1 3272   2.949   1.754   4.131
  791SOL    HW2 3273   3.045   1.622   4.124
  792SOL     OW 3274   5.716   0.381   3.830
  792SOL    HW1 3275   5.711   0.331   3.917
  792SOL    HW2 3276   5.810   0.413   3.816
  793SOL     OW 3277   5.564   0.236   6.864
  793SOL    HW1 3278   5.640   0.280   6.815
  793SOL    HW2 3279   5.505   0.307   6.904
  794SOL     OW 3280   2.625   5.355   5.495
  794SOL    HW1 3281   2.621   5.267   5.543
  794SOL    HW2 3282   2.717   5.370   5.459
  795SOL     OW 3283   4.707   4.519   6.365
  795SOL    HW1 3284   4.683   4.447   6.301
  795SOL    HW2 3285   4.747   4.479   6.448
  796SOL     OW 3286   0.307   2.319   6.517
  796SOL    HW1 3287   0.274   2.330   6.610
  796SOL    HW2 3288   0.242   2.361   6.453
  797SOL     OW 3289   5.867   2.941   3.989
  797SOL    HW1 3290   5.918   2.870   3.940
  797SOL    HW2 3291   5.921   3.025   3.990
  798SOL     OW 3292   5.224   1.040   6.003
  798SOL    HW1 3293   5.180   1.130   6.006
  798SOL    HW2 3294   5.323   1.052   5.999
  799SOL     OW 3295   6.690   3.287   3.157
  799SOL    HW1 3296   6.696   3.242   3.246
  799SOL    HW2 3297   6.751   3.366   3.155
  800SOL     OW 3298   6.333   1.286   1.977
  800SOL    HW1 3299   6.372   1.281   2.068
  800SOL    HW2 3300   6.330   1.381   1.946
  801SOL     OW 3301   0.456   2.744   3.488
  801SOL    HW1 3302   0.360   2.766   3.507
  801SOL    HW2 3303   0.500   2.823   3.446
  802SOL     OW 3304   5.449   1.137   0.710
  802SOL    HW1 3305   5.479   1.166   0.801
  802SOL    HW2 3306   5.518   1.161   0.643
  803SOL     OW 3307   6.684   0.051   5.120
  803SOL    HW1 3308   6.716   7.009   5.186
  803SOL    HW2 3309   6.613   0.107   5.161
  804SOL     OW 3310   0.405   6.906   0.091
  804SOL    HW1 3311   0.490   6.957   0.109
  804SOL    HW2 3312   0.408   6.819   0.139
  805SOL     OW 3313   2.827   3.076   6.466
  805SOL    HW1 3314   2.917   3.032   6.473
  805SOL    HW2 3315   2.836   3.163   6.419
  806SOL     OW 3316   5.255   0.612   0.710
  806SOL    HW1 3317   5.280   0.703   0.679
  806SOL    HW2 3318   5.335   0.566   0.748
  807SOL     OW 3319   1.544   0.170   3.626
  807SOL    HW1 3320   1.588   0.093   3.673
  807SOL    HW2 3321   1.508   0.139   3.538
  808SOL     OW 3322   5.150   3.180   5.404
  808SOL    HW1 3323   5.164   3.256   5.341
  808SOL    HW2 3324   5.210   3.191   5.484
  809SOL     OW 3325   0.205   4.506   6.481
  809SOL    HW1 3326   0.187   4.430   6.543
  809SOL    HW2 3327   0.128   4.516   6.418
  810SOL     OW 3328   5.949   4.239   0.008
  810SOL    HW1 3329   5.880   4.171   7.009
  810SOL    HW2 3330   6.022   4.239   6.966
  811SOL     OW 3331   4.797   5.103   3.939
  811SOL    HW1 3332   4.764   5.141   4.026
  811SOL    HW2 3333   4.849   5.174   3.890
  812SOL     OW 3334   0.202   6.915   1.778
  812SOL    HW1 3335   0.245   7.005   1.783
  812SOL    HW2 3336   0.238   6.856   1.850
  813SOL     OW 3337   5.399   5.677   2.412
  813SOL    HW1 3338   5.447   5.662   2.325
  813SOL    HW2 3339   5.322   5.614   2.418
  814SOL     OW 3340   5.896   6.557   1.874
  814SOL    HW1 3341   5.836   6.523   1.947
  814SOL    HW2 3342   5.864   6.521   1.786
  815SOL     OW 3343   6.936   2.517   1.137
  815SOL    HW1 3344   6.993   2.436   1.149
  815SOL    HW2 3345   6.844   2.489   1.108
  816SOL     OW 3346   6.724   6.764   0.841
  816SOL    HW1 3347   6.724   6.797   0.747
  816SOL    HW2 3348   6.710   6.665   0.843
  817SOL     OW 3349   1.986   2.692   2.513
  817SOL    HW1 3350   2.081   2.688   2.544
  817SOL    HW2 3351   1.935   2.758   2.568
  818SOL     OW 3352   6.308   1.741   1.345
  818SOL    HW1 3353   6.354   1.810   1.401
  818SOL    HW2 3354   6.372   1.666   1.326
  819SOL     OW 3355   6.780   3.659   4.226
  819SOL    HW1 3356   6.850   3.627   4.163
  819SOL    HW2 3357   6.690   3.630   4.194
  820SOL     OW 3358   1.050   3.217   4.799
  820SOL    HW1 3359   1.006   3.287   4.855
  820SOL    HW2 3360   1.104   3.262   4.728
  821SOL     OW 3361   1.191   3.538   6.865
  821SOL    HW1 3362   1.231   3.612   6.921
  821SOL    HW2 3363   1.097   3.522   6.893
  822SOL     OW 3364   1.679   3.922   4.442
  822SOL    HW1 3365   1.587   3.921   4.401
  822SOL    HW2 3366   1.672   3.898   4.538
  823SOL     OW 3367   3.791   4.222   0.353
  823SOL    HW1 3368   3.726   4.269   0.293
  823SOL    HW2 3369   3.749   4.137   0.387
  824SOL     OW 3370   5.443   2.048   5.918
  824SOL    HW1 3371   5.412   1.954   5.906
  824SOL    HW2 3372   5.418   2.080   6.009
  825SOL     OW 3373   2.256   4.255   1.998
  825SOL    HW1 3374   2.296   4.347   2.004
  825SOL    HW2 3375   2.310   4.199   1.935
  826SOL     OW 3376   0.075   4.250   6.346
  826SOL    HW1 3377   0.017   4.329   6.331
  826SOL    HW2 3378   0.097   4.206   6.259
  827SOL     OW 3379   3.818   6.045   7.023
  827SOL    HW1 3380   3.731   6.086   6.994
  827SOL    HW2 3381   3.847   6.087   0.083
  828SOL     OW 3382   6.242   0.195   5.914
  828SOL    HW1 3383   6.184   0.127   5.871
  828SOL    HW2 3384   6.287   0.155   5.994
  829SOL     OW 3385   3.573   2.922   4.877
  829SOL    HW1 3386   3.627   3.006   4.876
  829SOL    HW2 3387   3.554   2.893   4.784
  830SOL     OW 3388   4.537   4.090   5.486
  830SOL    HW1 3389   4.512   3.997   5.460
  830SOL    HW2 3390   4.455   4.143   5.507
  831SOL     OW 3391   6.359   1.043   4.894
  831SOL    HW1 3392   6.339   1.028   4.798
  831SOL    HW2 3393   6.273   1.050   4.945
  832SOL     OW 3394   1.999   1.786   5.868
  832SOL    HW1 3395   2.099   1.793   5.865
  832SOL    HW2 3396   1.973   1.689   5.868
  833SOL     OW 3397   6.728   6.760   6.111
  833SOL    HW1 3398   6.758   6.760   6.015
  833SOL    HW2 3399   6.639   6.714   6.118
  834SOL     OW 3400   3.117   4.109   5.087
  834SOL    HW1 3401   3.052   4.160   5.144
  834SOL    HW2 3402   3.205   4.157   5.087
  835SOL     OW 3403   3.981   6.768   3.324
  835SOL    HW1 3404   3.991   6.703   3.400
  835SOL    HW2 3405   3.936   6.850   3.357
  836SOL     OW 3406   2.549   1.175   0.505
  836SOL    HW1 3407   2.472   1.236   0.526
  836SOL    HW2 3408   2.558   1.167   0.405
  837SOL     OW 3409   4.828   1.109   5.981
  837SOL    HW1 3410   4.905   1.152   6.027
  837SOL    HW2 3411   4.787   1.172   5.915
  838SOL     OW 3412   2.541   5.423   3.139
  838SOL    HW1 3413   2.500   5.338   3.105
  838SOL    HW2 3414   2.564   5.414   3.235
  839SOL     OW 3415   3.075   1.679   2.611
  839SOL    HW1 3416   3.170   1.704   2.625
  839SOL    HW2 3417   3.020   1.762   2.599
  840SOL     OW 3418   1.057   1.293   6.652
  840SOL    HW1 3419   1.116   1.324   6.727
  840SOL    HW2 3420   1.067   1.194   6.640
  841SOL     OW 3421   0.936   3.516   6.968
  841SOL    HW1 3422   0.841   3.484   6.961
  841SOL    HW2 3423   0.957   3.536   0.038
  842SOL     OW 3424   3.757   5.324   3.319
  842SOL    HW1 3425   3.775   5.359   3.227
  842SOL    HW2 3426   3.767   5.224   3.319
  843SOL     OW 3427   6.646   2.416   1.936
  843SOL    HW1 3428   6.613   2.326   1.965
  843SOL    HW2 3429   6.622   2.484   2.005
  844SOL     OW 3430   5.259   5.885   0.617
  844SOL    HW1 3431   5.271   5.786   0.624
  844SOL    HW2 3432   5.199   5.916   0.691
  845SOL     OW 3433   0.664   4.773   5.082
  845SOL    HW1 3434   0.728   4.704   5.115
  845SOL    HW2 3435   0.695   4.864   5.110
  846SOL     OW 3436   6.301   1.778   6.565
  846SOL    HW1 3437   6.343   1.826   6.489
  846SOL    HW2 3438   6.360   1.784   6.646
  847SOL     OW 3439   4.909   3.442   2.344
  847SOL    HW1 3440   4.879   3.479   2.257
  847SOL    HW2 3441   4.919   3.516   2.411
  848SOL     OW 3442   5.715   0.508   5.795
  848SOL    HW1 3443   5.755   0.581   5.850
  848SOL    HW2 3444   5.736   0.420   5.836
  849SOL     OW 3445   0.506   5.224   4.406
  849SOL    HW1 3446   0.486   5.131   4.376
  849SOL    HW2 3447   0.589   5.224   4.461
  850SOL     OW 3448   3.464   0.759   2.714
  850SOL    HW1 3449   3.456   0.692   2.640
  850SOL    HW2 3450   3.471   0.711   2.801
  851SOL     OW 3451   1.418   0.564   6.390
  851SOL    HW1 3452   1.352   0.535   6.320
  851SOL    HW2 3453   1.435   0.662   6.381
  852SOL     OW 3454   2.165   3.934   6.494
  852SOL    HW1 3455   2.073   3.912   6.527
  852SOL    HW2 3456   2.194   4.021   6.534
  853SOL     OW 3457   1.787   3.964   1.426
  853SOL    HW1 3458   1.713   3.932   1.368
  853SOL    HW2 3459   1.848   4.024   1.373
  854SOL     OW 3460   5.651   5.153   1.920
  854SOL    HW1 3461   5.623   5.094   1.995
  854SOL    HW2 3462   5.650   5.101   1.834
  855SOL     OW 3463   5.055   0.327   1.736
  855SOL    HW1 3464   5.131   0.391   1.724
  855SOL    HW2 3465   5.073   0.244   1.684
  856SOL     OW 3466   1.875   6.951   5.093
  856SOL    HW1 3467   1.818   6.945   5.011
  856SOL    HW2 3468   1.872   0.018   5.130
  857SOL     OW 3469   6.844   3.646   2.034
  857SOL    HW1 3470   6.775   3.574   2.033
  857SOL    HW2 3471   6.932   3.609   2.006
  858SOL     OW 3472   3.267   4.383   1.177
  858SOL    HW1 3473   3.185   4.335   1.144
  858SOL    HW2 3474   3.310   4.328   1.249
  859SOL     OW 3475   6.726   4.918   6.731
  859SOL    HW1 3476   6.661   4.994   6.729
  859SOL    HW2 3477   6.676   4.832   6.722
  860SOL     OW 3478   2.012   4.552   1.552
  860SOL    HW1 3479   1.962   4.466   1.546
  860SOL    HW2 3480   1.975   4.607   1.627
  861SOL     OW 3481   3.368   5.879   5.506
  861SOL    HW1 3482   3.466   5.901   5.507
  861SOL    HW2 3483   3.340   5.861   5.412
  862SOL     OW 3484   4.628   4.459   4.217
  862SOL    HW1 3485   4.649   4.411   4.132
  862SOL    HW2 3486   4.636   4.396   4.294
  863SOL     OW 3487   5.854   0.878   1.272
  863SOL    HW1 3488   5.803   0.865   1.187
  863SOL    HW2 3489   5.945   0.914   1.251
  864SOL     OW 3490   5.960   4.499   2.985
  864SOL    HW1 3491   5.925   4.576   3.037
  864SOL    HW2 3492   5.885   4.456   2.934
  865SOL     OW 3493   1.666   6.881   4.379
  865SOL    HW1 3494   1.567   6.894   4.382
  865SOL    HW2 3495   1.703   6.916   4.293
  866SOL     OW 3496   3.173   1.717   1.759
  866SOL    HW1 3497   3.227   1.796   1.787
  866SOL    HW2 3498   3.110   1.744   1.686
  867SOL     OW 3499   1.428   2.830   6.121
  867SOL    HW1 3500   1.471   2.743   6.098
  867SOL    HW2 3501   1.329   2.823   6.107
  868SOL     OW 3502   5.036   2.765   3.489
  868SOL    HW1 3503   5.021   2.809   3.401
  868SOL    HW2 3504   5.029   2.666   3.479
  869SOL     OW 3505   6.381   4.985   2.778
  869SOL    HW1 3506   6.318   4.913   2.809
  869SOL    HW2 3507   6.473   4.946   2.769
  870SOL     OW 3508   0.116   1.595   0.862
  870SOL    HW1 3509   0.036   1.589   0.922
  870SOL    HW2 3510   0.144   1.503   0.835
  871SOL     OW 3511   6.053   3.096   0.791
  871SOL    HW1 3512   6.113   3.174   0.810
  871SOL    HW2 3513   6.053   3.077   0.693
  872SOL     OW 3514   5.830   2.222   3.175
  872SOL    HW1 3515   5.802   2.126   3.176
  872SOL    HW2 3516   5.922   2.230   3.214
  873SOL     OW 3517   4.345   6.921   5.653
  873SOL    HW1 3518   4.265   6.863   5.669
  873SOL    HW2 3519   4.413   6.870   5.599
  874SOL     OW 3520   0.677   3.562   5.937
  874SOL    HW1 3521   0.676   3.513   5.850
  874SOL    HW2 3522   0.678   3.497   6.013
  875SOL     OW 3523   6.425   4.562   6.689
  875SOL    HW1 3524   6.488   4.573   6.765
  875SOL    HW2 3525   6.369   4.644   6.679
  876SOL     OW 3526   0.721   3.417   2.097
  876SOL    HW1 3527   0.819   3.402   2.089
  876SOL    HW2 3528   0.696   3.424   2.193
  877SOL     OW 3529   5.781   5.808   0.514
  877SOL    HW1 3530   5.804   5.905   0.507
  877SOL    HW2 3531   5.860   5.758   0.550
  878SOL     OW 3532   3.103   4.267   0.182
  878SOL    HW1 3533   3.167   4.190   0.184
  878SOL    HW2 3534   3.154   4.353   0.176
  879SOL     OW 3535   4.734   2.375   1.919
  879SOL    HW1 3536   4.663   2.350   1.985
  879SOL    HW2 3537   4.780   2.458   1.950
  880SOL     OW 3538   3.965   5.185   0.752
  880SOL    HW1 3539   4.049   5.136   0.729
  880SOL    HW2 3540   3.958   5.195   0.851
  881SOL     OW 3541   4.482   5.325   4.988
  881SOL    HW1 3542   4.395   5.288   5.018
  881SOL    HW2 3543   4.472   5.362   4.895
  882SOL     OW 3544   0.934   0.920   4.426
  882SOL    HW1 3545   0.978   0.917   4.516
  882SOL    HW2 3546   0.852   0.977   4.431
  883SOL     OW 3547   3.098   5.121   6.241
  883SOL    HW1 3548   3.000   5.134   6.224
  883SOL    HW2 3549   3.124   5.027   6.219
  884SOL     OW 3550   4.683   3.912   1.419
  884SOL    HW1 3551   4.708   3.826   1.374
  884SOL    HW2 3552   4.586   3.929   1.407
  885SOL     OW 3553   4.292   6.517   0.254
  885SOL    HW1 3554   4.315   6.466   0.337
  885SOL    HW2 3555   4.355   6.594   0.243
  886SOL     OW 3556   4.554   1.608   6.093
  886SOL    HW1 3557   4.455   1.606   6.075
  886SOL    HW2 3558   4.600   1.657   6.020
  887SOL     OW 3559   4.423   0.692   6.271
  887SOL    HW1 3560   4.449   0.788   6.261
  887SOL    HW2 3561   4.357   0.683   6.346
  888SOL     OW 3562   6.429   5.951   3.351
  888SOL    HW1 3563   6.465   6.043   3.368
  888SOL    HW2 3564   6.363   5.956   3.276
  889SOL     OW 3565   0.551   6.872   4.848
  889SOL    HW1 3566   0.480   6.811   4.811
  889SOL    HW2 3567   0.631   6.870   4.788
  890SOL     OW 3568   2.796   4.658   2.207
  890SOL    HW1 3569   2.776   4.574   2.257
  890SOL    HW2 3570   2.837   4.636   2.119
  891SOL     OW 3571   5.882   3.102   6.435
  891SOL    HW1 3572   5.883   3.138   6.342
  891SOL    HW2 3573   5.899   3.004   6.433
  892SOL     OW 3574   3.170   5.084   1.723
  892SOL    HW1 3575   3.110   5.138   1.663
  892SOL    HW2 3576   3.116   5.041   1.795
  893SOL     OW 3577   2.312   0.389   0.196
  893SOL    HW1 3578   2.330   0.471   0.251
  893SOL    HW2 3579   2.228   0.346   0.229
  894SOL     OW 3580   0.999   5.693   3.736
  894SOL    HW1 3581   1.097   5.692   3.754
  894SOL    HW2 3582   0.949   5.707   3.822
  895SOL     OW 3583   1.871   6.645   5.049
  895SOL    HW1 3584   1.840   6.717   4.987
  895SOL    HW2 3585   1.820   6.651   5.135
  896SOL     OW 3586   5.209   6.904   3.378
  896SOL    HW1 3587   5.153   6.900   3.295
  896SOL    HW2 3588   5.176   6.836   3.444
  897SOL     OW 3589   5.471   2.769   6.128
  897SOL    HW1 3590   5.383   2.764   6.175
  897SOL    HW2 3591   5.467   2.712   6.046
  898SOL     OW 3592   5.925   6.366   3.886
  898SOL    HW1 3593   5.938   6.267   3.887
  898SOL    HW2 3594   5.916   6.398   3.791
  899SOL     OW 3595   0.358   4.940   6.194
  899SOL    HW1 3596   0.444   4.904   6.229
  899SOL    HW2 3597   0.357   4.933   6.095
  900SOL     OW 3598   1.097   6.065   3.525
  900SOL    HW1 3599   1.071   6.041   3.432
  900SOL    HW2 3600   1.194   6.090   3.528
  901SOL     OW 3601   5.949   2.336   3.653
  901SOL    HW1 3602   5.957   2.348   3.752
  901SOL    HW2 3603   6.039   2.315   3.614
  902SOL     OW 3604   0.025   6.355   6.978
  902SOL    HW1 3605   0.073   6.348   0.040
  902SOL    HW2 3606   7.008   6.445   6.971
  903SOL     OW 3607   1.190   4.488   0.493
  903SOL    HW1 3608   1.124   4.552   0.532
  903SOL    HW2 3609   1.261   4.468   0.560
  904SOL     OW 3610   2.062   1.730   3.432
  904SOL    HW1 3611   2.160   1.718   3.448
  904SOL    HW2 3612   2.021   1.642   3.408
  905SOL     OW 3613   5.561   1.952   5.234
  905SOL    HW1 3614   5.581   2.011   5.157
  905SOL    HW2 3615   5.603   1.862   5.220
  906SOL     OW 3616   6.113   4.012   5.364
  906SOL    HW1 3617   6.159   4.086   5.414
  906SOL    HW2 3618   6.132   4.022   5.266
  907SOL     OW 3619   6.875   3.292   1.806
  907SOL    HW1 3620   6.810   3.368   1.813
  907SOL    HW2 3621   6.911   3.288   1.713
  908SOL     OW 3622   2.098   0.555   3.428
  908SOL    HW1 3623   2.024   0.599   3.376
  908SOL    HW2 3624   2.089   0.579   3.525
  909SOL     OW 3625   3.719   0.730   1.500
  909SOL    HW1 3626   3.702   0.772   1.589
  909SOL    HW2 3627   3.745   0.801   1.435
  910SOL     OW 3628   1.896   1.982   1.206
  910SOL    HW1 3629   1.928   2.076   1.215
  910SOL    HW2 3630   1.824   1.965   1.273
  911SOL     OW 3631   0.250   4.168   1.209
  911SOL    HW1 3632   0.334   4.171   1.263
  911SOL    HW2 3633   0.235   4.074   1.177
  912SOL     OW 3634   0.808   0.353   5.716
  912SOL    HW1 3635   0.730   0.337   5.777
  912SOL    HW2 3636   0.801   0.445   5.677
  913SOL     OW 3637   2.442   1.415   1.921
  913SOL    HW1 3638   2.451   1.353   1.999
  913SOL    HW2 3639   2.531   1.455   1.899
  914SOL     OW 3640   3.447   6.569   2.996
  914SOL    HW1 3641   3.427   6.634   2.923
  914SOL    HW2 3642   3.521   6.604   3.053
  915SOL     OW 3643   0.759   2.407   0.200
  915SOL    HW1 3644   0.737   2.312   0.181
  915SOL    HW2 3645   0.765   2.458   0.114
  916SOL     OW 3646   1.820   3.287   3.109
  916SOL    HW1 3647   1.741   3.231   3.138
  916SOL    HW2 3648   1.793   3.343   3.031
  917SOL     OW 3649   3.323   2.438   0.123
  917SOL    HW1 3650   3.354   2.429   0.029
  917SOL    HW2 3651   3.275   2.355   0.151
  918SOL     OW 3652   1.047   0.984   5.732
  918SOL    HW1 3653   1.029   0.895   5.776
  918SOL    HW2 3654   1.002   1.056   5.784
  919SOL     OW 3655   2.625   6.368   1.650
  919SOL    HW1 3656   2.554   6.348   1.582
  919SOL    HW2 3657   2.638   6.466   1.657
  920SOL     OW 3658   1.926   0.497   4.246
  920SOL    HW1 3659   1.990   0.428   4.281
  920SOL    HW2 3660   1.977   0.579   4.219
  921SOL     OW 3661   5.183   5.032   5.920
  921SOL    HW1 3662   5.130   5.074   5.846
  921SOL    HW2 3663   5.125   5.019   6.000
  922SOL     OW 3664   2.346   3.730   6.652
  922SOL    HW1 3665   2.357   3.758   6.556
  922SOL    HW2 3666   2.360   3.809   6.712
  923SOL     OW 3667   3.913   0.708   6.581
  923SOL    HW1 3668   3.989   0.689   6.518
  923SOL    HW2 3669   3.871   0.796   6.557
  924SOL     OW 3670   6.288   3.839   3.225
  924SOL    HW1 3671   6.234   3.779   3.165
  924SOL    HW2 3672   6.286   3.932   3.189
  925SOL     OW 3673   6.405   1.990   3.375
  925SOL    HW1 3674   6.443   1.899   3.391
  925SOL    HW2 3675   6.327   1.984   3.313
  926SOL     OW 3676   5.354   6.479   0.727
  926SOL    HW1 3677   5.342   6.570   0.767
  926SOL    HW2 3678   5.276   6.421   0.750
  927SOL     OW 3679   4.286   5.137   4.813
  927SOL    HW1 3680   4.321   5.090   4.895
  927SOL    HW2 3681   4.302   5.080   4.733
  928SOL     OW 3682   0.527   1.276   1.316
  928SOL    HW1 3683   0.477   1.343   1.262
  928SOL    HW2 3684   0.461   1.217   1.365
  929SOL     OW 3685   0.768   2.618   2.590
  929SOL    HW1 3686   0.811   2.691   2.643
  929SOL    HW2 3687   0.834   2.578   2.526
  930SOL     OW 3688   4.740   5.900   3.536
  930SOL    HW1 3689   4.799   5.820   3.544
  930SOL    HW2 3690   4.645   5.870   3.530
  931SOL     OW 3691   1.653   3.089   1.903
  931SOL    HW1 3692   1.746   3.052   1.906
  931SOL    HW2 3693   1.630   3.131   1.991
  932SOL     OW 3694   4.605   6.317   1.534
  932SOL    HW1 3695   4.563   6.227   1.546
  932SOL    HW2 3696   4.631   6.328   1.438
  933SOL     OW 3697   2.137   6.250   3.107
  933SOL    HW1 3698   2.044   6.273   3.077
  933SOL    HW2 3699   2.203   6.300   3.052
  934SOL     OW 3700   3.129   1.334   5.273
  934SOL    HW1 3701   3.084   1.399   5.333
  934SOL    HW2 3702   3.222   1.367   5.252
  935SOL     OW 3703   2.832   3.073   6.897
  935SOL    HW1 3704   2.800   3.153   6.947
  935SOL    HW2 3705   2.770   3.054   6.821
  936SOL     OW 3706   0.560   1.570   2.080
  936SOL    HW1 3707   0.609   1.577   1.993
  936SOL    HW2 3708   0.497   1.493   2.077
  937SOL     OW 3709   4.855   2.168   3.920
  937SOL    HW1 3710   4.839   2.260   3.954
  937SOL    HW2 3711   4.821   2.159   3.827
  938SOL     OW 3712   0.129   2.177   7.000
  938SOL    HW1 3713   0.194   2.184   0.050
  938SOL    HW2 3714   0.165   2.113   6.932
  939SOL     OW 3715   6.090   1.372   5.949
  939SOL    HW1 3716   6.028   1.410   5.880
  939SOL    HW2 3717   6.113   1.442   6.016
  940SOL     OW 3718   0.552   0.699   4.395
  940SOL    HW1 3719   0.459   0.683   4.360
  940SOL    HW2 3720   0.583   0.790   4.366
  941SOL     OW 3721   5.337   2.577   4.927
  941SOL    HW1 3722   5.386   2.491   4.944
  941SOL    HW2 3723   5.388   2.652   4.969
  942SOL     OW 3724   5.254   0.159   5.287
  942SOL    HW1 3725   5.324   0.129   5.351
  942SOL    HW2 3726   5.192   0.084   5.267
  943SOL     OW 3727   5.906   1.523   0.109
  943SOL    HW1 3728   5.853   1.567   0.036
  943SOL    HW2 3729   5.858   1.534   0.196
  944SOL     OW 3730   6.262   4.058   4.887
  944SOL    HW1 3731   6.185   4.017   4.936
  944SOL    HW2 3732   6.337   4.072   4.950
  945SOL     OW 3733   5.354   4.410   5.196
  945SOL    HW1 3734   5.321   4.315   5.192
  945SOL    HW2 3735   5.453   4.409   5.205
  946SOL     OW 3736   5.835   2.793   6.017
  946SOL    HW1 3737   5.822   2.752   6.108
  946SOL    HW2 3738   5.933   2.805   6.000
  947SOL     OW 3739   1.960   3.168   5.796
  947SOL    HW1 3740   2.024   3.187   5.870
  947SOL    HW2 3741   1.991   3.088   5.744
  948SOL     OW 3742   3.786   1.911   0.220
  948SOL    HW1 3743   3.879   1.929   0.251
  948SOL    HW2 3744   3.721   1.952   0.284
  949SOL     OW 3745   5.601   5.846   6.380
  949SOL    HW1 3746   5.654   5.762   6.367
  949SOL    HW2 3747   5.663   5.921   6.404
  950SOL     OW 3748   4.051   5.438   0.724
  950SOL    HW1 3749   4.069   5.461   0.820
  950SOL    HW2 3750   4.018   5.344   0.719
  951SOL     OW 3751   1.431   2.388   3.007
  951SOL    HW1 3752   1.364   2.447   3.052
  951SOL    HW2 3753   1.393   2.353   2.922
  952SOL     OW 3754   5.259   1.587   1.926
  952SOL    HW1 3755   5.257   1.568   1.828
  952SOL    HW2 3756   5.332   1.652   1.946
  953SOL     OW 3757   3.494   7.011   6.480
  953SOL    HW1 3758   3.554   0.013   6.554
  953SOL    HW2 3759   3.541   7.025   6.392
  954SOL     OW 3760   6.949   5.895   0.597
  954SOL    HW1 3761   6.953   5.854   0.688
  954SOL    HW2 3762   6.857   5.929   0.579
  955SOL     OW 3763   6.325   0.016   2.422
  955SOL    HW1 3764   6.294   6.974   2.488
  955SOL    HW2 3765   6.299   7.013   2.330
  956SOL     OW 3766   1.092   2.279   0.372
  956SOL    HW1 3767   1.008   2.265   0.425
  956SOL    HW2 3768   1.156   2.204   0.391
  957SOL     OW 3769   2.607   6.393   5.209
  957SOL    HW1 3770   2.582   6.343   5.126
  957SOL    HW2 3771   2.573   6.487   5.204
  958SOL     OW 3772   4.940   2.302   0.335
  958SOL    HW1 3773   4.893   2.220   0.367
  958SOL    HW2 3774   5.029   2.309   0.382
  959SOL     OW 3775   1.287   4.426   2.660
  959SOL    HW1 3776   1.295   4.481   2.743
  959SOL    HW2 3777   1.327   4.335   2.676
  960SOL     OW 3778   1.844   5.510   5.543
  960SOL    HW1 3779   1.796   5.427   5.516
  960SOL    HW2 3780   1.941   5.490   5.555
  961SOL     OW 3781   3.407   6.429   1.914
  961SOL    HW1 3782   3.331   6.407   1.975
  961SOL    HW2 3783   3.455   6.345   1.889
  962SOL     OW 3784   1.398   6.910   4.345
  962SOL    HW1 3785   1.333   6.944   4.277
  962SOL    HW2 3786   1.422   6.815   4.325
  963SOL     OW 3787   6.055   0.547   1.506
  963SOL    HW1 3788   6.059   0.449   1.522
  963SOL    HW2 3789   6.104   0.595   1.578
  964SOL     OW 3790   5.096   4.004   1.384
  964SOL    HW1 3791   5.140   4.083   1.343
  964SOL    HW2 3792   5.012   4.032   1.430
  965SOL     OW 3793   1.026   2.298   0.935
  965SOL    HW1 3794   0.995   2.378   0.988
  965SOL    HW2 3795   0.960   2.224   0.946
  966SOL     OW 3796   0.268   1.792   1.403
  966SOL    HW1 3797   0.327   1.871   1.415
  966SOL    HW2 3798   0.307   1.714   1.453
  967SOL     OW 3799   0.636   6.400   2.538
  967SOL    HW1 3800   0.718   6.457   2.538
  967SOL    HW2 3801   0.584   6.416   2.621
  968SOL     OW 3802   6.333   3.897   2.533
  968SOL    HW1 3803   6.279   3.958   2.475
  968SOL    HW2 3804   6.422   3.882   2.491
  969SOL     OW 3805   4.625   6.149   5.734
  969SOL    HW1 3806   4.533   6.146   5.694
  969SOL    HW2 3807   4.673   6.063   5.714
  970SOL     OW 3808   4.330   2.121   5.298
  970SOL    HW1 3809   4.319   2.075   5.386
  970SOL    HW2 3810   4.411   2.085   5.252
  971SOL     OW 3811   6.697   1.947   1.529
  971SOL    HW1 3812   6.758   1.961   1.607
  971SOL    HW2 3813   6.751   1.920   1.449
  972SOL     OW 3814   6.971   5.316   1.283
  972SOL    HW1 3815   6.880   5.290   1.251
  972SOL    HW2 3816   6.985   5.280   1.376
  973SOL     OW 3817   6.100   4.073   5.707
  973SOL    HW1 3818   6.117   4.164   5.671
  973SOL    HW2 3819   6.150   4.061   5.793
  974SOL     OW 3820   2.513   1.186   4.132
  974SOL    HW1 3821   2.422   1.203   4.170
  974SOL    HW2 3822   2.504   1.132   4.048
  975SOL     OW 3823   3.494   6.897   5.755
  975SOL    HW1 3824   3.444   6.841   5.820
  975SOL    HW2 3825   3.530   6.839   5.682
  976SOL     OW 3826   0.444   5.397   3.878
  976SOL    HW1 3827   0.388   5.372   3.799
  976SOL    HW2 3828   0.404   5.476   3.924
  977SOL     OW 3829   1.667   1.378   3.567
  977SOL    HW1 3830   1.597   1.309   3.585
  977SOL    HW2 3831   1.644   1.462   3.616
  978SOL     OW 3832   5.917   2.956   4.905
  978SOL    HW1 3833   5.819   2.972   4.915
  978SOL    HW2 3834   5.966   3.042   4.920
  979SOL     OW 3835   5.366   0.846   3.025
  979SOL    HW1 3836   5.437   0.853   2.955
  979SOL    HW2 3837   5.386   0.768   3.085
  980SOL     OW 3838   5.749   0.982   4.898
  980SOL    HW1 3839   5.658   0.982   4.938
  980SOL    HW2 3840   5.790   1.072   4.907
  981SOL     OW 3841   0.108   2.777   5.515
  981SOL    HW1 3842   0.132   2.867   5.552
  981SOL    HW2 3843   0.011   2.758   5.533
  982SOL     OW 3844   1.373   2.917   1.329
  982SOL    HW1 3845   1.471   2.935   1.328
  982SOL    HW2 3846   1.348   2.859   1.251
  983SOL     OW 3847   5.472   1.315   3.004
  983SOL    HW1 3848   5.445   1.229   2.960
  983SOL    HW2 3849   5.571   1.326   2.997
  984SOL     OW 3850   4.885   0.738   4.053
  984SOL    HW1 3851   4.794   0.747   4.014
  984SOL    HW2 3852   4.953   0.758   3.983
  985SOL     OW 3853   3.112   5.648   6.981
  985SOL    HW1 3854   3.203   5.621   7.013
  985SOL    HW2 3855   3.095   5.743   7.009
  986SOL     OW 3856   4.601   5.235   6.189
  986SOL    HW1 3857   4.520   5.282   6.223
  986SOL    HW2 3858   4.629   5.273   6.101
  987SOL     OW 3859   3.568   6.949   2.600
  987SOL    HW1 3860   3.615   6.878   2.548
  987SOL    HW2 3861   3.612   6.960   2.689
  988SOL     OW 3862   3.408   4.069   1.915
  988SOL    HW1 3863   3.311   4.094   1.916
  988SOL    HW2 3864   3.428   4.016   1.833
  989SOL     OW 3865   0.815   7.012   5.285
  989SOL    HW1 3866   0.730   7.002   5.337
  989SOL    HW2 3867   0.833   6.927   5.235
  990SOL     OW 3868   4.535   5.983   3.734
  990SOL    HW1 3869   4.611   6.041   3.706
  990SOL    HW2 3870   4.496   5.939   3.653
  991SOL     OW 3871   6.203   1.798   5.061
  991SOL    HW1 3872   6.144   1.720   5.082
  991SOL    HW2 3873   6.297   1.767   5.047
  992SOL     OW 3874   0.390   3.318   0.881
  992SOL    HW1 3875   0.394   3.373   0.797
  992SOL    HW2 3876   0.302   3.332   0.926
  993SOL     OW 3877   3.522   5.066   3.784
  993SOL    HW1 3878   3.565   5.020   3.861
  993SOL    HW2 3879   3.548   5.021   3.698
  994SOL     OW 3880   2.920   3.623   2.750
  994SOL    HW1 3881   2.949   3.620   2.845
  994SOL    HW2 3882   2.849   3.692   2.738
  995SOL     OW 3883   1.085   1.323   4.855
  995SOL    HW1 3884   1.017   1.394   4.876
  995SOL    HW2 3885   1.176   1.363   4.857
  996SOL     OW 3886   1.425   3.789   2.582
  996SOL    HW1 3887   1.329   3.816   2.589
  996SOL    HW2 3888   1.465   3.787   2.674
  997SOL     OW 3889   6.700   1.012   1.667
  997SOL    HW1 3890   6.650   1.089   1.627
  997SOL    HW2 3891   6.663   0.993   1.758
  998SOL     OW 3892   5.086   6.956   3.137
  998SOL    HW1 3893   5.134   6.933   3.052
  998SOL    HW2 3894   5.049   0.022   3.131
  999SOL     OW 3895   0.333   5.132   1.165
  999SOL    HW1 3896   0.414   5.158   1.216
  999SOL    HW2 3897   0.359   5.103   1.073
 1000SOL     OW 3898   4.062   1.523   3.674
 1000SOL    HW1 3899   4.029   1.616   3.657
 1000SOL    HW2 3900   4.007   1.457   3.623
 1001SOL     OW 3901   4.514   0.526   5.184
 1001SOL    HW1 3902   4.489   0.496   5.276
 1001SOL    HW2 3903   4.541   0.446   5.130
 1002SOL     OW 3904   6.655   1.916   1.071
 1002SOL    HW1 3905   6.737   1.868   1.040
 1002SOL    HW2 3906   6.574   1.877   1.027
 1003SOL     OW 3907   4.609   5.289   2.340
 1003SOL    HW1 3908   4.532   5.352   2.328
 1003SOL    HW2 3909   4.587   5.201   2.297
 1004SOL     OW 3910   6.170   6.074   6.717
 1004SOL    HW1 3911   6.109   6.008   6.673
 1004SOL    HW2 3912   6.239   6.025   6.769
 1005SOL     OW 3913   6.798   6.483   3.626
 1005SOL    HW1 3914   6.720   6.466   3.685
 1005SOL    HW2 3915   6.871   6.526   3.679
 1006SOL     OW 3916   2.188   4.550   0.855
 1006SOL    HW1 3917   2.126   4.542   0.933
 1006SOL    HW2 3918   2.244   4.468   0.848
 1007SOL     OW 3919   0.418   1.076   3.299
 1007SOL    HW1 3920   0.427   1.149   3.232
 1007SOL    HW2 3921   0.487   1.088   3.371
 1008SOL     OW 3922   2.099   3.131   3.403
 1008SOL    HW1 3923   2.042   3.148   3.483
 1008SOL    HW2 3924   2.113   3.217   3.354
 1009SOL     OW 3925   1.401   6.223   4.999
 1009SOL    HW1 3926   1.468   6.247   5.070
 1009SOL    HW2 3927   1.424   6.270   4.914
 1010SOL     OW 3928   4.948   1.740   0.162
 1010SOL    HW1 3929   5.017   1.754   0.092
 1010SOL    HW2 3930   4.869   1.694   0.122
 1011SOL     OW 3931   3.580   6.181   3.301
 1011SOL    HW1 3932   3.547   6.156   3.210
 1011SOL    HW2 3933   3.512   6.239   3.346
 1012SOL     OW 3934   4.620   5.261   6.833
 1012SOL    HW1 3935   4.616   5.161   6.832
 1012SOL    HW2 3936   4.714   5.291   6.812
 1013SOL     OW 3937   0.783   0.982   1.331
 1013SOL    HW1 3938   0.749   0.940   1.415
 1013SOL    HW2 3939   0.882   0.970   1.325
 1014SOL     OW 3940   4.171   0.288   5.802
 1014SOL    HW1 3941   4.097   0.245   5.853
 1014SOL    HW2 3942   4.248   0.226   5.794
 1015SOL     OW 3943   3.190   6.011   4.084
 1015SOL    HW1 3944   3.182   6.049   4.176
 1015SOL    HW2 3945   3.100   6.006   4.042
 1016SOL     OW 3946   4.546   2.723   1.325
 1016SOL    HW1 3947   4.579   2.812   1.357
 1016SOL    HW2 3948   4.466   2.696   1.379
 1017SOL     OW 3949   4.127   1.791   6.640
 1017SOL    HW1 3950   4.089   1.879   6.666
 1017SOL    HW2 3951   4.204   1.805   6.577
 1018SOL     OW 3952   1.808   3.716   2.799
 1018SOL    HW1 3953   1.811   3.746   2.703
 1018SOL    HW2 3954   1.786   3.619   2.803
 1019SOL     OW 3955   6.425   0.998   0.283
 1019SOL    HW1 3956   6.431   1.070   0.352
 1019SOL    HW2 3957   6.453   0.911   0.324
 1020SOL     OW 3958   2.381   1.722   1.616
 1020SOL    HW1 3959   2.453   1.792   1.621
 1020SOL    HW2 3960   2.359   1.704   1.520
 1021SOL     OW 3961   6.680   1.133   1.187
 1021SOL    HW1 3962   6.595   1.186   1.191
 1021SOL    HW2 3963   6.704   1.101   1.279
 1022SOL     OW 3964   4.195   3.054   6.524
 1022SOL    HW1 3965   4.186   2.960   6.491
 1022SOL    HW2 3966   4.109   3.083   6.567
 1023SOL     OW 3967   5.249   1.024   3.383
 1023SOL    HW1 3968   5.299   1.072   3.311
 1023SOL    HW2 3969   5.154   1.011   3.354
 1024SOL     OW 3970   6.397   1.429   3.181
 1024SOL    HW1 3971   6.327   1.425   3.253
 1024SOL    HW2 3972   6.369   1.373   3.104
 1025SOL     OW 3973   2.945   4.656   1.154
 1025SOL    HW1 3974   2.971   4.564   1.182
 1025SOL    HW2 3975   2.845   4.661   1.144
 1026SOL     OW 3976   1.316   2.114   0.349
 1026SOL    HW1 3977   1.384   2.041   0.356
 1026SOL    HW2 3978   1.302   2.139   0.253
 1027SOL     OW 3979   2.619   4.774   2.534
 1027SOL    HW1 3980   2.607   4.736   2.625
 1027SOL    HW2 3981   2.715   4.795   2.518
 1028SOL     OW 3982   1.551   6.460   0.378
 1028SOL    HW1 3983   1.644   6.462   0.343
 1028SOL    HW2 3984   1.541   6.529   0.450
 1029SOL     OW 3985   2.951   0.498   6.141
 1029SOL    HW1 3986   2.857   0.515   6.170
 1029SOL    HW2 3987   2.979   0.567   6.074
 1030SOL     OW 3988   4.010   3.967   4.904
 1030SOL    HW1 3989   3.975   4.035   4.968
 1030SOL    HW2 3990   4.108   3.982   4.890
 1031SOL     OW 3991   2.135   5.665   1.405
 1031SOL    HW1 3992   2.214   5.697   1.353
 1031SOL    HW2 3993   2.053   5.673   1.348
 1032SOL     OW 3994   1.718   0.843   4.197
 1032SOL    HW1 3995   1.682   0.794   4.118
 1032SOL    HW2 3996   1.665   0.820   4.278
 1033SOL     OW 3997   2.258   5.958   3.518
 1033SOL    HW1 3998   2.279   5.890   3.448
 1033SOL    HW2 3999   2.224   6.041   3.475
 1034SOL     OW 4000   1.318   5.015   4.069
 1034SOL    HW1 4001   1.363   5.104   4.060
 1034SOL    HW2 4002   1.219   5.027   4.061
 1035SOL     OW 4003   2.254   1.308   4.500
 1035SOL    HW1 4004   2.213   1.394   4.531
 1035SOL    HW2 4005   2.261   1.245   4.578
 1036SOL     OW 4006   5.008   2.004   0.411
 1036SOL    HW1 4007   4.963   1.916   0.394
 1036SOL    HW2 4008   5.029   2.013   0.508
 1037SOL     OW 4009   2.768   1.936   6.728
 1037SOL    HW1 4010   2.754   1.987   6.643
 1037SOL    HW2 4011   2.855   1.962   6.768
 1038SOL     OW 4012   2.193   0.903   4.271
 1038SOL    HW1 4013   2.189   0.810   4.307
 1038SOL    HW2 4014   2.102   0.945   4.278
 1039SOL     OW 4015   4.105   1.709   3.075
 1039SOL    HW1 4016   4.015   1.675   3.048
 1039SOL    HW2 4017   4.098   1.804   3.105
 1040SOL     OW 4018   6.550   4.129   3.239
 1040SOL    HW1 4019   6.471   4.187   3.257
 1040SOL    HW2 4020   6.534   4.074   3.157
 1041SOL     OW 4021   0.794   0.134   4.237
 1041SOL    HW1 4022   0.880   0.177   4.264
 1041SOL    HW2 4023   0.748   0.097   4.318
 1042SOL     OW 4024   5.202   4.379   0.843
 1042SOL    HW1 4025   5.232   4.474   0.851
 1042SOL    HW2 4026   5.182   4.358   0.747
 1043SOL     OW 4027   3.011   0.932   6.328
 1043SOL    HW1 4028   2.986   1.010   6.270
 1043SOL    HW2 4029   3.064   0.965   6.406
 1044SOL     OW 4030   4.362   3.438   1.754
 1044SOL    HW1 4031   4.299   3.405   1.683
 1044SOL    HW2 4032   4.424   3.506   1.715
 1045SOL     OW 4033   3.091   1.569   3.105
 1045SOL    HW1 4034   3.177   1.525   3.131
 1045SOL    HW2 4035   3.088   1.662   3.142
 1046SOL     OW 4036   3.834   0.906   1.948
 1046SOL    HW1 4037   3.925   0.877   1.979
 1046SOL    HW2 4038   3.814   0.865   1.859
 1047SOL     OW 4039   1.114   4.951   2.376
 1047SOL    HW1 4040   1.153   4.910   2.458
 1047SOL    HW2 4041   1.110   5.050   2.387
 1048SOL     OW 4042   5.888   4.298   5.751
 1048SOL    HW1 4043   5.891   4.223   5.685
 1048SOL    HW2 4044   5.808   4.286   5.810
 1049SOL     OW 4045   0.463   3.436   5.016
 1049SOL    HW1 4046   0.532   3.365   5.033
 1049SOL    HW2 4047   0.485   3.484   4.932
 1050SOL     OW 4048   3.206   0.516   6.765
 1050SOL    HW1 4049   3.280   0.449   6.762
 1050SOL    HW2 4050   3.126   0.478   6.719
 1051SOL     OW 4051   4.348   4.548   1.470
 1051SOL    HW1 4052   4.333   4.460   1.516
 1051SOL    HW2 4053   4.260   4.590   1.450
 1052SOL     OW 4054   3.468   0.136   4.198
 1052SOL    HW1 4055   3.400   0.135   4.125
 1052SOL    HW2 4056   3.508   0.227   4.206
 1053SOL     OW 4057   4.249   4.734   3.761
 1053SOL    HW1 4058   4.259   4.701   3.667
 1053SOL    HW2 4059   4.338   4.758   3.797
 1054SOL     OW 4060   3.952   6.298   4.475
 1054SOL    HW1 4061   4.040   6.332   4.508
 1054SOL    HW2 4062   3.881   6.365   4.495
 1055SOL     OW 4063   4.671   5.143   5.060
 1055SOL    HW1 4064   4.640   5.073   4.995
 1055SOL    HW2 4065   4.620   5.228   5.044
 1056SOL     OW 4066   1.026   6.767   5.051
 1056SOL    HW1 4067   0.987   6.737   5.137
 1056SOL    HW2 4068   1.016   6.696   4.982
 1057SOL     OW 4069   3.790   3.934   1.976
 1057SOL    HW1 4070   3.832   3.878   2.047
 1057SOL    HW2 4071   3.693   3.949   1.998
 1058SOL     OW 4072   4.037   1.111   1.189
 1058SOL    HW1 4073   4.058   1.204   1.157
 1058SOL    HW2 4074   4.044   1.047   1.112
 1059SOL     OW 4075   3.194   1.673   0.994
 1059SOL    HW1 4076   3.149   1.759   1.019
 1059SOL    HW2 4077   3.127   1.599   0.994
 1060SOL     OW 4078   2.515   2.510   5.079
 1060SOL    HW1 4079   2.465   2.595   5.061
 1060SOL    HW2 4080   2.576   2.491   5.002
 1061SOL     OW 4081   3.187   5.758   1.471
 1061SOL    HW1 4082   3.106   5.802   1.431
 1061SOL    HW2 4083   3.195   5.783   1.567
 1062SOL     OW 4084   5.367   4.676   5.142
 1062SOL    HW1 4085   5.372   4.581   5.172
 1062SOL    HW2 4086   5.310   4.728   5.206
 1063SOL     OW 4087   1.901   2.975   6.223
 1063SOL    HW1 4088   1.877   2.905   6.155
 1063SOL    HW2 4089   1.899   2.935   6.314
 1064SOL     OW 4090   0.142   3.277   1.529
 1064SOL    HW1 4091   0.188   3.322   1.453
 1064SOL    HW2 4092   0.046   3.303   1.530
 1065SOL     OW 4093   6.282   5.921   5.095
 1065SOL    HW1 4094   6.333   5.838   5.075
 1065SOL    HW2 4095   6.252   5.964   5.010
 1066SOL     OW 4096   4.072   0.523   3.555
 1066SOL    HW1 4097   4.160   0.479   3.538
 1066SOL    HW2 4098   4.011   0.459   3.601
 1067SOL     OW 4099   1.624   3.039   1.352
 1067SOL    HW1 4100   1.580   3.043   1.442
 1067SOL    HW2 4101   1.613   3.127   1.306
 1068SOL     OW 4102   0.736   3.675   1.723
 1068SOL    HW1 4103   0.772   3.758   1.679
 1068SOL    HW2 4104   0.648   3.652   1.682
 1069SOL     OW 4105   3.833   3.674   1.670
 1069SOL    HW1 4106   3.900   3.600   1.678
 1069SOL    HW2 4107   3.850   3.726   1.587
 1070SOL     OW 4108   2.167   1.012   0.071
 1070SOL    HW1 4109   2.194   0.919   0.048
 1070SOL    HW2 4110   2.095   1.010   0.141
 1071SOL     OW 4111   4.009   6.578   3.525
 1071SOL    HW1 4112   4.038   6.483   3.510
 1071SOL    HW2 4113   3.985   6.591   3.621
 1072SOL     OW 4114   3.814   5.640   3.052
 1072SOL    HW1 4115   3.867   5.724   3.041
 1072SOL    HW2 4116   3.728   5.660   3.100
 1073SOL     OW 4117   2.591   4.756   2.816
 1073SOL    HW1 4118   2.639   4.794   2.895
 1073SOL    HW2 4119   2.518   4.696   2.847
 1074SOL     OW 4120   1.397   5.220   2.411
 1074SOL    HW1 4121   1.309   5.221   2.459
 1074SOL    HW2 4122   1.453   5.297   2.441
 1075SOL     OW 4123   0.189   4.223   3.706
 1075SOL    HW1 4124   0.195   4.157   3.631
 1075SOL    HW2 4125   0.180   4.315   3.668
 1076SOL     OW 4126   0.527   5.183   3.380
 1076SOL    HW1 4127   0.484   5.192   3.291
 1076SOL    HW2 4128   0.524   5.272   3.427
 1077SOL     OW 4129   4.571   0.105   0.784
 1077SOL    HW1 4130   4.492   0.044   0.780
 1077SOL    HW2 4131   4.544   0.196   0.753
 1078SOL     OW 4132   0.654   1.985   1.041
 1078SOL    HW1 4133   0.564   2.005   1.078
 1078SOL    HW2 4134   0.648   1.971   0.942
 1079SOL     OW 4135   2.381   5.551   2.803
 1079SOL    HW1 4136   2.427   5.635   2.834
 1079SOL    HW2 4137   2.450   5.485   2.773
 1080SOL     OW 4138   1.710   5.156   4.274
 1080SOL    HW1 4139   1.785   5.174   4.338
 1080SOL    HW2 4140   1.628   5.130   4.325
 1081SOL     OW 4141   1.289   1.133   6.951
 1081SOL    HW1 4142   1.319   1.155   0.017
 1081SOL    HW2 4143   1.278   1.217   6.898
 1082SOL     OW 4144   2.020   0.150   6.753
 1082SOL    HW1 4145   2.075   0.202   6.819
 1082SOL    HW2 4146   2.076   0.075   6.716
 1083SOL     OW 4147   4.090   3.167   1.297
 1083SOL    HW1 4148   3.992   3.182   1.316
 1083SOL    HW2 4149   4.126   3.099   1.361
 1084SOL     OW 4150   6.588   3.858   0.602
 1084SOL    HW1 4151   6.588   3.939   0.544
 1084SOL    HW2 4152   6.580   3.886   0.698
 1085SOL     OW 4153   2.229   3.861   3.701
 1085SOL    HW1 4154   2.210   3.856   3.799
 1085SOL    HW2 4155   2.279   3.779   3.672
 1086SOL     OW 4156   4.148   5.295   1.932
 1086SOL    HW1 4157   4.231   5.245   1.909
 1086SOL    HW2 4158   4.074   5.230   1.949
 1087SOL     OW 4159   4.342   3.015   5.311
 1087SOL    HW1 4160   4.253   3.055   5.293
 1087SOL    HW2 4161   4.332   2.917   5.330
 1088SOL     OW 4162   5.242   3.830   3.343
 1088SOL    HW1 4163   5.184   3.786   3.275
 1088SOL    HW2 4164   5.312   3.766   3.374
 1089SOL     OW 4165   5.931   0.262   3.598
 1089SOL    HW1 4166   5.926   0.172   3.553
 1089SOL    HW2 4167   5.874   0.327   3.548
 1090SOL     OW 4168   0.619   2.187   5.316
 1090SOL    HW1 4169   0.685   2.125   5.358
 1090SOL    HW2 4170   0.569   2.140   5.244
 1091SOL     OW 4171   1.059   2.011   4.694
 1091SOL    HW1 4172   1.105   2.005   4.605
 1091SOL    HW2 4173   1.127   2.005   4.767
 1092SOL     OW 4174   2.063   4.549   1.104
 1092SOL    HW1 4175   2.028   4.631   1.150
 1092SOL    HW2 4176   2.142   4.514   1.155
 1093SOL     OW 4177   0.443   1.902   2.737
 1093SOL    HW1 4178   0.501   1.907   2.656
 1093SOL    HW2 4179   0.374   1.830   2.724
 1094SOL     OW 4180   0.977   6.205   1.622
 1094SOL    HW1 4181   0.990   6.109   1.648
 1094SOL    HW2 4182   0.921   6.251   1.690
 1095SOL     OW 4183   6.314   3.656   6.026
 1095SOL    HW1 4184   6.401   3.705   6.019
 1095SOL    HW2 4185   6.311   3.583   5.958
 1096SOL     OW 4186   3.599   4.217   1.667
 1096SOL    HW1 4187   3.652   4.152   1.613
 1096SOL    HW2 4188   3.502   4.203   1.650
 1097SOL     OW 4189   1.771   4.853   5.245
 1097SOL    HW1 4190   1.826   4.918   5.299
 1097SOL    HW2 4191   1.711   4.904   5.183
 1098SOL     OW 4192   3.847   1.322   3.267
 1098SOL    HW1 4193   3.914   1.396   3.273
 1098SOL    HW2 4194   3.869   1.264   3.189
 1099SOL     OW 4195   3.367   1.744   2.639
 1099SOL    HW1 4196   3.462   1.717   2.648
 1099SOL    HW2 4197   3.346   1.759   2.542
 1100SOL     OW 4198   0.793   0.485   1.012
 1100SOL    HW1 4199   0.835   0.395   1.023
 1100SOL    HW2 4200   0.741   0.488   0.927
 1101SOL     OW 4201   5.144   2.793   0.513
 1101SOL    HW1 4202   5.214   2.724   0.526
 1101SOL    HW2 4203   5.055   2.755   0.537
 1102SOL     OW 4204   0.820   4.843   3.313
 1102SOL    HW1 4205   0.875   4.832   3.396
 1102SOL    HW2 4206   0.723   4.834   3.335
 1103SOL     OW 4207   0.659   3.030   1.348
 1103SOL    HW1 4208   0.676   3.031   1.447
 1103SOL    HW2 4209   0.745   3.044   1.300
 1104SOL     OW 4210   3.050   5.268   5.308
 1104SOL    HW1 4211   3.049   5.208   5.228
 1104SOL    HW2 4212   3.121   5.239   5.372
 1105SOL     OW 4213   4.396   5.957   0.115
 1105SOL    HW1 4214   4.465   5.964   0.187
 1105SOL    HW2 4215   4.387   5.862   0.086
 1106SOL     OW 4216   0.352   1.905   6.078
 1106SOL    HW1 4217   0.254   1.904   6.100
 1106SOL    HW2 4218   0.381   1.998   6.056
 1107SOL     OW 4219   1.518   0.234   1.298
 1107SOL    HW1 4220   1.423   0.255   1.275
 1107SOL    HW2 4221   1.563   0.316   1.332
 1108SOL     OW 4222   0.830   1.773   6.134
 1108SOL    HW1 4223   0.833   1.871   6.149
 1108SOL    HW2 4224   0.736   1.739   6.147
 1109SOL     OW 4225   4.982   1.151   4.357
 1109SOL    HW1 4226   4.883   1.140   4.357
 1109SOL    HW2 4227   5.006   1.242   4.391
 1110SOL     OW 4228   3.726   2.866   2.048
 1110SOL    HW1 4229   3.633   2.845   2.079
 1110SOL    HW2 4230   3.731   2.859   1.948
 1111SOL     OW 4231   5.517   6.523   0.143
 1111SOL    HW1 4232   5.515   6.622   0.131
 1111SOL    HW2 4233   5.562   6.501   0.230
 1112SOL     OW 4234   6.147   0.867   2.701
 1112SOL    HW1 4235   6.182   0.839   2.790
 1112SOL    HW2 4236   6.214   0.843   2.630
 1113SOL     OW 4237   6.201   3.998   1.578
 1113SOL    HW1 4238   6.110   4.017   1.541
 1113SOL    HW2 4239   6.200   3.910   1.625
 1114SOL     OW 4240   5.003   1.586   4.942
 1114SOL    HW1 4241   4.956   1.602   4.855
 1114SOL    HW2 4242   5.081   1.525   4.926
 1115SOL     OW 4243   2.205   2.967   0.933
 1115SOL    HW1 4244   2.237   2.935   1.022
 1115SOL    HW2 4245   2.206   2.892   0.867
 1116SOL     OW 4246   4.319   5.717   4.919
 1116SOL    HW1 4247   4.389   5.646   4.920
 1116SOL    HW2 4248   4.254   5.700   4.993
 1117SOL     OW 4249   2.584   3.527   0.603
 1117SOL    HW1 4250   2.628   3.615   0.616
 1117SOL    HW2 4251   2.629   3.458   0.660
 1118SOL     OW 4252   1.941   3.790   3.542
 1118SOL    HW1 4253   1.970   3.698   3.570
 1118SOL    HW2 4254   2.017   3.835   3.496
 1119SOL     OW 4255   3.470   4.178   2.158
 1119SOL    HW1 4256   3.458   4.112   2.084
 1119SOL    HW2 4257   3.417   4.261   2.137
 1120SOL     OW 4258   4.310   0.632   4.258
 1120SOL    HW1 4259   4.337   0.537   4.268
 1120SOL    HW2 4260   4.380   0.692   4.296
 1121SOL     OW 4261   5.437   3.403   2.261
 1121SOL    HW1 4262   5.465   3.451   2.179
 1121SOL    HW2 4263   5.341   3.424   2.282
 1122SOL     OW 4264   4.831   4.744   6.928
 1122SOL    HW1 4265   4.846   4.677   7.001
 1122SOL    HW2 4266   4.753   4.716   6.872
 1123SOL     OW 4267   3.632   0.831   1.754
 1123SOL    HW1 4268   3.537   0.804   1.763
 1123SOL    HW2 4269   3.638   0.931   1.745
 1124SOL     OW 4270   1.287   4.443   4.420
 1124SOL    HW1 4271   1.374   4.473   4.460
 1124SOL    HW2 4272   1.211   4.490   4.466
 1125SOL     OW 4273   4.111   3.314   4.942
 1125SOL    HW1 4274   4.182   3.276   4.882
 1125SOL    HW2 4275   4.065   3.240   4.990
 1126SOL     OW 4276   5.879   6.974   2.425
 1126SOL    HW1 4277   5.878   0.044   2.452
 1126SOL    HW2 4278   5.911   6.966   2.330
 1127SOL     OW 4279   1.578   4.764   0.083
 1127SOL    HW1 4280   1.533   4.675   0.093
 1127SOL    HW2 4281   1.524   4.834   0.129
 1128SOL     OW 4282   3.033   1.524   4.645
 1128SOL    HW1 4283   2.937   1.545   4.664
 1128SOL    HW2 4284   3.075   1.601   4.596
 1129SOL     OW 4285   5.154   0.073   0.100
 1129SOL    HW1 4286   5.254   0.079   0.098
 1129SOL    HW2 4287   5.121   0.031   0.015
 1130SOL     OW 4288   0.278   4.962   5.721
 1130SOL    HW1 4289   0.214   5.024   5.766
 1130SOL    HW2 4290   0.269   4.971   5.621
 1131SOL     OW 4291   0.652   4.990   6.245
 1131SOL    HW1 4292   0.589   4.982   6.322
 1131SOL    HW2 4293   0.635   5.077   6.198
 1132SOL     OW 4294   4.560   0.297   6.044
 1132SOL    HW1 4295   4.499   0.269   6.118
 1132SOL    HW2 4296   4.645   0.333   6.082
 1133SOL     OW 4297   0.816   3.042   0.985
 1133SOL    HW1 4298   0.787   2.957   0.940
 1133SOL    HW2 4299   0.736   3.088   1.023
 1134SOL     OW 4300   6.305   3.095   5.803
 1134SOL    HW1 4301   6.274   3.181   5.844
 1134SOL    HW2 4302   6.358   3.043   5.869
 1135SOL     OW 4303   4.863   1.357   3.178
 1135SOL    HW1 4304   4.807   1.324   3.102
 1135SOL    HW2 4305   4.874   1.456   3.171
 1136SOL     OW 4306   3.585   5.221   4.379
 1136SOL    HW1 4307   3.511   5.230   4.313
 1136SOL    HW2 4308   3.673   5.219   4.330
 1137SOL     OW 4309   1.722   1.295   5.744
 1137SOL    HW1 4310   1.749   1.199   5.750
 1137SOL    HW2 4311   1.794   1.347   5.698
 1138SOL     OW 4312   0.796   4.340   5.472
 1138SOL    HW1 4313   0.728   4.381   5.532
 1138SOL    HW2 4314   0.887   4.369   5.500
 1139SOL     OW 4315   1.332   6.544   1.753
 1139SOL    HW1 4316   1.241   6.571   1.722
 1139SOL    HW2 4317   1.346   6.446   1.736
 1140SOL     OW 4318   3.221   1.884   3.939
 1140SOL    HW1 4319   3.176   1.833   4.012
 1140SOL    HW2 4320   3.263   1.821   3.874
 1141SOL     OW 4321   6.795   5.589   5.631
 1141SOL    HW1 4322   6.836   5.681   5.638
 1141SOL    HW2 4323   6.821   5.535   5.710
 1142SOL     OW 4324   6.071   1.025   3.602
 1142SOL    HW1 4325   6.110   1.103   3.652
 1142SOL    HW2 4326   5.982   1.002   3.642
 1143SOL     OW 4327   4.762   1.863   2.581
 1143SOL    HW1 4328   4.757   1.775   2.627
 1143SOL    HW2 4329   4.854   1.902   2.593
 1144SOL     OW 4330   0.198   6.480   4.965
 1144SOL    HW1 4331   0.272   6.416   4.947
 1144SOL    HW2 4332   0.230   6.574   4.951
 1145SOL     OW 4333   1.155   5.139   5.519
 1145SOL    HW1 4334   1.104   5.052   5.519
 1145SOL    HW2 4335   1.187   5.159   5.427
 1146SOL     OW 4336   5.779   2.309   0.729
 1146SOL    HW1 4337   5.840   2.386   0.747
 1146SOL    HW2 4338   5.760   2.261   0.815
 1147SOL     OW 4339   6.194   2.412   1.685
 1147SOL    HW1 4340   6.292   2.416   1.666
 1147SOL    HW2 4341   6.145   2.470   1.620
 1148SOL     OW 4342   4.167   0.320   0.273
 1148SOL    HW1 4343   4.100   0.311   0.346
 1148SOL    HW2 4344   4.137   0.391   0.209
 1149SOL     OW 4345   0.034   3.447   2.878
 1149SOL    HW1 4346   0.042   3.545   2.894
 1149SOL    HW2 4347   6.997   3.407   2.944
 1150SOL     OW 4348   1.231   4.939   6.621
 1150SOL    HW1 4349   1.296   4.948   6.696
 1150SOL    HW2 4350   1.192   5.029   6.600
 1151SOL     OW 4351   4.819   5.255   0.176
 1151SOL    HW1 4352   4.865   5.338   0.145
 1151SOL    HW2 4353   4.876   5.176   0.154
 1152SOL     OW 4354   0.320   0.666   4.674
 1152SOL    HW1 4355   0.243   0.623   4.721
 1152SOL    HW2 4356   0.392   0.598   4.660
 1153SOL     OW 4357   2.355   5.297   2.487
 1153SOL    HW1 4358   2.352   5.384   2.437
 1153SOL    HW2 4359   2.413   5.306   2.568
 1154SOL     OW 4360   1.645   4.595   1.858
 1154SOL    HW1 4361   1.572   4.642   1.907
 1154SOL    HW2 4362   1.732   4.611   1.905
 1155SOL     OW 4363   3.291   5.488   1.803
 1155SOL    HW1 4364   3.206   5.479   1.751
 1155SOL    HW2 4365   3.297   5.414   1.869
 1156SOL     OW 4366   1.960   0.744   4.118
 1156SOL    HW1 4367   1.878   0.779   4.162
 1156SOL    HW2 4368   1.941   0.728   4.021
 1157SOL     OW 4369   1.462   2.206   4.039
 1157SOL    HW1 4370   1.516   2.208   4.122
 1157SOL    HW2 4371   1.371   2.244   4.057
 1158SOL     OW 4372   4.558   5.355   5.383
 1158SOL    HW1 4373   4.476   5.299   5.368
 1158SOL    HW2 4374   4.639   5.298   5.375
 1159SOL     OW 4375   5.053   4.957   2.989
 1159SOL    HW1 4376   4.957   4.978   3.007
 1159SOL    HW2 4377   5.076   4.984   2.895
 1160SOL     OW 4378   2.871   3.196   0.475
 1160SOL    HW1 4379   2.867   3.206   0.375
 1160SOL    HW2 4380   2.945   3.134   0.499
 1161SOL     OW 4381   4.311   0.387   4.070
 1161SOL    HW1 4382   4.331   0.397   4.168
 1161SOL    HW2 4383   4.213   0.400   4.055
 1162SOL     OW 4384   3.663   4.490   1.618
 1162SOL    HW1 4385   3.627   4.399   1.639
 1162SOL    HW2 4386   3.632   4.555   1.687
 1163SOL     OW 4387   4.834   2.616   2.701
 1163SOL    HW1 4388   4.846   2.566   2.616
 1163SOL    HW2 4389   4.737   2.619   2.725
 1164SOL     OW 4390   6.055   3.200   3.840
 1164SOL    HW1 4391   5.968   3.178   3.796
 1164SOL    HW2 4392   6.045   3.283   3.895
 1165SOL     OW 4393   1.500   4.797   2.005
 1165SOL    HW1 4394   1.593   4.822   2.029
 1165SOL    HW2 4395   1.441   4.802   2.086
 1166SOL     OW 4396   3.711   3.042   6.419
 1166SOL    HW1 4397   3.718   2.956   6.368
 1166SOL    HW2 4398   3.655   3.107   6.366
 1167SOL     OW 4399   4.649   1.476   4.918
 1167SOL    HW1 4400   4.607   1.431   4.997
 1167SOL    HW2 4401   4.609   1.567   4.906
 1168SOL     OW 4402   6.265   6.115   3.652
 1168SOL    HW1 4403   6.329   6.136   3.726
 1168SOL    HW2 4404   6.309   6.052   3.588
 1169SOL     OW 4405   1.250   3.378   1.722
 1169SOL    HW1 4406   1.227   3.377   1.819
 1169SOL    HW2 4407   1.215   3.462   1.680
 1170SOL     OW 4408   2.904   0.531   0.904
 1170SOL    HW1 4409   2.841   0.455   0.916
 1170SOL    HW2 4410   2.859   0.605   0.855
 1171SOL     OW 4411   2.107   6.632   0.211
 1171SOL    HW1 4412   2.058   6.675   0.136
 1171SOL    HW2 4413   2.189   6.586   0.177
 1172SOL     OW 4414   3.461   3.544   5.086
 1172SOL    HW1 4415   3.407   3.574   5.165
 1172SOL    HW2 4416   3.419   3.580   5.002
 1173SOL     OW 4417   4.469   0.966   6.150
 1173SOL    HW1 4418   4.502   0.928   6.064
 1173SOL    HW2 4419   4.541   1.022   6.192
 1174SOL     OW 4420   3.102   6.315   1.188
 1174SOL    HW1 4421   3.036   6.350   1.255
 1174SOL    HW2 4422   3.055   6.252   1.125
 1175SOL     OW 4423   6.231   4.982   5.306
 1175SOL    HW1 4424   6.300   5.002   5.375
 1175SOL    HW2 4425   6.254   5.028   5.220
 1176SOL     OW 4426   6.223   3.595   0.708
 1176SOL    HW1 4427   6.127   3.614   0.688
 1176SOL    HW2 4428   6.237   3.593   0.807
 1177SOL     OW 4429   6.346   2.972   6.925
 1177SOL    HW1 4430   6.400   3.031   6.864
 1177SOL    HW2 4431   6.399   2.889   6.945
 1178SOL     OW 4432   5.553   4.114   1.871
 1178SOL    HW1 4433   5.583   4.204   1.903
 1178SOL    HW2 4434   5.465   4.122   1.824
 1179SOL     OW 4435   2.389   6.170   6.274
 1179SOL    HW1 4436   2.366   6.074   6.262
 1179SOL    HW2 4437   2.486   6.184   6.257
 1180SOL     OW 4438   2.426   1.813   3.951
 1180SOL    HW1 4439   2.481   1.741   3.993
 1180SOL    HW2 4440   2.346   1.831   4.007
 1181SOL     OW 4441   2.440   4.361   2.776
 1181SOL    HW1 4442   2.374   4.289   2.798
 1181SOL    HW2 4443   2.528   4.319   2.751
 1182SOL     OW 4444   1.345   4.654   2.862
 1182SOL    HW1 4445   1.361   4.722   2.790
 1182SOL    HW2 4446   1.246   4.647   2.879
 1183SOL     OW 4447   4.694   5.712   1.387
 1183SOL    HW1 4448   4.628   5.746   1.320
 1183SOL    HW2 4449   4.669   5.620   1.415
 1184SOL     OW 4450   3.057   3.092   5.163
 1184SOL    HW1 4451   3.004   3.164   5.118
 1184SOL    HW2 4452   3.003   3.053   5.238
 1185SOL     OW 4453   2.013   1.740   6.967
 1185SOL    HW1 4454   2.009   1.700   0.033
 1185SOL    HW2 4455   2.040   1.669   6.901
 1186SOL     OW 4456   3.910   1.234   5.318
 1186SOL    HW1 4457   3.826   1.281   5.293
 1186SOL    HW2 4458   3.961   1.209   5.235
 1187SOL     OW 4459   6.462   1.008   5.182
 1187SOL    HW1 4460   6.392   1.070   5.218
 1187SOL    HW2 4461   6.519   1.057   5.116
 1188SOL     OW 4462   1.217   0.282   5.438
 1188SOL    HW1 4463   1.203   0.366   5.387
 1188SOL    HW2 4464   1.129   0.237   5.454
 1189SOL     OW 4465   6.863   1.045   1.964
 1189SOL    HW1 4466   6.902   1.073   2.052
 1189SOL    HW2 4467   6.778   0.995   1.979
 1190SOL     OW 4468   4.364   4.703   3.081
 1190SOL    HW1 4469   4.303   4.705   3.161
 1190SOL    HW2 4470   4.359   4.790   3.033
 1191SOL     OW 4471   3.673   5.204   6.699
 1191SOL    HW1 4472   3.743   5.190   6.630
 1191SOL    HW2 4473   3.699   5.156   6.783
 1192SOL     OW 4474   4.509   5.045   2.242
 1192SOL    HW1 4475   4.539   4.951   2.232
 1192SOL    HW2 4476   4.410   5.050   2.228
 1193SOL     OW 4477   4.231   6.890   3.882
 1193SOL    HW1 4478   4.207   6.913   3.788
 1193SOL    HW2 4479   4.222   6.792   3.896
 1194SOL     OW 4480   6.291   0.228   0.785
 1194SOL    HW1 4481   6.275   0.326   0.798
 1194SOL    HW2 4482   6.357   0.196   0.852
 1195SOL     OW 4483   3.980   0.458   6.756
 1195SOL    HW1 4484   3.993   0.537   6.697
 1195SOL    HW2 4485   4.007   0.482   6.850
 1196SOL     OW 4486   6.975   5.281   2.434
 1196SOL    HW1 4487   6.876   5.268   2.423
 1196SOL    HW2 4488   6.997   5.378   2.424
 1197SOL     OW 4489   3.195   5.500   5.967
 1197SOL    HW1 4490   3.200   5.466   6.061
 1197SOL    HW2 4491   3.219   5.597   5.966
 1198SOL     OW 4492   2.927   1.552   2.873
 1198SOL    HW1 4493   2.995   1.546   2.946
 1198SOL    HW2 4494   2.970   1.587   2.790
 1199SOL     OW 4495   3.805   4.074   3.506
 1199SOL    HW1 4496   3.867   4.151   3.522
 1199SOL    HW2 4497   3.812   4.009   3.581
 1200SOL     OW 4498   3.903   4.767   0.166
 1200SOL    HW1 4499   3.869   4.682   0.125
 1200SOL    HW2 4500   3.867   4.777   0.258
 1201SOL     OW 4501   1.301   0.936   4.620
 1201SOL    HW1 4502   1.311   0.869   4.546
 1201SOL    HW2 4503   1.291   1.028   4.581
 1202SOL     OW 4504   6.033   0.336   5.087
 1202SOL    HW1 4505   6.021   0.354   4.989
 1202SOL    HW2 4506   6.071   0.244   5.100
 1203SOL     OW 4507   6.064   6.837   1.873
 1203SOL    HW1 4508   6.089   6.784   1.792
 1203SOL    HW2 4509   5.968   6.819   1.895
 1204SOL     OW 4510   3.171   0.651   0.617
 1204SOL    HW1 4511   3.186   0.563   0.663
 1204SOL    HW2 4512   3.074   0.674   0.622
 1205SOL     OW 4513   0.359   2.329   4.794
 1205SOL    HW1 4514   0.285   2.356   4.733
 1205SOL    HW2 4515   0.332   2.247   4.844
 1206SOL     OW 4516   0.850   1.466   4.616
 1206SOL    HW1 4517   0.865   1.374   4.653
 1206SOL    HW2 4518   0.888   1.534   4.679
 1207SOL     OW 4519   5.452   5.999   7.007
 1207SOL    HW1 4520   5.403   5.967   6.927
 1207SOL    HW2 4521   5.485   6.092   6.991
 1208SOL     OW 4522   3.842   3.881   3.712
 1208SOL    HW1 4523   3.894   3.892   3.797
 1208SOL    HW2 4524   3.816   3.785   3.701
 1209SOL     OW 4525   6.232   5.270   4.248
 1209SOL    HW1 4526   6.249   5.210   4.326
 1209SOL    HW2 4527   6.178   5.349   4.278
 1210SOL     OW 4528   2.971   6.760   2.727
 1210SOL    HW1 4529   3.017   6.773   2.640
 1210SOL    HW2 4530   2.906   6.834   2.741
 1211SOL     OW 4531   1.495   3.559   4.374
 1211SOL    HW1 4532   1.511   3.602   4.285
 1211SOL    HW2 4533   1.399   3.573   4.400
 1212SOL     OW 4534   2.290   4.129   4.485
 1212SOL    HW1 4535   2.242   4.167   4.564
 1212SOL    HW2 4536   2.315   4.034   4.503
 1213SOL     OW 4537   6.137   2.940   5.635
 1213SOL    HW1 4538   6.056   2.920   5.691
 1213SOL    HW2 4539   6.202   2.993   5.688
 1214SOL     OW 4540   2.062   2.362   3.046
 1214SOL    HW1 4541   2.022   2.415   2.972
 1214SOL    HW2 4542   2.111   2.284   3.008
 1215SOL     OW 4543   0.687   5.181   1.536
 1215SOL    HW1 4544   0.701   5.097   1.485
 1215SOL    HW2 4545   0.742   5.179   1.620
 1216SOL     OW 4546   2.874   0.012   2.054
 1216SOL    HW1 4547   2.889   6.978   1.976
 1216SOL    HW2 4548   2.950   0.004   2.118
 1217SOL     OW 4549   1.391   1.218   2.500
 1217SOL    HW1 4550   1.459   1.216   2.426
 1217SOL    HW2 4551   1.437   1.225   2.588
 1218SOL     OW 4552   0.594   3.530   4.103
 1218SOL    HW1 4553   0.508   3.552   4.149
 1218SOL    HW2 4554   0.579   3.525   4.004
 1219SOL     OW 4555   2.856   5.989   2.818
 1219SOL    HW1 4556   2.789   6.063   2.825
 1219SOL    HW2 4557   2.836   5.933   2.738
 1220SOL     OW 4558   6.825   3.938   2.914
 1220SOL    HW1 4559   6.884   3.973   2.987
 1220SOL    HW2 4560   6.746   3.999   2.903
 1221SOL     OW 4561   5.084   3.214   0.081
 1221SOL    HW1 4562   5.085   3.120   0.116
 1221SOL    HW2 4563   5.027   3.271   0.141
 1222SOL     OW 4564   6.294   6.521   1.146
 1222SOL    HW1 4565   6.241   6.604   1.132
 1222SOL    HW2 4566   6.234   6.441   1.138
 1223SOL     OW 4567   6.169   6.028   5.313
 1223SOL    HW1 4568   6.093   6.072   5.266
 1223SOL    HW2 4569   6.231   5.988   5.246
 1224SOL     OW 4570   5.537   4.973   2.155
 1224SOL    HW1 4571   5.602   4.990   2.229
 1224SOL    HW2 4572   5.458   4.923   2.192
 1225SOL     OW 4573   4.741   1.534   7.020
 1225SOL    HW1 4574   4.771   1.457   0.051
 1225SOL    HW2 4575   4.647   1.558   0.018
 1226SOL     OW 4576   5.339   4.709   0.002
 1226SOL    HW1 4577   5.432   4.728   6.998
 1226SOL    HW2 4578   5.276   4.776   6.988
 1227SOL     OW 4579   5.008   4.385   6.739
 1227SOL    HW1 4580   4.974   4.434   6.659
 1227SOL    HW2 4581   5.021   4.288   6.716
 1228SOL     OW 4582   4.031   3.349   3.910
 1228SOL    HW1 4583   4.054   3.344   3.813
 1228SOL    HW2 4584   3.984   3.265   3.938
 1229SOL     OW 4585   1.706   5.556   3.170
 1229SOL    HW1 4586   1.632   5.565   3.236
 1229SOL    HW2 4587   1.782   5.506   3.212
 1230SOL     OW 4588   5.325   4.601   1.469
 1230SOL    HW1 4589   5.380   4.643   1.541
 1230SOL    HW2 4590   5.357   4.633   1.379
 1231SOL     OW 4591   1.893   1.953   6.861
 1231SOL    HW1 4592   1.916   1.980   6.768
 1231SOL    HW2 4593   1.957   1.883   6.893
 1232SOL     OW 4594   2.641   0.592   5.128
 1232SOL    HW1 4595   2.703   0.632   5.060
 1232SOL    HW2 4596   2.546   0.612   5.103
 1233SOL     OW 4597   0.848   5.499   5.340
 1233SOL    HW1 4598   0.947   5.509   5.331
 1233SOL    HW2 4599   0.802   5.579   5.303
 1234SOL     OW 4600   6.809   3.566   0.254
 1234SOL    HW1 4601   6.747   3.498   0.292
 1234SOL    HW2 4602   6.880   3.520   0.200
 1235SOL     OW 4603   6.111   4.585   1.358
 1235SOL    HW1 4604   6.176   4.648   1.400
 1235SOL    HW2 4605   6.151   4.493   1.354
 1236SOL     OW 4606   1.754   1.683   2.575
 1236SOL    HW1 4607   1.827   1.623   2.541
 1236SOL    HW2 4608   1.788   1.777   2.580
 1237SOL     OW 4609   0.413   6.848   5.180
 1237SOL    HW1 4610   0.458   6.936   5.193
 1237SOL    HW2 4611   0.429   6.789   5.259
 1238SOL     OW 4612   0.714   0.563   4.552
 1238SOL    HW1 4613   0.660   0.630   4.501
 1238SOL    HW2 4614   0.653   0.512   4.613
 1239SOL     OW 4615   5.420   5.015   4.847
 1239SOL    HW1 4616   5.487   5.090   4.843
 1239SOL    HW2 4617   5.343   5.037   4.787
 1240SOL     OW 4618   0.573   3.863   2.363
 1240SOL    HW1 4619   0.532   3.954   2.371
 1240SOL    HW2 4620   0.508   3.795   2.397
 1241SOL     OW 4621   4.313   5.038   5.081
 1241SOL    HW1 4622   4.217   5.013   5.083
 1241SOL    HW2 4623   4.369   4.960   5.110
 1242SOL     OW 4624   2.153   4.909   0.899
 1242SOL    HW1 4625   2.195   4.820   0.881
 1242SOL    HW2 4626   2.075   4.896   0.960
 1243SOL     OW 4627   0.909   4.122   5.115
 1243SOL    HW1 4628   0.997   4.085   5.142
 1243SOL    HW2 4629   0.909   4.143   5.017
 1244SOL     OW 4630   5.843   0.006   5.460
 1244SOL    HW1 4631   5.775   6.971   5.500
 1244SOL    HW2 4632   5.857   0.085   5.521
 1245SOL     OW 4633   4.486   6.099   1.193
 1245SOL    HW1 4634   4.439   6.138   1.114
 1245SOL    HW2 4635   4.561   6.159   1.220
 1246SOL     OW 4636   4.650   0.338   0.615
 1246SOL    HW1 4637   4.587   0.400   0.663
 1246SOL    HW2 4638   4.614   0.318   0.524
 1247SOL     OW 4639   6.641   0.237   2.913
 1247SOL    HW1 4640   6.573   0.206   2.980
 1247SOL    HW2 4641   6.732   0.206   2.942
 1248SOL     OW 4642   1.241   6.496   4.880
 1248SOL    HW1 4643   1.287   6.548   4.952
 1248SOL    HW2 4644   1.309   6.444   4.829
 1249SOL     OW 4645   5.238   5.754   6.505
 1249SOL    HW1 4646   5.212   5.732   6.600
 1249SOL    HW2 4647   5.254   5.852   6.497
 1250SOL     OW 4648   6.770   3.286   4.862
 1250SOL    HW1 4649   6.838   3.330   4.921
 1250SOL    HW2 4650   6.802   3.195   4.836
 1251SOL     OW 4651   3.000   0.523   2.521
 1251SOL    HW1 4652   3.030   0.562   2.608
 1251SOL    HW2 4653   2.959   0.595   2.465
 1252SOL     OW 4654   1.899   6.324   6.336
 1252SOL    HW1 4655   1.859   6.387   6.269
 1252SOL    HW2 4656   1.997   6.314   6.317
 1253SOL     OW 4657   3.051   0.134   0.166
 1253SOL    HW1 4658   3.115   0.096   0.233
 1253SOL    HW2 4659   2.990   0.062   0.133
 1254SOL     OW 4660   5.855   0.312   2.884
 1254SOL    HW1 4661   5.877   0.248   2.810
 1254SOL    HW2 4662   5.908   0.287   2.966
 1255SOL     OW 4663   5.468   1.707   5.528
 1255SOL    HW1 4664   5.534   1.635   5.547
 1255SOL    HW2 4665   5.425   1.736   5.613
 1256SOL     OW 4666   0.637   5.049   4.621
 1256SOL    HW1 4667   0.637   5.143   4.657
 1256SOL    HW2 4668   0.721   5.034   4.569
 1257SOL     OW 4669   0.913   6.524   3.923
 1257SOL    HW1 4670   0.958   6.481   3.844
 1257SOL    HW2 4671   0.934   6.472   4.006
 1258SOL     OW 4672   4.385   6.115   5.616
 1258SOL    HW1 4673   4.430   6.065   5.543
 1258SOL    HW2 4674   4.317   6.056   5.660
 1259SOL     OW 4675   5.657   0.405   4.997
 1259SOL    HW1 4676   5.721   0.443   5.064
 1259SOL    HW2 4677   5.586   0.353   5.045
 1260SOL     OW 4678   2.745   1.408   1.497
 1260SOL    HW1 4679   2.730   1.415   1.595
 1260SOL    HW2 4680   2.732   1.497   1.454
 1261SOL     OW 4681   6.535   4.398   5.724
 1261SOL    HW1 4682   6.448   4.400   5.773
 1261SOL    HW2 4683   6.610   4.413   5.788
 1262SOL     OW 4684   4.185   5.048   0.762
 1262SOL    HW1 4685   4.230   4.973   0.715
 1262SOL    HW2 4686   4.221   5.055   0.855
 1263SOL     OW 4687   6.779   2.156   1.094
 1263SOL    HW1 4688   6.726   2.071   1.094
 1263SOL    HW2 4689   6.872   2.137   1.128
 1264SOL     OW 4690   0.208   3.365   4.263
 1264SOL    HW1 4691   0.152   3.388   4.343
 1264SOL    HW2 4692   0.224   3.267   4.261
 1265SOL     OW 4693   6.923   5.651   4.513
 1265SOL    HW1 4694   6.926   5.663   4.414
 1265SOL    HW2 4695   6.963   5.562   4.537
 1266SOL     OW 4696   1.803   1.567   4.492
 1266SOL    HW1 4697   1.777   1.500   4.561
 1266SOL    HW2 4698   1.726   1.627   4.472
 1267SOL     OW 4699   6.610   5.018   2.225
 1267SOL    HW1 4700   6.634   5.069   2.142
 1267SOL    HW2 4701   6.590   5.083   2.299
 1268SOL     OW 4702   6.672   3.111   0.146
 1268SOL    HW1 4703   6.576   3.089   0.163
 1268SOL    HW2 4704   6.730   3.044   0.192
 1269SOL     OW 4705   6.876   5.497   5.870
 1269SOL    HW1 4706   6.830   5.560   5.933
 1269SOL    HW2 4707   6.933   5.433   5.922
 1270SOL     OW 4708   1.418   3.062   4.853
 1270SOL    HW1 4709   1.348   2.998   4.885
 1270SOL    HW2 4710   1.469   3.097   4.932
 1271SOL     OW 4711   5.341   1.826   2.832
 1271SOL    HW1 4712   5.317   1.767   2.910
 1271SOL    HW2 4713   5.258   1.870   2.798
 1272SOL     OW 4714   0.543   6.225   1.557
 1272SOL    HW1 4715   0.455   6.181   1.575
 1272SOL    HW2 4716   0.612   6.188   1.619
 1273SOL     OW 4717   2.856   6.934   6.249
 1273SOL    HW1 4718   2.909   6.858   6.286
 1273SOL    HW2 4719   2.821   6.990   6.324
 1274SOL     OW 4720   6.301   3.052   1.648
 1274SOL    HW1 4721   6.295   3.102   1.735
 1274SOL    HW2 4722   6.391   3.066   1.608
 1275SOL     OW 4723   3.787   1.772   3.787
 1275SOL    HW1 4724   3.720   1.739   3.854
 1275SOL    HW2 4725   3.776   1.721   3.702
 1276SOL     OW 4726   6.299   0.447   4.008
 1276SOL    HW1 4727   6.384   0.406   3.976
 1276SOL    HW2 4728   6.305   0.547   4.001
 1277SOL     OW 4729   0.324   1.142   5.154
 1277SOL    HW1 4730   0.252   1.085   5.195
 1277SOL    HW2 4731   0.408   1.134   5.208
 1278SOL     OW 4732   2.253   1.866   5.484
 1278SOL    HW1 4733   2.332   1.816   5.449
 1278SOL    HW2 4734   2.283   1.953   5.524
 1279SOL     OW 4735   2.462   5.454   6.453
 1279SOL    HW1 4736   2.473   5.482   6.357
 1279SOL    HW2 4737   2.549   5.464   6.501
 1280SOL     OW 4738   1.793   6.707   3.786
 1280SOL    HW1 4739   1.848   6.625   3.802
 1280SOL    HW2 4740   1.847   6.774   3.736
 1281SOL     OW 4741   1.097   6.700   3.711
 1281SOL    HW1 4742   1.009   6.720   3.756
 1281SOL    HW2 4743   1.167   6.688   3.780
 1282SOL     OW 4744   1.246   0.238   2.107
 1282SOL    HW1 4745   1.216   0.273   2.019
 1282SOL    HW2 4746   1.266   0.141   2.100
 1283SOL     OW 4747   5.261   5.554   6.316
 1283SOL    HW1 4748   5.353   5.517   6.328
 1283SOL    HW2 4749   5.242   5.621   6.388
 1284SOL     OW 4750   2.365   2.156   1.799
 1284SOL    HW1 4751   2.399   2.228   1.859
 1284SOL    HW2 4752   2.274   2.180   1.765
 1285SOL     OW 4753   4.618   2.309   5.737
 1285SOL    HW1 4754   4.672   2.335   5.817
 1285SOL    HW2 4755   4.643   2.366   5.659
 1286SOL     OW 4756   6.676   5.163   1.664
 1286SOL    HW1 4757   6.672   5.099   1.587
 1286SOL    HW2 4758   6.652   5.255   1.632
 1287SOL     OW 4759   6.896   4.898   6.140
 1287SOL    HW1 4760   6.927   4.855   6.055
 1287SOL    HW2 4761   6.854   4.986   6.120
 1288SOL     OW 4762   6.434   3.145   2.338
 1288SOL    HW1 4763   6.421   3.074   2.268
 1288SOL    HW2 4764   6.504   3.210   2.308
 1289SOL     OW 4765   6.829   6.410   3.208
 1289SOL    HW1 4766   6.884   6.432   3.127
 1289SOL    HW2 4767   6.858   6.467   3.285
 1290SOL     OW 4768   0.692   6.419   1.412
 1290SOL    HW1 4769   0.655   6.354   1.478
 1290SOL    HW2 4770   0.790   6.403   1.400
 1291SOL     OW 4771   2.402   6.326   0.386
 1291SOL    HW1 4772   2.305   6.350   0.394
 1291SOL    HW2 4773   2.455   6.409   0.365
 1292SOL     OW 4774   0.743   5.992   0.690
 1292SOL    HW1 4775   0.823   5.979   0.749
 1292SOL    HW2 4776   0.730   5.912   0.633
 1293SOL     OW 4777   0.317   2.507   5.740
 1293SOL    HW1 4778   0.308   2.543   5.647
 1293SOL    HW2 4779   0.267   2.566   5.804
 1294SOL     OW 4780   0.305   2.218   2.639
 1294SOL    HW1 4781   0.269   2.163   2.563
 1294SOL    HW2 4782   0.255   2.196   2.722
 1295SOL     OW 4783   6.022   3.017   1.603
 1295SOL    HW1 4784   6.121   3.025   1.615
 1295SOL    HW2 4785   5.989   2.935   1.649
 1296SOL     OW 4786   4.074   2.353   6.267
 1296SOL    HW1 4787   3.980   2.323   6.251
 1296SOL    HW2 4788   4.077   2.452   6.273
 1297SOL     OW 4789   6.356   1.441   6.037
 1297SOL    HW1 4790   6.338   1.454   5.939
 1297SOL    HW2 4791   6.377   1.345   6.054
 1298SOL     OW 4792   5.547   3.355   3.393
 1298SOL    HW1 4793   5.599   3.302   3.326
 1298SOL    HW2 4794   5.510   3.294   3.462
 1299SOL     OW 4795   0.999   4.151   3.984
 1299SOL    HW1 4796   1.057   4.076   4.015
 1299SOL    HW2 4797   0.912   4.114   3.952
 1300SOL     OW 4798   2.955   3.499   1.576
 1300SOL    HW1 4799   3.038   3.500   1.631
 1300SOL    HW2 4800   2.956   3.419   1.516
 1301SOL     OW 4801   0.496   0.077   2.901
 1301SOL    HW1 4802   0.475   0.117   2.812
 1301SOL    HW2 4803   0.593   0.087   2.921
 1302SOL     OW 4804   2.838   5.978   4.797
 1302SOL    HW1 4805   2.749   5.944   4.828
 1302SOL    HW2 4806   2.911   5.929   4.843
 1303SOL     OW 4807   3.966   1.783   1.101
 1303SOL    HW1 4808   4.012   1.834   1.029
 1303SOL    HW2 4809   3.887   1.734   1.063
 1304SOL     OW 4810   2.237   0.685   6.706
 1304SOL    HW1 4811   2.145   0.689   6.668
 1304SOL    HW2 4812   2.302   0.718   6.637
 1305SOL     OW 4813   4.434   6.738   5.026
 1305SOL    HW1 4814   4.383   6.810   4.980
 1305SOL    HW2 4815   4.526   6.731   4.986
 1306SOL     OW 4816   1.286   4.553   4.109
 1306SOL    HW1 4817   1.204   4.507   4.074
 1306SOL    HW2 4818   1.292   4.540   4.208
 1307SOL     OW 4819   1.475   2.169   4.455
 1307SOL    HW1 4820   1.498   2.086   4.403
 1307SOL    HW2 4821   1.559   2.221   4.474
 1308SOL     OW 4822   5.218   6.130   3.043
 1308SOL    HW1 4823   5.251   6.037   3.058
 1308SOL    HW2 4824   5.122   6.126   3.014
 1309SOL     OW 4825   5.320   3.046   4.705
 1309SOL    HW1 4826   5.407   2.997   4.713
 1309SOL    HW2 4827   5.245   2.980   4.697
 1310SOL     OW 4828   4.839   3.588   5.344
 1310SOL    HW1 4829   4.804   3.595   5.437
 1310SOL    HW2 4830   4.764   3.574   5.281
 1311SOL     OW 4831   5.482   5.936   5.254
 1311SOL    HW1 4832   5.422   5.931   5.333
 1311SOL    HW2 4833   5.511   5.844   5.228
 1312SOL     OW 4834   1.139   6.828   0.702
 1312SOL    HW1 4835   1.177   6.764   0.635
 1312SOL    HW2 4836   1.131   6.919   0.661
 1313SOL     OW 4837   3.465   5.209   5.090
 1313SOL    HW1 4838   3.487   5.122   5.047
 1313SOL    HW2 4839   3.522   5.222   5.171
 1314SOL     OW 4840   6.558   1.581   4.567
 1314SOL    HW1 4841   6.560   1.679   4.547
 1314SOL    HW2 4842   6.618   1.533   4.502
 1315SOL     OW 4843   1.788   1.261   2.605
 1315SOL    HW1 4844   1.776   1.162   2.592
 1315SOL    HW2 4845   1.884   1.281   2.624
 1316SOL     OW 4846   3.129   6.764   2.454
 1316SOL    HW1 4847   3.200   6.775   2.524
 1316SOL    HW2 4848   3.170   6.724   2.372
 1317SOL     OW 4849   0.166   5.871   3.928
 1317SOL    HW1 4850   0.213   5.925   3.858
 1317SOL    HW2 4851   0.105   5.931   3.981
 1318SOL     OW 4852   6.873   6.543   0.564
 1318SOL    HW1 4853   6.877   6.575   0.470
 1318SOL    HW2 4854   6.900   6.617   0.626
 1319SOL     OW 4855   6.218   0.760   0.096
 1319SOL    HW1 4856   6.221   0.768   7.022
 1319SOL    HW2 4857   6.181   0.844   0.135
 1320SOL     OW 4858   5.482   5.040   6.439
 1320SOL    HW1 4859   5.559   5.003   6.388
 1320SOL    HW2 4860   5.429   5.100   6.379
 1321SOL     OW 4861   3.667   2.336   6.807
 1321SOL    HW1 4862   3.697   2.337   6.712
 1321SOL    HW2 4863   3.746   2.340   6.868
 1322SOL     OW 4864   6.234   1.586   4.765
 1322SOL    HW1 4865   6.272   1.590   4.672
 1322SOL    HW2 4866   6.146   1.633   4.766
 1323SOL     OW 4867   6.427   1.767   4.921
 1323SOL    HW1 4868   6.498   1.837   4.915
 1323SOL    HW2 4869   6.390   1.748   4.830
 1324SOL     OW 4870   1.607   3.775   0.809
 1324SOL    HW1 4871   1.643   3.683   0.794
 1324SOL    HW2 4872   1.514   3.781   0.773
 1325SOL     OW 4873   3.341   6.164   2.462
 1325SOL    HW1 4874   3.436   6.144   2.437
 1325SOL    HW2 4875   3.325   6.262   2.458
 1326SOL     OW 4876   5.572   3.527   4.178
 1326SOL    HW1 4877   5.595   3.600   4.114
 1326SOL    HW2 4878   5.546   3.445   4.126
 1327SOL     OW 4879   3.399   5.255   3.312
 1327SOL    HW1 4880   3.426   5.163   3.284
 1327SOL    HW2 4881   3.364   5.253   3.405
 1328SOL     OW 4882   1.602   2.573   6.398
 1328SOL    HW1 4883   1.575   2.632   6.475
 1328SOL    HW2 4884   1.592   2.478   6.426
 1329SOL     OW 4885   0.839   0.244   0.575
 1329SOL    HW1 4886   0.870   0.171   0.636
 1329SOL    HW2 4887   0.748   0.222   0.540
 1330SOL     OW 4888   5.842   6.251   1.101
 1330SOL    HW1 4889   5.859   6.286   1.193
 1330SOL    HW2 4890   5.777   6.312   1.054
 1331SOL     OW 4891   5.954   0.324   1.696
 1331SOL    HW1 4892   6.010   0.242   1.697
 1331SOL    HW2 4893   5.860   0.301   1.670
 1332SOL     OW 4894   4.512   1.548   1.661
 1332SOL    HW1 4895   4.521   1.569   1.758
 1332SOL    HW2 4896   4.578   1.478   1.635
 1333SOL     OW 4897   3.595   4.567   5.308
 1333SOL    HW1 4898   3.672   4.528   5.259
 1333SOL    HW2 4899   3.618   4.576   5.405
 1334SOL     OW 4900   0.184   4.013   4.568
 1334SOL    HW1 4901   0.187   3.933   4.627
 1334SOL    HW2 4902   0.245   4.084   4.605
 1335SOL     OW 4903   2.800   5.149   3.062
 1335SOL    HW1 4904   2.872   5.159   3.130
 1335SOL    HW2 4905   2.746   5.233   3.058
 1336SOL     OW 4906   0.089   0.615   5.100
 1336SOL    HW1 4907   0.106   0.630   5.197
 1336SOL    HW2 4908   7.016   0.610   5.084
 1337SOL     OW 4909   2.377   1.846   5.783
 1337SOL    HW1 4910   2.346   1.874   5.874
 1337SOL    HW2 4911   2.371   1.924   5.720
 1338SOL     OW 4912   3.967   5.445   0.443
 1338SOL    HW1 4913   4.037   5.409   0.504
 1338SOL    HW2 4914   3.944   5.538   0.470
 1339SOL     OW 4915   0.123   4.512   5.444
 1339SOL    HW1 4916   0.192   4.584   5.452
 1339SOL    HW2 4917   0.035   4.552   5.420
 1340SOL     OW 4918   1.995   1.820   6.218
 1340SOL    HW1 4919   2.078   1.873   6.200
 1340SOL    HW2 4920   1.953   1.851   6.303
 1341SOL     OW 4921   4.271   1.345   3.239
 1341SOL    HW1 4922   4.214   1.263   3.228
 1341SOL    HW2 4923   4.240   1.397   3.318
 1342SOL     OW 4924   0.367   6.432   0.726
 1342SOL    HW1 4925   0.275   6.405   0.754
 1342SOL    HW2 4926   0.433   6.366   0.761
 1343SOL     OW 4927   4.143   4.900   3.520
 1343SOL    HW1 4928   4.205   4.903   3.599
 1343SOL    HW2 4929   4.068   4.965   3.534
 1344SOL     OW 4930   6.561   0.993   2.523
 1344SOL    HW1 4931   6.636   0.964   2.582
 1344SOL    HW2 4932   6.480   1.010   2.578
 1345SOL     OW 4933   0.739   0.002   3.385
 1345SOL    HW1 4934   0.678   0.062   3.333
 1345SOL    HW2 4935   0.689   6.992   3.464
 1346SOL     OW 4936   0.206   0.904   3.961
 1346SOL    HW1 4937   0.216   0.993   4.005
 1346SOL    HW2 4938   0.226   0.832   4.026
 1347SOL     OW 4939   5.660   0.455   3.004
 1347SOL    HW1 4940   5.578   0.400   3.019
 1347SOL    HW2 4941   5.726   0.402   2.951
 1348SOL     OW 4942   5.116   4.282   4.923
 1348SOL    HW1 4943   5.079   4.334   5.000
 1348SOL    HW2 4944   5.140   4.344   4.849
 1349SOL     OW 4945   4.600   2.760   6.882
 1349SOL    HW1 4946   4.681   2.701   6.876
 1349SOL    HW2 4947   4.567   2.763   6.976
 1350SOL     OW 4948   3.069   0.727   6.044
 1350SOL    HW1 4949   3.165   0.752   6.031
 1350SOL    HW2 4950   3.017   0.809   6.069
 1351SOL     OW 4951   0.690   0.923   4.711
 1351SOL    HW1 4952   0.691   0.824   4.703
 1351SOL    HW2 4953   0.782   0.959   4.696
 1352SOL     OW 4954   0.372   0.857   3.113
 1352SOL    HW1 4955   0.406   0.866   3.020
 1352SOL    HW2 4956   0.364   0.948   3.155
 1353SOL     OW 4957   1.396   4.215   3.878
 1353SOL    HW1 4958   1.471   4.175   3.826
 1353SOL    HW2 4959   1.391   4.313   3.858
 1354SOL     OW 4960   0.654   0.172   1.764
 1354SOL    HW1 4961   0.732   0.134   1.813
 1354SOL    HW2 4962   0.654   0.272   1.772
 1355SOL     OW 4963   5.008   3.049   6.765
 1355SOL    HW1 4964   4.932   2.992   6.796
 1355SOL    HW2 4965   4.979   3.145   6.761
 1356SOL     OW 4966   3.004   3.915   2.547
 1356SOL    HW1 4967   2.940   3.974   2.595
 1356SOL    HW2 4968   3.000   3.933   2.449
 1357SOL     OW 4969   2.894   3.070   5.399
 1357SOL    HW1 4970   2.813   3.016   5.375
 1357SOL    HW2 4971   2.903   3.074   5.499
 1358SOL     OW 4972   1.895   2.307   5.598
 1358SOL    HW1 4973   1.985   2.341   5.570
 1358SOL    HW2 4974   1.827   2.331   5.528
 1359SOL     OW 4975   6.777   1.200   0.446
 1359SOL    HW1 4976   6.724   1.266   0.392
 1359SOL    HW2 4977   6.815   1.130   0.385
 1360SOL     OW 4978   3.420   3.911   4.797
 1360SOL    HW1 4979   3.488   3.884   4.728
 1360SOL    HW2 4980   3.410   4.010   4.797
 1361SOL     OW 4981   0.500   6.103   0.661
 1361SOL    HW1 4982   0.431   6.054   0.713
 1361SOL    HW2 4983   0.590   6.064   0.679
 1362SOL     OW 4984   3.280   3.027   6.414
 1362SOL    HW1 4985   3.187   2.995   6.433
 1362SOL    HW2 4986   3.337   2.950   6.387
 1363SOL     OW 4987   5.745   6.282   2.338
 1363SOL    HW1 4988   5.669   6.344   2.318
 1363SOL    HW2 4989   5.775   6.238   2.254
 1364SOL     OW 4990   0.520   3.263   1.293
 1364SOL    HW1 4991   0.544   3.172   1.325
 1364SOL    HW2 4992   0.588   3.329   1.327
 1365SOL     OW 4993   0.858   3.668   5.694
 1365SOL    HW1 4994   0.917   3.587   5.695
 1365SOL    HW2 4995   0.779   3.653   5.753
 1366SOL     OW 4996   5.521   0.762   0.938
 1366SOL    HW1 4997   5.500   0.664   0.936
 1366SOL    HW2 4998   5.486   0.805   0.856
 1367SOL     OW 4999   0.765   6.212   4.340
 1367SOL    HW1 5000   0.745   6.216   4.438
 1367SOL    HW2 5001   0.734   6.124   4.303
 1368SOL     OW 5002   0.940   6.189   5.550
 1368SOL    HW1 5003   0.948   6.172   5.648
 1368SOL    HW2 5004   0.948   6.102   5.501
 1369SOL     OW 5005   3.146   6.552   3.256
 1369SOL    HW1 5006   3.134   6.468   3.203
 1369SOL    HW2 5007   3.067   6.612   3.240
 1370SOL     OW 5008   6.209   2.566   2.980
 1370SOL    HW1 5009   6.203   2.551   2.881
 1370SOL    HW2 5010   6.116   2.576   3.017
 1371SOL     OW 5011   5.834   1.733   5.448
 1371SOL    HW1 5012   5.768   1.802   5.476
 1371SOL    HW2 5013   5.792   1.672   5.381
 1372SOL     OW 5014   6.402   2.805   0.320
 1372SOL    HW1 5015   6.452   2.804   0.406
 1372SOL    HW2 5016   6.465   2.789   0.244
 1373SOL     OW 5017   5.113   2.706   2.123
 1373SOL    HW1 5018   5.172   2.737   2.048
 1373SOL    HW2 5019   5.138   2.754   2.207
 1374SOL     OW 5020   4.269   4.200   0.215
 1374SOL    HW1 5021   4.190   4.257   0.236
 1374SOL    HW2 5022   4.264   4.115   0.268
 1375SOL     OW 5023   5.409   5.765   4.331
 1375SOL    HW1 5024   5.495   5.780   4.380
 1375SOL    HW2 5025   5.424   5.776   4.233
 1376SOL     OW 5026   2.925   5.043   5.709
 1376SOL    HW1 5027   2.931   5.013   5.805
 1376SOL    HW2 5028   2.954   4.969   5.649
 1377SOL     OW 5029   1.801   1.344   3.035
 1377SOL    HW1 5030   1.753   1.395   2.964
 1377SOL    HW2 5031   1.768   1.371   3.125
 1378SOL     OW 5032   4.900   2.373   4.281
 1378SOL    HW1 5033   4.916   2.384   4.183
 1378SOL    HW2 5034   4.822   2.312   4.295
 1379SOL     OW 5035   5.027   5.515   1.114
 1379SOL    HW1 5036   5.038   5.428   1.162
 1379SOL    HW2 5037   5.039   5.591   1.179
 1380SOL     OW 5038   6.849   5.721   1.969
 1380SOL    HW1 5039   6.763   5.670   1.982
 1380SOL    HW2 5040   6.922   5.657   1.948
 1381SOL     OW 5041   5.965   2.139   5.708
 1381SOL    HW1 5042   6.018   2.176   5.784
 1381SOL    HW2 5043   5.867   2.151   5.726
 1382SOL     OW 5044   4.883   2.451   0.118
 1382SOL    HW1 5045   4.894   2.397   0.201
 1382SOL    HW2 5046   4.845   2.541   0.142
 1383SOL     OW 5047   0.803   1.121   2.176
 1383SOL    HW1 5048   0.791   1.117   2.275
 1383SOL    HW2 5049   0.830   1.214   2.149
 1384SOL     OW 5050   6.169   1.704   1.826
 1384SOL    HW1 5051   6.119   1.682   1.742
 1384SOL    HW2 5052   6.103   1.711   1.902
 1385SOL     OW 5053   1.089   5.695   1.759
 1385SOL    HW1 5054   1.014   5.630   1.774
 1385SOL    HW2 5055   1.154   5.656   1.693
 1386SOL     OW 5056   2.526   5.969   4.626
 1386SOL    HW1 5057   2.523   5.915   4.542
 1386SOL    HW2 5058   2.568   6.058   4.607
 1387SOL     OW 5059   3.138   5.654   2.075
 1387SOL    HW1 5060   3.121   5.561   2.043
 1387SOL    HW2 5061   3.205   5.651   2.149
 1388SOL     OW 5062   6.819   0.398   1.691
 1388SOL    HW1 5063   6.792   0.494   1.697
 1388SOL    HW2 5064   6.844   0.375   1.597
 1389SOL     OW 5065   6.260   1.134   2.694
 1389SOL    HW1 5066   6.221   1.179   2.614
 1389SOL    HW2 5067   6.208   1.051   2.715
 1390SOL     OW 5068   0.098   2.213   5.912
 1390SOL    HW1 5069   0.005   2.204   5.876
 1390SOL    HW2 5070   0.116   2.139   5.977
 1391SOL     OW 5071   0.935   3.002   2.546
 1391SOL    HW1 5072   0.846   2.962   2.523
 1391SOL    HW2 5073   0.999   2.929   2.572
 1392SOL     OW 5074   4.914   4.726   5.211
 1392SOL    HW1 5075   5.002   4.692   5.244
 1392SOL    HW2 5076   4.930   4.797   5.143
 1393SOL     OW 5077   3.920   6.473   5.654
 1393SOL    HW1 5078   3.992   6.515   5.599
 1393SOL    HW2 5079   3.872   6.403   5.600
 1394SOL     OW 5080   2.362   6.312   5.593
 1394SOL    HW1 5081   2.442   6.318   5.653
 1394SOL    HW2 5082   2.392   6.293   5.500
 1395SOL     OW 5083   3.489   4.626   5.747
 1395SOL    HW1 5084   3.400   4.581   5.754
 1395SOL    HW2 5085   3.476   4.721   5.717
 1396SOL     OW 5086   5.986   6.001   4.320
 1396SOL    HW1 5087   5.978   5.930   4.249
 1396SOL    HW2 5088   5.911   6.067   4.310
 1397SOL     OW 5089   4.532   5.937   4.887
 1397SOL    HW1 5090   4.471   5.865   4.854
 1397SOL    HW2 5091   4.500   6.025   4.854
 1398SOL     OW 5092   1.374   1.211   4.791
 1398SOL    HW1 5093   1.331   1.129   4.828
 1398SOL    HW2 5094   1.326   1.239   4.708
 1399SOL     OW 5095   3.172   6.370   1.766
 1399SOL    HW1 5096   3.270   6.391   1.771
 1399SOL    HW2 5097   3.152   6.289   1.822
 1400SOL     OW 5098   0.972   0.198   1.602
 1400SOL    HW1 5099   0.912   0.268   1.564
 1400SOL    HW2 5100   0.930   0.159   1.684
 1401SOL     OW 5101   6.862   1.250   4.697
 1401SOL    HW1 5102   6.873   1.346   4.724
 1401SOL    HW2 5103   6.844   1.195   4.778
 1402SOL     OW 5104   6.690   2.550   0.340
 1402SOL    HW1 5105   6.735   2.577   0.424
 1402SOL    HW2 5106   6.631   2.470   0.358
 1403SOL     OW 5107   2.218   0.191   1.892
 1403SOL    HW1 5108   2.216   0.291   1.905
 1403SOL    HW2 5109   2.125   0.158   1.875
 1404SOL     OW 5110   5.648   0.401   0.312
 1404SOL    HW1 5111   5.654   0.432   0.407
 1404SOL    HW2 5112   5.561   0.432   0.273
 1405SOL     OW 5113   2.234   3.548   0.963
 1405SOL    HW1 5114   2.245   3.648   0.967
 1405SOL    HW2 5115   2.247   3.518   0.868
 1406SOL     OW 5116   1.773   4.252   1.011
 1406SOL    HW1 5117   1.784   4.322   0.940
 1406SOL    HW2 5118   1.791   4.293   1.101
 1407SOL     OW 5119   6.658   2.098   2.450
 1407SOL    HW1 5120   6.574   2.132   2.493
 1407SOL    HW2 5121   6.727   2.080   2.520
 1408SOL     OW 5122   5.578   0.392   6.270
 1408SOL    HW1 5123   5.673   0.422   6.267
 1408SOL    HW2 5124   5.556   0.360   6.362
 1409SOL     OW 5125   7.010   0.517   4.557
 1409SOL    HW1 5126   6.985   0.584   4.627
 1409SOL    HW2 5127   7.024   0.563   4.469
 1410SOL     OW 5128   0.214   3.048   6.838
 1410SOL    HW1 5129   0.209   2.980   6.911
 1410SOL    HW2 5130   0.303   3.041   6.793
 1411SOL     OW 5131   1.734   6.555   2.411
 1411SOL    HW1 5132   1.700   6.643   2.377
 1411SOL    HW2 5133   1.779   6.569   2.500
 1412SOL     OW 5134   1.058   2.883   0.598
 1412SOL    HW1 5135   1.152   2.886   0.632
 1412SOL    HW2 5136   1.020   2.976   0.594
 1413SOL     OW 5137   2.418   0.378   4.346
 1413SOL    HW1 5138   2.418   0.467   4.300
 1413SOL    HW2 5139   2.444   0.307   4.281
 1414SOL     OW 5140   2.045   1.578   1.840
 1414SOL    HW1 5141   2.133   1.538   1.815
 1414SOL    HW2 5142   2.013   1.537   1.925
 1415SOL     OW 5143   3.953   6.088   5.639
 1415SOL    HW1 5144   3.880   6.138   5.592
 1415SOL    HW2 5145   4.035   6.144   5.643
 1416SOL     OW 5146   4.334   5.060   1.945
 1416SOL    HW1 5147   4.284   5.081   2.030
 1416SOL    HW2 5148   4.330   4.962   1.928
 1417SOL     OW 5149   2.425   1.840   6.292
 1417SOL    HW1 5150   2.428   1.921   6.351
 1417SOL    HW2 5151   2.485   1.769   6.329
 1418SOL     OW 5152   3.532   4.129   3.094
 1418SOL    HW1 5153   3.523   4.110   3.192
 1418SOL    HW2 5154   3.618   4.179   3.078
 1419SOL     OW 5155   3.969   6.664   4.938
 1419SOL    HW1 5156   3.964   6.656   4.838
 1419SOL    HW2 5157   4.021   6.745   4.963
 1420SOL     OW 5158   0.940   5.804   2.101
 1420SOL    HW1 5159   0.936   5.865   2.022
 1420SOL    HW2 5160   0.869   5.831   2.167
 1421SOL     OW 5161   3.061   2.112   2.133
 1421SOL    HW1 5162   2.991   2.182   2.118
 1421SOL    HW2 5163   3.040   2.031   2.080
 1422SOL     OW 5164   2.401   5.202   0.500
 1422SOL    HW1 5165   2.305   5.220   0.520
 1422SOL    HW2 5166   2.432   5.262   0.425
 1423SOL     OW 5167   4.899   6.778   2.721
 1423SOL    HW1 5168   4.895   6.828   2.807
 1423SOL    HW2 5169   4.859   6.833   2.648
 1424SOL     OW 5170   5.995   5.203   4.927
 1424SOL    HW1 5171   6.043   5.252   5.000
 1424SOL    HW2 5172   5.930   5.265   4.883
 1425SOL     OW 5173   2.210   6.845   3.850
 1425SOL    HW1 5174   2.119   6.840   3.807
 1425SOL    HW2 5175   2.199   6.867   3.947
 1426SOL     OW 5176   1.174   1.597   5.797
 1426SOL    HW1 5177   1.118   1.601   5.880
 1426SOL    HW2 5178   1.120   1.558   5.723
 1427SOL     OW 5179   5.902   0.457   4.082
 1427SOL    HW1 5180   5.983   0.399   4.088
 1427SOL    HW2 5181   5.885   0.501   4.170
 1428SOL     OW 5182   5.484   2.055   6.792
 1428SOL    HW1 5183   5.419   2.044   6.867
 1428SOL    HW2 5184   5.578   2.054   6.828
 1429SOL     OW 5185   0.195   0.884   1.040
 1429SOL    HW1 5186   0.270   0.826   1.074
 1429SOL    HW2 5187   0.130   0.827   0.990
 1430SOL     OW 5188   1.847   4.751   2.908
 1430SOL    HW1 5189   1.784   4.749   2.831
 1430SOL    HW2 5190   1.879   4.844   2.923
 1431SOL     OW 5191   2.818   0.560   1.447
 1431SOL    HW1 5192   2.827   0.659   1.438
 1431SOL    HW2 5193   2.847   0.532   1.539
 1432SOL     OW 5194   2.314   1.148   2.266
 1432SOL    HW1 5195   2.247   1.187   2.328
 1432SOL    HW2 5196   2.293   1.176   2.172
 1433SOL     OW 5197   3.752   0.324   4.058
 1433SOL    HW1 5198   3.742   0.376   3.973
 1433SOL    HW2 5199   3.685   0.355   4.125
 1434SOL     OW 5200   1.077   0.952   5.449
 1434SOL    HW1 5201   1.089   0.950   5.548
 1434SOL    HW2 5202   1.048   1.044   5.421
 1435SOL     OW 5203   6.372   1.957   2.733
 1435SOL    HW1 5204   6.393   2.046   2.694
 1435SOL    HW2 5205   6.453   1.921   2.780
 1436SOL     OW 5206   4.230   3.456   0.280
 1436SOL    HW1 5207   4.170   3.494   0.209
 1436SOL    HW2 5208   4.279   3.530   0.325
 1437SOL     OW 5209   3.371   0.592   2.509
 1437SOL    HW1 5210   3.320   0.677   2.496
 1437SOL    HW2 5211   3.410   0.563   2.422
 1438SOL     OW 5212   2.925   6.430   1.344
 1438SOL    HW1 5213   2.946   6.445   1.441
 1438SOL    HW2 5214   2.829   6.406   1.334
 1439SOL     OW 5215   0.532   6.153   2.490
 1439SOL    HW1 5216   0.556   6.249   2.503
 1439SOL    HW2 5217   0.553   6.102   2.573
 1440SOL     OW 5218   2.827   3.545   0.882
 1440SOL    HW1 5219   2.833   3.587   0.791
 1440SOL    HW2 5220   2.875   3.457   0.881
 1441SOL     OW 5221   5.966   6.581   1.240
 1441SOL    HW1 5222   5.947   6.483   1.248
 1441SOL    HW2 5223   5.890   6.627   1.195
 1442SOL     OW 5224   5.992   5.288   0.520
 1442SOL    HW1 5225   5.920   5.293   0.451
 1442SOL    HW2 5226   6.077   5.322   0.481
 1443SOL     OW 5227   1.659   2.576   2.953
 1443SOL    HW1 5228   1.572   2.529   2.941
 1443SOL    HW2 5229   1.646   2.656   3.013
 1444SOL     OW 5230   6.116   5.569   0.016
 1444SOL    HW1 5231   6.109   5.636   0.090
 1444SOL    HW2 5232   6.050   5.495   0.033
 1445SOL     OW 5233   1.177   3.346   2.493
 1445SOL    HW1 5234   1.232   3.265   2.512
 1445SOL    HW2 5235   1.085   3.333   2.530
 1446SOL     OW 5236   6.291   0.116   6.656
 1446SOL    HW1 5237   6.387   0.130   6.683
 1446SOL    HW2 5238   6.233   0.121   6.738
 1447SOL     OW 5239   5.965   4.950   4.841
 1447SOL    HW1 5240   5.910   4.891   4.900
 1447SOL    HW2 5241   5.968   5.042   4.881
 1448SOL     OW 5242   0.861   2.841   5.994
 1448SOL    HW1 5243   0.920   2.865   5.917
 1448SOL    HW2 5244   0.832   2.925   6.041
 1449SOL     OW 5245   1.671   4.361   4.206
 1449SOL    HW1 5246   1.628   4.442   4.168
 1449SOL    HW2 5247   1.651   4.282   4.148
 1450SOL     OW 5248   2.167   2.207   4.916
 1450SOL    HW1 5249   2.140   2.288   4.967
 1450SOL    HW2 5250   2.195   2.233   4.824
 1451SOL     OW 5251   2.417   7.003   1.826
 1451SOL    HW1 5252   2.494   0.041   1.830
 1451SOL    HW2 5253   2.334   0.023   1.857
 1452SOL     OW 5254   5.107   3.296   5.718
 1452SOL    HW1 5255   5.067   3.208   5.691
 1452SOL    HW2 5256   5.176   3.281   5.788
 1453SOL     OW 5257   1.090   4.273   4.921
 1453SOL    HW1 5258   1.084   4.372   4.916
 1453SOL    HW2 5259   1.008   4.232   4.882
 1454SOL     OW 5260   2.940   1.592   3.503
 1454SOL    HW1 5261   3.028   1.594   3.455
 1454SOL    HW2 5262   2.867   1.570   3.439
 1455SOL     OW 5263   1.269   5.787   2.372
 1455SOL    HW1 5264   1.368   5.771   2.378
 1455SOL    HW2 5265   1.247   5.824   2.282
 1456SOL     OW 5266   6.083   5.460   5.840
 1456SOL    HW1 5267   6.027   5.475   5.758
 1456SOL    HW2 5268   6.039   5.505   5.918
 1457SOL     OW 5269   0.509   4.040   6.079
 1457SOL    HW1 5270   0.572   4.110   6.113
 1457SOL    HW2 5271   0.547   3.949   6.097
 1458SOL     OW 5272   5.228   4.844   5.311
 1458SOL    HW1 5273   5.225   4.925   5.252
 1458SOL    HW2 5274   5.212   4.872   5.406
 1459SOL     OW 5275   4.822   0.002   5.268
 1459SOL    HW1 5276   4.881   6.970   5.324
 1459SOL    HW2 5277   4.850   7.021   5.172
 1460SOL     OW 5278   1.790   6.391   5.486
 1460SOL    HW1 5279   1.749   6.304   5.511
 1460SOL    HW2 5280   1.886   6.393   5.515
 1461SOL     OW 5281   0.296   2.859   2.980
 1461SOL    HW1 5282   0.208   2.902   3.000
 1461SOL    HW2 5283   0.362   2.930   2.954
 1462SOL     OW 5284   0.836   7.023   0.719
 1462SOL    HW1 5285   0.857   6.940   0.666
 1462SOL    HW2 5286   0.826   6.999   0.816
 1463SOL     OW 5287   1.720   5.497   6.485
 1463SOL    HW1 5288   1.736   5.426   6.554
 1463SOL    HW2 5289   1.757   5.584   6.518
 1464SOL     OW 5290   0.047   4.581   4.427
 1464SOL    HW1 5291   0.108   4.621   4.359
 1464SOL    HW2 5292   0.090   4.499   4.467
 1465SOL     OW 5293   1.362   1.786   3.261
 1465SOL    HW1 5294   1.413   1.819   3.182
 1465SOL    HW2 5295   1.271   1.829   3.262
 1466SOL     OW 5296   4.273   2.083   1.758
 1466SOL    HW1 5297   4.209   2.098   1.682
 1466SOL    HW2 5298   4.269   1.987   1.786
 1467SOL     OW 5299   1.356   0.800   4.057
 1467SOL    HW1 5300   1.364   0.898   4.076
 1467SOL    HW2 5301   1.444   0.765   4.026
 1468SOL     OW 5302   2.312   5.945   2.529
 1468SOL    HW1 5303   2.376   6.018   2.509
 1468SOL    HW2 5304   2.242   5.941   2.458
 1469SOL     OW 5305   6.303   5.290   3.306
 1469SOL    HW1 5306   6.328   5.379   3.267
 1469SOL    HW2 5307   6.265   5.231   3.234
 1470SOL     OW 5308   6.532   2.056   0.645
 1470SOL    HW1 5309   6.470   2.133   0.655
 1470SOL    HW2 5310   6.480   1.972   0.633
 1471SOL     OW 5311   5.402   6.879   1.684
 1471SOL    HW1 5312   5.355   6.925   1.608
 1471SOL    HW2 5313   5.343   6.807   1.721
 1472SOL     OW 5314   1.877   6.719   6.217
 1472SOL    HW1 5315   1.900   6.773   6.298
 1472SOL    HW2 5316   1.841   6.779   6.145
 1473SOL     OW 5317   2.927   5.179   4.553
 1473SOL    HW1 5318   2.939   5.250   4.623
 1473SOL    HW2 5319   2.991   5.194   4.478
 1474SOL     OW 5320   4.255   4.828   1.597
 1474SOL    HW1 5321   4.354   4.840   1.591
 1474SOL    HW2 5322   4.225   4.846   1.691
 1475SOL     OW 5323   4.828   0.196   0.325
 1475SOL    HW1 5324   4.913   0.144   0.327
 1475SOL    HW2 5325   4.801   0.220   0.418
 1476SOL     OW 5326   3.900   1.059   1.638
 1476SOL    HW1 5327   3.800   1.066   1.642
 1476SOL    HW2 5328   3.939   1.104   1.718
 1477SOL     OW 5329   4.159   5.347   1.524
 1477SOL    HW1 5330   4.118   5.288   1.593
 1477SOL    HW2 5331   4.095   5.419   1.499
 1478SOL     OW 5332   5.183   5.786   5.628
 1478SOL    HW1 5333   5.119   5.857   5.599
 1478SOL    HW2 5334   5.137   5.697   5.625
 1479SOL     OW 5335   3.545   3.550   1.349
 1479SOL    HW1 5336   3.645   3.544   1.350
 1479SOL    HW2 5337   3.509   3.521   1.437
 1480SOL     OW 5338   2.984   0.492   4.834
 1480SOL    HW1 5339   3.016   0.425   4.901
 1480SOL    HW2 5340   2.892   0.521   4.857
 1481SOL     OW 5341   5.391   2.679   5.849
 1481SOL    HW1 5342   5.406   2.757   5.789
 1481SOL    HW2 5343   5.295   2.651   5.844
 1482SOL     OW 5344   4.589   1.362   0.382
 1482SOL    HW1 5345   4.607   1.459   0.397
 1482SOL    HW2 5346   4.498   1.351   0.340
 1483SOL     OW 5347   4.657   1.356   6.165
 1483SOL    HW1 5348   4.736   1.353   6.103
 1483SOL    HW2 5349   4.606   1.441   6.150
 1484SOL     OW 5350   2.992   5.765   4.917
 1484SOL    HW1 5351   3.005   5.670   4.945
 1484SOL    HW2 5352   3.072   5.795   4.865
 1485SOL     OW 5353   5.089   2.657   2.753
 1485SOL    HW1 5354   4.989   2.652   2.753
 1485SOL    HW2 5355   5.126   2.588   2.815
 1486SOL     OW 5356   4.821   6.888   3.811
 1486SOL    HW1 5357   4.797   6.819   3.880
 1486SOL    HW2 5358   4.796   6.854   3.721
 1487SOL     OW 5359   6.694   0.219   0.615
 1487SOL    HW1 5360   6.752   0.198   0.694
 1487SOL    HW2 5361   6.727   0.303   0.571
 1488SOL     OW 5362   6.121   0.793   3.176
 1488SOL    HW1 5363   6.060   0.738   3.233
 1488SOL    HW2 5364   6.146   0.741   3.094
 1489SOL     OW 5365   4.209   4.575   6.204
 1489SOL    HW1 5366   4.245   4.533   6.288
 1489SOL    HW2 5367   4.244   4.668   6.196
 1490SOL     OW 5368   0.415   2.414   2.480
 1490SOL    HW1 5369   0.384   2.508   2.473
 1490SOL    HW2 5370   0.371   2.369   2.558
 1491SOL     OW 5371   0.156   3.164   2.535
 1491SOL    HW1 5372   0.191   3.106   2.608
 1491SOL    HW2 5373   0.093   3.111   2.478
 1492SOL     OW 5374   6.058   1.445   3.025
 1492SOL    HW1 5375   6.075   1.383   3.101
 1492SOL    HW2 5376   6.129   1.516   3.023
 1493SOL     OW 5377   4.552   2.697   5.926
 1493SOL    HW1 5378   4.484   2.624   5.937
 1493SOL    HW2 5379   4.578   2.705   5.830
 1494SOL     OW 5380   6.268   3.955   5.942
 1494SOL    HW1 5381   6.284   4.000   6.030
 1494SOL    HW2 5382   6.348   3.901   5.917
 1495SOL     OW 5383   6.257   4.376   4.438
 1495SOL    HW1 5384   6.209   4.361   4.524
 1495SOL    HW2 5385   6.259   4.291   4.385
 1496SOL     OW 5386   6.865   5.522   6.607
 1496SOL    HW1 5387   6.806   5.574   6.668
 1496SOL    HW2 5388   6.936   5.475   6.660
 1497SOL     OW 5389   5.524   3.254   2.735
 1497SOL    HW1 5390   5.552   3.158   2.728
 1497SOL    HW2 5391   5.554   3.303   2.653
 1498SOL     OW 5392   3.006   4.691   0.905
 1498SOL    HW1 5393   2.975   4.671   0.998
 1498SOL    HW2 5394   2.957   4.632   0.841
 1499SOL     OW 5395   0.675   3.953   5.847
 1499SOL    HW1 5396   0.687   4.024   5.778
 1499SOL    HW2 5397   0.629   3.992   5.928
 1500SOL     OW 5398   0.723   5.447   1.520
 1500SOL    HW1 5399   0.726   5.347   1.529
 1500SOL    HW2 5400   0.771   5.474   1.436
 1501SOL     OW 5401   5.803   1.483   6.626
 1501SOL    HW1 5402   5.750   1.415   6.574
 1501SOL    HW2 5403   5.882   1.438   6.666
 1502SOL     OW 5404   6.190   6.979   6.872
 1502SOL    HW1 5405   6.273   6.968   6.926
 1502SOL    HW2 5406   6.193   6.916   6.793
 1503SOL     OW 5407   0.421   4.457   1.974
 1503SOL    HW1 5408   0.507   4.413   2.000
 1503SOL    HW2 5409   0.408   4.540   2.029
 1504SOL     OW 5410   0.592   0.743   3.214
 1504SOL    HW1 5411   0.513   0.801   3.193
 1504SOL    HW2 5412   0.613   0.749   3.312
 1505SOL     OW 5413   5.100   5.807   4.710
 1505SOL    HW1 5414   5.005   5.776   4.702
 1505SOL    HW2 5415   5.127   5.854   4.626
 1506SOL     OW 5416   0.794   0.884   0.578
 1506SOL    HW1 5417   0.792   0.805   0.517
 1506SOL    HW2 5418   0.814   0.854   0.671
 1507SOL     OW 5419   1.850   2.466   4.586
 1507SOL    HW1 5420   1.900   2.495   4.667
 1507SOL    HW2 5421   1.909   2.476   4.506
 1508SOL     OW 5422   1.116   0.652   0.502
 1508SOL    HW1 5423   1.075   0.588   0.437
 1508SOL    HW2 5424   1.127   0.607   0.591
 1509SOL     OW 5425   5.312   0.569   4.056
 1509SOL    HW1 5426   5.378   0.584   3.982
 1509SOL    HW2 5427   5.357   0.521   4.131
 1510SOL     OW 5428   3.757   5.864   4.019
 1510SOL    HW1 5429   3.805   5.903   4.097
 1510SOL    HW2 5430   3.694   5.793   4.051
 1511SOL     OW 5431   3.956   3.262   4.382
 1511SOL    HW1 5432   3.957   3.317   4.298
 1511SOL    HW2 5433   3.887   3.298   4.444
 1512SOL     OW 5434   6.528   6.373   1.028
 1512SOL    HW1 5435   6.605   6.394   0.969
 1512SOL    HW2 5436   6.503   6.454   1.081
 1513SOL     OW 5437   3.140   0.360   6.272
 1513SOL    HW1 5438   3.113   0.265   6.257
 1513SOL    HW2 5439   3.079   0.421   6.220
 1514SOL     OW 5440   3.437   2.068   5.780
 1514SOL    HW1 5441   3.359   2.018   5.817
 1514SOL    HW2 5442   3.459   2.146   5.840
 1515SOL     OW 5443   6.107   1.955   2.155
 1515SOL    HW1 5444   6.168   1.914   2.222
 1515SOL    HW2 5445   6.043   1.885   2.121
 1516SOL     OW 5446   5.975   6.562   4.652
 1516SOL    HW1 5447   6.008   6.490   4.590
 1516SOL    HW2 5448   5.997   6.652   4.612
 1517SOL     OW 5449   3.783   6.258   3.960
 1517SOL    HW1 5450   3.750   6.345   3.923
 1517SOL    HW2 5451   3.780   6.188   3.888
 1518SOL     OW 5452   0.405   2.448   0.472
 1518SOL    HW1 5453   0.504   2.460   0.470
 1518SOL    HW2 5454   0.383   2.351   0.485
 1519SOL     OW 5455   6.884   4.372   6.920
 1519SOL    HW1 5456   6.892   4.379   6.820
 1519SOL    HW2 5457   6.792   4.341   6.943
 1520SOL     OW 5458   0.093   5.758   2.245
 1520SOL    HW1 5459   0.034   5.701   2.302
 1520SOL    HW2 5460   0.037   5.819   2.190
 1521SOL     OW 5461   1.988   4.970   6.264
 1521SOL    HW1 5462   2.018   4.933   6.352
 1521SOL    HW2 5463   2.057   4.951   6.194
 1522SOL     OW 5464   5.013   5.287   4.661
 1522SOL    HW1 5465   4.945   5.221   4.630
 1522SOL    HW2 5466   4.991   5.317   4.754
 1523SOL     OW 5467   3.917   6.103   6.708
 1523SOL    HW1 5468   3.998   6.161   6.694
 1523SOL    HW2 5469   3.946   6.012   6.739
 1524SOL     OW 5470   2.296   1.848   2.235
 1524SOL    HW1 5471   2.326   1.766   2.187
 1524SOL    HW2 5472   2.359   1.867   2.311
 1525SOL     OW 5473   5.699   2.730   0.264
 1525SOL    HW1 5474   5.602   2.751   0.282
 1525SOL    HW2 5475   5.755   2.763   0.340
 1526SOL     OW 5476   1.203   0.918   0.509
 1526SOL    HW1 5477   1.115   0.964   0.503
 1526SOL    HW2 5478   1.190   0.824   0.542
 1527SOL     OW 5479   3.608   1.423   4.098
 1527SOL    HW1 5480   3.656   1.386   4.017
 1527SOL    HW2 5481   3.625   1.363   4.176
 1528SOL     OW 5482   4.844   3.839   1.086
 1528SOL    HW1 5483   4.825   3.749   1.125
 1528SOL    HW2 5484   4.941   3.860   1.097
 1529SOL     OW 5485   4.798   1.427   5.932
 1529SOL    HW1 5486   4.843   1.514   5.954
 1529SOL    HW2 5487   4.705   1.446   5.898
 1530SOL     OW 5488   3.703   6.462   1.435
 1530SOL    HW1 5489   3.650   6.377   1.434
 1530SOL    HW2 5490   3.778   6.453   1.501
 1531SOL     OW 5491   3.299   6.466   4.619
 1531SOL    HW1 5492   3.345   6.492   4.534
 1531SOL    HW2 5493   3.247   6.381   4.604
 1532SOL     OW 5494   2.650   5.445   5.875
 1532SOL    HW1 5495   2.606   5.375   5.820
 1532SOL    HW2 5496   2.678   5.521   5.816
 1533SOL     OW 5497   5.628   5.223   1.253
 1533SOL    HW1 5498   5.704   5.253   1.195
 1533SOL    HW2 5499   5.581   5.146   1.210
 1534SOL     OW 5500   3.944   5.639   6.522
 1534SOL    HW1 5501   3.845   5.655   6.525
 1534SOL    HW2 5502   3.989   5.697   6.589
 1535SOL     OW 5503   6.045   6.765   4.499
 1535SOL    HW1 5504   6.089   6.735   4.414
 1535SOL    HW2 5505   6.083   6.854   4.526
 1536SOL     OW 5506   4.160   4.077   6.738
 1536SOL    HW1 5507   4.256   4.087   6.713
 1536SOL    HW2 5508   4.102   4.100   6.659
 1537SOL     OW 5509   3.199   5.229   3.993
 1537SOL    HW1 5510   3.228   5.322   3.973
 1537SOL    HW2 5511   3.201   5.174   3.909
 1538SOL     OW 5512   3.208   1.409   6.946
 1538SOL    HW1 5513   3.305   1.398   6.970
 1538SOL    HW2 5514   3.151   1.381   7.024
 1539SOL     OW 5515   5.609   3.081   1.071
 1539SOL    HW1 5516   5.518   3.113   1.098
 1539SOL    HW2 5517   5.629   3.113   0.978
 1540SOL     OW 5518   3.068   0.290   4.972
 1540SOL    HW1 5519   3.156   0.325   5.004
 1540SOL    HW2 5520   3.043   0.209   5.024
 1541SOL     OW 5521   3.809   2.964   4.545
 1541SOL    HW1 5522   3.856   2.948   4.458
 1541SOL    HW2 5523   3.876   2.958   4.620
 1542SOL     OW 5524   6.774   0.378   2.468
 1542SOL    HW1 5525   6.846   0.333   2.521
 1542SOL    HW2 5526   6.794   0.367   2.370
 1543SOL     OW 5527   2.779   5.101   6.478
 1543SOL    HW1 5528   2.854   5.110   6.543
 1543SOL    HW2 5529   2.705   5.164   6.502
 1544SOL     OW 5530   3.959   3.085   3.706
 1544SOL    HW1 5531   3.868   3.063   3.671
 1544SOL    HW2 5532   3.960   3.078   3.806
 1545SOL     OW 5533   6.385   6.681   2.799
 1545SOL    HW1 5534   6.466   6.651   2.850
 1545SOL    HW2 5535   6.323   6.603   2.786
 1546SOL     OW 5536   4.936   6.549   5.884
 1546SOL    HW1 5537   4.894   6.621   5.939
 1546SOL    HW2 5538   5.009   6.588   5.827
 1547SOL     OW 5539   1.542   3.637   6.284
 1547SOL    HW1 5540   1.521   3.644   6.382
 1547SOL    HW2 5541   1.641   3.639   6.271
 1548SOL     OW 5542   5.816   1.881   6.749
 1548SOL    HW1 5543   5.914   1.859   6.757
 1548SOL    HW2 5544   5.792   1.949   6.817
 1549SOL     OW 5545   4.424   1.057   4.624
 1549SOL    HW1 5546   4.387   1.031   4.534
 1549SOL    HW2 5547   4.353   1.104   4.676
 1550SOL     OW 5548   3.663   2.921   3.307
 1550SOL    HW1 5549   3.734   2.851   3.314
 1550SOL    HW2 5550   3.699   3.000   3.256
 1551SOL     OW 5551   0.117   5.336   6.316
 1551SOL    HW1 5552   0.145   5.243   6.339
 1551SOL    HW2 5553   0.037   5.333   6.256
 1552SOL     OW 5554   2.570   4.145   1.629
 1552SOL    HW1 5555   2.656   4.097   1.619
 1552SOL    HW2 5556   2.587   4.236   1.667
 1553SOL     OW 5557   6.733   1.434   5.687
 1553SOL    HW1 5558   6.735   1.496   5.765
 1553SOL    HW2 5559   6.727   1.486   5.602
 1554SOL     OW 5560   2.786   1.809   3.603
 1554SOL    HW1 5561   2.835   1.844   3.683
 1554SOL    HW2 5562   2.845   1.747   3.552
 1555SOL     OW 5563   6.889   3.122   6.196
 1555SOL    HW1 5564   6.807   3.122   6.253
 1555SOL    HW2 5565   6.917   3.216   6.178
 1556SOL     OW 5566   2.074   1.294   6.001
 1556SOL    HW1 5567   2.024   1.376   5.974
 1556SOL    HW2 5568   2.091   1.237   5.921
 1557SOL     OW 5569   0.694   3.361   6.674
 1557SOL    HW1 5570   0.605   3.395   6.645
 1557SOL    HW2 5571   0.764   3.429   6.654
 1558SOL     OW 5572   6.641   0.654   5.358
 1558SOL    HW1 5573   6.623   0.560   5.330
 1558SOL    HW2 5574   6.682   0.655   5.449
 1559SOL     OW 5575   0.468   2.312   5.845
 1559SOL    HW1 5576   0.403   2.379   5.809
 1559SOL    HW2 5577   0.512   2.264   5.768
 1560SOL     OW 5578   6.960   0.326   6.519
 1560SOL    HW1 5579   7.013   0.334   6.604
 1560SOL    HW2 5580   7.017   0.357   6.443
 1561SOL     OW 5581   5.695   5.931   2.571
 1561SOL    HW1 5582   5.791   5.957   2.577
 1561SOL    HW2 5583   5.638   6.004   2.608
 1562SOL     OW 5584   5.448   0.255   2.959
 1562SOL    HW1 5585   5.465   0.200   3.040
 1562SOL    HW2 5586   5.433   0.195   2.880
 1563SOL     OW 5587   3.691   1.623   5.715
 1563SOL    HW1 5588   3.628   1.682   5.766
 1563SOL    HW2 5589   3.641   1.572   5.646
 1564SOL     OW 5590   2.144   2.105   2.223
 1564SOL    HW1 5591   2.063   2.086   2.279
 1564SOL    HW2 5592   2.208   2.028   2.229
 1565SOL     OW 5593   5.243   3.688   1.980
 1565SOL    HW1 5594   5.195   3.601   1.967
 1565SOL    HW2 5595   5.323   3.674   2.038
 1566SOL     OW 5596   5.441   4.290   3.564
 1566SOL    HW1 5597   5.355   4.239   3.566
 1566SOL    HW2 5598   5.518   4.227   3.575
 1567SOL     OW 5599   0.044   5.394   5.666
 1567SOL    HW1 5600   0.047   5.452   5.584
 1567SOL    HW2 5601   7.018   5.440   5.737
 1568SOL     OW 5602   0.510   0.434   0.985
 1568SOL    HW1 5603   0.570   0.353   0.984
 1568SOL    HW2 5604   0.487   0.459   0.891
 1569SOL     OW 5605   4.157   6.283   5.572
 1569SOL    HW1 5606   4.243   6.238   5.596
 1569SOL    HW2 5607   4.177   6.375   5.536
 1570SOL     OW 5608   3.037   1.776   1.502
 1570SOL    HW1 5609   2.958   1.824   1.462
 1570SOL    HW2 5610   3.119   1.797   1.449
 1571SOL     OW 5611   6.631   3.675   1.504
 1571SOL    HW1 5612   6.729   3.665   1.491
 1571SOL    HW2 5613   6.598   3.605   1.568
 1572SOL     OW 5614   1.435   6.870   2.282
 1572SOL    HW1 5615   1.479   6.842   2.197
 1572SOL    HW2 5616   1.349   6.917   2.261
 1573SOL     OW 5617   4.022   0.350   1.977
 1573SOL    HW1 5618   3.966   0.398   1.909
 1573SOL    HW2 5619   4.112   0.392   1.982
 1574SOL     OW 5620   6.887   2.299   1.925
 1574SOL    HW1 5621   6.819   2.369   1.945
 1574SOL    HW2 5622   6.941   2.282   2.008
 1575SOL     OW 5623   1.752   1.919   0.761
 1575SOL    HW1 5624   1.694   1.993   0.727
 1575SOL    HW2 5625   1.812   1.887   0.688
 1576SOL     OW 5626   5.975   6.058   3.947
 1576SOL    HW1 5627   5.954   6.048   3.850
 1576SOL    HW2 5628   6.068   6.092   3.958
 1577SOL     OW 5629   2.853   0.177   5.667
 1577SOL    HW1 5630   2.806   0.147   5.750
 1577SOL    HW2 5631   2.793   0.236   5.614
 1578SOL     OW 5632   6.080   4.477   5.727
 1578SOL    HW1 5633   6.001   4.417   5.736
 1578SOL    HW2 5634   6.086   4.512   5.634
 1579SOL     OW 5635   0.802   0.928   3.600
 1579SOL    HW1 5636   0.840   0.936   3.692
 1579SOL    HW2 5637   0.877   0.921   3.534
 1580SOL     OW 5638   3.034   4.292   5.288
 1580SOL    HW1 5639   3.127   4.320   5.263
 1580SOL    HW2 5640   2.969   4.356   5.248
 1581SOL     OW 5641   6.688   4.473   4.284
 1581SOL    HW1 5642   6.675   4.373   4.286
 1581SOL    HW2 5643   6.604   4.517   4.251
 1582SOL     OW 5644   6.953   5.386   4.560
 1582SOL    HW1 5645   6.862   5.346   4.557
 1582SOL    HW2 5646   7.016   5.332   4.504
 1583SOL     OW 5647   1.543   3.029   2.999
 1583SOL    HW1 5648   1.581   3.064   2.914
 1583SOL    HW2 5649   1.540   3.102   3.067
 1584SOL     OW 5650   2.186   0.192   6.013
 1584SOL    HW1 5651   2.155   0.284   6.035
 1584SOL    HW2 5652   2.175   0.133   6.093
 1585SOL     OW 5653   5.108   1.596   4.286
 1585SOL    HW1 5654   5.031   1.640   4.331
 1585SOL    HW2 5655   5.134   1.513   4.336
 1586SOL     OW 5656   3.761   4.110   2.557
 1586SOL    HW1 5657   3.844   4.054   2.556
 1586SOL    HW2 5658   3.732   4.125   2.652
 1587SOL     OW 5659   3.509   6.650   6.714
 1587SOL    HW1 5660   3.519   6.551   6.718
 1587SOL    HW2 5661   3.587   6.694   6.759
 1588SOL     OW 5662   5.667   3.106   1.784
 1588SOL    HW1 5663   5.652   3.055   1.869
 1588SOL    HW2 5664   5.764   3.102   1.760
 1589SOL     OW 5665   6.202   3.954   4.082
 1589SOL    HW1 5666   6.118   4.004   4.059
 1589SOL    HW2 5667   6.197   3.861   4.045
 1590SOL     OW 5668   1.228   0.573   6.173
 1590SOL    HW1 5669   1.244   0.477   6.152
 1590SOL    HW2 5670   1.291   0.630   6.121
 1591SOL     OW 5671   1.028   4.677   2.051
 1591SOL    HW1 5672   1.006   4.762   2.097
 1591SOL    HW2 5673   1.040   4.694   1.953
 1592SOL     OW 5674   3.229   3.392   2.707
 1592SOL    HW1 5675   3.250   3.297   2.727
 1592SOL    HW2 5676   3.130   3.404   2.700
 1593SOL     OW 5677   1.115   5.297   5.012
 1593SOL    HW1 5678   1.047   5.334   4.949
 1593SOL    HW2 5679   1.166   5.225   4.966
 1594SOL     OW 5680   6.864   5.138   2.725
 1594SOL    HW1 5681   6.870   5.062   2.661
 1594SOL    HW2 5682   6.889   5.106   2.817
 1595SOL     OW 5683   6.449   4.933   6.282
 1595SOL    HW1 5684   6.514   4.880   6.337
 1595SOL    HW2 5685   6.500   4.993   6.220
 1596SOL     OW 5686   2.965   5.280   5.594
 1596SOL    HW1 5687   2.937   5.273   5.498
 1596SOL    HW2 5688   2.968   5.189   5.634
 1597SOL     OW 5689   2.808   6.154   1.590
 1597SOL    HW1 5690   2.762   6.240   1.571
 1597SOL    HW2 5691   2.753   6.101   1.656
 1598SOL     OW 5692   0.066   5.067   1.253
 1598SOL    HW1 5693   0.024   5.158   1.253
 1598SOL    HW2 5694   0.161   5.075   1.224
 1599SOL     OW 5695   3.713   5.060   6.942
 1599SOL    HW1 5696   3.812   5.073   6.947
 1599SOL    HW2 5697   3.681   5.013   7.024
 1600SOL     OW 5698   4.263   1.220   4.249
 1600SOL    HW1 5699   4.303   1.263   4.330
 1600SOL    HW2 5700   4.326   1.227   4.172
 1601SOL     OW 5701   1.260   5.359   3.839
 1601SOL    HW1 5702   1.233   5.308   3.758
 1601SOL    HW2 5703   1.281   5.453   3.814
 1602SOL     OW 5704   1.224   4.897   3.737
 1602SOL    HW1 5705   1.170   4.932   3.814
 1602SOL    HW2 5706   1.317   4.875   3.768
 1603SOL     OW 5707   6.917   6.408   1.912
 1603SOL    HW1 5708   6.829   6.363   1.893
 1603SOL    HW2 5709   6.948   6.456   1.830
 1604SOL     OW 5710   0.651   5.625   6.274
 1604SOL    HW1 5711   0.619   5.686   6.201
 1604SOL    HW2 5712   0.747   5.602   6.258
 1605SOL     OW 5713   5.827   6.493   3.263
 1605SOL    HW1 5714   5.758   6.539   3.207
 1605SOL    HW2 5715   5.807   6.395   3.266
 1606SOL     OW 5716   5.108   7.000   6.316
 1606SOL    HW1 5717   5.048   6.921   6.333
 1606SOL    HW2 5718   5.105   0.035   6.395
 1607SOL     OW 5719   4.264   2.140   1.099
 1607SOL    HW1 5720   4.296   2.220   1.047
 1607SOL    HW2 5721   4.337   2.109   1.160
 1608SOL     OW 5722   2.430   0.189   0.348
 1608SOL    HW1 5723   2.370   0.109   0.337
 1608SOL    HW2 5724   2.379   0.271   0.321
 1609SOL     OW 5725   4.682   2.036   5.593
 1609SOL    HW1 5726   4.679   1.944   5.632
 1609SOL    HW2 5727   4.657   2.103   5.663
 1610SOL     OW 5728   6.414   5.441   4.556
 1610SOL    HW1 5729   6.356   5.360   4.545
 1610SOL    HW2 5730   6.423   5.461   4.654
 1611SOL     OW 5731   2.842   3.778   1.450
 1611SOL    HW1 5732   2.903   3.700   1.465
 1611SOL    HW2 5733   2.764   3.749   1.394
 1612SOL     OW 5734   2.665   0.781   4.642
 1612SOL    HW1 5735   2.765   0.787   4.639
 1612SOL    HW2 5736   2.637   0.694   4.603
 1613SOL     OW 5737   2.208   6.022   0.599
 1613SOL    HW1 5738   2.275   5.950   0.581
 1613SOL    HW2 5739   2.241   6.079   0.674
 1614SOL     OW 5740   5.742   2.085   6.897
 1614SOL    HW1 5741   5.722   2.044   6.986
 1614SOL    HW2 5742   5.800   2.165   6.909
 1615SOL     OW 5743   6.519   5.113   6.724
 1615SOL    HW1 5744   6.448   5.073   6.667
 1615SOL    HW2 5745   6.507   5.212   6.729
 1616SOL     OW 5746   3.238   1.992   5.954
 1616SOL    HW1 5747   3.208   1.901   5.925
 1616SOL    HW2 5748   3.205   2.009   6.047
 1617SOL     OW 5749   4.834   0.247   3.580
 1617SOL    HW1 5750   4.901   0.174   3.569
 1617SOL    HW2 5751   4.847   0.291   3.669
 1618SOL     OW 5752   5.285   2.469   1.335
 1618SOL    HW1 5753   5.223   2.522   1.392
 1618SOL    HW2 5754   5.239   2.443   1.250
 1619SOL     OW 5755   1.391   3.274   4.411
 1619SOL    HW1 5756   1.413   3.371   4.415
 1619SOL    HW2 5757   1.447   3.225   4.478
 1620SOL     OW 5758   3.014   5.210   1.515
 1620SOL    HW1 5759   3.037   5.230   1.420
 1620SOL    HW2 5760   2.947   5.136   1.518
 1621SOL     OW 5761   1.536   0.855   1.210
 1621SOL    HW1 5762   1.485   0.940   1.204
 1621SOL    HW2 5763   1.548   0.830   1.306
 1622SOL     OW 5764   2.280   1.971   4.636
 1622SOL    HW1 5765   2.222   1.900   4.676
 1622SOL    HW2 5766   2.222   2.045   4.600
 1623SOL     OW 5767   2.938   2.361   5.302
 1623SOL    HW1 5768   2.876   2.424   5.256
 1623SOL    HW2 5769   3.025   2.359   5.254
 1624SOL     OW 5770   2.218   1.317   0.373
 1624SOL    HW1 5771   2.239   1.399   0.320
 1624SOL    HW2 5772   2.292   1.251   0.362
 1625SOL     OW 5773   0.522   5.248   1.826
 1625SOL    HW1 5774   0.479   5.305   1.756
 1625SOL    HW2 5775   0.622   5.255   1.817
 1626SOL     OW 5776   1.866   2.518   6.440
 1626SOL    HW1 5777   1.770   2.539   6.420
 1626SOL    HW2 5778   1.881   2.419   6.431
 1627SOL     OW 5779   5.685   3.303   3.716
 1627SOL    HW1 5780   5.662   3.231   3.650
 1627SOL    HW2 5781   5.680   3.266   3.809
 1628SOL     OW 5782   3.115   3.933   0.226
 1628SOL    HW1 5783   3.028   3.885   0.238
 1628SOL    HW2 5784   3.121   3.967   0.132
 1629SOL     OW 5785   4.274   2.297   3.574
 1629SOL    HW1 5786   4.179   2.274   3.554
 1629SOL    HW2 5787   4.330   2.277   3.493
 1630SOL     OW 5788   0.407   5.049   4.949
 1630SOL    HW1 5789   0.339   5.121   4.939
 1630SOL    HW2 5790   0.408   4.992   4.866
 1631SOL     OW 5791   0.262   6.816   5.610
 1631SOL    HW1 5792   0.246   6.904   5.567
 1631SOL    HW2 5793   0.189   6.753   5.585
 1632SOL     OW 5794   6.090   0.981   1.177
 1632SOL    HW1 5795   6.084   1.052   1.106
 1632SOL    HW2 5796   6.115   0.894   1.134
 1633SOL     OW 5797   5.954   2.378   3.920
 1633SOL    HW1 5798   6.025   2.407   3.985
 1633SOL    HW2 5799   5.870   2.430   3.938
 1634SOL     OW 5800   3.326   1.191   6.614
 1634SOL    HW1 5801   3.406   1.202   6.555
 1634SOL    HW2 5802   3.279   1.279   6.622
 1635SOL     OW 5803   0.309   5.606   4.398
 1635SOL    HW1 5804   0.322   5.539   4.324
 1635SOL    HW2 5805   0.370   5.584   4.474
 1636SOL     OW 5806   2.233   6.284   1.274
 1636SOL    HW1 5807   2.246   6.351   1.200
 1636SOL    HW2 5808   2.135   6.277   1.295
 1637SOL     OW 5809   0.036   3.703   1.435
 1637SOL    HW1 5810   0.022   3.654   1.520
 1637SOL    HW2 5811   0.079   3.791   1.453
 1638SOL     OW 5812   0.855   3.344   5.116
 1638SOL    HW1 5813   0.884   3.278   5.184
 1638SOL    HW2 5814   0.768   3.314   5.075
 1639SOL     OW 5815   5.331   4.845   2.344
 1639SOL    HW1 5816   5.262   4.907   2.307
 1639SOL    HW2 5817   5.367   4.882   2.430
 1640SOL     OW 5818   6.311   0.393   1.254
 1640SOL    HW1 5819   6.355   0.410   1.166
 1640SOL    HW2 5820   6.260   0.474   1.282
 1641SOL     OW 5821   5.934   2.497   5.585
 1641SOL    HW1 5822   5.970   2.547   5.664
 1641SOL    HW2 5823   5.835   2.504   5.584
 1642SOL     OW 5824   0.013   2.541   1.899
 1642SOL    HW1 5825   6.976   2.464   1.898
 1642SOL    HW2 5826   0.089   2.523   1.837
 1643SOL     OW 5827   4.183   0.633   5.564
 1643SOL    HW1 5828   4.122   0.699   5.521
 1643SOL    HW2 5829   4.162   0.625   5.661
 1644SOL     OW 5830   3.099   0.831   1.298
 1644SOL    HW1 5831   3.175   0.776   1.334
 1644SOL    HW2 5832   3.040   0.774   1.242
 1645SOL     OW 5833   2.272   0.114   6.445
 1645SOL    HW1 5834   2.357   0.100   6.497
 1645SOL    HW2 5835   2.194   0.100   6.505
 1646SOL     OW 5836   0.967   3.753   1.184
 1646SOL    HW1 5837   0.959   3.710   1.094
 1646SOL    HW2 5838   0.883   3.738   1.236
 1647SOL     OW 5839   5.693   3.529   3.584
 1647SOL    HW1 5840   5.709   3.449   3.642
 1647SOL    HW2 5841   5.605   3.519   3.536
 1648SOL     OW 5842   4.295   0.132   2.263
 1648SOL    HW1 5843   4.270   0.042   2.298
 1648SOL    HW2 5844   4.350   0.123   2.181
 1649SOL     OW 5845   2.973   0.748   3.452
 1649SOL    HW1 5846   2.931   0.721   3.365
 1649SOL    HW2 5847   2.971   0.670   3.516
 1650SOL     OW 5848   2.949   6.643   3.696
 1650SOL    HW1 5849   3.028   6.628   3.754
 1650SOL    HW2 5850   2.885   6.705   3.742
 1651SOL     OW 5851   1.416   7.003   0.531
 1651SOL    HW1 5852   1.415   6.950   0.446
 1651SOL    HW2 5853   1.323   7.022   0.560
 1652SOL     OW 5854   2.705   2.385   1.752
 1652SOL    HW1 5855   2.717   2.315   1.680
 1652SOL    HW2 5856   2.783   2.382   1.815
 1653SOL     OW 5857   1.231   5.864   1.470
 1653SOL    HW1 5858   1.188   5.929   1.407
 1653SOL    HW2 5859   1.189   5.774   1.458
 1654SOL     OW 5860   0.482   3.100   2.931
 1654SOL    HW1 5861   0.401   3.152   2.906
 1654SOL    HW2 5862   0.528   3.144   3.008
 1655SOL     OW 5863   4.976   4.917   6.224
 1655SOL    HW1 5864   5.050   4.928   6.289
 1655SOL    HW2 5865   4.936   4.825   6.234
 1656SOL     OW 5866   0.794   5.128   3.323
 1656SOL    HW1 5867   0.701   5.147   3.353
 1656SOL    HW2 5868   0.809   5.029   3.321
 1657SOL     OW 5869   1.377   0.734   5.049
 1657SOL    HW1 5870   1.473   0.721   5.075
 1657SOL    HW2 5871   1.327   0.775   5.126
 1658SOL     OW 5872   6.127   6.121   2.934
 1658SOL    HW1 5873   6.130   6.129   3.034
 1658SOL    HW2 5874   6.072   6.042   2.909
 1659SOL     OW 5875   3.991   2.399   5.651
 1659SOL    HW1 5876   3.925   2.404   5.576
 1659SOL    HW2 5877   4.002   2.304   5.679
 1660SOL     OW 5878   1.971   5.708   3.384
 1660SOL    HW1 5879   1.947   5.615   3.356
 1660SOL    HW2 5880   2.005   5.707   3.477
 1661SOL     OW 5881   2.873   0.486   2.259
 1661SOL    HW1 5882   2.926   0.426   2.320
 1661SOL    HW2 5883   2.932   0.560   2.227
 1662SOL     OW 5884   0.618   0.488   3.149
 1662SOL    HW1 5885   0.535   0.450   3.109
 1662SOL    HW2 5886   0.608   0.587   3.158
 1663SOL     OW 5887   2.978   6.949   3.029
 1663SOL    HW1 5888   3.001   6.920   3.122
 1663SOL    HW2 5889   2.985   0.022   3.022
 1664SOL     OW 5890   2.297   5.713   4.145
 1664SOL    HW1 5891   2.253   5.801   4.162
 1664SOL    HW2 5892   2.385   5.710   4.192
 1665SOL     OW 5893   0.078   0.456   4.019
 1665SOL    HW1 5894   0.008   0.465   3.947
 1665SOL    HW2 5895   0.062   0.372   4.071
 1666SOL     OW 5896   5.966   2.548   6.139
 1666SOL    HW1 5897   5.937   2.607   6.215
 1666SOL    HW2 5898   5.887   2.495   6.107
 1667SOL     OW 5899   6.215   0.497   6.143
 1667SOL    HW1 5900   6.201   0.594   6.165
 1667SOL    HW2 5901   6.311   0.482   6.118
 1668SOL     OW 5902   3.546   1.257   5.469
 1668SOL    HW1 5903   3.589   1.223   5.552
 1668SOL    HW2 5904   3.540   1.184   5.401
 1669SOL     OW 5905   5.657   6.455   6.487
 1669SOL    HW1 5906   5.605   6.536   6.462
 1669SOL    HW2 5907   5.754   6.476   6.488
 1670SOL     OW 5908   5.630   4.433   5.855
 1670SOL    HW1 5909   5.615   4.507   5.789
 1670SOL    HW2 5910   5.542   4.402   5.891
 1671SOL     OW 5911   5.623   3.320   0.602
 1671SOL    HW1 5912   5.617   3.327   0.503
 1671SOL    HW2 5913   5.536   3.287   0.639
 1672SOL     OW 5914   1.528   5.085   2.685
 1672SOL    HW1 5915   1.588   5.074   2.606
 1672SOL    HW2 5916   1.582   5.115   2.764
 1673SOL     OW 5917   0.305   2.641   3.876
 1673SOL    HW1 5918   0.288   2.608   3.969
 1673SOL    HW2 5919   0.394   2.608   3.845
 1674SOL     OW 5920   0.402   4.246   6.535
 1674SOL    HW1 5921   0.424   4.149   6.525
 1674SOL    HW2 5922   0.402   4.289   6.444
 1675SOL     OW 5923   4.720   1.834   6.671
 1675SOL    HW1 5924   4.716   1.933   6.684
 1675SOL    HW2 5925   4.779   1.813   6.592
 1676SOL     OW 5926   1.403   0.046   3.002
 1676SOL    HW1 5927   1.432   7.000   3.066
 1676SOL    HW2 5928   1.429   0.020   2.909
 1677SOL     OW 5929   5.644   1.714   5.094
 1677SOL    HW1 5930   5.584   1.715   5.014
 1677SOL    HW2 5931   5.692   1.626   5.098
 1678SOL     OW 5932   5.351   0.122   1.322
 1678SOL    HW1 5933   5.367   0.035   1.276
 1678SOL    HW2 5934   5.256   0.150   1.309
 1679SOL     OW 5935   0.471   3.518   6.664
 1679SOL    HW1 5936   0.429   3.570   6.590
 1679SOL    HW2 5937   0.408   3.447   6.695
 1680SOL     OW 5938   1.022   1.662   4.234
 1680SOL    HW1 5939   1.061   1.594   4.172
 1680SOL    HW2 5940   1.088   1.736   4.248
 1681SOL     OW 5941   6.366   5.306   1.091
 1681SOL    HW1 5942   6.363   5.403   1.068
 1681SOL    HW2 5943   6.276   5.265   1.075
 1682SOL     OW 5944   6.386   3.622   5.379
 1682SOL    HW1 5945   6.336   3.548   5.334
 1682SOL    HW2 5946   6.320   3.687   5.418
 1683SOL     OW 5947   5.649   5.981   0.891
 1683SOL    HW1 5948   5.647   5.897   0.837
 1683SOL    HW2 5949   5.727   6.037   0.863
 1684SOL     OW 5950   1.104   6.053   4.917
 1684SOL    HW1 5951   1.175   5.995   4.877
 1684SOL    HW2 5952   1.110   6.145   4.878
 1685SOL     OW 5953   1.529   1.535   0.230
 1685SOL    HW1 5954   1.544   1.439   0.250
 1685SOL    HW2 5955   1.502   1.583   0.314
 1686SOL     OW 5956   1.574   6.944   0.064
 1686SOL    HW1 5957   1.620   0.001   0.033
 1686SOL    HW2 5958   1.631   6.865   0.043
 1687SOL     OW 5959   1.453   6.565   2.016
 1687SOL    HW1 5960   1.426   6.543   1.922
 1687SOL    HW2 5961   1.533   6.624   2.015
 1688SOL     OW 5962   1.086   2.236   3.213
 1688SOL    HW1 5963   1.088   2.336   3.217
 1688SOL    HW2 5964   0.993   2.206   3.191
 1689SOL     OW 5965   2.155   1.614   2.827
 1689SOL    HW1 5966   2.183   1.551   2.900
 1689SOL    HW2 5967   2.066   1.654   2.850
 1690SOL     OW 5968   1.111   1.045   0.903
 1690SOL    HW1 5969   1.110   1.001   0.993
 1690SOL    HW2 5970   1.044   1.119   0.901
 1691SOL     OW 5971   5.307   4.268   2.448
 1691SOL    HW1 5972   5.389   4.324   2.442
 1691SOL    HW2 5973   5.293   4.219   2.362
 1692SOL     OW 5974   1.505   0.324   2.935
 1692SOL    HW1 5975   1.507   0.227   2.914
 1692SOL    HW2 5976   1.436   0.369   2.878
 1693SOL     OW 5977   2.895   2.268   3.644
 1693SOL    HW1 5978   2.960   2.208   3.596
 1693SOL    HW2 5979   2.930   2.287   3.736
 1694SOL     OW 5980   5.124   5.984   4.959
 1694SOL    HW1 5981   5.166   6.071   4.936
 1694SOL    HW2 5982   5.083   5.943   4.878
 1695SOL     OW 5983   2.791   2.885   5.877
 1695SOL    HW1 5984   2.864   2.839   5.826
 1695SOL    HW2 5985   2.703   2.853   5.844
 1696SOL     OW 5986   4.191   6.020   0.533
 1696SOL    HW1 5987   4.136   5.979   0.459
 1696SOL    HW2 5988   4.136   6.025   0.616
 1697SOL     OW 5989   0.800   1.345   1.856
 1697SOL    HW1 5990   0.866   1.336   1.932
 1697SOL    HW2 5991   0.761   1.437   1.856
 1698SOL     OW 5992   4.906   1.948   1.609
 1698SOL    HW1 5993   4.890   2.047   1.608
 1698SOL    HW2 5994   4.994   1.928   1.653
 1699SOL     OW 5995   2.463   3.164   1.418
 1699SOL    HW1 5996   2.396   3.235   1.393
 1699SOL    HW2 5997   2.519   3.142   1.338
 1700SOL     OW 5998   6.830   3.453   3.632
 1700SOL    HW1 5999   6.891   3.376   3.615
 1700SOL    HW2 6000   6.802   3.453   3.728
 1701SOL     OW 6001   5.486   3.437   4.537
 1701SOL    HW1 6002   5.395   3.466   4.567
 1701SOL    HW2 6003   5.508   3.481   4.451
 1702SOL     OW 6004   4.963   3.084   0.470
 1702SOL    HW1 6005   5.015   3.162   0.504
 1702SOL    HW2 6006   5.001   3.000   0.509
 1703SOL     OW 6007   1.897   3.788   0.281
 1703SOL    HW1 6008   1.920   3.805   0.185
 1703SOL    HW2 6009   1.855   3.870   0.321
 1704SOL     OW 6010   1.029   1.164   2.411
 1704SOL    HW1 6011   1.071   1.255   2.407
 1704SOL    HW2 6012   0.980   1.154   2.497
 1705SOL     OW 6013   4.457   3.129   1.698
 1705SOL    HW1 6014   4.430   3.225   1.709
 1705SOL    HW2 6015   4.536   3.110   1.757
 1706SOL     OW 6016   2.801   0.995   0.178
 1706SOL    HW1 6017   2.854   1.032   0.255
 1706SOL    HW2 6018   2.820   0.897   0.169
 1707SOL     OW 6019   5.357   2.116   3.155
 1707SOL    HW1 6020   5.298   2.127   3.235
 1707SOL    HW2 6021   5.301   2.093   3.075
 1708SOL     OW 6022   0.198   5.102   3.221
 1708SOL    HW1 6023   0.121   5.164   3.238
 1708SOL    HW2 6024   0.279   5.156   3.199
 1709SOL     OW 6025   2.947   5.965   2.372
 1709SOL    HW1 6026   2.934   6.038   2.439
 1709SOL    HW2 6027   3.044   5.948   2.359
 1710SOL     OW 6028   0.529   6.012   4.265
 1710SOL    HW1 6029   0.518   5.916   4.238
 1710SOL    HW2 6030   0.513   6.070   4.185
 1711SOL     OW 6031   1.552   4.363   5.747
 1711SOL    HW1 6032   1.493   4.333   5.672
 1711SOL    HW2 6033   1.619   4.292   5.768
 1712SOL     OW 6034   0.776   4.541   0.717
 1712SOL    HW1 6035   0.699   4.523   0.778
 1712SOL    HW2 6036   0.760   4.497   0.629
 1713SOL     OW 6037   0.958   2.778   0.845
 1713SOL    HW1 6038   1.001   2.825   0.768
 1713SOL    HW2 6039   0.862   2.805   0.851
 1714SOL     OW 6040   3.169   1.762   0.753
 1714SOL    HW1 6041   3.165   1.734   0.849
 1714SOL    HW2 6042   3.154   1.682   0.695
 1715SOL     OW 6043   7.008   3.255   3.554
 1715SOL    HW1 6044   0.068   3.291   3.519
 1715SOL    HW2 6045   7.020   3.159   3.582
 1716SOL     OW 6046   0.030   6.335   0.301
 1716SOL    HW1 6047   6.992   6.410   0.313
 1716SOL    HW2 6048   7.009   6.247   0.312
 1717SOL     OW 6049   2.802   0.606   6.592
 1717SOL    HW1 6050   2.863   0.537   6.555
 1717SOL    HW2 6051   2.812   0.691   6.540
 1718SOL     OW 6052   1.322   4.753   6.353
 1718SOL    HW1 6053   1.305   4.702   6.438
 1718SOL    HW2 6054   1.235   4.776   6.309
 1719SOL     OW 6055   2.070   3.547   1.527
 1719SOL    HW1 6056   1.972   3.536   1.513
 1719SOL    HW2 6057   2.089   3.560   1.624
 1720SOL     OW 6058   6.592   0.603   1.374
 1720SOL    HW1 6059   6.523   0.546   1.419
 1720SOL    HW2 6060   6.613   0.681   1.432
 1721SOL     OW 6061   2.212   6.310   3.603
 1721SOL    HW1 6062   2.208   6.399   3.648
 1721SOL    HW2 6063   2.185   6.239   3.668
 1722SOL     OW 6064   6.174   6.493   2.456
 1722SOL    HW1 6065   6.175   6.584   2.415
 1722SOL    HW2 6066   6.080   6.459   2.459
 1723SOL     OW 6067   6.318   1.601   2.544
 1723SOL    HW1 6068   6.408   1.637   2.520
 1723SOL    HW2 6069   6.283   1.648   2.625
 1724SOL     OW 6070   5.024   1.051   0.116
 1724SOL    HW1 6071   5.000   1.146   0.094
 1724SOL    HW2 6072   5.020   0.996   0.033
 1725SOL     OW 6073   3.940   4.304   1.576
 1725SOL    HW1 6074   3.914   4.245   1.652
 1725SOL    HW2 6075   3.970   4.248   1.499
 1726SOL     OW 6076   0.829   4.273   4.300
 1726SOL    HW1 6077   0.812   4.349   4.238
 1726SOL    HW2 6078   0.927   4.262   4.313
 1727SOL     OW 6079   3.622   3.853   5.469
 1727SOL    HW1 6080   3.570   3.777   5.508
 1727SOL    HW2 6081   3.613   3.933   5.528
 1728SOL     OW 6082   4.548   4.465   2.993
 1728SOL    HW1 6083   4.487   4.542   3.015
 1728SOL    HW2 6084   4.539   4.441   2.897
 1729SOL     OW 6085   2.140   3.816   2.936
 1729SOL    HW1 6086   2.147   3.794   2.839
 1729SOL    HW2 6087   2.065   3.880   2.950
 1730SOL     OW 6088   6.205   2.723   5.294
 1730SOL    HW1 6089   6.162   2.763   5.374
 1730SOL    HW2 6090   6.143   2.729   5.216
 1731SOL     OW 6091   1.679   5.247   0.548
 1731SOL    HW1 6092   1.749   5.317   0.543
 1731SOL    HW2 6093   1.594   5.287   0.584
 1732SOL     OW 6094   0.514   4.507   6.924
 1732SOL    HW1 6095   0.425   4.466   6.947
 1732SOL    HW2 6096   0.509   4.606   6.940
 1733SOL     OW 6097   1.741   3.533   0.774
 1733SOL    HW1 6098   1.690   3.485   0.845
 1733SOL    HW2 6099   1.831   3.559   0.808
 1734SOL     OW 6100   4.888   2.372   1.019
 1734SOL    HW1 6101   4.897   2.280   0.980
 1734SOL    HW2 6102   4.807   2.416   0.982
 1735SOL     OW 6103   6.413   4.996   1.465
 1735SOL    HW1 6104   6.468   5.005   1.381
 1735SOL    HW2 6105   6.344   5.068   1.468
 1736SOL     OW 6106   3.871   3.330   0.589
 1736SOL    HW1 6107   3.883   3.234   0.563
 1736SOL    HW2 6108   3.780   3.361   0.560
 1737SOL     OW 6109   2.213   6.538   3.727
 1737SOL    HW1 6110   2.227   6.560   3.823
 1737SOL    HW2 6111   2.182   6.620   3.678
 1738SOL     OW 6112   2.199   3.046   2.254
 1738SOL    HW1 6113   2.109   3.088   2.259
 1738SOL    HW2 6114   2.269   3.114   2.273
 1739SOL     OW 6115   4.340   1.770   4.706
 1739SOL    HW1 6116   4.287   1.819   4.776
 1739SOL    HW2 6117   4.290   1.771   4.620
 1740SOL     OW 6118   0.405   1.158   5.743
 1740SOL    HW1 6119   0.329   1.212   5.705
 1740SOL    HW2 6120   0.377   1.062   5.750
 1741SOL     OW 6121   1.077   0.213   2.755
 1741SOL    HW1 6122   1.067   0.214   2.855
 1741SOL    HW2 6123   1.169   0.241   2.730
 1742SOL     OW 6124   6.052   0.960   4.808
 1742SOL    HW1 6125   5.958   0.925   4.800
 1742SOL    HW2 6126   6.114   0.897   4.761
 1743SOL     OW 6127   4.101   1.386   1.076
 1743SOL    HW1 6128   4.177   1.446   1.052
 1743SOL    HW2 6129   4.025   1.401   1.012
 1744SOL     OW 6130   3.252   0.532   1.194
 1744SOL    HW1 6131   3.318   0.512   1.266
 1744SOL    HW2 6132   3.162   0.496   1.219
 1745SOL     OW 6133   0.321   2.482   3.053
 1745SOL    HW1 6134   0.405   2.479   2.999
 1745SOL    HW2 6135   0.327   2.558   3.118
 1746SOL     OW 6136   2.704   1.198   5.518
 1746SOL    HW1 6137   2.658   1.267   5.461
 1746SOL    HW2 6138   2.801   1.194   5.493
 1747SOL     OW 6139   3.145   0.277   2.002
 1747SOL    HW1 6140   3.128   0.370   1.970
 1747SOL    HW2 6141   3.166   0.218   1.923
 1748SOL     OW 6142   5.322   1.821   2.355
 1748SOL    HW1 6143   5.241   1.848   2.304
 1748SOL    HW2 6144   5.356   1.734   2.322
 1749SOL     OW 6145   3.829   0.191   6.453
 1749SOL    HW1 6146   3.843   0.246   6.371
 1749SOL    HW2 6147   3.906   0.202   6.515
 1750SOL     OW 6148   4.574   1.109   3.126
 1750SOL    HW1 6149   4.588   1.183   3.191
 1750SOL    HW2 6150   4.549   1.147   3.037
 1751SOL     OW 6151   2.017   5.769   3.695
 1751SOL    HW1 6152   2.081   5.817   3.635
 1751SOL    HW2 6153   2.061   5.688   3.733
 1752SOL     OW 6154   6.078   2.192   0.683
 1752SOL    HW1 6155   6.044   2.102   0.712
 1752SOL    HW2 6156   6.173   2.202   0.713
 1753SOL     OW 6157   1.656   0.269   1.835
 1753SOL    HW1 6158   1.593   0.281   1.758
 1753SOL    HW2 6159   1.615   0.306   1.918
 1754SOL     OW 6160   4.118   3.426   0.642
 1754SOL    HW1 6161   4.157   3.335   0.659
 1754SOL    HW2 6162   4.023   3.416   0.611
 1755SOL     OW 6163   5.411   4.116   0.873
 1755SOL    HW1 6164   5.355   4.069   0.941
 1755SOL    HW2 6165   5.434   4.208   0.906
 1756SOL     OW 6166   6.587   5.490   4.354
 1756SOL    HW1 6167   6.607   5.394   4.332
 1756SOL    HW2 6168   6.541   5.495   4.443
 1757SOL     OW 6169   2.980   6.821   4.585
 1757SOL    HW1 6170   2.919   6.792   4.660
 1757SOL    HW2 6171   2.927   6.874   4.519
 1758SOL     OW 6172   2.096   0.601   3.128
 1758SOL    HW1 6173   2.050   0.689   3.117
 1758SOL    HW2 6174   2.091   0.550   3.042
 1759SOL     OW 6175   0.597   5.965   6.823
 1759SOL    HW1 6176   0.555   5.982   6.733
 1759SOL    HW2 6177   0.697   5.962   6.813
 1760SOL     OW 6178   6.201   0.701   2.914
 1760SOL    HW1 6179   6.292   0.669   2.886
 1760SOL    HW2 6180   6.133   0.634   2.886
 1761SOL     OW 6181   6.672   2.427   1.060
 1761SOL    HW1 6182   6.689   2.331   1.083
 1761SOL    HW2 6183   6.669   2.481   1.144
 1762SOL     OW 6184   6.373   1.697   6.166
 1762SOL    HW1 6185   6.372   1.598   6.150
 1762SOL    HW2 6186   6.300   1.740   6.114
 1763SOL     OW 6187   2.130   3.877   3.972
 1763SOL    HW1 6188   2.053   3.817   3.950
 1763SOL    HW2 6189   2.196   3.828   4.030
 1764SOL     OW 6190   0.123   3.420   4.001
 1764SOL    HW1 6191   0.171   3.501   3.966
 1764SOL    HW2 6192   0.153   3.401   4.094
 1765SOL     OW 6193   2.840   2.417   6.301
 1765SOL    HW1 6194   2.779   2.463   6.365
 1765SOL    HW2 6195   2.898   2.484   6.256
 1766SOL     OW 6196   5.461   2.739   5.107
 1766SOL    HW1 6197   5.561   2.748   5.105
 1766SOL    HW2 6198   5.431   2.729   5.202
 1767SOL     OW 6199   5.608   3.326   2.493
 1767SOL    HW1 6200   5.684   3.368   2.542
 1767SOL    HW2 6201   5.594   3.374   2.406
 1768SOL     OW 6202   5.326   6.607   4.022
 1768SOL    HW1 6203   5.336   6.549   3.941
 1768SOL    HW2 6204   5.401   6.588   4.086
 1769SOL     OW 6205   4.058   1.285   2.200
 1769SOL    HW1 6206   4.040   1.204   2.255
 1769SOL    HW2 6207   3.973   1.337   2.190
 1770SOL     OW 6208   2.215   5.735   5.373
 1770SOL    HW1 6209   2.250   5.751   5.465
 1770SOL    HW2 6210   2.291   5.738   5.308
 1771SOL     OW 6211   4.496   5.858   6.800
 1771SOL    HW1 6212   4.456   5.787   6.742
 1771SOL    HW2 6213   4.425   5.924   6.825
 1772SOL     OW 6214   3.482   6.174   3.056
 1772SOL    HW1 6215   3.434   6.235   2.993
 1772SOL    HW2 6216   3.416   6.133   3.119
 1773SOL     OW 6217   1.438   5.837   6.021
 1773SOL    HW1 6218   1.386   5.893   6.085
 1773SOL    HW2 6219   1.499   5.777   6.072
 1774SOL     OW 6220   4.085   5.624   1.563
 1774SOL    HW1 6221   4.121   5.716   1.548
 1774SOL    HW2 6222   4.131   5.583   1.642
 1775SOL     OW 6223   0.634   3.904   2.095
 1775SOL    HW1 6224   0.590   3.903   2.186
 1775SOL    HW2 6225   0.626   3.814   2.054
 1776SOL     OW 6226   3.389   6.212   5.261
 1776SOL    HW1 6227   3.304   6.264   5.264
 1776SOL    HW2 6228   3.374   6.127   5.210
 1777SOL     OW 6229   4.163   6.288   0.926
 1777SOL    HW1 6230   4.132   6.273   1.020
 1777SOL    HW2 6231   4.090   6.264   0.862
 1778SOL     OW 6232   5.288   3.958   5.757
 1778SOL    HW1 6233   5.212   3.894   5.748
 1778SOL    HW2 6234   5.364   3.912   5.804
 1779SOL     OW 6235   3.557   0.424   5.050
 1779SOL    HW1 6236   3.609   0.382   4.976
 1779SOL    HW2 6237   3.619   0.457   5.121
 1780SOL     OW 6238   3.390   3.311   6.400
 1780SOL    HW1 6239   3.344   3.222   6.402
 1780SOL    HW2 6240   3.462   3.309   6.331
 1781SOL     OW 6241   3.849   5.369   3.046
 1781SOL    HW1 6242   3.831   5.466   3.062
 1781SOL    HW2 6243   3.767   5.324   3.011
 1782SOL     OW 6244   2.842   0.987   3.369
 1782SOL    HW1 6245   2.843   0.892   3.399
 1782SOL    HW2 6246   2.909   0.999   3.295
 1783SOL     OW 6247   2.030   5.854   6.649
 1783SOL    HW1 6248   2.116   5.804   6.639
 1783SOL    HW2 6249   2.023   5.923   6.577
 1784SOL     OW 6250   3.308   0.022   6.006
 1784SOL    HW1 6251   3.313   0.049   6.102
 1784SOL    HW2 6252   3.326   6.950   5.999
 1785SOL     OW 6253   6.316   3.678   2.667
 1785SOL    HW1 6254   6.327   3.760   2.611
 1785SOL    HW2 6255   6.354   3.695   2.758
 1786SOL     OW 6256   3.182   2.256   0.945
 1786SOL    HW1 6257   3.104   2.281   1.003
 1786SOL    HW2 6258   3.149   2.238   0.852
 1787SOL     OW 6259   3.214   1.707   6.075
 1787SOL    HW1 6260   3.301   1.745   6.105
 1787SOL    HW2 6261   3.149   1.707   6.151
 1788SOL     OW 6262   1.897   5.053   5.365
 1788SOL    HW1 6263   1.826   5.103   5.414
 1788SOL    HW2 6264   1.938   4.985   5.426
 1789SOL     OW 6265   6.310   1.565   0.053
 1789SOL    HW1 6266   6.235   1.605   0.105
 1789SOL    HW2 6267   6.279   1.544   6.986
 1790SOL     OW 6268   3.968   6.607   3.800
 1790SOL    HW1 6269   4.059   6.592   3.839
 1790SOL    HW2 6270   3.899   6.569   3.862
 1791SOL     OW 6271   6.876   6.815   2.729
 1791SOL    HW1 6272   6.920   6.893   2.683
 1791SOL    HW2 6273   6.926   6.794   2.813
 1792SOL     OW 6274   1.134   3.572   5.074
 1792SOL    HW1 6275   1.179   3.545   5.159
 1792SOL    HW2 6276   1.046   3.615   5.094
 1793SOL     OW 6277   6.916   0.540   3.791
 1793SOL    HW1 6278   6.967   0.610   3.841
 1793SOL    HW2 6279   6.821   0.539   3.822
 1794SOL     OW 6280   4.953   5.440   6.054
 1794SOL    HW1 6281   4.879   5.374   6.045
 1794SOL    HW2 6282   4.947   5.506   5.979
 1795SOL     OW 6283   0.258   2.892   0.656
 1795SOL    HW1 6284   0.319   2.815   0.638
 1795SOL    HW2 6285   0.312   2.977   0.659
 1796SOL     OW 6286   2.766   0.742   5.878
 1796SOL    HW1 6287   2.741   0.654   5.838
 1796SOL    HW2 6288   2.791   0.806   5.805
 1797SOL     OW 6289   0.827   6.773   0.538
 1797SOL    HW1 6290   0.834   6.793   0.441
 1797SOL    HW2 6291   0.755   6.706   0.554
 1798SOL     OW 6292   4.564   2.574   3.124
 1798SOL    HW1 6293   4.620   2.493   3.137
 1798SOL    HW2 6294   4.582   2.639   3.198
 1799SOL     OW 6295   0.854   2.044   6.287
 1799SOL    HW1 6296   0.831   2.140   6.273
 1799SOL    HW2 6297   0.829   2.017   6.381
 1800SOL     OW 6298   4.181   4.759   1.203
 1800SOL    HW1 6299   4.263   4.816   1.206
 1800SOL    HW2 6300   4.207   4.665   1.183
 1801SOL     OW 6301   0.047   6.953   2.313
 1801SOL    HW1 6302   0.084   0.015   2.282
 1801SOL    HW2 6303   0.024   6.897   2.234
 1802SOL     OW 6304   6.271   5.785   4.625
 1802SOL    HW1 6305   6.227   5.699   4.598
 1802SOL    HW2 6306   6.366   5.784   4.594
 1803SOL     OW 6307   0.113   5.758   0.338
 1803SOL    HW1 6308   0.107   5.794   0.432
 1803SOL    HW2 6309   0.209   5.756   0.309
 1804SOL     OW 6310   2.802   3.765   5.176
 1804SOL    HW1 6311   2.839   3.682   5.218
 1804SOL    HW2 6312   2.876   3.820   5.139
 1805SOL     OW 6313   5.395   3.543   5.858
 1805SOL    HW1 6314   5.342   3.547   5.943
 1805SOL    HW2 6315   5.478   3.489   5.872
 1806SOL     OW 6316   1.490   6.718   1.353
 1806SOL    HW1 6317   1.470   6.641   1.413
 1806SOL    HW2 6318   1.585   6.713   1.323
 1807SOL     OW 6319   6.354   2.019   4.721
 1807SOL    HW1 6320   6.443   2.046   4.685
 1807SOL    HW2 6321   6.364   1.993   4.817
 1808SOL     OW 6322   0.420   4.238   4.285
 1808SOL    HW1 6323   0.510   4.204   4.312
 1808SOL    HW2 6324   0.370   4.164   4.239
 1809SOL     OW 6325   2.921   2.093   5.587
 1809SOL    HW1 6326   2.972   2.061   5.507
 1809SOL    HW2 6327   2.828   2.117   5.560
 1810SOL     OW 6328   3.325   6.349   2.919
 1810SOL    HW1 6329   3.243   6.347   2.977
 1810SOL    HW2 6330   3.381   6.428   2.943
 1811SOL     OW 6331   6.109   5.732   3.447
 1811SOL    HW1 6332   6.170   5.738   3.526
 1811SOL    HW2 6333   6.076   5.638   3.437
 1812SOL     OW 6334   4.182   5.414   6.007
 1812SOL    HW1 6335   4.107   5.477   5.987
 1812SOL    HW2 6336   4.253   5.463   6.057
 1813SOL     OW 6337   6.244   4.577   0.113
 1813SOL    HW1 6338   6.218   4.487   0.146
 1813SOL    HW2 6339   6.332   4.603   0.153
 1814SOL     OW 6340   4.533   6.504   2.409
 1814SOL    HW1 6341   4.461   6.571   2.429
 1814SOL    HW2 6342   4.576   6.526   2.322
 1815SOL     OW 6343   0.072   0.290   2.874
 1815SOL    HW1 6344   0.112   0.374   2.836
 1815SOL    HW2 6345   0.030   0.309   2.963
 1816SOL     OW 6346   1.550   3.799   6.881
 1816SOL    HW1 6347   1.632   3.855   6.864
 1816SOL    HW2 6348   1.571   3.703   6.858
 1817SOL     OW 6349   1.817   5.266   2.376
 1817SOL    HW1 6350   1.777   5.308   2.458
 1817SOL    HW2 6351   1.758   5.191   2.345
 1818SOL     OW 6352   1.507   0.739   3.159
 1818SOL    HW1 6353   1.452   0.657   3.139
 1818SOL    HW2 6354   1.500   0.760   3.257
 1819SOL     OW 6355   1.649   4.524   1.148
 1819SOL    HW1 6356   1.662   4.506   1.051
 1819SOL    HW2 6357   1.559   4.492   1.177
 1820SOL     OW 6358   4.893   0.121   2.802
 1820SOL    HW1 6359   4.989   0.121   2.831
 1820SOL    HW2 6360   4.884   0.167   2.714
 1821SOL     OW 6361   2.458   2.168   2.793
 1821SOL    HW1 6362   2.386   2.138   2.729
 1821SOL    HW2 6363   2.486   2.261   2.770
 1822SOL     OW 6364   3.470   2.660   1.703
 1822SOL    HW1 6365   3.436   2.745   1.745
 1822SOL    HW2 6366   3.394   2.596   1.691
 1823SOL     OW 6367   4.261   6.722   1.983
 1823SOL    HW1 6368   4.205   6.643   1.958
 1823SOL    HW2 6369   4.202   6.802   1.995
 1824SOL     OW 6370   4.864   2.539   1.599
 1824SOL    HW1 6371   4.878   2.596   1.680
 1824SOL    HW2 6372   4.811   2.458   1.624
 1825SOL     OW 6373   1.293   0.538   1.638
 1825SOL    HW1 6374   1.235   0.502   1.565
 1825SOL    HW2 6375   1.239   0.595   1.699
 1826SOL     OW 6376   3.341   0.401   0.010
 1826SOL    HW1 6377   3.284   0.366   6.961
 1826SOL    HW2 6378   3.288   0.466   0.064
 1827SOL     OW 6379   6.911   5.686   1.558
 1827SOL    HW1 6380   7.005   5.672   1.590
 1827SOL    HW2 6381   6.848   5.634   1.616
 1828SOL     OW 6382   0.622   2.424   6.234
 1828SOL    HW1 6383   0.542   2.485   6.229
 1828SOL    HW2 6384   0.600   2.346   6.294
 1829SOL     OW 6385   5.528   5.613   2.759
 1829SOL    HW1 6386   5.612   5.637   2.710
 1829SOL    HW2 6387   5.469   5.694   2.764
 1830SOL     OW 6388   4.640   6.137   3.255
 1830SOL    HW1 6389   4.687   6.198   3.319
 1830SOL    HW2 6390   4.697   6.056   3.238
 1831SOL     OW 6391   5.170   6.476   2.109
 1831SOL    HW1 6392   5.190   6.560   2.058
 1831SOL    HW2 6393   5.244   6.411   2.097
 1832SOL     OW 6394   4.671   2.516   0.972
 1832SOL    HW1 6395   4.589   2.518   0.914
 1832SOL    HW2 6396   4.677   2.601   1.024
 1833SOL     OW 6397   4.534   0.619   4.876
 1833SOL    HW1 6398   4.562   0.554   4.946
 1833SOL    HW2 6399   4.590   0.606   4.794
 1834SOL     OW 6400   3.803   3.440   1.322
 1834SOL    HW1 6401   3.853   3.451   1.237
 1834SOL    HW2 6402   3.823   3.350   1.361
 1835SOL     OW 6403   1.541   5.166   1.101
 1835SOL    HW1 6404   1.623   5.220   1.120
 1835SOL    HW2 6405   1.558   5.070   1.126
 1836SOL     OW 6406   0.593   0.023   0.539
 1836SOL    HW1 6407   0.655   0.024   0.460
 1836SOL    HW2 6408   0.647   0.013   0.623
 1837SOL     OW 6409   0.869   2.183   4.572
 1837SOL    HW1 6410   0.812   2.239   4.633
 1837SOL    HW2 6411   0.934   2.130   4.627
 1838SOL     OW 6412   0.046   2.767   4.148
 1838SOL    HW1 6413   0.054   2.710   4.229
 1838SOL    HW2 6414   0.015   2.858   4.175
 1839SOL     OW 6415   6.646   2.613   5.623
 1839SOL    HW1 6416   6.583   2.565   5.561
 1839SOL    HW2 6417   6.619   2.595   5.718
 1840SOL     OW 6418   2.517   5.885   0.294
 1840SOL    HW1 6419   2.603   5.936   0.302
 1840SOL    HW2 6420   2.517   5.833   0.209
 1841SOL     OW 6421   2.325   2.745   3.284
 1841SOL    HW1 6422   2.265   2.812   3.241
 1841SOL    HW2 6423   2.315   2.657   3.237
 1842SOL     OW 6424   1.029   4.657   0.710
 1842SOL    HW1 6425   1.064   4.585   0.770
 1842SOL    HW2 6426   0.932   4.641   0.692
 1843SOL     OW 6427   2.267   1.676   4.907
 1843SOL    HW1 6428   2.199   1.616   4.949
 1843SOL    HW2 6429   2.299   1.742   4.975
 1844SOL     OW 6430   4.171   2.314   3.937
 1844SOL    HW1 6431   4.072   2.305   3.923
 1844SOL    HW2 6432   4.218   2.239   3.890
 1845SOL     OW 6433   3.816   0.222   0.053
 1845SOL    HW1 6434   3.867   0.199   0.136
 1845SOL    HW2 6435   3.752   0.296   0.073
 1846SOL     OW 6436   3.040   2.112   6.625
 1846SOL    HW1 6437   3.021   2.015   6.645
 1846SOL    HW2 6438   3.088   2.153   6.702
 1847SOL     OW 6439   0.230   0.442   1.057
 1847SOL    HW1 6440   0.325   0.419   1.037
 1847SOL    HW2 6441   0.222   0.474   1.151
 1848SOL     OW 6442   2.732   6.742   1.999
 1848SOL    HW1 6443   2.655   6.746   1.935
 1848SOL    HW2 6444   2.713   6.801   2.078
 1849SOL     OW 6445   3.326   1.947   6.913
 1849SOL    HW1 6446   3.357   1.995   6.996
 1849SOL    HW2 6447   3.360   1.995   6.833
 1850SOL     OW 6448   6.248   2.992   2.681
 1850SOL    HW1 6449   6.220   2.987   2.777
 1850SOL    HW2 6450   6.167   2.983   2.622
 1851SOL     OW 6451   0.558   2.635   2.264
 1851SOL    HW1 6452   0.499   2.679   2.197
 1851SOL    HW2 6453   0.538   2.671   2.356
 1852SOL     OW 6454   4.480   3.051   0.057
 1852SOL    HW1 6455   4.442   3.131   0.103
 1852SOL    HW2 6456   4.578   3.064   0.043
 1853SOL     OW 6457   1.160   4.643   1.520
 1853SOL    HW1 6458   1.061   4.629   1.518
 1853SOL    HW2 6459   1.207   4.556   1.506
 1854SOL     OW 6460   2.315   5.628   4.952
 1854SOL    HW1 6461   2.278   5.653   4.862
 1854SOL    HW2 6462   2.318   5.528   4.960
 1855SOL     OW 6463   5.268   5.081   0.821
 1855SOL    HW1 6464   5.253   4.985   0.844
 1855SOL    HW2 6465   5.228   5.100   0.731
 1856SOL     OW 6466   5.597   2.064   4.715
 1856SOL    HW1 6467   5.693   2.062   4.685
 1856SOL    HW2 6468   5.539   2.030   4.641
 1857SOL     OW 6469   4.232   1.176   3.530
 1857SOL    HW1 6470   4.151   1.154   3.585
 1857SOL    HW2 6471   4.254   1.273   3.540
 1858SOL     OW 6472   4.840   2.974   4.054
 1858SOL    HW1 6473   4.834   2.963   4.153
 1858SOL    HW2 6474   4.756   2.940   4.012
 1859SOL     OW 6475   4.508   2.240   3.313
 1859SOL    HW1 6476   4.465   2.273   3.230
 1859SOL    HW2 6477   4.608   2.251   3.306
 1860SOL     OW 6478   5.678   1.057   4.567
 1860SOL    HW1 6479   5.726   1.144   4.574
 1860SOL    HW2 6480   5.737   0.983   4.601
 1861SOL     OW 6481   5.359   6.349   3.066
 1861SOL    HW1 6482   5.302   6.267   3.061
 1861SOL    HW2 6483   5.308   6.427   3.030
 1862SOL     OW 6484   2.117   1.398   0.600
 1862SOL    HW1 6485   2.136   1.359   0.510
 1862SOL    HW2 6486   2.073   1.488   0.589
 1863SOL     OW 6487   3.018   2.931   1.320
 1863SOL    HW1 6488   3.071   2.865   1.372
 1863SOL    HW2 6489   2.921   2.907   1.323
 1864SOL     OW 6490   0.788   6.793   4.716
 1864SOL    HW1 6491   0.736   6.735   4.653
 1864SOL    HW2 6492   0.869   6.744   4.748
 1865SOL     OW 6493   4.234   2.206   6.596
 1865SOL    HW1 6494   4.320   2.180   6.552
 1865SOL    HW2 6495   4.246   2.294   6.642
 1866SOL     OW 6496   4.529   4.436   2.237
 1866SOL    HW1 6497   4.488   4.390   2.159
 1866SOL    HW2 6498   4.468   4.509   2.268
 1867SOL     OW 6499   0.288   4.218   0.252
 1867SOL    HW1 6500   0.328   4.127   0.245
 1867SOL    HW2 6501   0.193   4.216   0.219
 1868SOL     OW 6502   6.014   4.288   6.065
 1868SOL    HW1 6503   6.015   4.388   6.075
 1868SOL    HW2 6504   5.941   4.251   6.122
 1869SOL     OW 6505   6.223   1.410   4.968
 1869SOL    HW1 6506   6.208   1.326   4.915
 1869SOL    HW2 6507   6.206   1.489   4.909
 1870SOL     OW 6508   1.613   5.401   4.476
 1870SOL    HW1 6509   1.579   5.311   4.449
 1870SOL    HW2 6510   1.665   5.441   4.400
 1871SOL     OW 6511   2.267   0.005   0.275
 1871SOL    HW1 6512   2.247   6.947   0.324
 1871SOL    HW2 6513   2.213   0.009   0.191
 1872SOL     OW 6514   2.083   4.375   0.049
 1872SOL    HW1 6515   2.082   4.370   6.975
 1872SOL    HW2 6516   2.067   4.284   0.087
 1873SOL     OW 6517   4.405   1.367   6.770
 1873SOL    HW1 6518   4.354   1.433   6.717
 1873SOL    HW2 6519   4.455   1.305   6.709
 1874SOL     OW 6520   1.273   1.705   2.502
 1874SOL    HW1 6521   1.311   1.626   2.550
 1874SOL    HW2 6522   1.174   1.708   2.516
 1875SOL     OW 6523   0.806   6.472   6.630
 1875SOL    HW1 6524   0.877   6.403   6.617
 1875SOL    HW2 6525   0.822   6.522   6.715
 1876SOL     OW 6526   2.965   0.045   3.983
 1876SOL    HW1 6527   3.035   0.109   4.016
 1876SOL    HW2 6528   2.875   0.076   4.012
 1877SOL     OW 6529   0.506   6.871   3.048
 1877SOL    HW1 6530   0.504   6.957   2.997
 1877SOL    HW2 6531   0.465   6.884   3.138
 1878SOL     OW 6532   6.621   2.689   4.790
 1878SOL    HW1 6533   6.640   2.646   4.701
 1878SOL    HW2 6534   6.679   2.770   4.801
 1879SOL     OW 6535   1.286   3.997   5.107
 1879SOL    HW1 6536   1.363   3.941   5.139
 1879SOL    HW2 6537   1.321   4.080   5.063
 1880SOL     OW 6538   5.748   1.473   5.061
 1880SOL    HW1 6539   5.749   1.435   5.153
 1880SOL    HW2 6540   5.662   1.448   5.016
 1881SOL     OW 6541   6.770   1.787   0.735
 1881SOL    HW1 6542   6.752   1.856   0.665
 1881SOL    HW2 6543   6.839   1.822   0.799
 1882SOL     OW 6544   0.967   4.065   6.060
 1882SOL    HW1 6545   0.927   3.975   6.044
 1882SOL    HW2 6546   0.894   4.135   6.056
 1883SOL     OW 6547   0.181   2.815   3.463
 1883SOL    HW1 6548   0.139   2.732   3.425
 1883SOL    HW2 6549   0.152   2.894   3.409
 1884SOL     OW 6550   0.070   2.241   1.435
 1884SOL    HW1 6551   0.150   2.230   1.494
 1884SOL    HW2 6552   0.013   2.316   1.469
 1885SOL     OW 6553   2.342   1.869   5.186
 1885SOL    HW1 6554   2.414   1.834   5.247
 1885SOL    HW2 6555   2.252   1.853   5.229
 1886SOL     OW 6556   1.483   6.549   3.740
 1886SOL    HW1 6557   1.419   6.580   3.810
 1886SOL    HW2 6558   1.444   6.566   3.649
 1887SOL     OW 6559   1.257   6.306   6.510
 1887SOL    HW1 6560   1.324   6.254   6.458
 1887SOL    HW2 6561   1.298   6.390   6.544
 1888SOL     OW 6562   2.668   0.861   1.479
 1888SOL    HW1 6563   2.639   0.795   1.549
 1888SOL    HW2 6564   2.758   0.897   1.503
 1889SOL     OW 6565   1.321   3.514   3.588
 1889SOL    HW1 6566   1.356   3.436   3.536
 1889SOL    HW2 6567   1.386   3.537   3.661
 1890SOL     OW 6568   0.439   5.664   3.696
 1890SOL    HW1 6569   0.366   5.645   3.762
 1890SOL    HW2 6570   0.512   5.714   3.742
 1891SOL     OW 6571   4.062   3.582   2.477
 1891SOL    HW1 6572   4.151   3.625   2.462
 1891SOL    HW2 6573   3.990   3.641   2.441
 1892SOL     OW 6574   0.584   0.660   2.042
 1892SOL    HW1 6575   0.486   0.642   2.041
 1892SOL    HW2 6576   0.605   0.724   2.117
 1893SOL     OW 6577   3.493   3.445   3.448
 1893SOL    HW1 6578   3.509   3.391   3.530
 1893SOL    HW2 6579   3.569   3.431   3.384
 1894SOL     OW 6580   3.730   4.150   4.592
 1894SOL    HW1 6581   3.763   4.228   4.539
 1894SOL    HW2 6582   3.756   4.161   4.688
 1895SOL     OW 6583   3.741   6.383   6.918
 1895SOL    HW1 6584   3.834   6.410   6.942
 1895SOL    HW2 6585   3.731   6.384   6.819
 1896SOL     OW 6586   5.432   2.014   1.229
 1896SOL    HW1 6587   5.480   1.928   1.211
 1896SOL    HW2 6588   5.334   2.000   1.217
 1897SOL     OW 6589   2.241   5.011   3.368
 1897SOL    HW1 6590   2.323   4.961   3.393
 1897SOL    HW2 6591   2.189   4.959   3.301
 1898SOL     OW 6592   1.609   6.155   3.689
 1898SOL    HW1 6593   1.650   6.243   3.713
 1898SOL    HW2 6594   1.643   6.084   3.752
 1899SOL     OW 6595   6.874   0.236   2.063
 1899SOL    HW1 6596   6.857   0.155   2.120
 1899SOL    HW2 6597   6.928   0.302   2.115
 1900SOL     OW 6598   2.730   6.934   6.906
 1900SOL    HW1 6599   2.645   6.948   6.957
 1900SOL    HW2 6600   2.786   6.865   6.953
 1901SOL     OW 6601   2.707   3.768   0.671
 1901SOL    HW1 6602   2.730   3.818   0.755
 1901SOL    HW2 6603   2.698   3.834   0.595
 1902SOL     OW 6604   1.378   6.678   4.620
 1902SOL    HW1 6605   1.307   6.748   4.623
 1902SOL    HW2 6606   1.429   6.678   4.707
 1903SOL     OW 6607   1.466   2.669   4.782
 1903SOL    HW1 6608   1.382   2.664   4.728
 1903SOL    HW2 6609   1.535   2.722   4.732
 1904SOL     OW 6610   5.852   5.647   2.329
 1904SOL    HW1 6611   5.804   5.615   2.248
 1904SOL    HW2 6612   5.787   5.655   2.405
 1905SOL     OW 6613   0.279   0.737   3.489
 1905SOL    HW1 6614   0.278   0.692   3.579
 1905SOL    HW2 6615   0.236   0.827   3.496
 1906SOL     OW 6616   2.346   0.164   5.801
 1906SOL    HW1 6617   2.324   0.246   5.747
 1906SOL    HW2 6618   2.308   0.173   5.893
 1907SOL     OW 6619   5.156   2.903   0.259
 1907SOL    HW1 6620   5.166   2.864   0.350
 1907SOL    HW2 6621   5.060   2.927   0.243
 1908SOL     OW 6622   3.705   1.344   1.165
 1908SOL    HW1 6623   3.775   1.408   1.196
 1908SOL    HW2 6624   3.728   1.312   1.073
 1909SOL     OW 6625   0.093   4.739   5.122
 1909SOL    HW1 6626   0.183   4.782   5.125
 1909SOL    HW2 6627   0.048   4.764   5.037
 1910SOL     OW 6628   6.523   6.204   5.629
 1910SOL    HW1 6629   6.480   6.162   5.549
 1910SOL    HW2 6630   6.453   6.232   5.694
 1911SOL     OW 6631   0.161   5.028   4.295
 1911SOL    HW1 6632   0.124   4.952   4.349
 1911SOL    HW2 6633   0.150   5.008   4.198
 1912SOL     OW 6634   2.543   5.049   2.689
 1912SOL    HW1 6635   2.593   5.041   2.603
 1912SOL    HW2 6636   2.547   4.962   2.738
 1913SOL     OW 6637   2.776   4.543   5.410
 1913SOL    HW1 6638   2.815   4.534   5.318
 1913SOL    HW2 6639   2.676   4.535   5.404
 1914SOL     OW 6640   2.586   4.325   6.507
 1914SOL    HW1 6641   2.577   4.385   6.427
 1914SOL    HW2 6642   2.679   4.287   6.509
 1915SOL     OW 6643   4.473   2.104   6.522
 1915SOL    HW1 6644   4.477   2.007   6.546
 1915SOL    HW2 6645   4.527   2.120   6.439
 1916SOL     OW 6646   3.690   0.717   2.112
 1916SOL    HW1 6647   3.776   0.679   2.145
 1916SOL    HW2 6648   3.709   0.795   2.053
 1917SOL     OW 6649   2.732   4.183   1.380
 1917SOL    HW1 6650   2.683   4.270   1.388
 1917SOL    HW2 6651   2.757   4.168   1.284
 1918SOL     OW 6652   6.387   2.249   4.157
 1918SOL    HW1 6653   6.295   2.212   4.146
 1918SOL    HW2 6654   6.382   2.347   4.180
 1919SOL     OW 6655   0.880   1.843   1.161
 1919SOL    HW1 6656   0.965   1.866   1.115
 1919SOL    HW2 6657   0.807   1.902   1.128
 1920SOL     OW 6658   5.338   2.008   0.562
 1920SOL    HW1 6659   5.350   2.085   0.624
 1920SOL    HW2 6660   5.319   1.925   0.615
 1921SOL     OW 6661   1.836   2.746   6.820
 1921SOL    HW1 6662   1.832   2.649   6.798
 1921SOL    HW2 6663   1.920   2.765   6.872
 1922SOL     OW 6664   3.154   3.688   2.278
 1922SOL    HW1 6665   3.110   3.675   2.367
 1922SOL    HW2 6666   3.095   3.651   2.207
 1923SOL     OW 6667   3.849   0.463   5.212
 1923SOL    HW1 6668   3.939   0.495   5.241
 1923SOL    HW2 6669   3.809   0.530   5.150
 1924SOL     OW 6670   4.347   0.167   1.097
 1924SOL    HW1 6671   4.305   0.165   1.006
 1924SOL    HW2 6672   4.446   0.171   1.088
 1925SOL     OW 6673   1.184   4.883   1.416
 1925SOL    HW1 6674   1.165   4.787   1.437
 1925SOL    HW2 6675   1.282   4.901   1.424
 1926SOL     OW 6676   3.111   0.095   2.190
 1926SOL    HW1 6677   3.201   0.069   2.227
 1926SOL    HW2 6678   3.124   0.161   2.117
 1927SOL     OW 6679   2.006   5.447   1.789
 1927SOL    HW1 6680   1.982   5.532   1.743
 1927SOL    HW2 6681   1.967   5.370   1.738
 1928SOL     OW 6682   5.094   4.155   2.984
 1928SOL    HW1 6683   5.115   4.239   2.933
 1928SOL    HW2 6684   5.107   4.076   2.925
 1929SOL     OW 6685   2.857   7.011   2.778
 1929SOL    HW1 6686   2.792   0.046   2.733
 1929SOL    HW2 6687   2.909   0.036   2.847
 1930SOL     OW 6688   4.760   2.910   6.033
 1930SOL    HW1 6689   4.687   2.844   6.018
 1930SOL    HW2 6690   4.720   3.000   6.051
 1931SOL     OW 6691   0.844   1.754   4.575
 1931SOL    HW1 6692   0.775   1.825   4.564
 1931SOL    HW2 6693   0.935   1.796   4.577
 1932SOL     OW 6694   4.408   2.437   2.125
 1932SOL    HW1 6695   4.435   2.508   2.060
 1932SOL    HW2 6696   4.394   2.351   2.077
 1933SOL     OW 6697   1.234   1.387   0.948
 1933SOL    HW1 6698   1.310   1.326   0.971
 1933SOL    HW2 6699   1.176   1.344   0.879
 1934SOL     OW 6700   0.167   0.277   5.904
 1934SOL    HW1 6701   0.071   0.283   5.931
 1934SOL    HW2 6702   0.193   0.180   5.894
 1935SOL     OW 6703   0.058   5.453   3.655
 1935SOL    HW1 6704   6.990   5.450   3.621
 1935SOL    HW2 6705   0.097   5.361   3.654
 1936SOL     OW 6706   4.616   3.049   5.306
 1936SOL    HW1 6707   4.625   3.149   5.313
 1936SOL    HW2 6708   4.520   3.025   5.297
 1937SOL     OW 6709   5.512   5.105   6.705
 1937SOL    HW1 6710   5.452   5.180   6.735
 1937SOL    HW2 6711   5.493   5.084   6.609
 1938SOL     OW 6712   0.743   3.056   6.658
 1938SOL    HW1 6713   0.740   3.155   6.664
 1938SOL    HW2 6714   0.664   3.017   6.706
 1939SOL     OW 6715   0.881   0.231   4.611
 1939SOL    HW1 6716   0.785   0.243   4.584
 1939SOL    HW2 6717   0.884   0.189   4.702
 1940SOL     OW 6718   6.799   4.685   0.538
 1940SOL    HW1 6719   6.852   4.753   0.488
 1940SOL    HW2 6720   6.842   4.666   0.626
 1941SOL     OW 6721   6.562   2.022   4.226
 1941SOL    HW1 6722   6.660   2.031   4.209
 1941SOL    HW2 6723   6.522   2.113   4.239
 1942SOL     OW 6724   5.935   3.661   2.519
 1942SOL    HW1 6725   5.978   3.656   2.428
 1942SOL    HW2 6726   5.974   3.738   2.569
 1943SOL     OW 6727   1.073   1.400   2.733
 1943SOL    HW1 6728   1.170   1.404   2.760
 1943SOL    HW2 6729   1.019   1.455   2.797
 1944SOL     OW 6730   0.041   2.945   3.008
 1944SOL    HW1 6731   0.046   2.953   3.107
 1944SOL    HW2 6732   0.005   2.856   2.982
 1945SOL     OW 6733   5.010   0.811   2.099
 1945SOL    HW1 6734   5.027   0.716   2.070
 1945SOL    HW2 6735   5.024   0.872   2.021
 1946SOL     OW 6736   6.416   5.310   1.340
 1946SOL    HW1 6737   6.400   5.313   1.241
 1946SOL    HW2 6738   6.435   5.402   1.374
 1947SOL     OW 6739   6.105   4.803   3.863
 1947SOL    HW1 6740   6.130   4.713   3.898
 1947SOL    HW2 6741   6.028   4.839   3.916
 1948SOL     OW 6742   5.033   3.574   3.468
 1948SOL    HW1 6743   4.997   3.485   3.498
 1948SOL    HW2 6744   5.019   3.641   3.540
 1949SOL     OW 6745   3.809   4.900   6.673
 1949SOL    HW1 6746   3.828   4.998   6.680
 1949SOL    HW2 6747   3.791   4.876   6.578
 1950SOL     OW 6748   3.165   4.046   3.350
 1950SOL    HW1 6749   3.247   4.055   3.406
 1950SOL    HW2 6750   3.093   4.002   3.403
 1951SOL     OW 6751   6.284   4.410   5.904
 1951SOL    HW1 6752   6.214   4.456   5.850
 1951SOL    HW2 6753   6.258   4.314   5.919
 1952SOL     OW 6754   5.703   5.182   0.098
 1952SOL    HW1 6755   5.609   5.154   0.118
 1952SOL    HW2 6756   5.758   5.102   0.075
 1953SOL     OW 6757   0.418   0.661   6.811
 1953SOL    HW1 6758   0.515   0.679   6.822
 1953SOL    HW2 6759   0.403   0.599   6.734
 1954SOL     OW 6760   4.047   0.128   2.118
 1954SOL    HW1 6761   4.125   0.131   2.181
 1954SOL    HW2 6762   4.038   0.216   2.072
 1955SOL     OW 6763   0.500   2.386   2.806
 1955SOL    HW1 6764   0.513   2.406   2.709
 1955SOL    HW2 6765   0.450   2.300   2.817
 1956SOL     OW 6766   5.718   0.234   1.551
 1956SOL    HW1 6767   5.741   0.273   1.462
 1956SOL    HW2 6768   5.619   0.226   1.560
 1957SOL     OW 6769   5.408   1.988   4.518
 1957SOL    HW1 6770   5.329   1.939   4.479
 1957SOL    HW2 6771   5.434   2.062   4.456
 1958SOL     OW 6772   4.536   1.912   1.021
 1958SOL    HW1 6773   4.590   1.886   1.101
 1958SOL    HW2 6774   4.579   1.990   0.975
 1959SOL     OW 6775   0.421   0.883   4.829
 1959SOL    HW1 6776   0.456   0.949   4.763
 1959SOL    HW2 6777   0.396   0.798   4.783
 1960SOL     OW 6778   6.263   4.126   4.291
 1960SOL    HW1 6779   6.224   4.060   4.227
 1960SOL    HW2 6780   6.355   4.096   4.317
 1961SOL     OW 6781   6.972   4.300   4.725
 1961SOL    HW1 6782   0.036   4.301   4.768
 1961SOL    HW2 6783   6.932   4.208   4.733
 1962SOL     OW 6784   0.937   0.472   2.490
 1962SOL    HW1 6785   1.009   0.434   2.432
 1962SOL    HW2 6786   0.882   0.398   2.529
 1963SOL     OW 6787   0.534   2.210   1.698
 1963SOL    HW1 6788   0.528   2.282   1.768
 1963SOL    HW2 6789   0.589   2.243   1.622
 1964SOL     OW 6790   5.628   3.578   1.242
 1964SOL    HW1 6791   5.651   3.672   1.270
 1964SOL    HW2 6792   5.612   3.575   1.144
 1965SOL     OW 6793   0.267   4.587   4.263
 1965SOL    HW1 6794   0.219   4.597   4.175
 1965SOL    HW2 6795   0.336   4.514   4.255
 1966SOL     OW 6796   1.845   5.024   0.083
 1966SOL    HW1 6797   1.856   4.929   0.114
 1966SOL    HW2 6798   1.765   5.064   0.128
 1967SOL     OW 6799   6.213   3.609   3.015
 1967SOL    HW1 6800   6.302   3.572   2.990
 1967SOL    HW2 6801   6.151   3.605   2.936
 1968SOL     OW 6802   2.534   1.098   5.319
 1968SOL    HW1 6803   2.442   1.110   5.356
 1968SOL    HW2 6804   2.601   1.132   5.385
 1969SOL     OW 6805   2.960   6.361   0.259
 1969SOL    HW1 6806   2.998   6.449   0.285
 1969SOL    HW2 6807   2.957   6.354   0.159
 1970SOL     OW 6808   6.227   5.583   5.522
 1970SOL    HW1 6809   6.156   5.517   5.546
 1970SOL    HW2 6810   6.241   5.647   5.597
 1971SOL     OW 6811   1.805   5.794   4.534
 1971SOL    HW1 6812   1.865   5.749   4.600
 1971SOL    HW2 6813   1.732   5.842   4.583
 1972SOL     OW 6814   6.473   2.976   2.550
 1972SOL    HW1 6815   6.386   2.964   2.599
 1972SOL    HW2 6816   6.461   3.044   2.477
 1973SOL     OW 6817   2.485   3.354   6.857
 1973SOL    HW1 6818   2.403   3.359   6.914
 1973SOL    HW2 6819   2.469   3.405   6.772
 1974SOL     OW 6820   3.224   6.539   4.882
 1974SOL    HW1 6821   3.271   6.526   4.795
 1974SOL    HW2 6822   3.284   6.591   4.944
 1975SOL     OW 6823   1.884   2.387   3.483
 1975SOL    HW1 6824   1.916   2.292   3.480
 1975SOL    HW2 6825   1.948   2.444   3.431
 1976SOL     OW 6826   6.655   0.109   6.391
 1976SOL    HW1 6827   6.622   0.203   6.403
 1976SOL    HW2 6828   6.708   0.083   6.472
 1977SOL     OW 6829   2.128   4.786   5.805
 1977SOL    HW1 6830   2.101   4.738   5.722
 1977SOL    HW2 6831   2.154   4.720   5.875
 1978SOL     OW 6832   2.702   0.058   1.437
 1978SOL    HW1 6833   2.723   6.990   1.466
 1978SOL    HW2 6834   2.603   0.069   1.429
 1979SOL     OW 6835   0.174   5.089   6.319
 1979SOL    HW1 6836   0.085   5.043   6.323
 1979SOL    HW2 6837   0.242   5.027   6.282
 1980SOL     OW 6838   3.129   1.520   0.593
 1980SOL    HW1 6839   3.121   1.434   0.643
 1980SOL    HW2 6840   3.208   1.516   0.532
 1981SOL     OW 6841   3.519   2.102   2.991
 1981SOL    HW1 6842   3.610   2.104   2.951
 1981SOL    HW2 6843   3.455   2.062   2.926
 1982SOL     OW 6844   0.409   2.930   5.349
 1982SOL    HW1 6845   0.485   2.870   5.376
 1982SOL    HW2 6846   0.371   2.974   5.430
 1983SOL     OW 6847   0.221   0.622   2.515
 1983SOL    HW1 6848   0.171   0.706   2.535
 1983SOL    HW2 6849   0.311   0.645   2.478
 1984SOL     OW 6850   5.070   3.019   5.705
 1984SOL    HW1 6851   5.087   2.965   5.623
 1984SOL    HW2 6852   4.973   3.042   5.710
 1985SOL     OW 6853   6.545   3.571   2.251
 1985SOL    HW1 6854   6.460   3.572   2.198
 1985SOL    HW2 6855   6.590   3.482   2.239
 1986SOL     OW 6856   4.168   2.598   1.675
 1986SOL    HW1 6857   4.221   2.548   1.743
 1986SOL    HW2 6858   4.080   2.552   1.661
 1987SOL     OW 6859   2.790   1.222   1.724
 1987SOL    HW1 6860   2.775   1.127   1.752
 1987SOL    HW2 6861   2.872   1.227   1.666
 1988SOL     OW 6862   0.076   2.297   1.166
 1988SOL    HW1 6863   0.073   2.251   1.254
 1988SOL    HW2 6864   0.166   2.339   1.153
 1989SOL     OW 6865   2.565   5.017   4.830
 1989SOL    HW1 6866   2.599   4.926   4.853
 1989SOL    HW2 6867   2.587   5.038   4.735
 1990SOL     OW 6868   3.844   0.306   0.721
 1990SOL    HW1 6869   3.747   0.294   0.702
 1990SOL    HW2 6870   3.873   0.243   0.792
 1991SOL     OW 6871   2.475   5.190   1.337
 1991SOL    HW1 6872   2.396   5.227   1.386
 1991SOL    HW2 6873   2.481   5.091   1.353
 1992SOL     OW 6874   0.582   6.127   1.277
 1992SOL    HW1 6875   0.591   6.173   1.366
 1992SOL    HW2 6876   0.661   6.068   1.262
 1993SOL     OW 6877   2.368   2.724   3.841
 1993SOL    HW1 6878   2.425   2.725   3.758
 1993SOL    HW2 6879   2.278   2.687   3.818
 1994SOL     OW 6880   3.524   2.514   0.917
 1994SOL    HW1 6881   3.544   2.606   0.883
 1994SOL    HW2 6882   3.574   2.498   1.002
 1995SOL     OW 6883   5.574   2.400   4.353
 1995SOL    HW1 6884   5.551   2.306   4.331
 1995SOL    HW2 6885   5.539   2.461   4.282
 1996SOL     OW 6886   3.783   1.672   0.935
 1996SOL    HW1 6887   3.707   1.657   0.999
 1996SOL    HW2 6888   3.759   1.746   0.873
 1997SOL     OW 6889   3.962   0.362   3.727
 1997SOL    HW1 6890   3.871   0.399   3.746
 1997SOL    HW2 6891   4.016   0.360   3.811
 1998SOL     OW 6892   1.925   3.343   1.257
 1998SOL    HW1 6893   1.884   3.280   1.323
 1998SOL    HW2 6894   1.853   3.395   1.211
 1999SOL     OW 6895   1.753   6.622   6.558
 1999SOL    HW1 6896   1.736   6.543   6.498
 1999SOL    HW2 6897   1.666   6.664   6.583
 2000SOL     OW 6898   3.900   4.313   5.815
 2000SOL    HW1 6899   3.881   4.231   5.869
 2000SOL    HW2 6900   3.966   4.370   5.863
 2001SOL     OW 6901   1.943   1.610   0.632
 2001SOL    HW1 6902   1.922   1.603   0.730
 2001SOL    HW2 6903   1.938   1.706   0.604
 2002SOL     OW 6904   0.306   4.426   0.402
 2002SOL    HW1 6905   0.301   4.356   0.331
 2002SOL    HW2 6906   0.231   4.414   0.467
 2003SOL     OW 6907   6.733   5.343   2.955
 2003SOL    HW1 6908   6.686   5.254   2.955
 2003SOL    HW2 6909   6.821   5.333   2.909
 2004SOL     OW 6910   3.670   0.002   3.426
 2004SOL    HW1 6911   3.765   0.013   3.394
 2004SOL    HW2 6912   3.632   6.945   3.386
 2005SOL     OW 6913   1.626   6.236   0.520
 2005SOL    HW1 6914   1.614   6.314   0.460
 2005SOL    HW2 6915   1.542   6.221   0.573
 2006SOL     OW 6916   5.819   6.743   2.766
 2006SOL    HW1 6917   5.770   6.673   2.714
 2006SOL    HW2 6918   5.904   6.766   2.719
 2007SOL     OW 6919   5.941   4.664   6.878
 2007SOL    HW1 6920   6.015   4.597   6.888
 2007SOL    HW2 6921   5.915   4.670   6.782
 2008SOL     OW 6922   1.500   3.893   4.093
 2008SOL    HW1 6923   1.560   3.971   4.076
 2008SOL    HW2 6924   1.553   3.808   4.084
 2009SOL     OW 6925   6.030   0.366   3.102
 2009SOL    HW1 6926   5.974   0.309   3.162
 2009SOL    HW2 6927   6.109   0.401   3.152
 2010SOL     OW 6928   1.181   1.896   1.642
 2010SOL    HW1 6929   1.179   1.952   1.725
 2010SOL    HW2 6930   1.276   1.885   1.612
 2011SOL     OW 6931   0.944   6.912   5.948
 2011SOL    HW1 6932   0.851   6.919   5.985
 2011SOL    HW2 6933   0.940   6.918   5.848
 2012SOL     OW 6934   1.423   3.151   1.539
 2012SOL    HW1 6935   1.490   3.181   1.607
 2012SOL    HW2 6936   1.339   3.122   1.586
 2013SOL     OW 6937   0.595   3.409   2.357
 2013SOL    HW1 6938   0.668   3.458   2.404
 2013SOL    HW2 6939   0.522   3.386   2.422
 2014SOL     OW 6940   3.699   0.739   4.446
 2014SOL    HW1 6941   3.640   0.694   4.513
 2014SOL    HW2 6942   3.757   0.670   4.402
 2015SOL     OW 6943   4.374   0.659   1.858
 2015SOL    HW1 6944   4.460   0.699   1.827
 2015SOL    HW2 6945   4.299   0.721   1.837
 2016SOL     OW 6946   1.680   0.840   5.682
 2016SOL    HW1 6947   1.612   0.872   5.616
 2016SOL    HW2 6948   1.655   0.871   5.774
 2017SOL     OW 6949   4.111   6.327   3.480
 2017SOL    HW1 6950   4.130   6.267   3.558
 2017SOL    HW2 6951   4.106   6.273   3.397
 2018SOL     OW 6952   1.314   1.169   3.716
 2018SOL    HW1 6953   1.409   1.159   3.744
 2018SOL    HW2 6954   1.254   1.150   3.793
 2019SOL     OW 6955   5.871   5.231   6.410
 2019SOL    HW1 6956   5.809   5.197   6.340
 2019SOL    HW2 6957   5.826   5.230   6.499
 2020SOL     OW 6958   2.283   5.786   6.479
 2020SOL    HW1 6959   2.289   5.686   6.486
 2020SOL    HW2 6960   2.317   5.827   6.564
 2021SOL     OW 6961   6.796   6.213   4.196
 2021SOL    HW1 6962   6.790   6.240   4.292
 2021SOL    HW2 6963   6.708   6.177   4.166
 2022SOL     OW 6964   1.746   4.183   5.140
 2022SOL    HW1 6965   1.663   4.150   5.096
 2022SOL    HW2 6966   1.817   4.199   5.071
 2023SOL     OW 6967   6.581   6.534   0.524
 2023SOL    HW1 6968   6.622   6.456   0.570
 2023SOL    HW2 6969   6.642   6.613   0.530
 2024SOL     OW 6970   0.581   6.150   4.601
 2024SOL    HW1 6971   0.518   6.115   4.532
 2024SOL    HW2 6972   0.639   6.075   4.635
 2025SOL     OW 6973   1.130   6.853   4.621
 2025SOL    HW1 6974   1.155   6.914   4.546
 2025SOL    HW2 6975   1.161   6.893   4.708
 2026SOL     OW 6976   6.742   0.116   5.939
 2026SOL    HW1 6977   6.781   0.084   6.026
 2026SOL    HW2 6978   6.655   0.069   5.923
 2027SOL     OW 6979   6.881   6.274   2.431
 2027SOL    HW1 6980   6.946   6.205   2.463
 2027SOL    HW2 6981   6.911   6.310   2.343
 2028SOL     OW 6982   3.166   5.217   4.360
 2028SOL    HW1 6983   3.093   5.202   4.294
 2028SOL    HW2 6984   3.221   5.134   4.369
 2029SOL     OW 6985   6.202   2.579   7.023
 2029SOL    HW1 6986   6.188   2.620   6.932
 2029SOL    HW2 6987   6.147   2.627   0.064
 2030SOL     OW 6988   2.472   6.551   2.444
 2030SOL    HW1 6989   2.391   6.496   2.424
 2030SOL    HW2 6990   2.553   6.507   2.404
 2031SOL     OW 6991   6.986   5.995   4.073
 2031SOL    HW1 6992   6.968   6.045   4.158
 2031SOL    HW2 6993   6.899   5.973   4.029
 2032SOL     OW 6994   2.752   2.022   6.480
 2032SOL    HW1 6995   2.662   2.051   6.447
 2032SOL    HW2 6996   2.823   2.077   6.437
 2033SOL     OW 6997   2.145   2.082   0.690
 2033SOL    HW1 6998   2.138   2.123   0.599
 2033SOL    HW2 6999   2.242   2.067   0.712
 2034SOL     OW 7000   0.134   4.303   4.914
 2034SOL    HW1 7001   0.081   4.302   4.999
 2034SOL    HW2 7002   0.203   4.374   4.919
 2035SOL     OW 7003   5.827   0.053   2.708
 2035SOL    HW1 7004   5.766   7.003   2.730
 2035SOL    HW2 7005   5.774   0.127   2.667
 2036SOL     OW 7006   1.177   4.326   1.400
 2036SOL    HW1 7007   1.087   4.341   1.360
 2036SOL    HW2 7008   1.168   4.276   1.486
 2037SOL     OW 7009   0.187   2.452   0.061
 2037SOL    HW1 7010   0.125   2.387   0.016
 2037SOL    HW2 7011   0.252   2.402   0.118
 2038SOL     OW 7012   1.528   1.167   6.400
 2038SOL    HW1 7013   1.542   1.236   6.329
 2038SOL    HW2 7014   1.443   1.185   6.449
 2039SOL     OW 7015   5.720   6.352   2.746
 2039SOL    HW1 7016   5.783   6.308   2.809
 2039SOL    HW2 7017   5.771   6.386   2.667
 2040SOL     OW 7018   1.641   2.842   0.715
 2040SOL    HW1 7019   1.707   2.871   0.784
 2040SOL    HW2 7020   1.653   2.745   0.696
 2041SOL     OW 7021   2.352   0.635   6.353
 2041SOL    HW1 7022   2.322   0.665   6.262
 2041SOL    HW2 7023   2.337   0.537   6.362
 2042SOL     OW 7024   5.242   1.504   5.507
 2042SOL    HW1 7025   5.152   1.545   5.493
 2042SOL    HW2 7026   5.313   1.566   5.473
 2043SOL     OW 7027   0.043   3.895   1.199
 2043SOL    HW1 7028   0.096   3.923   1.119
 2043SOL    HW2 7029   0.103   3.890   1.279
 2044SOL     OW 7030   4.113   0.728   0.827
 2044SOL    HW1 7031   4.048   0.694   0.758
 2044SOL    HW2 7032   4.072   0.804   0.877
 2045SOL     OW 7033   1.126   6.435   5.385
 2045SOL    HW1 7034   1.030   6.461   5.395
 2045SOL    HW2 7035   1.137   6.383   5.300
 2046SOL     OW 7036   0.903   1.528   4.926
 2046SOL    HW1 7037   0.805   1.511   4.936
 2046SOL    HW2 7038   0.929   1.609   4.979
 2047SOL     OW 7039   0.430   0.736   1.108
 2047SOL    HW1 7040   0.490   0.811   1.134
 2047SOL    HW2 7041   0.485   0.660   1.073
 2048SOL     OW 7042   0.710   1.994   4.442
 2048SOL    HW1 7043   0.723   1.972   4.345
 2048SOL    HW2 7044   0.788   2.048   4.474
 2049SOL     OW 7045   4.830   1.779   5.310
 2049SOL    HW1 7046   4.739   1.750   5.340
 2049SOL    HW2 7047   4.878   1.703   5.267
 2050SOL     OW 7048   0.471   1.399   4.110
 2050SOL    HW1 7049   0.526   1.479   4.135
 2050SOL    HW2 7050   0.409   1.376   4.185
 2051SOL     OW 7051   2.888   6.781   0.022
 2051SOL    HW1 7052   2.988   6.785   0.013
 2051SOL    HW2 7053   2.864   6.778   0.119
 2052SOL     OW 7054   1.060   4.515   6.370
 2052SOL    HW1 7055   1.083   4.551   6.280
 2052SOL    HW2 7056   1.074   4.586   6.439
 2053SOL     OW 7057   6.985   6.303   3.524
 2053SOL    HW1 7058   6.911   6.357   3.563
 2053SOL    HW2 7059   6.949   6.244   3.451
 2054SOL     OW 7060   3.182   3.579   3.267
 2054SOL    HW1 7061   3.205   3.633   3.187
 2054SOL    HW2 7062   3.233   3.493   3.265
 2055SOL     OW 7063   3.092   2.314   5.736
 2055SOL    HW1 7064   3.062   2.243   5.673
 2055SOL    HW2 7065   3.090   2.403   5.690
 2056SOL     OW 7066   4.090   4.567   0.696
 2056SOL    HW1 7067   4.182   4.539   0.669
 2056SOL    HW2 7068   4.095   4.626   0.777
 2057SOL     OW 7069   5.389   2.287   4.067
 2057SOL    HW1 7070   5.419   2.374   4.107
 2057SOL    HW2 7071   5.413   2.212   4.129
 2058SOL     OW 7072   6.652   6.930   2.634
 2058SOL    HW1 7073   6.715   6.869   2.683
 2058SOL    HW2 7074   6.576   6.955   2.693
 2059SOL     OW 7075   0.858   0.632   5.616
 2059SOL    HW1 7076   0.906   0.661   5.699
 2059SOL    HW2 7077   0.765   0.669   5.617
 2060SOL     OW 7078   1.560   2.478   6.798
 2060SOL    HW1 7079   1.534   2.521   6.885
 2060SOL    HW2 7080   1.654   2.444   6.805
 2061SOL     OW 7081   1.882   2.591   2.179
 2061SOL    HW1 7082   1.851   2.630   2.265
 2061SOL    HW2 7083   1.828   2.627   2.104
 2062SOL     OW 7084   0.663   5.320   4.683
 2062SOL    HW1 7085   0.752   5.357   4.656
 2062SOL    HW2 7086   0.600   5.396   4.701
 2063SOL     OW 7087   0.652   1.237   5.073
 2063SOL    HW1 7088   0.659   1.335   5.088
 2063SOL    HW2 7089   0.602   1.195   5.149
 2064SOL     OW 7090   0.790   2.963   3.785
 2064SOL    HW1 7091   0.816   2.908   3.864
 2064SOL    HW2 7092   0.849   2.939   3.707
 2065SOL     OW 7093   4.132   3.675   5.684
 2065SOL    HW1 7094   4.179   3.589   5.704
 2065SOL    HW2 7095   4.191   3.752   5.710
 2066SOL     OW 7096   0.637   3.115   5.761
 2066SOL    HW1 7097   0.650   3.025   5.720
 2066SOL    HW2 7098   0.643   3.107   5.861
 2067SOL     OW 7099   6.759   5.009   1.435
 2067SOL    HW1 7100   6.856   5.006   1.457
 2067SOL    HW2 7101   6.737   5.095   1.389
 2068SOL     OW 7102   4.485   0.821   4.308
 2068SOL    HW1 7103   4.562   0.784   4.360
 2068SOL    HW2 7104   4.519   0.881   4.236
 2069SOL     OW 7105   0.490   2.062   3.793
 2069SOL    HW1 7106   0.514   2.097   3.883
 2069SOL    HW2 7107   0.565   2.079   3.729
 2070SOL     OW 7108   0.880   4.754   1.026
 2070SOL    HW1 7109   0.929   4.798   0.951
 2070SOL    HW2 7110   0.870   4.818   1.102
 2071SOL     OW 7111   7.000   1.511   5.543
 2071SOL    HW1 7112   0.030   1.548   5.469
 2071SOL    HW2 7113   6.937   1.581   5.576
 2072SOL     OW 7114   4.444   4.567   5.458
 2072SOL    HW1 7115   4.514   4.496   5.466
 2072SOL    HW2 7116   4.361   4.536   5.503
 2073SOL     OW 7117   2.965   5.622   6.415
 2073SOL    HW1 7118   2.943   5.637   6.319
 2073SOL    HW2 7119   3.059   5.588   6.423
 2074SOL     OW 7120   1.396   4.619   6.037
 2074SOL    HW1 7121   1.315   4.587   6.087
 2074SOL    HW2 7122   1.466   4.548   6.038
 2075SOL     OW 7123   6.429   2.432   0.845
 2075SOL    HW1 7124   6.507   2.435   0.908
 2075SOL    HW2 7125   6.345   2.457   0.894
 2076SOL     OW 7126   6.319   6.876   4.498
 2076SOL    HW1 7127   6.333   6.809   4.426
 2076SOL    HW2 7128   6.315   6.830   4.587
 2077SOL     OW 7129   6.324   4.644   0.592
 2077SOL    HW1 7130   6.351   4.706   0.519
 2077SOL    HW2 7131   6.233   4.608   0.574
 2078SOL     OW 7132   0.938   2.945   5.467
 2078SOL    HW1 7133   0.974   3.023   5.416
 2078SOL    HW2 7134   0.980   2.941   5.557
 2079SOL     OW 7135   5.481   1.106   2.281
 2079SOL    HW1 7136   5.529   1.159   2.351
 2079SOL    HW2 7137   5.467   1.162   2.200
 2080SOL     OW 7138   2.593   3.055   6.297
 2080SOL    HW1 7139   2.650   3.021   6.372
 2080SOL    HW2 7140   2.607   3.153   6.287
 2081SOL     OW 7141   6.282   5.745   2.207
 2081SOL    HW1 7142   6.183   5.736   2.220
 2081SOL    HW2 7143   6.314   5.827   2.254
 2082SOL     OW 7144   6.501   6.063   4.280
 2082SOL    HW1 7145   6.475   5.978   4.233
 2082SOL    HW2 7146   6.547   6.041   4.366
 2083SOL     OW 7147   0.267   6.581   3.724
 2083SOL    HW1 7148   0.350   6.526   3.711
 2083SOL    HW2 7149   0.253   6.598   3.822
 2084SOL     OW 7150   6.014   2.247   1.003
 2084SOL    HW1 7151   6.018   2.187   1.084
 2084SOL    HW2 7152   5.919   2.255   0.972
 2085SOL     OW 7153   6.092   5.960   0.838
 2085SOL    HW1 7154   6.063   5.881   0.784
 2085SOL    HW2 7155   6.187   5.949   0.866
 2086SOL     OW 7156   5.083   1.011   6.851
 2086SOL    HW1 7157   5.044   0.968   6.770
 2086SOL    HW2 7158   5.064   1.109   6.849
 2087SOL     OW 7159   4.535   1.618   6.806
 2087SOL    HW1 7160   4.530   1.640   6.708
 2087SOL    HW2 7161   4.518   1.520   6.818
 2088SOL     OW 7162   0.718   5.682   5.796
 2088SOL    HW1 7163   0.648   5.720   5.855
 2088SOL    HW2 7164   0.744   5.750   5.727
 2089SOL     OW 7165   2.438   3.981   0.091
 2089SOL    HW1 7166   2.524   3.935   0.110
 2089SOL    HW2 7167   2.402   4.021   0.176
 2090SOL     OW 7168   5.596   2.956   5.968
 2090SOL    HW1 7169   5.678   2.905   5.941
 2090SOL    HW2 7170   5.540   2.898   6.028
 2091SOL     OW 7171   5.316   6.419   1.720
 2091SOL    HW1 7172   5.225   6.424   1.678
 2091SOL    HW2 7173   5.354   6.328   1.705
 2092SOL     OW 7174   4.057   3.738   1.911
 2092SOL    HW1 7175   3.960   3.751   1.889
 2092SOL    HW2 7176   4.102   3.688   1.837
 2093SOL     OW 7177   4.062   1.393   1.628
 2093SOL    HW1 7178   4.154   1.354   1.632
 2093SOL    HW2 7179   4.013   1.354   1.550
 2094SOL     OW 7180   5.370   2.104   6.177
 2094SOL    HW1 7181   5.377   2.005   6.166
 2094SOL    HW2 7182   5.410   2.131   6.265
 2095SOL     OW 7183   5.576   5.502   4.028
 2095SOL    HW1 7184   5.525   5.487   3.944
 2095SOL    HW2 7185   5.548   5.587   4.070
 2096SOL     OW 7186   4.601   0.236   2.191
 2096SOL    HW1 7187   4.599   0.332   2.219
 2096SOL    HW2 7188   4.597   0.230   2.091
 2097SOL     OW 7189   0.925   5.823   6.393
 2097SOL    HW1 7190   0.879   5.786   6.473
 2097SOL    HW2 7191   0.945   5.749   6.329
 2098SOL     OW 7192   2.840   5.818   3.768
 2098SOL    HW1 7193   2.938   5.817   3.747
 2098SOL    HW2 7194   2.818   5.744   3.831
 2099SOL     OW 7195   4.958   1.659   6.213
 2099SOL    HW1 7196   5.023   1.590   6.246
 2099SOL    HW2 7197   4.900   1.688   6.289
 2100SOL     OW 7198   5.098   0.143   1.535
 2100SOL    HW1 7199   5.069   0.071   1.597
 2100SOL    HW2 7200   5.097   0.109   1.441
 2101SOL     OW 7201   0.676   0.142   2.277
 2101SOL    HW1 7202   0.699   0.045   2.272
 2101SOL    HW2 7203   0.689   0.175   2.371
 2102SOL     OW 7204   3.504   2.013   1.100
 2102SOL    HW1 7205   3.517   2.101   1.145
 2102SOL    HW2 7206   3.524   1.939   1.164
 2103SOL     OW 7207   2.817   5.886   0.154
 2103SOL    HW1 7208   2.788   5.981   0.151
 2103SOL    HW2 7209   2.914   5.879   0.129
 2104SOL     OW 7210   1.614   3.949   3.355
 2104SOL    HW1 7211   1.607   3.854   3.386
 2104SOL    HW2 7212   1.528   3.997   3.375
 2105SOL     OW 7213   5.708   5.898   5.057
 2105SOL    HW1 7214   5.626   5.847   5.032
 2105SOL    HW2 7215   5.747   5.859   5.140
 2106SOL     OW 7216   4.253   3.223   0.710
 2106SOL    HW1 7217   4.284   3.276   0.789
 2106SOL    HW2 7218   4.243   3.127   0.736
 2107SOL     OW 7219   5.550   4.880   5.517
 2107SOL    HW1 7220   5.597   4.821   5.451
 2107SOL    HW2 7221   5.527   4.967   5.475
 2108SOL     OW 7222   5.162   0.389   5.143
 2108SOL    HW1 7223   5.194   0.308   5.192
 2108SOL    HW2 7224   5.190   0.471   5.192
 2109SOL     OW 7225   2.837   6.737   2.443
 2109SOL    HW1 7226   2.785   6.781   2.370
 2109SOL    HW2 7227   2.934   6.748   2.426
 2110SOL     OW 7228   3.459   6.768   0.309
 2110SOL    HW1 7229   3.558   6.784   0.299
 2110SOL    HW2 7230   3.438   6.673   0.287
 2111SOL     OW 7231   0.963   2.190   6.002
 2111SOL    HW1 7232   1.055   2.167   5.970
 2111SOL    HW2 7233   0.917   2.247   5.933
 2112SOL     OW 7234   0.673   0.617   6.947
 2112SOL    HW1 7235   0.662   0.643   0.017
 2112SOL    HW2 7236   0.694   0.519   6.941
 2113SOL     OW 7237   0.239   1.080   4.910
 2113SOL    HW1 7238   0.265   1.093   5.006
 2113SOL    HW2 7239   0.290   1.003   4.872
 2114SOL     OW 7240   1.259   1.597   6.225
 2114SOL    HW1 7241   1.248   1.677   6.285
 2114SOL    HW2 7242   1.320   1.531   6.267
 2115SOL     OW 7243   6.505   6.220   3.390
 2115SOL    HW1 7244   6.529   6.295   3.452
 2115SOL    HW2 7245   6.582   6.202   3.328
 2116SOL     OW 7246   1.113   1.997   0.026
 2116SOL    HW1 7247   1.154   1.970   0.113
 2116SOL    HW2 7248   1.067   2.086   0.037
 2117SOL     OW 7249   6.539   1.949   2.247
 2117SOL    HW1 7250   6.578   1.993   2.328
 2117SOL    HW2 7251   6.522   2.019   2.177
 2118SOL     OW 7252   6.962   2.874   2.441
 2118SOL    HW1 7253   6.868   2.906   2.452
 2118SOL    HW2 7254   6.992   2.830   2.525
 2119SOL     OW 7255   1.534   1.315   0.391
 2119SOL    HW1 7256   1.627   1.286   0.415
 2119SOL    HW2 7257   1.481   1.331   0.474
 2120SOL     OW 7258   6.105   1.292   1.192
 2120SOL    HW1 7259   6.041   1.292   1.116
 2120SOL    HW2 7260   6.086   1.369   1.253
 2121SOL     OW 7261   1.555   0.465   6.998
 2121SOL    HW1 7262   1.486   0.531   6.967
 2121SOL    HW2 7263   1.512   0.377   7.016
 2122SOL     OW 7264   6.329   1.263   4.032
 2122SOL    HW1 7265   6.282   1.348   4.009
 2122SOL    HW2 7266   6.271   1.207   4.091
 2123SOL     OW 7267   1.265   5.251   2.928
 2123SOL    HW1 7268   1.173   5.289   2.943
 2123SOL    HW2 7269   1.306   5.294   2.848
 2124SOL     OW 7270   4.123   3.786   6.115
 2124SOL    HW1 7271   4.139   3.884   6.125
 2124SOL    HW2 7272   4.205   3.743   6.079
 2125SOL     OW 7273   1.652   6.193   4.590
 2125SOL    HW1 7274   1.615   6.243   4.512
 2125SOL    HW2 7275   1.745   6.164   4.569
 2126SOL     OW 7276   2.814   4.195   0.047
 2126SOL    HW1 7277   2.792   4.249   6.991
 2126SOL    HW2 7278   2.914   4.185   0.054
 2127SOL     OW 7279   0.661   2.548   4.607
 2127SOL    HW1 7280   0.714   2.473   4.647
 2127SOL    HW2 7281   0.671   2.547   4.508
 2128SOL     OW 7282   5.251   3.263   1.458
 2128SOL    HW1 7283   5.321   3.333   1.442
 2128SOL    HW2 7284   5.292   3.184   1.504
 2129SOL     OW 7285   5.372   3.727   4.638
 2129SOL    HW1 7286   5.303   3.660   4.667
 2129SOL    HW2 7287   5.396   3.710   4.542
 2130SOL     OW 7288   3.008   1.258   1.539
 2130SOL    HW1 7289   3.084   1.322   1.529
 2130SOL    HW2 7290   2.934   1.284   1.476
 2131SOL     OW 7291   5.431   0.433   5.445
 2131SOL    HW1 7292   5.441   0.458   5.349
 2131SOL    HW2 7293   5.370   0.497   5.490
 2132SOL     OW 7294   2.256   2.360   0.708
 2132SOL    HW1 7295   2.274   2.406   0.795
 2132SOL    HW2 7296   2.261   2.261   0.721
 2133SOL     OW 7297   3.211   2.244   1.663
 2133SOL    HW1 7298   3.302   2.208   1.686
 2133SOL    HW2 7299   3.148   2.225   1.738
 2134SOL     OW 7300   2.147   6.653   4.651
 2134SOL    HW1 7301   2.141   6.736   4.596
 2134SOL    HW2 7302   2.216   6.664   4.722
 2135SOL     OW 7303   1.017   0.297   4.353
 2135SOL    HW1 7304   1.112   0.270   4.341
 2135SOL    HW2 7305   0.985   0.271   4.444
 2136SOL     OW 7306   1.201   4.554   3.792
 2136SOL    HW1 7307   1.239   4.646   3.782
 2136SOL    HW2 7308   1.161   4.524   3.706
 2137SOL     OW 7309   1.014   0.886   4.725
 2137SOL    HW1 7310   0.944   0.834   4.774
 2137SOL    HW2 7311   1.103   0.844   4.741
 2138SOL     OW 7312   0.273   2.803   0.289
 2138SOL    HW1 7313   0.244   2.722   0.339
 2138SOL    HW2 7314   0.371   2.796   0.267
 2139SOL     OW 7315   2.157   1.231   4.852
 2139SOL    HW1 7316   2.203   1.191   4.931
 2139SOL    HW2 7317   2.166   1.170   4.774
 2140SOL     OW 7318   2.104   5.920   4.225
 2140SOL    HW1 7319   2.107   5.957   4.132
 2140SOL    HW2 7320   2.010   5.924   4.260
 2141SOL     OW 7321   6.576   1.515   6.978
 2141SOL    HW1 7322   6.494   1.499   0.007
 2141SOL    HW2 7323   6.648   1.552   0.010
 2142SOL     OW 7324   2.820   1.516   3.264
 2142SOL    HW1 7325   2.751   1.587   3.247
 2142SOL    HW2 7326   2.872   1.500   3.180
 2143SOL     OW 7327   3.484   6.555   0.053
 2143SOL    HW1 7328   3.464   6.647   0.018
 2143SOL    HW2 7329   3.562   6.517   0.003
 2144SOL     OW 7330   6.952   1.209   2.708
 2144SOL    HW1 7331   6.862   1.239   2.738
 2144SOL    HW2 7332   6.996   1.157   2.782
 2145SOL     OW 7333   3.988   5.199   2.886
 2145SOL    HW1 7334   3.934   5.273   2.925
 2145SOL    HW2 7335   4.005   5.218   2.789
 2146SOL     OW 7336   3.834   3.159   1.384
 2146SOL    HW1 7337   3.757   3.126   1.329
 2146SOL    HW2 7338   3.811   3.151   1.481
 2147SOL     OW 7339   6.815   0.919   5.177
 2147SOL    HW1 7340   6.818   0.824   5.145
 2147SOL    HW2 7341   6.840   0.980   5.102
 2148SOL     OW 7342   4.873   3.090   2.947
 2148SOL    HW1 7343   4.965   3.051   2.934
 2148SOL    HW2 7344   4.817   3.025   2.998
 2149SOL     OW 7345   3.527   1.039   3.300
 2149SOL    HW1 7346   3.586   0.958   3.299
 2149SOL    HW2 7347   3.546   1.095   3.219
 2150SOL     OW 7348   3.684   1.389   2.462
 2150SOL    HW1 7349   3.610   1.372   2.397
 2150SOL    HW2 7350   3.673   1.479   2.503
 2151SOL     OW 7351   3.457   2.910   5.787
 2151SOL    HW1 7352   3.362   2.934   5.768
 2151SOL    HW2 7353   3.518   2.961   5.726
 2152SOL     OW 7354   6.348   6.014   1.911
 2152SOL    HW1 7355   6.379   6.064   1.993
 2152SOL    HW2 7356   6.279   6.068   1.863
 2153SOL     OW 7357   4.693   2.853   2.783
 2153SOL    HW1 7358   4.642   2.937   2.766
 2153SOL    HW2 7359   4.751   2.832   2.704
 2154SOL     OW 7360   4.377   5.820   5.248
 2154SOL    HW1 7361   4.415   5.863   5.166
 2154SOL    HW2 7362   4.406   5.724   5.251
 2155SOL     OW 7363   6.567   3.607   0.120
 2155SOL    HW1 7364   6.661   3.633   0.140
 2155SOL    HW2 7365   6.539   3.534   0.182
 2156SOL     OW 7366   1.066   1.364   1.665
 2156SOL    HW1 7367   1.008   1.302   1.612
 2156SOL    HW2 7368   1.009   1.433   1.709
 2157SOL     OW 7369   0.617   1.250   4.804
 2157SOL    HW1 7370   0.685   1.178   4.789
 2157SOL    HW2 7371   0.608   1.267   4.902
 2158SOL     OW 7372   4.752   6.022   2.491
 2158SOL    HW1 7373   4.828   6.063   2.542
 2158SOL    HW2 7374   4.717   6.087   2.424
 2159SOL     OW 7375   2.256   6.186   4.687
 2159SOL    HW1 7376   2.213   6.132   4.614
 2159SOL    HW2 7377   2.188   6.206   4.758
 2160SOL     OW 7378   2.912   3.495   0.392
 2160SOL    HW1 7379   2.998   3.507   0.441
 2160SOL    HW2 7380   2.858   3.422   0.435
 2161SOL     OW 7381   5.283   2.371   3.549
 2161SOL    HW1 7382   5.334   2.378   3.634
 2161SOL    HW2 7383   5.318   2.438   3.483
 2162SOL     OW 7384   1.083   1.602   6.814
 2162SOL    HW1 7385   1.030   1.661   6.876
 2162SOL    HW2 7386   1.073   1.634   6.720
 2163SOL     OW 7387   2.596   2.453   0.635
 2163SOL    HW1 7388   2.671   2.400   0.595
 2163SOL    HW2 7389   2.546   2.501   0.563
 2164SOL     OW 7390   1.056   0.024   1.405
 2164SOL    HW1 7391   0.978   7.013   1.355
 2164SOL    HW2 7392   1.023   0.079   1.482
 2165SOL     OW 7393   2.808   6.858   1.567
 2165SOL    HW1 7394   2.871   6.823   1.498
 2165SOL    HW2 7395   2.857   6.875   1.652
 2166SOL     OW 7396   6.296   1.908   6.914
 2166SOL    HW1 7397   6.299   2.001   6.878
 2166SOL    HW2 7398   6.385   1.883   6.951
 2167SOL     OW 7399   2.659   0.584   1.843
 2167SOL    HW1 7400   2.572   0.580   1.794
 2167SOL    HW2 7401   2.653   0.531   1.927
 2168SOL     OW 7402   6.064   5.586   4.676
 2168SOL    HW1 7403   6.031   5.512   4.735
 2168SOL    HW2 7404   6.005   5.666   4.687
 2169SOL     OW 7405   5.346   1.862   5.064
 2169SOL    HW1 7406   5.307   1.899   4.979
 2169SOL    HW2 7407   5.445   1.874   5.064
 2170SOL     OW 7408   5.518   4.767   4.669
 2170SOL    HW1 7409   5.480   4.776   4.577
 2170SOL    HW2 7410   5.474   4.833   4.730
 2171SOL     OW 7411   6.779   1.974   0.528
 2171SOL    HW1 7412   6.712   2.032   0.574
 2171SOL    HW2 7413   6.869   2.015   0.535
 2172SOL     OW 7414   2.515   0.504   0.805
 2172SOL    HW1 7415   2.591   0.443   0.828
 2172SOL    HW2 7416   2.462   0.464   0.730
 2173SOL     OW 7417   5.035   1.633   5.209
 2173SOL    HW1 7418   5.005   1.631   5.114
 2173SOL    HW2 7419   5.135   1.634   5.213
 2174SOL     OW 7420   1.347   5.249   4.785
 2174SOL    HW1 7421   1.305   5.289   4.703
 2174SOL    HW2 7422   1.424   5.306   4.814
 2175SOL     OW 7423   2.277   6.464   4.983
 2175SOL    HW1 7424   2.326   6.429   4.903
 2175SOL    HW2 7425   2.314   6.554   5.007
 2176SOL     OW 7426   2.080   2.227   1.977
 2176SOL    HW1 7427   1.988   2.189   1.966
 2176SOL    HW2 7428   2.114   2.204   2.068
 2177SOL     OW 7429   6.586   1.294   1.850
 2177SOL    HW1 7430   6.522   1.336   1.914
 2177SOL    HW2 7431   6.537   1.236   1.786
 2178SOL     OW 7432   0.791   5.178   0.520
 2178SOL    HW1 7433   0.874   5.156   0.572
 2178SOL    HW2 7434   0.802   5.147   0.425
 2179SOL     OW 7435   0.694   4.816   3.871
 2179SOL    HW1 7436   0.630   4.834   3.946
 2179SOL    HW2 7437   0.718   4.902   3.826
 2180SOL     OW 7438   4.105   3.117   2.076
 2180SOL    HW1 7439   4.131   3.205   2.036
 2180SOL    HW2 7440   4.185   3.073   2.115
 2181SOL     OW 7441   4.688   6.461   0.219
 2181SOL    HW1 7442   4.613   6.402   0.247
 2181SOL    HW2 7443   4.773   6.432   0.263
 2182SOL     OW 7444   5.911   1.918   0.510
 2182SOL    HW1 7445   5.876   1.924   0.604
 2182SOL    HW2 7446   5.844   1.872   0.452
 2183SOL     OW 7447   2.833   2.646   1.295
 2183SOL    HW1 7448   2.881   2.607   1.216
 2183SOL    HW2 7449   2.805   2.739   1.275
 2184SOL     OW 7450   4.233   3.000   6.120
 2184SOL    HW1 7451   4.325   2.968   6.143
 2184SOL    HW2 7452   4.223   3.006   6.021
 2185SOL     OW 7453   1.175   0.896   1.115
 2185SOL    HW1 7454   1.164   0.802   1.146
 2185SOL    HW2 7455   1.271   0.923   1.126
 2186SOL     OW 7456   0.124   5.148   2.638
 2186SOL    HW1 7457   0.140   5.051   2.619
 2186SOL    HW2 7458   0.042   5.179   2.588
 2187SOL     OW 7459   0.730   1.597   6.711
 2187SOL    HW1 7460   0.653   1.658   6.729
 2187SOL    HW2 7461   0.779   1.629   6.630
 2188SOL     OW 7462   5.128   0.761   3.141
 2188SOL    HW1 7463   5.081   0.820   3.206
 2188SOL    HW2 7464   5.206   0.809   3.101
 2189SOL     OW 7465   2.746   0.397   6.755
 2189SOL    HW1 7466   2.777   0.423   6.846
 2189SOL    HW2 7467   2.768   0.470   6.690
 2190SOL     OW 7468   5.183   1.836   1.322
 2190SOL    HW1 7469   5.131   1.920   1.314
 2190SOL    HW2 7470   5.131   1.761   1.281
 2191SOL     OW 7471   2.770   1.654   0.030
 2191SOL    HW1 7472   2.734   1.629   6.966
 2191SOL    HW2 7473   2.717   1.609   0.102
 2192SOL     OW 7474   4.065   5.224   3.612
 2192SOL    HW1 7475   4.028   5.217   3.705
 2192SOL    HW2 7476   4.087   5.320   3.592
 2193SOL     OW 7477   0.436   5.132   5.900
 2193SOL    HW1 7478   0.430   5.158   5.804
 2193SOL    HW2 7479   0.454   5.034   5.908
 2194SOL     OW 7480   3.443   0.062   1.409
 2194SOL    HW1 7481   3.508   7.015   1.392
 2194SOL    HW2 7482   3.352   0.023   1.423
 2195SOL     OW 7483   1.571   4.740   2.320
 2195SOL    HW1 7484   1.519   4.682   2.383
 2195SOL    HW2 7485   1.511   4.811   2.283
 2196SOL     OW 7486   4.170   3.159   7.015
 2196SOL    HW1 7487   4.115   3.154   6.932
 2196SOL    HW2 7488   4.115   3.196   0.064
 2197SOL     OW 7489   4.357   4.475   0.607
 2197SOL    HW1 7490   4.435   4.418   0.634
 2197SOL    HW2 7491   4.342   4.466   0.509
 2198SOL     OW 7492   5.993   4.533   0.323
 2198SOL    HW1 7493   5.970   4.595   0.248
 2198SOL    HW2 7494   5.946   4.445   0.310
 2199SOL     OW 7495   4.485   0.675   2.218
 2199SOL    HW1 7496   4.522   0.665   2.125
 2199SOL    HW2 7497   4.535   0.615   2.280
 2200SOL     OW 7498   2.358   6.918   4.148
 2200SOL    HW1 7499   2.310   6.846   4.099
 2200SOL    HW2 7500   2.369   6.998   4.088
 2201SOL     OW 7501   4.825   4.141   2.563
 2201SOL    HW1 7502   4.748   4.192   2.525
 2201SOL    HW2 7503   4.910   4.193   2.549
 2202SOL     OW 7504   4.936   5.606   3.594
 2202SOL    HW1 7505   4.868   5.536   3.574
 2202SOL    HW2 7506   4.936   5.626   3.692
 2203SOL     OW 7507   3.083   2.140   2.848
 2203SOL    HW1 7508   3.021   2.202   2.897
 2203SOL    HW2 7509   3.167   2.129   2.900
 2204SOL     OW 7510   3.076   2.654   1.475
 2204SOL    HW1 7511   2.995   2.618   1.430
 2204SOL    HW2 7512   3.063   2.652   1.574
 2205SOL     OW 7513   2.436   0.172   0.962
 2205SOL    HW1 7514   2.351   0.225   0.956
 2205SOL    HW2 7515   2.469   0.171   1.056
 2206SOL     OW 7516   2.019   3.195   0.104
 2206SOL    HW1 7517   2.026   3.100   0.137
 2206SOL    HW2 7518   2.016   3.195   0.004
 2207SOL     OW 7519   0.572   4.519   4.592
 2207SOL    HW1 7520   0.599   4.427   4.563
 2207SOL    HW2 7521   0.616   4.540   4.680
 2208SOL     OW 7522   6.830   4.647   2.070
 2208SOL    HW1 7523   6.913   4.603   2.036
 2208SOL    HW2 7524   6.849   4.743   2.089
 2209SOL     OW 7525   1.140   6.086   1.353
 2209SOL    HW1 7526   1.158   6.161   1.417
 2209SOL    HW2 7527   1.042   6.080   1.335
 2210SOL     OW 7528   1.182   5.849   4.051
 2210SOL    HW1 7529   1.258   5.784   4.052
 2210SOL    HW2 7530   1.189   5.907   3.969
 2211SOL     OW 7531   0.189   1.368   5.689
 2211SOL    HW1 7532   0.253   1.435   5.652
 2211SOL    HW2 7533   0.096   1.393   5.661
 2212SOL     OW 7534   2.120   6.962   6.628
 2212SOL    HW1 7535   2.181   6.925   6.698
 2212SOL    HW2 7536   2.113   6.897   6.553
 2213SOL     OW 7537   3.204   1.376   3.510
 2213SOL    HW1 7538   3.143   1.330   3.573
 2213SOL    HW2 7539   3.167   1.371   3.417
 2214SOL     OW 7540   4.204   0.281   5.314
 2214SOL    HW1 7541   4.284   0.225   5.335
 2214SOL    HW2 7542   4.199   0.297   5.215
 2215SOL     OW 7543   6.011   3.051   4.561
 2215SOL    HW1 7544   5.978   3.015   4.649
 2215SOL    HW2 7545   6.017   3.150   4.566
 2216SOL     OW 7546   2.280   0.545   1.817
 2216SOL    HW1 7547   2.217   0.623   1.813
 2216SOL    HW2 7548   2.332   0.549   1.903
 2217SOL     OW 7549   4.750   1.084   1.987
 2217SOL    HW1 7550   4.719   1.128   2.072
 2217SOL    HW2 7551   4.692   1.004   1.968
 2218SOL     OW 7552   1.215   6.688   2.502
 2218SOL    HW1 7553   1.229   6.721   2.595
 2218SOL    HW2 7554   1.278   6.613   2.483
 2219SOL     OW 7555   1.725   2.256   2.935
 2219SOL    HW1 7556   1.727   2.334   2.997
 2219SOL    HW2 7557   1.638   2.254   2.886
 2220SOL     OW 7558   1.032   0.456   1.272
 2220SOL    HW1 7559   0.955   0.463   1.336
 2220SOL    HW2 7560   1.023   0.373   1.218
 2221SOL     OW 7561   6.891   1.269   0.159
 2221SOL    HW1 7562   6.853   1.346   0.212
 2221SOL    HW2 7563   6.977   1.239   0.201
 2222SOL     OW 7564   5.906   5.886   2.898
 2222SOL    HW1 7565   5.813   5.910   2.872
 2222SOL    HW2 7566   5.914   5.887   2.998
 2223SOL     OW 7567   6.199   5.135   1.393
 2223SOL    HW1 7568   6.264   5.205   1.364
 2223SOL    HW2 7569   6.126   5.177   1.447
 2224SOL     OW 7570   0.626   5.098   2.174
 2224SOL    HW1 7571   0.666   5.174   2.123
 2224SOL    HW2 7572   0.565   5.134   2.245
 2225SOL     OW 7573   0.302   4.377   1.043
 2225SOL    HW1 7574   0.221   4.435   1.049
 2225SOL    HW2 7575   0.288   4.293   1.096
 2226SOL     OW 7576   4.157   3.833   1.493
 2226SOL    HW1 7577   4.138   3.872   1.583
 2226SOL    HW2 7578   4.248   3.864   1.462
 2227SOL     OW 7579   0.932   3.114   4.526
 2227SOL    HW1 7580   0.896   3.155   4.442
 2227SOL    HW2 7581   0.978   3.185   4.580
 2228SOL     OW 7582   2.903   4.891   4.631
 2228SOL    HW1 7583   2.813   4.850   4.619
 2228SOL    HW2 7584   2.903   4.984   4.595
 2229SOL     OW 7585   5.450   6.860   3.006
 2229SOL    HW1 7586   5.438   6.779   3.063
 2229SOL    HW2 7587   5.366   6.877   2.955
 2230SOL     OW 7588   2.907   5.313   1.050
 2230SOL    HW1 7589   2.875   5.393   0.999
 2230SOL    HW2 7590   3.007   5.308   1.045
 2231SOL     OW 7591   2.368   5.776   1.293
 2231SOL    HW1 7592   2.424   5.708   1.339
 2231SOL    HW2 7593   2.384   5.771   1.194
 2232SOL     OW 7594   6.263   2.811   3.647
 2232SOL    HW1 7595   6.330   2.754   3.599
 2232SOL    HW2 7596   6.196   2.846   3.582
 2233SOL     OW 7597   3.035   1.889   6.863
 2233SOL    HW1 7598   3.020   1.792   6.883
 2233SOL    HW2 7599   3.132   1.909   6.867
 2234SOL     OW 7600   3.130   2.102   1.441
 2234SOL    HW1 7601   3.155   2.165   1.514
 2234SOL    HW2 7602   3.206   2.040   1.423
 2235SOL     OW 7603   2.157   0.470   1.373
 2235SOL    HW1 7604   2.064   0.507   1.370
 2235SOL    HW2 7605   2.168   0.401   1.302
 2236SOL     OW 7606   6.860   3.886   6.462
 2236SOL    HW1 7607   6.799   3.916   6.388
 2236SOL    HW2 7608   6.806   3.871   6.545
 2237SOL     OW 7609   6.380   2.902   4.067
 2237SOL    HW1 7610   6.289   2.878   4.100
 2237SOL    HW2 7611   6.424   2.965   4.131
 2238SOL     OW 7612   6.977   5.937   2.080
 2238SOL    HW1 7613   6.938   5.857   2.033
 2238SOL    HW2 7614   6.908   6.008   2.089
 2239SOL     OW 7615   5.570   5.479   3.024
 2239SOL    HW1 7616   5.545   5.471   2.927
 2239SOL    HW2 7617   5.510   5.544   3.069
 2240SOL     OW 7618   5.995   3.768   1.871
 2240SOL    HW1 7619   6.012   3.703   1.796
 2240SOL    HW2 7620   5.919   3.827   1.847
 2241SOL     OW 7621   0.937   6.895   2.012
 2241SOL    HW1 7622   0.907   6.929   2.101
 2241SOL    HW2 7623   0.897   6.804   1.996
 2242SOL     OW 7624   4.780   2.224   2.633
 2242SOL    HW1 7625   4.824   2.308   2.601
 2242SOL    HW2 7626   4.726   2.185   2.558
 2243SOL     OW 7627   2.887   6.167   5.531
 2243SOL    HW1 7628   2.830   6.089   5.555
 2243SOL    HW2 7629   2.968   6.135   5.481
 2244SOL     OW 7630   2.374   0.790   5.296
 2244SOL    HW1 7631   2.410   0.836   5.215
 2244SOL    HW2 7632   2.345   0.697   5.271
 2245SOL     OW 7633   0.351   1.839   2.357
 2245SOL    HW1 7634   0.300   1.758   2.387
 2245SOL    HW2 7635   0.357   1.840   2.257
 2246SOL     OW 7636   1.529   4.478   4.531
 2246SOL    HW1 7637   1.596   4.537   4.486
 2246SOL    HW2 7638   1.558   4.461   4.626
 2247SOL     OW 7639   1.921   1.449   5.612
 2247SOL    HW1 7640   1.957   1.413   5.526
 2247SOL    HW2 7641   1.929   1.549   5.612
 2248SOL     OW 7642   4.520   4.303   5.245
 2248SOL    HW1 7643   4.436   4.308   5.190
 2248SOL    HW2 7644   4.595   4.269   5.189
 2249SOL     OW 7645   4.472   5.448   4.726
 2249SOL    HW1 7646   4.539   5.478   4.657
 2249SOL    HW2 7647   4.388   5.419   4.680
 2250SOL     OW 7648   5.519   5.334   0.573
 2250SOL    HW1 7649   5.451   5.372   0.636
 2250SOL    HW2 7650   5.552   5.407   0.512
 2251SOL     OW 7651   0.069   0.396   6.262
 2251SOL    HW1 7652   0.140   0.397   6.192
 2251SOL    HW2 7653   0.037   0.490   6.279
 2252SOL     OW 7654   3.871   1.629   5.490
 2252SOL    HW1 7655   3.804   1.665   5.425
 2252SOL    HW2 7656   3.829   1.620   5.580
 2253SOL     OW 7657   1.371   2.404   6.029
 2253SOL    HW1 7658   1.285   2.437   6.069
 2253SOL    HW2 7659   1.444   2.469   6.050
 2254SOL     OW 7660   1.766   3.653   5.578
 2254SOL    HW1 7661   1.835   3.722   5.555
 2254SOL    HW2 7662   1.739   3.663   5.674
 2255SOL     OW 7663   5.373   2.898   0.908
 2255SOL    HW1 7664   5.308   2.832   0.871
 2255SOL    HW2 7665   5.401   2.870   0.999
 2256SOL     OW 7666   3.466   4.947   2.131
 2256SOL    HW1 7667   3.414   4.995   2.060
 2256SOL    HW2 7668   3.520   4.874   2.089
 2257SOL     OW 7669   2.122   3.453   3.849
 2257SOL    HW1 7670   2.134   3.356   3.870
 2257SOL    HW2 7671   2.130   3.507   3.933
 2258SOL     OW 7672   2.333   5.389   5.355
 2258SOL    HW1 7673   2.338   5.289   5.358
 2258SOL    HW2 7674   2.423   5.427   5.376
 2259SOL     OW 7675   6.033   3.337   6.329
 2259SOL    HW1 7676   6.119   3.293   6.356
 2259SOL    HW2 7677   6.044   3.436   6.331
 2260SOL     OW 7678   4.751   4.131   0.797
 2260SOL    HW1 7679   4.794   4.108   0.710
 2260SOL    HW2 7680   4.757   4.052   0.859
 2261SOL     OW 7681   3.716   6.888   5.112
 2261SOL    HW1 7682   3.756   6.818   5.052
 2261SOL    HW2 7683   3.723   6.858   5.207
 2262SOL     OW 7684   3.278   1.842   3.471
 2262SOL    HW1 7685   3.300   1.752   3.508
 2262SOL    HW2 7686   3.331   1.912   3.519
 2263SOL     OW 7687   0.315   4.113   5.914
 2263SOL    HW1 7688   0.399   4.104   5.968
 2263SOL    HW2 7689   0.298   4.027   5.866
 2264SOL     OW 7690   3.966   3.819   3.961
 2264SOL    HW1 7691   4.029   3.742   3.950
 2264SOL    HW2 7692   3.921   3.813   4.050
 2265SOL     OW 7693   0.163   0.033   2.619
 2265SOL    HW1 7694   0.245   0.091   2.617
 2265SOL    HW2 7695   0.103   0.058   2.542
 2266SOL     OW 7696   5.765   6.978   7.011
 2266SOL    HW1 7697   5.833   6.928   0.038
 2266SOL    HW2 7698   5.730   0.028   0.039
 2267SOL     OW 7699   5.329   1.614   5.200
 2267SOL    HW1 7700   5.311   1.700   5.151
 2267SOL    HW2 7701   5.412   1.623   5.255
 2268SOL     OW 7702   6.068   5.120   6.953
 2268SOL    HW1 7703   6.101   5.121   6.858
 2268SOL    HW2 7704   6.114   5.192   7.004
 2269SOL     OW 7705   0.453   5.762   4.210
 2269SOL    HW1 7706   0.392   5.715   4.273
 2269SOL    HW2 7707   0.534   5.706   4.194
 2270SOL     OW 7708   3.980   3.251   2.498
 2270SOL    HW1 7709   3.941   3.288   2.414
 2270SOL    HW2 7710   4.044   3.317   2.537
 2271SOL     OW 7711   0.313   4.232   3.128
 2271SOL    HW1 7712   0.310   4.331   3.111
 2271SOL    HW2 7713   0.370   4.214   3.207
 2272SOL     OW 7714   4.720   1.948   6.168
 2272SOL    HW1 7715   4.653   2.011   6.208
 2272SOL    HW2 7716   4.721   1.959   6.069
 2273SOL     OW 7717   0.521   1.191   3.915
 2273SOL    HW1 7718   0.508   1.224   3.821
 2273SOL    HW2 7719   0.496   1.263   3.979
 2274SOL     OW 7720   1.346   3.725   2.891
 2274SOL    HW1 7721   1.384   3.743   2.982
 2274SOL    HW2 7722   1.252   3.759   2.887
 2275SOL     OW 7723   4.957   6.097   3.523
 2275SOL    HW1 7724   4.989   6.089   3.429
 2275SOL    HW2 7725   4.862   6.064   3.529
 2276SOL     OW 7726   3.337   5.370   1.541
 2276SOL    HW1 7727   3.331   5.424   1.457
 2276SOL    HW2 7728   3.353   5.431   1.619
 2277SOL     OW 7729   3.552   3.403   0.865
 2277SOL    HW1 7730   3.523   3.482   0.811
 2277SOL    HW2 7731   3.500   3.322   0.836
 2278SOL     OW 7732   5.430   6.444   1.081
 2278SOL    HW1 7733   5.334   6.418   1.084
 2278SOL    HW2 7734   5.458   6.481   1.169
 2279SOL     OW 7735   5.070   4.072   5.358
 2279SOL    HW1 7736   5.049   3.980   5.326
 2279SOL    HW2 7737   5.167   4.080   5.380
 2280SOL     OW 7738   5.597   0.048   6.114
 2280SOL    HW1 7739   5.628   0.121   6.053
 2280SOL    HW2 7740   5.515   0.006   6.075
 2281SOL     OW 7741   3.333   2.655   0.677
 2281SOL    HW1 7742   3.239   2.658   0.641
 2281SOL    HW2 7743   3.374   2.746   0.671
 2282SOL     OW 7744   4.193   5.707   2.315
 2282SOL    HW1 7745   4.199   5.613   2.284
 2282SOL    HW2 7746   4.231   5.714   2.408
 2283SOL     OW 7747   6.806   3.908   2.050
 2283SOL    HW1 7748   6.840   3.816   2.069
 2283SOL    HW2 7749   6.882   3.969   2.030
 2284SOL     OW 7750   2.576   2.418   2.156
 2284SOL    HW1 7751   2.529   2.376   2.234
 2284SOL    HW2 7752   2.670   2.384   2.151
 2285SOL     OW 7753   1.912   3.816   6.343
 2285SOL    HW1 7754   1.962   3.730   6.343
 2285SOL    HW2 7755   1.891   3.842   6.438
 2286SOL     OW 7756   5.423   6.840   4.498
 2286SOL    HW1 7757   5.351   6.848   4.567
 2286SOL    HW2 7758   5.513   6.839   4.543
 2287SOL     OW 7759   2.148   2.766   1.340
 2287SOL    HW1 7760   2.145   2.865   1.354
 2287SOL    HW2 7761   2.225   2.727   1.390
 2288SOL     OW 7762   1.859   5.945   4.306
 2288SOL    HW1 7763   1.771   5.958   4.260
 2288SOL    HW2 7764   1.846   5.885   4.385
 2289SOL     OW 7765   4.589   2.007   0.536
 2289SOL    HW1 7766   4.503   1.964   0.562
 2289SOL    HW2 7767   4.596   2.009   0.436
 2290SOL     OW 7768   3.335   3.348   3.257
 2290SOL    HW1 7769   3.388   3.312   3.180
 2290SOL    HW2 7770   3.397   3.388   3.325
 2291SOL     OW 7771   0.872   2.731   6.298
 2291SOL    HW1 7772   0.820   2.816   6.290
 2291SOL    HW2 7773   0.851   2.672   6.220
 2292SOL     OW 7774   5.271   1.552   2.641
 2292SOL    HW1 7775   5.222   1.639   2.641
 2292SOL    HW2 7776   5.232   1.492   2.570
 2293SOL     OW 7777   0.405   0.346   0.408
 2293SOL    HW1 7778   0.382   0.441   0.427
 2293SOL    HW2 7779   0.346   0.311   0.335
 2294SOL     OW 7780   6.476   1.075   5.693
 2294SOL    HW1 7781   6.469   1.046   5.597
 2294SOL    HW2 7782   6.415   1.019   5.749
 2295SOL     OW 7783   5.917   5.973   1.066
 2295SOL    HW1 7784   5.966   5.985   0.979
 2295SOL    HW2 7785   5.866   6.056   1.087
 2296SOL     OW 7786   3.435   4.921   4.125
 2296SOL    HW1 7787   3.529   4.893   4.146
 2296SOL    HW2 7788   3.433   5.018   4.100
 2297SOL     OW 7789   4.757   3.619   5.604
 2297SOL    HW1 7790   4.746   3.701   5.660
 2297SOL    HW2 7791   4.835   3.566   5.638
 2298SOL     OW 7792   3.662   3.887   4.663
 2298SOL    HW1 7793   3.733   3.835   4.710
 2298SOL    HW2 7794   3.700   3.974   4.630
 2299SOL     OW 7795   5.682   2.836   4.730
 2299SOL    HW1 7796   5.637   2.878   4.808
 2299SOL    HW2 7797   5.778   2.863   4.728
 2300SOL     OW 7798   4.835   6.701   2.256
 2300SOL    HW1 7799   4.927   6.675   2.283
 2300SOL    HW2 7800   4.782   6.620   2.231
 2301SOL     OW 7801   3.986   3.034   4.731
 2301SOL    HW1 7802   4.037   3.118   4.710
 2301SOL    HW2 7803   4.017   2.996   4.818
 2302SOL     OW 7804   6.259   2.809   6.118
 2302SOL    HW1 7805   6.259   2.712   6.093
 2302SOL    HW2 7806   6.350   2.847   6.101
 2303SOL     OW 7807   2.986   2.382   0.054
 2303SOL    HW1 7808   3.001   2.463   0.111
 2303SOL    HW2 7809   2.895   2.345   0.073
 2304SOL     OW 7810   6.772   6.330   2.863
 2304SOL    HW1 7811   6.718   6.287   2.791
 2304SOL    HW2 7812   6.767   6.275   2.946
 2305SOL     OW 7813   2.996   0.177   4.421
 2305SOL    HW1 7814   2.980   0.160   4.518
 2305SOL    HW2 7815   2.971   0.272   4.399
 2306SOL     OW 7816   1.445   4.868   4.688
 2306SOL    HW1 7817   1.358   4.818   4.698
 2306SOL    HW2 7818   1.483   4.849   4.598
 2307SOL     OW 7819   6.506   3.385   5.633
 2307SOL    HW1 7820   6.518   3.443   5.552
 2307SOL    HW2 7821   6.455   3.303   5.607
 2308SOL     OW 7822   1.673   4.971   2.150
 2308SOL    HW1 7823   1.768   4.944   2.137
 2308SOL    HW2 7824   1.664   5.069   2.134
 2309SOL     OW 7825   1.803   0.168   4.947
 2309SOL    HW1 7826   1.845   0.209   4.866
 2309SOL    HW2 7827   1.704   0.176   4.941
 2310SOL     OW 7828   4.196   0.377   1.169
 2310SOL    HW1 7829   4.203   0.436   1.089
 2310SOL    HW2 7830   4.251   0.294   1.154
 2311SOL     OW 7831   2.772   5.421   1.267
 2311SOL    HW1 7832   2.839   5.478   1.315
 2311SOL    HW2 7833   2.818   5.372   1.193
 2312SOL     OW 7834   3.361   5.130   1.884
 2312SOL    HW1 7835   3.443   5.078   1.857
 2312SOL    HW2 7836   3.292   5.124   1.812
 2313SOL     OW 7837   5.484   5.699   1.191
 2313SOL    HW1 7838   5.499   5.798   1.194
 2313SOL    HW2 7839   5.461   5.672   1.097
 2314SOL     OW 7840   1.717   4.650   4.342
 2314SOL    HW1 7841   1.814   4.662   4.364
 2314SOL    HW2 7842   1.708   4.596   4.259
 2315SOL     OW 7843   4.529   2.767   6.277
 2315SOL    HW1 7844   4.495   2.712   6.353
 2315SOL    HW2 7845   4.569   2.852   6.312
 2316SOL     OW 7846   6.029   4.173   2.146
 2316SOL    HW1 7847   6.094   4.243   2.175
 2316SOL    HW2 7848   6.048   4.148   2.051
 2317SOL     OW 7849   0.483   5.904   3.551
 2317SOL    HW1 7850   0.543   5.876   3.476
 2317SOL    HW2 7851   0.456   5.823   3.604
 2318SOL     OW 7852   6.379   1.048   4.258
 2318SOL    HW1 7853   6.306   1.058   4.326
 2318SOL    HW2 7854   6.411   1.139   4.230
 2319SOL     OW 7855   0.876   5.054   2.900
 2319SOL    HW1 7856   0.897   4.980   2.964
 2319SOL    HW2 7857   0.782   5.044   2.869
 2320SOL     OW 7858   6.652   5.154   5.307
 2320SOL    HW1 7859   6.669   5.056   5.303
 2320SOL    HW2 7860   6.724   5.198   5.362
 2321SOL     OW 7861   3.816   5.098   5.035
 2321SOL    HW1 7862   3.838   5.168   4.966
 2321SOL    HW2 7863   3.749   5.035   4.997
 2322SOL     OW 7864   3.382   1.309   5.731
 2322SOL    HW1 7865   3.378   1.275   5.637
 2322SOL    HW2 7866   3.402   1.233   5.793
 2323SOL     OW 7867   5.069   3.897   1.991
 2323SOL    HW1 7868   5.078   3.948   2.076
 2323SOL    HW2 7869   5.142   3.829   1.985
 2324SOL     OW 7870   0.021   5.293   3.283
 2324SOL    HW1 7871   6.982   5.357   3.243
 2324SOL    HW2 7872   7.003   5.242   3.356
 2325SOL     OW 7873   0.371   2.161   0.799
 2325SOL    HW1 7874   0.436   2.095   0.762
 2325SOL    HW2 7875   0.279   2.122   0.798
 2326SOL     OW 7876   1.503   4.124   6.770
 2326SOL    HW1 7877   1.471   4.039   6.729
 2326SOL    HW2 7878   1.451   4.142   6.854
 2327SOL     OW 7879   5.465   1.983   3.701
 2327SOL    HW1 7880   5.366   1.976   3.686
 2327SOL    HW2 7881   5.511   2.007   3.616
 2328SOL     OW 7882   5.875   6.731   3.967
 2328SOL    HW1 7883   5.800   6.674   3.933
 2328SOL    HW2 7884   5.876   6.818   3.918
 2329SOL     OW 7885   6.715   5.880   3.303
 2329SOL    HW1 7886   6.617   5.898   3.292
 2329SOL    HW2 7887   6.751   5.939   3.376
 2330SOL     OW 7888   0.337   3.595   1.588
 2330SOL    HW1 7889   0.339   3.524   1.518
 2330SOL    HW2 7890   0.243   3.605   1.623
 2331SOL     OW 7891   0.700   5.204   6.080
 2331SOL    HW1 7892   0.625   5.238   6.024
 2331SOL    HW2 7893   0.761   5.147   6.023
 2332SOL     OW 7894   5.344   2.660   4.482
 2332SOL    HW1 7895   5.427   2.715   4.481
 2332SOL    HW2 7896   5.268   2.713   4.520
 2333SOL     OW 7897   2.491   4.459   3.449
 2333SOL    HW1 7898   2.517   4.431   3.542
 2333SOL    HW2 7899   2.456   4.379   3.399
 2334SOL     OW 7900   3.238   0.331   0.709
 2334SOL    HW1 7901   3.270   0.243   0.744
 2334SOL    HW2 7902   3.227   0.395   0.786
 2335SOL     OW 7903   4.818   5.130   4.527
 2335SOL    HW1 7904   4.822   5.206   4.462
 2335SOL    HW2 7905   4.747   5.149   4.595
 2336SOL     OW 7906   4.107   2.616   5.761
 2336SOL    HW1 7907   4.082   2.650   5.852
 2336SOL    HW2 7908   4.046   2.542   5.735
 2337SOL     OW 7909   5.889   0.559   4.328
 2337SOL    HW1 7910   5.789   0.550   4.333
 2337SOL    HW2 7911   5.932   0.497   4.393
 2338SOL     OW 7912   1.760   0.064   6.777
 2338SOL    HW1 7913   1.852   0.102   6.766
 2338SOL    HW2 7914   1.706   0.085   6.696
 2339SOL     OW 7915   4.352   4.032   6.329
 2339SOL    HW1 7916   4.307   4.097   6.391
 2339SOL    HW2 7917   4.429   3.990   6.376
 2340SOL     OW 7918   3.625   5.405   3.988
 2340SOL    HW1 7919   3.638   5.399   3.889
 2340SOL    HW2 7920   3.590   5.496   4.012
 2341SOL     OW 7921   6.107   5.194   6.272
 2341SOL    HW1 7922   6.098   5.096   6.252
 2341SOL    HW2 7923   6.025   5.225   6.320
 2342SOL     OW 7924   6.446   0.254   5.182
 2342SOL    HW1 7925   6.488   0.220   5.266
 2342SOL    HW2 7926   6.389   0.333   5.202
 2343SOL     OW 7927   1.036   0.001   0.326
 2343SOL    HW1 7928   0.959   6.964   0.314
 2343SOL    HW2 7929   1.063   0.038   0.237
 2344SOL     OW 7930   2.213   1.514   3.091
 2344SOL    HW1 7931   2.266   1.530   3.174
 2344SOL    HW2 7932   2.170   1.424   3.095
 2345SOL     OW 7933   1.683   1.322   3.289
 2345SOL    HW1 7934   1.666   1.347   3.384
 2345SOL    HW2 7935   1.599   1.287   3.248
 2346SOL     OW 7936   5.469   3.408   5.575
 2346SOL    HW1 7937   5.442   3.467   5.651
 2346SOL    HW2 7938   5.402   3.335   5.563
 2347SOL     OW 7939   1.311   3.741   0.745
 2347SOL    HW1 7940   1.279   3.795   0.667
 2347SOL    HW2 7941   1.281   3.785   0.830
 2348SOL     OW 7942   2.893   5.765   1.680
 2348SOL    HW1 7943   2.973   5.789   1.734
 2348SOL    HW2 7944   2.869   5.669   1.698
 2349SOL     OW 7945   4.357   4.715   5.807
 2349SOL    HW1 7946   4.385   4.620   5.818
 2349SOL    HW2 7947   4.438   4.774   5.808
 2350SOL     OW 7948   1.997   5.861   5.322
 2350SOL    HW1 7949   2.075   5.803   5.345
 2350SOL    HW2 7950   1.984   5.862   5.223
 2351SOL     OW 7951   2.366   5.761   3.368
 2351SOL    HW1 7952   2.441   5.702   3.400
 2351SOL    HW2 7953   2.371   5.771   3.269
 2352SOL     OW 7954   6.339   3.998   1.929
 2352SOL    HW1 7955   6.431   3.990   1.891
 2352SOL    HW2 7956   6.335   4.077   1.990
 2353SOL     OW 7957   3.071   3.614   6.565
 2353SOL    HW1 7958   3.002   3.564   6.514
 2353SOL    HW2 7959   3.061   3.712   6.548
 2354SOL     OW 7960   3.939   2.447   1.666
 2354SOL    HW1 7961   3.852   2.487   1.695
 2354SOL    HW2 7962   3.975   2.389   1.738
 2355SOL     OW 7963   6.625   0.858   1.464
 2355SOL    HW1 7964   6.532   0.896   1.464
 2355SOL    HW2 7965   6.680   0.903   1.534
 2356SOL     OW 7966   2.800   5.249   3.751
 2356SOL    HW1 7967   2.728   5.213   3.692
 2356SOL    HW2 7968   2.793   5.207   3.842
 2357SOL     OW 7969   6.380   4.353   0.689
 2357SOL    HW1 7970   6.339   4.261   0.689
 2357SOL    HW2 7971   6.311   4.420   0.662
 2358SOL     OW 7972   3.771   1.918   5.123
 2358SOL    HW1 7973   3.837   1.943   5.053
 2358SOL    HW2 7974   3.710   1.995   5.140
 2359SOL     OW 7975   1.752   1.910   5.820
 2359SOL    HW1 7976   1.845   1.894   5.853
 2359SOL    HW2 7977   1.754   1.956   5.731
 2360SOL     OW 7978   3.492   4.898   6.726
 2360SOL    HW1 7979   3.529   4.893   6.634
 2360SOL    HW2 7980   3.564   4.927   6.790
 2361SOL     OW 7981   4.448   5.425   2.005
 2361SOL    HW1 7982   4.547   5.419   2.013
 2361SOL    HW2 7983   4.423   5.453   1.912
 2362SOL     OW 7984   4.271   5.067   3.836
 2362SOL    HW1 7985   4.307   5.053   3.744
 2362SOL    HW2 7986   4.306   5.153   3.873
 2363SOL     OW 7987   1.831   4.065   0.330
 2363SOL    HW1 7988   1.839   4.033   0.424
 2363SOL    HW2 7989   1.738   4.097   0.313
 2364SOL     OW 7990   3.460   1.250   2.840
 2364SOL    HW1 7991   3.466   1.166   2.786
 2364SOL    HW2 7992   3.418   1.322   2.784
 2365SOL     OW 7993   4.600   4.373   3.429
 2365SOL    HW1 7994   4.646   4.306   3.370
 2365SOL    HW2 7995   4.573   4.452   3.373
 2366SOL     OW 7996   2.974   4.867   4.911
 2366SOL    HW1 7997   2.972   4.871   4.811
 2366SOL    HW2 7998   2.909   4.798   4.943
 2367SOL     OW 7999   5.705   5.268   6.186
 2367SOL    HW1 8000   5.793   5.317   6.184
 2367SOL    HW2 8001   5.658   5.281   6.099
 2368SOL     OW 8002   5.870   6.946   4.784
 2368SOL    HW1 8003   5.842   0.007   4.825
 2368SOL    HW2 8004   5.947   6.909   4.836
 2369SOL     OW 8005   3.275   2.166   4.272
 2369SOL    HW1 8006   3.358   2.176   4.327
 2369SOL    HW2 8007   3.202   2.221   4.312
 2370SOL     OW 8008   6.019   2.441   1.904
 2370SOL    HW1 8009   5.939   2.456   1.845
 2370SOL    HW2 8010   6.101   2.437   1.848
 2371SOL     OW 8011   0.682   6.210   2.887
 2371SOL    HW1 8012   0.774   6.179   2.861
 2371SOL    HW2 8013   0.667   6.303   2.855
 2372SOL     OW 8014   6.095   6.577   6.757
 2372SOL    HW1 8015   6.127   6.485   6.736
 2372SOL    HW2 8016   5.996   6.576   6.771
 2373SOL     OW 8017   6.478   5.208   6.154
 2373SOL    HW1 8018   6.389   5.229   6.112
 2373SOL    HW2 8019   6.480   5.245   6.247
 2374SOL     OW 8020   6.611   6.107   2.783
 2374SOL    HW1 8021   6.518   6.142   2.771
 2374SOL    HW2 8022   6.607   6.011   2.814
 2375SOL     OW 8023   1.600   0.675   3.996
 2375SOL    HW1 8024   1.595   0.690   3.897
 2375SOL    HW2 8025   1.637   0.584   4.014
 2376SOL     OW 8026   5.486   1.890   3.252
 2376SOL    HW1 8027   5.437   1.973   3.227
 2376SOL    HW2 8028   5.443   1.811   3.209
 2377SOL     OW 8029   4.536   4.172   5.989
 2377SOL    HW1 8030   4.596   4.220   5.925
 2377SOL    HW2 8031   4.467   4.121   5.938
 2378SOL     OW 8032   6.809   0.828   0.214
 2378SOL    HW1 8033   6.743   0.892   0.174
 2378SOL    HW2 8034   6.832   0.758   0.147
 2379SOL     OW 8035   6.564   5.098   1.930
 2379SOL    HW1 8036   6.486   5.155   1.957
 2379SOL    HW2 8037   6.593   5.123   1.838
 2380SOL     OW 8038   5.012   6.095   5.919
 2380SOL    HW1 8039   5.100   6.144   5.923
 2380SOL    HW2 8040   4.940   6.153   5.958
 2381SOL     OW 8041   2.201   4.768   4.118
 2381SOL    HW1 8042   2.186   4.792   4.023
 2381SOL    HW2 8043   2.205   4.668   4.127
 2382SOL     OW 8044   6.954   5.641   2.731
 2382SOL    HW1 8045   6.991   5.561   2.684
 2382SOL    HW2 8046   6.856   5.629   2.745
 2383SOL     OW 8047   5.419   4.878   6.194
 2383SOL    HW1 8048   5.391   4.973   6.209
 2383SOL    HW2 8049   5.371   4.819   6.259
 2384SOL     OW 8050   0.432   2.130   2.904
 2384SOL    HW1 8051   0.455   2.062   2.834
 2384SOL    HW2 8052   0.332   2.134   2.915
 2385SOL     OW 8053   0.643   1.233   0.533
 2385SOL    HW1 8054   0.668   1.219   0.629
 2385SOL    HW2 8055   0.717   1.200   0.474
 2386SOL     OW 8056   6.218   6.148   4.272
 2386SOL    HW1 8057   6.302   6.097   4.291
 2386SOL    HW2 8058   6.139   6.093   4.298
 2387SOL     OW 8059   1.199   1.519   3.410
 2387SOL    HW1 8060   1.274   1.481   3.465
 2387SOL    HW2 8061   1.179   1.612   3.442
 2388SOL     OW 8062   0.061   2.521   5.413
 2388SOL    HW1 8063   0.116   2.593   5.456
 2388SOL    HW2 8064   0.114   2.479   5.339
 2389SOL     OW 8065   4.263   4.657   4.021
 2389SOL    HW1 8066   4.329   4.582   4.014
 2389SOL    HW2 8067   4.240   4.690   3.929
 2390SOL     OW 8068   4.717   3.164   5.889
 2390SOL    HW1 8069   4.745   3.249   5.845
 2390SOL    HW2 8070   4.656   3.114   5.828
 2391SOL     OW 8071   3.194   3.978   5.683
 2391SOL    HW1 8072   3.155   3.957   5.772
 2391SOL    HW2 8073   3.121   3.979   5.614
 2392SOL     OW 8074   4.686   4.391   5.442
 2392SOL    HW1 8075   4.630   4.341   5.376
 2392SOL    HW2 8076   4.765   4.336   5.466
 2393SOL     OW 8077   4.224   4.502   1.134
 2393SOL    HW1 8078   4.270   4.422   1.171
 2393SOL    HW2 8079   4.244   4.510   1.037
 2394SOL     OW 8080   0.666   2.481   3.749
 2394SOL    HW1 8081   0.656   2.581   3.751
 2394SOL    HW2 8082   0.641   2.444   3.838
 2395SOL     OW 8083   0.730   2.504   4.324
 2395SOL    HW1 8084   0.780   2.419   4.308
 2395SOL    HW2 8085   0.769   2.577   4.268
 2396SOL     OW 8086   0.583   0.452   5.434
 2396SOL    HW1 8087   0.543   0.529   5.384
 2396SOL    HW2 8088   0.670   0.426   5.392
 2397SOL     OW 8089   0.002   4.012   5.358
 2397SOL    HW1 8090   6.944   3.960   5.366
 2397SOL    HW2 8091   0.038   4.004   5.265
 2398SOL     OW 8092   3.738   6.471   4.458
 2398SOL    HW1 8093   3.760   6.461   4.361
 2398SOL    HW2 8094   3.696   6.561   4.473
 2399SOL     OW 8095   3.394   2.076   3.652
 2399SOL    HW1 8096   3.481   2.114   3.683
 2399SOL    HW2 8097   3.330   2.073   3.729
 2400SOL     OW 8098   1.804   3.990   0.594
 2400SOL    HW1 8099   1.766   4.018   0.682
 2400SOL    HW2 8100   1.770   3.899   0.570
 2401SOL     OW 8101   1.798   6.915   6.040
 2401SOL    HW1 8102   1.721   6.928   5.976
 2401SOL    HW2 8103   1.818   7.002   6.085
 2402SOL     OW 8104   1.367   4.371   1.570
 2402SOL    HW1 8105   1.417   4.287   1.588
 2402SOL    HW2 8106   1.328   4.367   1.478
 2403SOL     OW 8107   4.077   3.173   3.476
 2403SOL    HW1 8108   4.167   3.139   3.449
 2403SOL    HW2 8109   4.047   3.126   3.559
 2404SOL     OW 8110   6.255   1.017   0.863
 2404SOL    HW1 8111   6.243   0.918   0.871
 2404SOL    HW2 8112   6.339   1.045   0.911
 2405SOL     OW 8113   1.974   3.129   0.571
 2405SOL    HW1 8114   1.997   3.049   0.517
 2405SOL    HW2 8115   1.932   3.198   0.513
 2406SOL     OW 8116   2.619   6.367   4.549
 2406SOL    HW1 8117   2.673   6.361   4.465
 2406SOL    HW2 8118   2.679   6.364   4.629
 2407SOL     OW 8119   2.478   0.908   3.510
 2407SOL    HW1 8120   2.479   1.008   3.509
 2407SOL    HW2 8121   2.509   0.874   3.422
 2408SOL     OW 8122   3.874   6.275   5.309
 2408SOL    HW1 8123   3.842   6.191   5.264
 2408SOL    HW2 8124   3.901   6.341   5.239
 2409SOL     OW 8125   1.190   3.348   0.281
 2409SOL    HW1 8126   1.196   3.302   0.369
 2409SOL    HW2 8127   1.275   3.333   0.230
 2410SOL     OW 8128   0.579   3.026   4.775
 2410SOL    HW1 8129   0.627   2.944   4.746
 2410SOL    HW2 8130   0.497   3.001   4.827
 2411SOL     OW 8131   3.155   2.388   0.385
 2411SOL    HW1 8132   3.243   2.421   0.419
 2411SOL    HW2 8133   3.169   2.303   0.334
 2412SOL     OW 8134   3.636   2.034   6.669
 2412SOL    HW1 8135   3.650   2.033   6.768
 2412SOL    HW2 8136   3.684   2.112   6.629
 2413SOL     OW 8137   0.472   3.532   0.123
 2413SOL    HW1 8138   0.532   3.567   0.050
 2413SOL    HW2 8139   0.432   3.445   0.094
 2414SOL     OW 8140   5.879   2.029   4.958
 2414SOL    HW1 8141   5.956   2.047   4.896
 2414SOL    HW2 8142   5.911   1.978   5.038
 2415SOL     OW 8143   2.566   5.669   6.725
 2415SOL    HW1 8144   2.616   5.632   6.647
 2415SOL    HW2 8145   2.592   5.765   6.739
 2416SOL     OW 8146   0.218   3.209   2.250
 2416SOL    HW1 8147   0.191   3.198   2.346
 2416SOL    HW2 8148   0.175   3.138   2.195
 2417SOL     OW 8149   2.976   2.625   1.736
 2417SOL    HW1 8150   3.030   2.666   1.810
 2417SOL    HW2 8151   2.944   2.535   1.765
 2418SOL     OW 8152   4.697   4.147   6.759
 2418SOL    HW1 8153   4.694   4.047   6.762
 2418SOL    HW2 8154   4.767   4.180   6.822
 2419SOL     OW 8155   3.299   6.766   3.254
 2419SOL    HW1 8156   3.244   6.683   3.258
 2419SOL    HW2 8157   3.290   6.816   3.341
 2420SOL     OW 8158   1.497   4.154   2.515
 2420SOL    HW1 8159   1.505   4.175   2.417
 2420SOL    HW2 8160   1.488   4.055   2.527
 2421SOL     OW 8161   3.239   6.837   3.665
 2421SOL    HW1 8162   3.250   6.870   3.571
 2421SOL    HW2 8163   3.185   6.752   3.665
 2422SOL     OW 8164   4.244   5.485   0.990
 2422SOL    HW1 8165   4.233   5.396   1.036
 2422SOL    HW2 8166   4.329   5.528   1.021
 2423SOL     OW 8167   2.436   5.867   2.796
 2423SOL    HW1 8168   2.530   5.899   2.785
 2423SOL    HW2 8169   2.376   5.920   2.736
 2424SOL     OW 8170   5.343   0.167   6.320
 2424SOL    HW1 8171   5.375   0.185   6.227
 2424SOL    HW2 8172   5.319   0.071   6.329
 2425SOL     OW 8173   5.326   5.660   4.774
 2425SOL    HW1 8174   5.237   5.705   4.765
 2425SOL    HW2 8175   5.323   5.570   4.730
 2426SOL     OW 8176   2.179   3.054   5.615
 2426SOL    HW1 8177   2.240   3.075   5.691
 2426SOL    HW2 8178   2.177   3.131   5.552
 2427SOL     OW 8179   5.394   0.434   7.004
 2427SOL    HW1 8180   5.357   0.462   0.067
 2427SOL    HW2 8181   5.347   0.485   6.932
 2428SOL     OW 8182   0.858   0.803   3.053
 2428SOL    HW1 8183   0.854   0.892   3.099
 2428SOL    HW2 8184   0.797   0.739   3.099
 2429SOL     OW 8185   5.505   4.953   1.452
 2429SOL    HW1 8186   5.564   4.880   1.419
 2429SOL    HW2 8187   5.439   4.977   1.380
 2430SOL     OW 8188   5.875   0.550   6.498
 2430SOL    HW1 8189   5.787   0.522   6.538
 2430SOL    HW2 8190   5.917   0.620   6.556
 2431SOL     OW 8191   0.539   2.987   2.036
 2431SOL    HW1 8192   0.493   3.035   1.961
 2431SOL    HW2 8193   0.550   3.050   2.114
 2432SOL     OW 8194   2.740   5.225   1.968
 2432SOL    HW1 8195   2.690   5.311   1.959
 2432SOL    HW2 8196   2.726   5.170   1.886
 2433SOL     OW 8197   6.794   4.161   5.373
 2433SOL    HW1 8198   6.879   4.110   5.388
 2433SOL    HW2 8199   6.730   4.105   5.320
 2434SOL     OW 8200   4.406   0.763   2.660
 2434SOL    HW1 8201   4.364   0.685   2.614
 2434SOL    HW2 8202   4.386   0.847   2.610
 2435SOL     OW 8203   6.297   6.709   0.136
 2435SOL    HW1 8204   6.380   6.654   0.124
 2435SOL    HW2 8205   6.219   6.660   0.097
 2436SOL     OW 8206   1.431   1.918   1.506
 2436SOL    HW1 8207   1.418   1.917   1.406
 2436SOL    HW2 8208   1.526   1.896   1.527
 2437SOL     OW 8209   0.338   4.197   2.861
 2437SOL    HW1 8210   0.248   4.238   2.845
 2437SOL    HW2 8211   0.362   4.209   2.958
 2438SOL     OW 8212   3.187   1.297   4.663
 2438SOL    HW1 8213   3.144   1.384   4.690
 2438SOL    HW2 8214   3.162   1.227   4.730
 2439SOL     OW 8215   1.849   6.435   0.916
 2439SOL    HW1 8216   1.781   6.364   0.936
 2439SOL    HW2 8217   1.922   6.396   0.860
 2440SOL     OW 8218   5.568   1.287   5.227
 2440SOL    HW1 8219   5.615   1.209   5.186
 2440SOL    HW2 8220   5.469   1.278   5.211
 2441SOL     OW 8221   6.053   0.122   0.449
 2441SOL    HW1 8222   6.125   0.191   0.440
 2441SOL    HW2 8223   5.988   0.151   0.519
 2442SOL     OW 8224   5.096   2.992   1.741
 2442SOL    HW1 8225   4.998   3.007   1.750
 2442SOL    HW2 8226   5.145   3.076   1.766
 2443SOL     OW 8227   1.042   3.106   1.983
 2443SOL    HW1 8228   1.049   3.195   1.938
 2443SOL    HW2 8229   1.114   3.097   2.052
 2444SOL     OW 8230   3.644   5.520   1.900
 2444SOL    HW1 8231   3.621   5.611   1.864
 2444SOL    HW2 8232   3.741   5.518   1.924
 2445SOL     OW 8233   0.767   2.516   1.130
 2445SOL    HW1 8234   0.721   2.603   1.149
 2445SOL    HW2 8235   0.854   2.533   1.084
 2446SOL     OW 8236   1.398   5.245   1.453
 2446SOL    HW1 8237   1.435   5.311   1.388
 2446SOL    HW2 8238   1.465   5.227   1.524
 2447SOL     OW 8239   2.470   6.904   7.015
 2447SOL    HW1 8240   2.451   6.813   6.979
 2447SOL    HW2 8241   2.392   6.964   6.997
 2448SOL     OW 8242   6.470   1.808   4.359
 2448SOL    HW1 8243   6.513   1.875   4.298
 2448SOL    HW2 8244   6.388   1.848   4.399
 2449SOL     OW 8245   1.737   4.112   1.715
 2449SOL    HW1 8246   1.685   4.182   1.764
 2449SOL    HW2 8247   1.735   4.027   1.768
 2450SOL     OW 8248   1.340   6.964   5.697
 2450SOL    HW1 8249   1.401   6.927   5.627
 2450SOL    HW2 8250   1.327   6.896   5.768
 2451SOL     OW 8251   0.718   6.390   4.649
 2451SOL    HW1 8252   0.755   6.388   4.742
 2451SOL    HW2 8253   0.669   6.305   4.630
 2452SOL     OW 8254   2.223   2.165   3.342
 2452SOL    HW1 8255   2.133   2.144   3.381
 2452SOL    HW2 8256   2.288   2.093   3.367
 2453SOL     OW 8257   0.205   0.765   6.532
 2453SOL    HW1 8258   0.221   0.685   6.589
 2453SOL    HW2 8259   0.268   0.838   6.558
 2454SOL     OW 8260   3.618   5.554   1.179
 2454SOL    HW1 8261   3.545   5.563   1.248
 2454SOL    HW2 8262   3.578   5.551   1.088
 2455SOL     OW 8263   4.244   2.717   0.704
 2455SOL    HW1 8264   4.232   2.722   0.605
 2455SOL    HW2 8265   4.160   2.682   0.746
 2456SOL     OW 8266   0.590   4.405   6.191
 2456SOL    HW1 8267   0.495   4.405   6.220
 2456SOL    HW2 8268   0.650   4.412   6.271
 2457SOL     OW 8269   4.583   2.033   5.220
 2457SOL    HW1 8270   4.595   2.115   5.164
 2457SOL    HW2 8271   4.672   2.002   5.254
 2458SOL     OW 8272   0.891   0.760   1.901
 2458SOL    HW1 8273   0.811   0.802   1.858
 2458SOL    HW2 8274   0.910   0.807   1.987
 2459SOL     OW 8275   2.659   0.152   0.429
 2459SOL    HW1 8276   2.665   0.183   0.524
 2459SOL    HW2 8277   2.566   0.167   0.395
 2460SOL     OW 8278   1.276   0.935   4.888
 2460SOL    HW1 8279   1.300   0.844   4.923
 2460SOL    HW2 8280   1.281   0.935   4.789
 2461SOL     OW 8281   4.661   6.979   3.437
 2461SOL    HW1 8282   4.703   0.043   3.421
 2461SOL    HW2 8283   4.562   6.988   3.437
 2462SOL     OW 8284   0.330   3.876   0.518
 2462SOL    HW1 8285   0.331   3.895   0.420
 2462SOL    HW2 8286   0.387   3.796   0.537
 2463SOL     OW 8287   6.797   0.409   0.226
 2463SOL    HW1 8288   6.808   0.446   0.318
 2463SOL    HW2 8289   6.705   0.372   0.216
 2464SOL     OW 8290   0.601   2.668   3.100
 2464SOL    HW1 8291   0.509   2.691   3.130
 2464SOL    HW2 8292   0.651   2.751   3.077
 2465SOL     OW 8293   0.023   6.040   5.439
 2465SOL    HW1 8294   0.106   5.998   5.473
 2465SOL    HW2 8295   0.033   6.060   5.341
 2466SOL     OW 8296   0.591   2.147   2.150
 2466SOL    HW1 8297   0.526   2.203   2.201
 2466SOL    HW2 8298   0.608   2.188   2.060
 2467SOL     OW 8299   6.020   1.947   5.159
 2467SOL    HW1 8300   6.019   1.965   5.258
 2467SOL    HW2 8301   6.094   1.882   5.139
 2468SOL     OW 8302   2.981   0.028   5.492
 2468SOL    HW1 8303   2.942   0.091   5.559
 2468SOL    HW2 8304   3.072   0.001   5.521
 2469SOL     OW 8305   3.686   2.662   5.707
 2469SOL    HW1 8306   3.722   2.755   5.699
 2469SOL    HW2 8307   3.679   2.622   5.615
 2470SOL     OW 8308   3.202   4.377   6.010
 2470SOL    HW1 8309   3.116   4.333   5.983
 2470SOL    HW2 8310   3.183   4.469   6.046
 2471SOL     OW 8311   3.375   5.752   1.786
 2471SOL    HW1 8312   3.358   5.654   1.785
 2471SOL    HW2 8313   3.468   5.769   1.819
 2472SOL     OW 8314   4.579   1.925   4.368
 2472SOL    HW1 8315   4.530   2.009   4.346
 2472SOL    HW2 8316   4.619   1.887   4.284
 2473SOL     OW 8317   0.720   4.459   4.941
 2473SOL    HW1 8318   0.684   4.369   4.919
 2473SOL    HW2 8319   0.672   4.528   4.887
 2474SOL     OW 8320   1.488   5.925   1.548
 2474SOL    HW1 8321   1.508   5.838   1.594
 2474SOL    HW2 8322   1.402   5.916   1.497
 2475SOL     OW 8323   4.976   0.763   0.956
 2475SOL    HW1 8324   5.073   0.787   0.952
 2475SOL    HW2 8325   4.964   0.670   0.922
 2476SOL     OW 8326   5.674   0.478   6.643
 2476SOL    HW1 8327   5.634   0.497   6.733
 2476SOL    HW2 8328   5.607   0.430   6.586
 2477SOL     OW 8329   3.832   0.297   3.246
 2477SOL    HW1 8330   3.874   0.257   3.164
 2477SOL    HW2 8331   3.882   0.380   3.272
 2478SOL     OW 8332   4.636   0.103   3.827
 2478SOL    HW1 8333   4.598   0.117   3.735
 2478SOL    HW2 8334   4.721   0.050   3.820
 2479SOL     OW 8335   0.167   3.555   6.995
 2479SOL    HW1 8336   0.264   3.578   7.001
 2479SOL    HW2 8337   0.157   3.462   6.958
 2480SOL     OW 8338   3.287   2.481   1.536
 2480SOL    HW1 8339   3.288   2.393   1.584
 2480SOL    HW2 8340   3.199   2.526   1.551
 2481SOL     OW 8341   3.351   6.968   1.066
 2481SOL    HW1 8342   3.391   0.023   1.109
 2481SOL    HW2 8343   3.420   6.896   1.059
 2482SOL     OW 8344   5.710   3.255   6.640
 2482SOL    HW1 8345   5.757   3.207   6.566
 2482SOL    HW2 8346   5.620   3.285   6.609
 2483SOL     OW 8347   1.099   2.449   0.683
 2483SOL    HW1 8348   1.185   2.492   0.655
 2483SOL    HW2 8349   1.113   2.402   0.771
 2484SOL     OW 8350   5.670   1.353   1.556
 2484SOL    HW1 8351   5.734   1.292   1.602
 2484SOL    HW2 8352   5.652   1.433   1.614
 2485SOL     OW 8353   6.032   2.318   6.292
 2485SOL    HW1 8354   5.999   2.402   6.249
 2485SOL    HW2 8355   5.963   2.246   6.284
 2486SOL     OW 8356   0.724   4.162   5.299
 2486SOL    HW1 8357   0.785   4.171   5.221
 2486SOL    HW2 8358   0.734   4.241   5.359
 2487SOL     OW 8359   4.569   5.921   0.332
 2487SOL    HW1 8360   4.587   5.822   0.325
 2487SOL    HW2 8361   4.653   5.967   0.362
 2488SOL     OW 8362   6.821   3.840   1.102
 2488SOL    HW1 8363   6.914   3.864   1.131
 2488SOL    HW2 8364   6.798   3.749   1.135
 2489SOL     OW 8365   0.271   6.719   4.426
 2489SOL    HW1 8366   0.271   6.709   4.526
 2489SOL    HW2 8367   0.354   6.677   4.389
 2490SOL     OW 8368   3.111   6.528   2.272
 2490SOL    HW1 8369   3.205   6.508   2.300
 2490SOL    HW2 8370   3.047   6.491   2.338
 2491SOL     OW 8371   4.083   4.681   1.469
 2491SOL    HW1 8372   4.138   4.749   1.517
 2491SOL    HW2 8373   4.089   4.696   1.371
 2492SOL     OW 8374   6.525   4.253   1.024
 2492SOL    HW1 8375   6.570   4.342   1.020
 2492SOL    HW2 8376   6.563   4.192   0.955
 2493SOL     OW 8377   6.688   6.287   1.821
 2493SOL    HW1 8378   6.682   6.192   1.791
 2493SOL    HW2 8379   6.641   6.346   1.756
 2494SOL     OW 8380   5.972   3.486   2.000
 2494SOL    HW1 8381   5.996   3.552   1.930
 2494SOL    HW2 8382   6.005   3.395   1.973
 2495SOL     OW 8383   6.622   4.733   3.791
 2495SOL    HW1 8384   6.706   4.687   3.763
 2495SOL    HW2 8385   6.570   4.759   3.709
 2496SOL     OW 8386   6.306   5.000   6.571
 2496SOL    HW1 8387   6.288   4.906   6.600
 2496SOL    HW2 8388   6.324   5.002   6.472
 2497SOL     OW 8389   0.324   0.115   1.842
 2497SOL    HW1 8390   0.422   0.093   1.842
 2497SOL    HW2 8391   0.302   0.165   1.926
 2498SOL     OW 8392   2.088   3.256   6.062
 2498SOL    HW1 8393   2.153   3.318   6.106
 2498SOL    HW2 8394   1.995   3.283   6.086
 2499SOL     OW 8395   6.633   3.422   1.348
 2499SOL    HW1 8396   6.602   3.427   1.443
 2499SOL    HW2 8397   6.684   3.505   1.325
 2500SOL     OW 8398   3.526   4.259   0.012
 2500SOL    HW1 8399   3.446   4.250   6.979
 2500SOL    HW2 8400   3.609   4.261   6.982
 2501SOL     OW 8401   6.197   5.583   0.589
 2501SOL    HW1 8402   6.183   5.511   0.520
 2501SOL    HW2 8403   6.222   5.540   0.676
 2502SOL     OW 8404   2.760   5.700   4.660
 2502SOL    HW1 8405   2.815   5.774   4.699
 2502SOL    HW2 8406   2.677   5.688   4.714
 2503SOL     OW 8407   2.500   6.815   5.472
 2503SOL    HW1 8408   2.535   6.884   5.409
 2503SOL    HW2 8409   2.404   6.836   5.495
 2504SOL     OW 8410   3.018   5.434   2.537
 2504SOL    HW1 8411   3.011   5.471   2.444
 2504SOL    HW2 8412   3.102   5.469   2.580
 2505SOL     OW 8413   0.243   5.980   2.778
 2505SOL    HW1 8414   0.255   5.965   2.876
 2505SOL    HW2 8415   0.320   6.034   2.743
 2506SOL     OW 8416   5.450   5.212   5.731
 2506SOL    HW1 8417   5.454   5.201   5.632
 2506SOL    HW2 8418   5.474   5.126   5.776
 2507SOL     OW 8419   0.172   3.304   0.556
 2507SOL    HW1 8420   0.171   3.235   0.483
 2507SOL    HW2 8421   0.079   3.320   0.588
 2508SOL     OW 8422   4.005   1.881   3.882
 2508SOL    HW1 8423   4.031   1.798   3.931
 2508SOL    HW2 8424   3.918   1.867   3.835
 2509SOL     OW 8425   6.958   3.800   5.869
 2509SOL    HW1 8426   6.921   3.771   5.781
 2509SOL    HW2 8427   6.963   3.721   5.931
 2510SOL     OW 8428   3.091   4.003   1.995
 2510SOL    HW1 8429   3.087   3.929   1.928
 2510SOL    HW2 8430   3.023   4.073   1.970
 2511SOL     OW 8431   2.194   0.802   4.908
 2511SOL    HW1 8432   2.275   0.801   4.966
 2511SOL    HW2 8433   2.203   0.873   4.838
 2512SOL     OW 8434   3.913   4.867   4.517
 2512SOL    HW1 8435   3.969   4.798   4.562
 2512SOL    HW2 8436   3.824   4.872   4.561
 2513SOL     OW 8437   2.405   6.243   5.993
 2513SOL    HW1 8438   2.452   6.243   6.082
 2513SOL    HW2 8439   2.308   6.225   6.007
 2514SOL     OW 8440   1.147   3.118   3.411
 2514SOL    HW1 8441   1.099   3.084   3.331
 2514SOL    HW2 8442   1.237   3.075   3.418
 2515SOL     OW 8443   1.823   1.338   1.351
 2515SOL    HW1 8444   1.922   1.324   1.359
 2515SOL    HW2 8445   1.781   1.254   1.315
 2516SOL     OW 8446   5.672   1.656   3.533
 2516SOL    HW1 8447   5.758   1.651   3.584
 2516SOL    HW2 8448   5.672   1.585   3.462
 2517SOL     OW 8449   1.015   0.720   4.255
 2517SOL    HW1 8450   0.988   0.796   4.314
 2517SOL    HW2 8451   0.946   0.647   4.261
 2518SOL     OW 8452   2.678   4.663   1.097
 2518SOL    HW1 8453   2.644   4.570   1.082
 2518SOL    HW2 8454   2.601   4.725   1.105
 2519SOL     OW 8455   2.105   1.146   0.734
 2519SOL    HW1 8456   2.084   1.241   0.711
 2519SOL    HW2 8457   2.202   1.137   0.757
 2520SOL     OW 8458   3.574   2.511   1.433
 2520SOL    HW1 8459   3.480   2.546   1.435
 2520SOL    HW2 8460   3.581   2.432   1.494
 2521SOL     OW 8461   4.168   1.421   5.156
 2521SOL    HW1 8462   4.114   1.340   5.135
 2521SOL    HW2 8463   4.204   1.462   5.072
 2522SOL     OW 8464   0.357   1.526   5.553
 2522SOL    HW1 8465   0.354   1.626   5.551
 2522SOL    HW2 8466   0.366   1.491   5.460
 2523SOL     OW 8467   2.106   4.601   0.213
 2523SOL    HW1 8468   2.016   4.645   0.213
 2523SOL    HW2 8469   2.109   4.530   0.143
 2524SOL     OW 8470   1.413   6.686   4.150
 2524SOL    HW1 8471   1.455   6.606   4.192
 2524SOL    HW2 8472   1.475   6.724   4.082
 2525SOL     OW 8473   0.446   2.645   4.425
 2525SOL    HW1 8474   0.509   2.708   4.379
 2525SOL    HW2 8475   0.482   2.621   4.515
 2526SOL     OW 8476   0.680   5.826   0.382
 2526SOL    HW1 8477   0.721   5.913   0.407
 2526SOL    HW2 8478   0.743   5.775   0.324
 2527SOL     OW 8479   5.099   5.215   6.477
 2527SOL    HW1 8480   5.011   5.239   6.435
 2527SOL    HW2 8481   5.144   5.297   6.510
 2528SOL     OW 8482   4.541   4.955   6.379
 2528SOL    HW1 8483   4.462   4.942   6.320
 2528SOL    HW2 8484   4.550   5.052   6.403
 2529SOL     OW 8485   0.283   6.827   6.172
 2529SOL    HW1 8486   0.279   6.820   6.072
 2529SOL    HW2 8487   0.288   6.923   6.198
 2530SOL     OW 8488   2.794   5.760   5.412
 2530SOL    HW1 8489   2.746   5.677   5.437
 2530SOL    HW2 8490   2.728   5.833   5.395
 2531SOL     OW 8491   6.492   5.526   5.845
 2531SOL    HW1 8492   6.567   5.591   5.833
 2531SOL    HW2 8493   6.475   5.514   5.943
 2532SOL     OW 8494   0.657   6.632   0.937
 2532SOL    HW1 8495   0.710   6.594   0.861
 2532SOL    HW2 8496   0.670   6.576   1.018
 2533SOL     OW 8497   5.345   0.501   2.896
 2533SOL    HW1 8498   5.402   0.419   2.894
 2533SOL    HW2 8499   5.373   0.559   2.973
 2534SOL     OW 8500   4.889   2.063   2.051
 2534SOL    HW1 8501   4.925   2.153   2.024
 2534SOL    HW2 8502   4.949   1.992   2.014
 2535SOL     OW 8503   3.476   2.742   5.994
 2535SOL    HW1 8504   3.466   2.657   5.942
 2535SOL    HW2 8505   3.483   2.819   5.931
 2536SOL     OW 8506   1.692   1.199   6.627
 2536SOL    HW1 8507   1.654   1.189   6.535
 2536SOL    HW2 8508   1.645   1.273   6.674
 2537SOL     OW 8509   4.242   1.122   0.177
 2537SOL    HW1 8510   4.172   1.114   0.107
 2537SOL    HW2 8511   4.328   1.084   0.143
 2538SOL     OW 8512   6.765   3.801   3.928
 2538SOL    HW1 8513   6.679   3.814   3.978
 2538SOL    HW2 8514   6.758   3.843   3.838
 2539SOL     OW 8515   5.879   1.442   4.294
 2539SOL    HW1 8516   5.883   1.363   4.356
 2539SOL    HW2 8517   5.791   1.443   4.247
 2540SOL     OW 8518   3.687   1.783   2.728
 2540SOL    HW1 8519   3.784   1.758   2.716
 2540SOL    HW2 8520   3.677   1.882   2.715
 2541SOL     OW 8521   2.880   6.808   5.366
 2541SOL    HW1 8522   2.787   6.843   5.350
 2541SOL    HW2 8523   2.933   6.876   5.416
 2542SOL     OW 8524   1.559   4.793   6.719
 2542SOL    HW1 8525   1.606   4.850   6.652
 2542SOL    HW2 8526   1.530   4.849   6.797
 2543SOL     OW 8527   0.844   2.250   4.293
 2543SOL    HW1 8528   0.845   2.205   4.383
 2543SOL    HW2 8529   0.931   2.233   4.246
 2544SOL     OW 8530   1.040   5.123   0.635
 2544SOL    HW1 8531   1.104   5.046   0.633
 2544SOL    HW2 8532   1.071   5.193   0.571
 2545SOL     OW 8533   1.832   6.521   2.975
 2545SOL    HW1 8534   1.759   6.454   2.967
 2545SOL    HW2 8535   1.793   6.613   2.982
 2546SOL     OW 8536   6.175   1.362   0.815
 2546SOL    HW1 8537   6.264   1.331   0.846
 2546SOL    HW2 8538   6.105   1.295   0.840
 2547SOL     OW 8539   6.736   3.964   5.683
 2547SOL    HW1 8540   6.818   4.009   5.718
 2547SOL    HW2 8541   6.759   3.874   5.648
 2548SOL     OW 8542   0.030   6.651   4.053
 2548SOL    HW1 8543   0.130   6.652   4.042
 2548SOL    HW2 8544   7.024   6.557   4.053
 2549SOL     OW 8545   0.688   0.468   1.854
 2549SOL    HW1 8546   0.672   0.508   1.764
 2549SOL    HW2 8547   0.637   0.519   1.923
 2550SOL     OW 8548   6.049   6.186   0.479
 2550SOL    HW1 8549   6.093   6.215   0.564
 2550SOL    HW2 8550   6.020   6.266   0.428
 2551SOL     OW 8551   2.218   4.162   6.784
 2551SOL    HW1 8552   2.275   4.189   6.861
 2551SOL    HW2 8553   2.238   4.222   6.706
 2552SOL     OW 8554   3.248   5.069   3.772
 2552SOL    HW1 8555   3.345   5.076   3.799
 2552SOL    HW2 8556   3.239   5.006   3.695
 2553SOL     OW 8557   4.345   3.642   5.991
 2553SOL    HW1 8558   4.360   3.579   5.914
 2553SOL    HW2 8559   4.427   3.647   6.047
 2554SOL     OW 8560   1.263   1.690   0.770
 2554SOL    HW1 8561   1.235   1.661   0.862
 2554SOL    HW2 8562   1.361   1.673   0.759
 2555SOL     OW 8563   5.129   2.593   5.314
 2555SOL    HW1 8564   5.059   2.547   5.369
 2555SOL    HW2 8565   5.163   2.531   5.244
 2556SOL     OW 8566   3.824   5.979   0.970
 2556SOL    HW1 8567   3.852   5.944   1.059
 2556SOL    HW2 8568   3.740   5.933   0.941
 2557SOL     OW 8569   2.144   4.331   6.330
 2557SOL    HW1 8570   2.106   4.239   6.321
 2557SOL    HW2 8571   2.077   4.399   6.300
 2558SOL     OW 8572   4.778   1.249   5.701
 2558SOL    HW1 8573   4.720   1.305   5.641
 2558SOL    HW2 8574   4.819   1.307   5.771
 2559SOL     OW 8575   0.476   5.086   5.394
 2559SOL    HW1 8576   0.484   5.158   5.324
 2559SOL    HW2 8577   0.512   5.121   5.481
 2560SOL     OW 8578   5.904   1.856   5.846
 2560SOL    HW1 8579   5.811   1.877   5.818
 2560SOL    HW2 8580   5.969   1.899   5.783
 2561SOL     OW 8581   2.577   5.375   4.744
 2561SOL    HW1 8582   2.562   5.320   4.826
 2561SOL    HW2 8583   2.609   5.317   4.670
 2562SOL     OW 8584   1.806   3.544   0.175
 2562SOL    HW1 8585   1.848   3.632   0.197
 2562SOL    HW2 8586   1.842   3.474   0.237
 2563SOL     OW 8587   2.313   1.454   7.012
 2563SOL    HW1 8588   2.370   1.373   0.001
 2563SOL    HW2 8589   2.231   1.427   6.963
 2564SOL     OW 8590   2.099   5.140   1.566
 2564SOL    HW1 8591   2.022   5.204   1.559
 2564SOL    HW2 8592   2.157   5.166   1.643
 2565SOL     OW 8593   1.382   0.687   1.439
 2565SOL    HW1 8594   1.379   0.616   1.509
 2565SOL    HW2 8595   1.393   0.777   1.482
 2566SOL     OW 8596   2.429   6.582   6.946
 2566SOL    HW1 8597   2.343   6.537   6.972
 2566SOL    HW2 8598   2.506   6.523   6.971
 2567SOL     OW 8599   2.027   6.785   0.634
 2567SOL    HW1 8600   1.933   6.752   0.634
 2567SOL    HW2 8601   2.055   6.807   0.728
 2568SOL     OW 8602   4.318   2.130   0.333
 2568SOL    HW1 8603   4.309   2.230   0.342
 2568SOL    HW2 8604   4.232   2.093   0.297
 2569SOL     OW 8605   3.717   0.457   3.813
 2569SOL    HW1 8606   3.732   0.552   3.787
 2569SOL    HW2 8607   3.627   0.427   3.779
 2570SOL     OW 8608   5.684   1.817   6.055
 2570SOL    HW1 8609   5.783   1.825   6.060
 2570SOL    HW2 8610   5.656   1.811   5.959
 2571SOL     OW 8611   1.398   4.792   3.931
 2571SOL    HW1 8612   1.380   4.874   3.986
 2571SOL    HW2 8613   1.365   4.712   3.980
 2572SOL     OW 8614   2.811   5.078   3.378
 2572SOL    HW1 8615   2.839   5.166   3.339
 2572SOL    HW2 8616   2.722   5.052   3.342
 2573SOL     OW 8617   0.065   0.756   1.285
 2573SOL    HW1 8618   7.017   0.823   1.275
 2573SOL    HW2 8619   0.149   0.804   1.311
 2574SOL     OW 8620   5.729   3.508   0.786
 2574SOL    HW1 8621   5.713   3.429   0.726
 2574SOL    HW2 8622   5.792   3.482   0.860
 2575SOL     OW 8623   6.768   5.760   6.819
 2575SOL    HW1 8624   6.690   5.816   6.788
 2575SOL    HW2 8625   6.853   5.809   6.801
 2576SOL     OW 8626   5.301   5.823   3.882
 2576SOL    HW1 8627   5.236   5.783   3.948
 2576SOL    HW2 8628   5.261   5.906   3.843
 2577SOL     OW 8629   2.871   4.830   2.426
 2577SOL    HW1 8630   2.836   4.783   2.344
 2577SOL    HW2 8631   2.969   4.843   2.416
 2578SOL     OW 8632   3.715   1.686   3.533
 2578SOL    HW1 8633   3.700   1.779   3.498
 2578SOL    HW2 8634   3.668   1.620   3.474
 2579SOL     OW 8635   0.598   6.787   3.834
 2579SOL    HW1 8636   0.555   6.821   3.918
 2579SOL    HW2 8637   0.589   6.856   3.762
 2580SOL     OW 8638   2.476   2.888   6.833
 2580SOL    HW1 8639   2.472   2.875   6.734
 2580SOL    HW2 8640   2.542   2.825   6.873
 2581SOL     OW 8641   2.697   0.158   5.874
 2581SOL    HW1 8642   2.719   0.207   5.958
 2581SOL    HW2 8643   2.603   0.124   5.878
 2582SOL     OW 8644   6.832   3.632   1.320
 2582SOL    HW1 8645   6.904   3.691   1.356
 2582SOL    HW2 8646   6.874   3.557   1.268
 2583SOL     OW 8647   6.194   6.932   1.076
 2583SOL    HW1 8648   6.290   6.903   1.072
 2583SOL    HW2 8649   6.190   0.005   1.088
 2584SOL     OW 8650   4.672   4.625   5.269
 2584SOL    HW1 8651   4.699   4.531   5.290
 2584SOL    HW2 8652   4.751   4.685   5.277
 2585SOL     OW 8653   3.231   5.353   6.634
 2585SOL    HW1 8654   3.168   5.278   6.615
 2585SOL    HW2 8655   3.229   5.374   6.732
 2586SOL     OW 8656   1.633   0.657   5.144
 2586SOL    HW1 8657   1.614   0.560   5.158
 2586SOL    HW2 8658   1.731   0.673   5.148
 2587SOL     OW 8659   6.955   1.821   3.159
 2587SOL    HW1 8660   6.954   1.739   3.102
 2587SOL    HW2 8661   6.883   1.814   3.229
 2588SOL     OW 8662   4.220   1.531   4.897
 2588SOL    HW1 8663   4.295   1.563   4.840
 2588SOL    HW2 8664   4.161   1.608   4.921
 2589SOL     OW 8665   1.434   6.863   0.287
 2589SOL    HW1 8666   1.503   6.904   0.227
 2589SOL    HW2 8667   1.403   6.776   0.247
 2590SOL     OW 8668   2.682   5.400   0.069
 2590SOL    HW1 8669   2.752   5.459   0.109
 2590SOL    HW2 8670   2.603   5.455   0.043
 2591SOL     OW 8671   5.920   5.273   4.384
 2591SOL    HW1 8672   5.941   5.252   4.289
 2591SOL    HW2 8673   5.910   5.188   4.436
 2592SOL     OW 8674   2.947   4.516   6.643
 2592SOL    HW1 8675   2.933   4.458   6.562
 2592SOL    HW2 8676   2.862   4.564   6.664
 2593SOL     OW 8677   2.609   4.728   0.785
 2593SOL    HW1 8678   2.543   4.763   0.718
 2593SOL    HW2 8679   2.570   4.737   0.877
 2594SOL     OW 8680   1.862   4.044   4.256
 2594SOL    HW1 8681   1.806   4.025   4.336
 2594SOL    HW2 8682   1.952   4.077   4.285
 2595SOL     OW 8683   1.990   0.382   3.651
 2595SOL    HW1 8684   1.952   0.351   3.738
 2595SOL    HW2 8685   1.937   0.343   3.576
 2596SOL     OW 8686   0.894   2.020   0.260
 2596SOL    HW1 8687   0.937   2.093   0.207
 2596SOL    HW2 8688   0.795   2.036   0.265
 2597SOL     OW 8689   0.543   6.245   6.149
 2597SOL    HW1 8690   0.545   6.289   6.239
 2597SOL    HW2 8691   0.482   6.166   6.152
 2598SOL     OW 8692   5.632   2.333   2.448
 2598SOL    HW1 8693   5.546   2.385   2.445
 2598SOL    HW2 8694   5.611   2.236   2.464
 2599SOL     OW 8695   2.644   0.162   2.340
 2599SOL    HW1 8696   2.716   0.230   2.332
 2599SOL    HW2 8697   2.576   0.177   2.268
 2600SOL     OW 8698   6.154   3.911   4.481
 2600SOL    HW1 8699   6.116   3.998   4.451
 2600SOL    HW2 8700   6.237   3.927   4.535
 2601SOL     OW 8701   0.703   2.122   2.726
 2601SOL    HW1 8702   0.730   2.029   2.752
 2601SOL    HW2 8703   0.613   2.142   2.766
 2602SOL     OW 8704   2.263   5.533   3.931
 2602SOL    HW1 8705   2.322   5.560   3.856
 2602SOL    HW2 8706   2.268   5.601   4.004
 2603SOL     OW 8707   2.947   0.777   2.870
 2603SOL    HW1 8708   2.989   0.863   2.898
 2603SOL    HW2 8709   3.017   0.720   2.827
 2604SOL     OW 8710   5.127   2.369   2.688
 2604SOL    HW1 8711   5.201   2.325   2.740
 2604SOL    HW2 8712   5.139   2.349   2.591
 2605SOL     OW 8713   1.151   3.767   2.024
 2605SOL    HW1 8714   1.076   3.819   2.065
 2605SOL    HW2 8715   1.113   3.700   1.960
 2606SOL     OW 8716   4.121   4.134   1.002
 2606SOL    HW1 8717   4.050   4.197   0.971
 2606SOL    HW2 8718   4.093   4.040   0.981
 2607SOL     OW 8719   2.619   2.125   0.968
 2607SOL    HW1 8720   2.716   2.133   0.988
 2607SOL    HW2 8721   2.607   2.113   0.869
 2608SOL     OW 8722   2.710   5.476   6.547
 2608SOL    HW1 8723   2.770   5.499   6.471
 2608SOL    HW2 8724   2.765   5.448   6.626
 2609SOL     OW 8725   0.212   0.514   1.319
 2609SOL    HW1 8726   0.166   0.594   1.281
 2609SOL    HW2 8727   0.146   0.460   1.372
 2610SOL     OW 8728   1.529   4.799   4.441
 2610SOL    HW1 8729   1.455   4.803   4.374
 2610SOL    HW2 8730   1.605   4.747   4.402
 2611SOL     OW 8731   5.066   6.688   6.320
 2611SOL    HW1 8732   5.069   6.599   6.366
 2611SOL    HW2 8733   4.987   6.740   6.352
 2612SOL     OW 8734   5.899   0.229   5.604
 2612SOL    HW1 8735   5.927   0.302   5.542
 2612SOL    HW2 8736   5.939   0.243   5.694
 2613SOL     OW 8737   1.332   5.782   6.841
 2613SOL    HW1 8738   1.274   5.760   6.763
 2613SOL    HW2 8739   1.379   5.868   6.824
 2614SOL     OW 8740   6.843   1.035   6.985
 2614SOL    HW1 8741   6.841   1.054   0.057
 2614SOL    HW2 8742   6.764   1.077   6.941
 2615SOL     OW 8743   0.929   3.168   0.309
 2615SOL    HW1 8744   0.959   3.220   0.229
 2615SOL    HW2 8745   0.974   3.204   0.390
 2616SOL     OW 8746   1.455   0.627   5.551
 2616SOL    HW1 8747   1.359   0.605   5.570
 2616SOL    HW2 8748   1.506   0.542   5.535
 2617SOL     OW 8749   5.339   0.165   0.839
 2617SOL    HW1 8750   5.253   0.192   0.881
 2617SOL    HW2 8751   5.328   0.076   0.794
 2618SOL     OW 8752   2.164   6.593   6.240
 2618SOL    HW1 8753   2.076   6.623   6.203
 2618SOL    HW2 8754   2.228   6.579   6.165
 2619SOL     OW 8755   4.761   1.048   2.424
 2619SOL    HW1 8756   4.807   1.109   2.488
 2619SOL    HW2 8757   4.804   0.958   2.426
 2620SOL     OW 8758   6.641   6.772   1.315
 2620SOL    HW1 8759   6.599   6.692   1.358
 2620SOL    HW2 8760   6.578   6.849   1.318
 2621SOL     OW 8761   1.992   5.846   2.335
 2621SOL    HW1 8762   1.933   5.927   2.333
 2621SOL    HW2 8763   1.971   5.792   2.416
 2622SOL     OW 8764   3.637   3.253   6.236
 2622SOL    HW1 8765   3.735   3.271   6.249
 2622SOL    HW2 8766   3.619   3.237   6.138
 2623SOL     OW 8767   0.852   6.820   3.761
 2623SOL    HW1 8768   0.893   6.896   3.811
 2623SOL    HW2 8769   0.762   6.799   3.799
 2624SOL     OW 8770   0.090   2.480   4.255
 2624SOL    HW1 8771   0.051   2.446   4.170
 2624SOL    HW2 8772   0.018   2.489   4.324
 2625SOL     OW 8773   1.665   5.286   5.574
 2625SOL    HW1 8774   1.567   5.266   5.585
 2625SOL    HW2 8775   1.713   5.260   5.657
 2626SOL     OW 8776   6.886   5.320   6.205
 2626SOL    HW1 8777   6.854   5.245   6.147
 2626SOL    HW2 8778   6.810   5.383   6.221
 2627SOL     OW 8779   1.578   6.870   5.603
 2627SOL    HW1 8780   1.618   6.952   5.562
 2627SOL    HW2 8781   1.641   6.793   5.593
 2628SOL     OW 8782   0.838   4.499   1.954
 2628SOL    HW1 8783   0.778   4.573   1.926
 2628SOL    HW2 8784   0.920   4.537   1.998
 2629SOL     OW 8785   3.100   3.880   3.755
 2629SOL    HW1 8786   3.123   3.831   3.671
 2629SOL    HW2 8787   3.033   3.952   3.735
 2630SOL     OW 8788   3.960   0.913   3.885
 2630SOL    HW1 8789   4.006   0.930   3.972
 2630SOL    HW2 8790   3.876   0.860   3.901
 2631SOL     OW 8791   5.910   0.842   0.534
 2631SOL    HW1 8792   5.951   0.751   0.543
 2631SOL    HW2 8793   5.974   0.911   0.569
 2632SOL     OW 8794   5.442   4.407   2.223
 2632SOL    HW1 8795   5.539   4.412   2.244
 2632SOL    HW2 8796   5.405   4.500   2.217
 2633SOL     OW 8797   0.172   2.860   6.102
 2633SOL    HW1 8798   0.102   2.848   6.172
 2633SOL    HW2 8799   0.260   2.879   6.146
 2634SOL     OW 8800   6.309   0.907   5.903
 2634SOL    HW1 8801   6.237   0.976   5.897
 2634SOL    HW2 8802   6.285   0.829   5.846
 2635SOL     OW 8803   5.542   5.001   3.807
 2635SOL    HW1 8804   5.550   5.090   3.852
 2635SOL    HW2 8805   5.606   4.937   3.848
 2636SOL     OW 8806   4.177   6.746   5.808
 2636SOL    HW1 8807   4.090   6.789   5.830
 2636SOL    HW2 8808   4.249   6.786   5.864
 2637SOL     OW 8809   1.105   1.870   3.214
 2637SOL    HW1 8810   1.037   1.902   3.280
 2637SOL    HW2 8811   1.067   1.877   3.121
 2638SOL     OW 8812   0.959   6.634   4.412
 2638SOL    HW1 8813   1.000   6.718   4.449
 2638SOL    HW2 8814   1.004   6.554   4.452
 2639SOL     OW 8815   4.212   4.707   5.266
 2639SOL    HW1 8816   4.135   4.657   5.306
 2639SOL    HW2 8817   4.180   4.763   5.190
 2640SOL     OW 8818   1.024   6.630   4.759
 2640SOL    HW1 8819   1.096   6.579   4.807
 2640SOL    HW2 8820   1.061   6.717   4.726
 2641SOL     OW 8821   5.609   2.675   6.703
 2641SOL    HW1 8822   5.691   2.703   6.753
 2641SOL    HW2 8823   5.619   2.580   6.673
 2642SOL     OW 8824   6.212   1.364   3.622
 2642SOL    HW1 8825   6.133   1.323   3.667
 2642SOL    HW2 8826   6.245   1.441   3.677
 2643SOL     OW 8827   2.061   4.772   3.327
 2643SOL    HW1 8828   2.118   4.745   3.249
 2643SOL    HW2 8829   1.965   4.759   3.304
 2644SOL     OW 8830   5.204   5.002   4.391
 2644SOL    HW1 8831   5.109   4.971   4.391
 2644SOL    HW2 8832   5.207   5.098   4.360
 2645SOL     OW 8833   5.137   5.426   2.616
 2645SOL    HW1 8834   5.103   5.414   2.522
 2645SOL    HW2 8835   5.064   5.402   2.680
 2646SOL     OW 8836   0.513   2.962   6.782
 2646SOL    HW1 8837   0.480   2.990   6.692
 2646SOL    HW2 8838   0.500   2.864   6.793
 2647SOL     OW 8839   5.157   0.671   1.497
 2647SOL    HW1 8840   5.222   0.746   1.482
 2647SOL    HW2 8841   5.086   0.700   1.560
 2648SOL     OW 8842   1.160   0.187   6.314
 2648SOL    HW1 8843   1.092   0.242   6.363
 2648SOL    HW2 8844   1.116   0.104   6.278
 2649SOL     OW 8845   5.054   2.286   2.035
 2649SOL    HW1 8846   5.151   2.270   2.055
 2649SOL    HW2 8847   5.046   2.346   1.956
 2650SOL     OW 8848   3.180   6.182   4.309
 2650SOL    HW1 8849   3.097   6.126   4.309
 2650SOL    HW2 8850   3.219   6.183   4.401
 2651SOL     OW 8851   4.057   2.064   4.579
 2651SOL    HW1 8852   4.089   2.081   4.485
 2651SOL    HW2 8853   4.089   2.137   4.639
 2652SOL     OW 8854   4.594   4.808   5.563
 2652SOL    HW1 8855   4.563   4.722   5.521
 2652SOL    HW2 8856   4.611   4.792   5.661
 2653SOL     OW 8857   2.619   5.772   0.007
 2653SOL    HW1 8858   2.682   5.820   0.067
 2653SOL    HW2 8859   2.667   5.742   6.950
 2654SOL     OW 8860   6.533   0.808   0.434
 2654SOL    HW1 8861   6.628   0.779   0.434
 2654SOL    HW2 8862   6.517   0.871   0.511
 2655SOL     OW 8863   4.931   6.221   2.542
 2655SOL    HW1 8864   4.981   6.157   2.483
 2655SOL    HW2 8865   4.992   6.296   2.568
 2656SOL     OW 8866   3.997   6.109   3.016
 2656SOL    HW1 8867   3.909   6.123   2.970
 2656SOL    HW2 8868   4.070   6.107   2.948
 2657SOL     OW 8869   1.466   4.044   0.025
 2657SOL    HW1 8870   1.526   3.975   7.010
 2657SOL    HW2 8871   1.399   3.999   0.083
 2658SOL     OW 8872   4.040   5.359   6.710
 2658SOL    HW1 8873   4.122   5.335   6.659
 2658SOL    HW2 8874   4.050   5.451   6.749
 2659SOL     OW 8875   0.135   2.225   4.498
 2659SOL    HW1 8876   0.091   2.153   4.552
 2659SOL    HW2 8877   0.098   2.224   4.405
 2660SOL     OW 8878   0.934   2.497   2.079
 2660SOL    HW1 8879   0.997   2.432   2.036
 2660SOL    HW2 8880   0.887   2.453   2.155
 2661SOL     OW 8881   1.676   0.906   0.627
 2661SOL    HW1 8882   1.770   0.939   0.636
 2661SOL    HW2 8883   1.668   0.849   0.546
 2662SOL     OW 8884   2.279   0.764   2.103
 2662SOL    HW1 8885   2.238   0.778   2.012
 2662SOL    HW2 8886   2.376   0.741   2.093
 2663SOL     OW 8887   4.239   6.547   0.616
 2663SOL    HW1 8888   4.208   6.626   0.563
 2663SOL    HW2 8889   4.332   6.563   0.648
 2664SOL     OW 8890   4.314   3.473   5.730
 2664SOL    HW1 8891   4.369   3.521   5.662
 2664SOL    HW2 8892   4.373   3.414   5.786
 2665SOL     OW 8893   2.174   3.775   4.353
 2665SOL    HW1 8894   2.150   3.678   4.348
 2665SOL    HW2 8895   2.135   3.815   4.436
 2666SOL     OW 8896   1.592   3.602   1.834
 2666SOL    HW1 8897   1.579   3.647   1.922
 2666SOL    HW2 8898   1.680   3.629   1.795
 2667SOL     OW 8899   6.624   3.460   4.699
 2667SOL    HW1 8900   6.681   3.404   4.758
 2667SOL    HW2 8901   6.623   3.554   4.732
 2668SOL     OW 8902   6.206   0.790   3.793
 2668SOL    HW1 8903   6.176   0.849   3.718
 2668SOL    HW2 8904   6.140   0.795   3.868
 2669SOL     OW 8905   2.659   0.486   0.044
 2669SOL    HW1 8906   2.663   0.415   0.115
 2669SOL    HW2 8907   2.749   0.531   0.037
 2670SOL     OW 8908   6.988   6.897   6.615
 2670SOL    HW1 8909   0.058   6.880   6.595
 2670SOL    HW2 8910   6.966   6.866   6.707
 2671SOL     OW 8911   4.917   4.627   6.194
 2671SOL    HW1 8912   4.842   4.587   6.247
 2671SOL    HW2 8913   4.996   4.565   6.196
 2672SOL     OW 8914   3.441   0.419   1.852
 2672SOL    HW1 8915   3.364   0.471   1.817
 2672SOL    HW2 8916   3.461   0.342   1.791
 2673SOL     OW 8917   4.400   0.420   2.879
 2673SOL    HW1 8918   4.486   0.468   2.863
 2673SOL    HW2 8919   4.405   0.372   2.967
 2674SOL     OW 8920   0.227   4.772   1.944
 2674SOL    HW1 8921   0.163   4.755   2.019
 2674SOL    HW2 8922   0.303   4.828   1.978
 2675SOL     OW 8923   5.406   7.009   4.284
 2675SOL    HW1 8924   5.493   0.032   4.286
 2675SOL    HW2 8925   5.399   6.949   4.364
 2676SOL     OW 8926   3.797   4.090   2.869
 2676SOL    HW1 8927   3.868   4.158   2.887
 2676SOL    HW2 8928   3.769   4.049   2.956
 2677SOL     OW 8929   2.572   4.918   1.442
 2677SOL    HW1 8930   2.512   4.885   1.369
 2677SOL    HW2 8931   2.527   4.905   1.530
 2678SOL     OW 8932   4.908   2.325   2.885
 2678SOL    HW1 8933   4.969   2.345   2.808
 2678SOL    HW2 8934   4.919   2.229   2.912
 2679SOL     OW 8935   2.106   4.141   3.164
 2679SOL    HW1 8936   2.171   4.204   3.122
 2679SOL    HW2 8937   2.028   4.128   3.102
 2680SOL     OW 8938   6.428   1.174   0.499
 2680SOL    HW1 8939   6.421   1.274   0.506
 2680SOL    HW2 8940   6.510   1.143   0.548
 2681SOL     OW 8941   1.947   2.034   4.918
 2681SOL    HW1 8942   1.946   1.984   4.832
 2681SOL    HW2 8943   2.025   2.097   4.919
 2682SOL     OW 8944   4.112   3.991   1.797
 2682SOL    HW1 8945   4.025   4.039   1.783
 2682SOL    HW2 8946   4.095   3.905   1.846
 2683SOL     OW 8947   2.438   4.541   2.062
 2683SOL    HW1 8948   2.443   4.476   2.137
 2683SOL    HW2 8949   2.412   4.631   2.098
 2684SOL     OW 8950   6.397   6.774   3.477
 2684SOL    HW1 8951   6.307   6.751   3.516
 2684SOL    HW2 8952   6.385   6.840   3.404
 2685SOL     OW 8953   1.507   5.664   5.829
 2685SOL    HW1 8954   1.601   5.633   5.844
 2685SOL    HW2 8955   1.487   5.740   5.891
 2686SOL     OW 8956   0.623   1.487   5.023
 2686SOL    HW1 8957   0.614   1.544   5.104
 2686SOL    HW2 8958   0.545   1.504   4.962
 2687SOL     OW 8959   4.133   1.684   1.364
 2687SOL    HW1 8960   4.176   1.597   1.390
 2687SOL    HW2 8961   4.174   1.717   1.279
 2688SOL     OW 8962   3.823   2.957   6.034
 2688SOL    HW1 8963   3.794   2.942   5.939
 2688SOL    HW2 8964   3.883   3.037   6.037
 2689SOL     OW 8965   0.932   3.660   3.262
 2689SOL    HW1 8966   0.903   3.695   3.173
 2689SOL    HW2 8967   1.030   3.678   3.274
 2690SOL     OW 8968   4.043   1.765   5.803
 2690SOL    HW1 8969   4.045   1.757   5.903
 2690SOL    HW2 8970   4.082   1.854   5.776
 2691SOL     OW 8971   6.721   4.068   3.983
 2691SOL    HW1 8972   6.757   4.131   3.914
 2691SOL    HW2 8973   6.763   3.978   3.971
 2692SOL     OW 8974   2.969   5.619   2.319
 2692SOL    HW1 8975   3.046   5.667   2.277
 2692SOL    HW2 8976   2.883   5.656   2.283
 2693SOL     OW 8977   2.053   5.486   2.973
 2693SOL    HW1 8978   2.068   5.579   3.008
 2693SOL    HW2 8979   2.073   5.484   2.875
 2694SOL     OW 8980   3.325   6.956   3.072
 2694SOL    HW1 8981   3.337   0.014   3.125
 2694SOL    HW2 8982   3.317   6.878   3.134
 2695SOL     OW 8983   0.221   5.746   3.114
 2695SOL    HW1 8984   0.320   5.751   3.111
 2695SOL    HW2 8985   0.183   5.837   3.128
 2696SOL     OW 8986   5.264   4.450   6.385
 2696SOL    HW1 8987   5.339   4.438   6.320
 2696SOL    HW2 8988   5.300   4.447   6.479
 2697SOL     OW 8989   4.239   2.423   0.041
 2697SOL    HW1 8990   4.326   2.452   7.026
 2697SOL    HW2 8991   4.176   2.501   0.042
 2698SOL     OW 8992   1.767   4.210   6.267
 2698SOL    HW1 8993   1.725   4.270   6.336
 2698SOL    HW2 8994   1.723   4.121   6.270
 2699SOL     OW 8995   2.972   6.726   2.136
 2699SOL    HW1 8996   2.887   6.704   2.089
 2699SOL    HW2 8997   3.005   6.647   2.186
 2700SOL     OW 8998   3.516   1.771   1.815
 2700SOL    HW1 8999   3.566   1.856   1.832
 2700SOL    HW2 9000   3.568   1.714   1.751
 2701SOL     OW 9001   4.982   2.735   5.158
 2701SOL    HW1 9002   5.064   2.692   5.196
 2701SOL    HW2 9003   4.976   2.829   5.190
 2702SOL     OW 9004   2.530   1.155   4.766
 2702SOL    HW1 9005   2.598   1.107   4.822
 2702SOL    HW2 9006   2.575   1.228   4.715
 2703SOL     OW 9007   1.467   6.614   2.654
 2703SOL    HW1 9008   1.435   6.567   2.572
 2703SOL    HW2 9009   1.494   6.707   2.631
 2704SOL     OW 9010   5.010   0.213   4.082
 2704SOL    HW1 9011   5.017   0.292   4.143
 2704SOL    HW2 9012   5.101   0.175   4.066
 2705SOL     OW 9013   0.019   0.509   5.449
 2705SOL    HW1 9014   0.043   0.599   5.413
 2705SOL    HW2 9015   0.101   0.453   5.459
 2706SOL     OW 9016   0.041   3.575   3.271
 2706SOL    HW1 9017   7.019   3.608   3.352
 2706SOL    HW2 9018   0.087   3.651   3.226
 2707SOL     OW 9019   3.700   0.727   3.113
 2707SOL    HW1 9020   3.655   0.809   3.077
 2707SOL    HW2 9021   3.708   0.659   3.041
 2708SOL     OW 9022   6.055   3.251   6.659
 2708SOL    HW1 9023   6.008   3.225   6.744
 2708SOL    HW2 9024   5.990   3.246   6.583
 2709SOL     OW 9025   4.631   1.248   4.602
 2709SOL    HW1 9026   4.569   1.169   4.602
 2709SOL    HW2 9027   4.723   1.218   4.625
 2710SOL     OW 9028   1.086   2.826   4.253
 2710SOL    HW1 9029   1.085   2.817   4.154
 2710SOL    HW2 9030   1.158   2.891   4.280
 2711SOL     OW 9031   3.419   1.411   1.780
 2711SOL    HW1 9032   3.388   1.479   1.847
 2711SOL    HW2 9033   3.466   1.337   1.828
 2712SOL     OW 9034   3.925   5.563   1.985
 2712SOL    HW1 9035   4.006   5.507   1.998
 2712SOL    HW2 9036   3.950   5.651   1.944
 2713SOL     OW 9037   3.880   4.776   6.417
 2713SOL    HW1 9038   3.873   4.844   6.344
 2713SOL    HW2 9039   3.835   4.692   6.390
 2714SOL     OW 9040   2.768   4.715   6.373
 2714SOL    HW1 9041   2.703   4.784   6.405
 2714SOL    HW2 9042   2.725   4.625   6.375
 2715SOL     OW 9043   4.108   1.126   6.954
 2715SOL    HW1 9044   4.051   1.047   6.976
 2715SOL    HW2 9045   4.144   1.117   6.861
 2716SOL     OW 9046   3.442   1.313   3.380
 2716SOL    HW1 9047   3.363   1.319   3.441
 2716SOL    HW2 9048   3.474   1.219   3.376
 2717SOL     OW 9049   0.963   0.918   2.797
 2717SOL    HW1 9050   0.937   0.889   2.889
 2717SOL    HW2 9051   1.044   0.977   2.803
 2718SOL     OW 9052   6.939   0.932   5.612
 2718SOL    HW1 9053   6.896   0.965   5.528
 2718SOL    HW2 9054   6.942   1.006   5.679
 2719SOL     OW 9055   1.980   4.361   2.015
 2719SOL    HW1 9056   2.076   4.347   1.992
 2719SOL    HW2 9057   1.934   4.272   2.023
 2720SOL     OW 9058   2.539   6.776   6.566
 2720SOL    HW1 9059   2.457   6.763   6.510
 2720SOL    HW2 9060   2.595   6.693   6.562
 2721SOL     OW 9061   3.259   6.042   1.718
 2721SOL    HW1 9062   3.180   6.065   1.662
 2721SOL    HW2 9063   3.238   5.963   1.775
 2722SOL     OW 9064   4.390   6.760   0.319
 2722SOL    HW1 9065   4.304   6.785   0.364
 2722SOL    HW2 9066   4.467   6.783   0.379
 2723SOL     OW 9067   3.472   6.214   6.417
 2723SOL    HW1 9068   3.488   6.145   6.488
 2723SOL    HW2 9069   3.559   6.255   6.391
 2724SOL     OW 9070   0.835   6.389   0.851
 2724SOL    HW1 9071   0.845   6.480   0.809
 2724SOL    HW2 9072   0.911   6.331   0.824
 2725SOL     OW 9073   6.063   3.921   4.994
 2725SOL    HW1 9074   6.087   3.879   4.907
 2725SOL    HW2 9075   6.065   3.851   5.066
 2726SOL     OW 9076   6.918   2.078   2.111
 2726SOL    HW1 9077   6.892   2.105   2.204
 2726SOL    HW2 9078   6.839   2.037   2.065
 2727SOL     OW 9079   2.175   5.110   3.783
 2727SOL    HW1 9080   2.179   5.205   3.814
 2727SOL    HW2 9081   2.267   5.075   3.769
 2728SOL     OW 9082   5.065   5.157   5.680
 2728SOL    HW1 9083   4.976   5.119   5.657
 2728SOL    HW2 9084   5.054   5.253   5.707
 2729SOL     OW 9085   5.298   6.694   6.112
 2729SOL    HW1 9086   5.232   6.696   6.186
 2729SOL    HW2 9087   5.307   6.600   6.077
 2730SOL     OW 9088   0.867   6.330   1.828
 2730SOL    HW1 9089   0.895   6.326   1.924
 2730SOL    HW2 9090   0.770   6.352   1.822
 2731SOL     OW 9091   3.663   3.713   4.180
 2731SOL    HW1 9092   3.590   3.766   4.138
 2731SOL    HW2 9093   3.626   3.658   4.254
 2732SOL     OW 9094   5.923   0.916   1.810
 2732SOL    HW1 9095   5.964   0.926   1.719
 2732SOL    HW2 9096   5.827   0.890   1.801
 2733SOL     OW 9097   1.301   6.593   6.814
 2733SOL    HW1 9098   1.277   6.503   6.778
 2733SOL    HW2 9099   1.385   6.585   6.868
 2734SOL     OW 9100   3.472   6.193   1.799
 2734SOL    HW1 9101   3.390   6.136   1.803
 2734SOL    HW2 9102   3.546   6.141   1.756
 2735SOL     OW 9103   0.930   1.595   1.686
 2735SOL    HW1 9104   1.005   1.659   1.698
 2735SOL    HW2 9105   0.899   1.596   1.590
 2736SOL     OW 9106   5.702   4.429   2.929
 2736SOL    HW1 9107   5.621   4.486   2.942
 2736SOL    HW2 9108   5.706   4.359   3.000
 2737SOL     OW 9109   2.435   1.373   5.529
 2737SOL    HW1 9110   2.456   1.408   5.620
 2737SOL    HW2 9111   2.505   1.404   5.464
 2738SOL     OW 9112   5.570   6.772   1.953
 2738SOL    HW1 9113   5.516   6.767   1.868
 2738SOL    HW2 9114   5.515   6.815   2.025
 2739SOL     OW 9115   6.573   5.806   1.784
 2739SOL    HW1 9116   6.602   5.778   1.876
 2739SOL    HW2 9117   6.477   5.834   1.786
 2740SOL     OW 9118   6.728   5.700   3.820
 2740SOL    HW1 9119   6.797   5.703   3.748
 2740SOL    HW2 9120   6.637   5.712   3.780
 2741SOL     OW 9121   1.227   1.510   5.082
 2741SOL    HW1 9122   1.304   1.536   5.141
 2741SOL    HW2 9123   1.226   1.569   5.001
 2742SOL     OW 9124   2.930   5.597   1.410
 2742SOL    HW1 9125   2.962   5.682   1.369
 2742SOL    HW2 9126   2.975   5.583   1.498
 2743SOL     OW 9127   5.574   3.294   2.995
 2743SOL    HW1 9128   5.514   3.258   3.067
 2743SOL    HW2 9129   5.533   3.275   2.906
 2744SOL     OW 9130   3.288   3.759   3.095
 2744SOL    HW1 9131   3.292   3.833   3.028
 2744SOL    HW2 9132   3.373   3.706   3.091
 2745SOL     OW 9133   0.576   6.756   6.779
 2745SOL    HW1 9134   0.665   6.802   6.779
 2745SOL    HW2 9135   0.504   6.825   6.768
 2746SOL     OW 9136   1.840   1.040   3.264
 2746SOL    HW1 9137   1.774   1.113   3.275
 2746SOL    HW2 9138   1.816   0.963   3.324
 2747SOL     OW 9139   3.765   5.340   0.601
 2747SOL    HW1 9140   3.822   5.402   0.547
 2747SOL    HW2 9141   3.824   5.277   0.652
 2748SOL     OW 9142   4.463   6.671   1.337
 2748SOL    HW1 9143   4.502   6.763   1.340
 2748SOL    HW2 9144   4.438   6.642   1.429
 2749SOL     OW 9145   3.069   3.137   0.189
 2749SOL    HW1 9146   3.114   3.158   0.103
 2749SOL    HW2 9147   3.107   3.052   0.226
 2750SOL     OW 9148   2.368   6.082   2.142
 2750SOL    HW1 9149   2.350   5.986   2.164
 2750SOL    HW2 9150   2.414   6.087   2.053
 2751SOL     OW 9151   5.969   3.629   0.640
 2751SOL    HW1 9152   5.958   3.723   0.610
 2751SOL    HW2 9153   5.883   3.596   0.679
 2752SOL     OW 9154   3.970   5.155   6.890
 2752SOL    HW1 9155   4.018   5.198   6.814
 2752SOL    HW2 9156   4.022   5.076   6.922
 2753SOL     OW 9157   6.452   6.119   5.339
 2753SOL    HW1 9158   6.353   6.104   5.346
 2753SOL    HW2 9159   6.469   6.189   5.269
 2754SOL     OW 9160   0.814   0.183   6.164
 2754SOL    HW1 9161   0.837   0.188   6.261
 2754SOL    HW2 9162   0.799   0.087   6.139
 2755SOL     OW 9163   2.548   0.624   2.479
 2755SOL    HW1 9164   2.479   0.591   2.414
 2755SOL    HW2 9165   2.632   0.646   2.429
 2756SOL     OW 9166   4.598   6.221   0.500
 2756SOL    HW1 9167   4.637   6.285   0.566
 2756SOL    HW2 9168   4.604   6.128   0.537
 2757SOL     OW 9169   0.737   5.238   1.136
 2757SOL    HW1 9170   0.822   5.187   1.136
 2757SOL    HW2 9171   0.678   5.207   1.061
 2758SOL     OW 9172   4.615   0.650   5.667
 2758SOL    HW1 9173   4.624   0.712   5.745
 2758SOL    HW2 9174   4.696   0.656   5.610
 2759SOL     OW 9175   5.874   5.944   4.859
 2759SOL    HW1 9176   5.897   6.040   4.848
 2759SOL    HW2 9177   5.813   5.933   4.937
 2760SOL     OW 9178   2.792   5.454   3.056
 2760SOL    HW1 9179   2.843   5.448   3.142
 2760SOL    HW2 9180   2.694   5.441   3.075
 2761SOL     OW 9181   2.344   5.908   3.052
 2761SOL    HW1 9182   2.416   5.958   3.100
 2761SOL    HW2 9183   2.370   5.897   2.956
 2762SOL     OW 9184   0.574   6.673   5.027
 2762SOL    HW1 9185   0.532   6.707   5.112
 2762SOL    HW2 9186   0.577   6.748   4.960
 2763SOL     OW 9187   5.871   1.584   2.523
 2763SOL    HW1 9188   5.777   1.567   2.492
 2763SOL    HW2 9189   5.870   1.654   2.594
 2764SOL     OW 9190   6.590   1.129   2.078
 2764SOL    HW1 9191   6.622   1.047   2.029
 2764SOL    HW2 9192   6.626   1.211   2.034
 2765SOL     OW 9193   6.132   1.205   1.787
 2765SOL    HW1 9194   6.200   1.192   1.860
 2765SOL    HW2 9195   6.162   1.278   1.726
 2766SOL     OW 9196   6.037   0.887   2.452
 2766SOL    HW1 9197   6.074   0.884   2.545
 2766SOL    HW2 9198   6.032   0.794   2.415
 2767SOL     OW 9199   5.614   4.300   6.289
 2767SOL    HW1 9200   5.674   4.358   6.344
 2767SOL    HW2 9201   5.560   4.356   6.227
 2768SOL     OW 9202   5.372   1.028   6.625
 2768SOL    HW1 9203   5.451   1.089   6.620
 2768SOL    HW2 9204   5.363   0.993   6.718
 2769SOL     OW 9205   0.541   3.739   1.533
 2769SOL    HW1 9206   0.519   3.837   1.532
 2769SOL    HW2 9207   0.456   3.687   1.539
 2770SOL     OW 9208   0.522   5.715   1.392
 2770SOL    HW1 9209   0.610   5.739   1.432
 2770SOL    HW2 9210   0.470   5.798   1.373
 2771SOL     OW 9211   4.893   1.251   1.403
 2771SOL    HW1 9212   4.973   1.201   1.437
 2771SOL    HW2 9213   4.836   1.190   1.348
 2772SOL     OW 9214   3.181   2.507   6.400
 2772SOL    HW1 9215   3.113   2.484   6.330
 2772SOL    HW2 9216   3.254   2.561   6.358
 2773SOL     OW 9217   3.976   4.034   6.487
 2773SOL    HW1 9218   3.907   3.987   6.542
 2773SOL    HW2 9219   3.931   4.076   6.407
 2774SOL     OW 9220   5.666   3.770   2.495
 2774SOL    HW1 9221   5.725   3.700   2.536
 2774SOL    HW2 9222   5.592   3.792   2.559
 2775SOL     OW 9223   0.177   5.886   1.633
 2775SOL    HW1 9224   0.165   5.788   1.651
 2775SOL    HW2 9225   0.113   5.938   1.689
 2776SOL     OW 9226   2.662   6.166   6.167
 2776SOL    HW1 9227   2.708   6.145   6.080
 2776SOL    HW2 9228   2.729   6.164   6.241
 2777SOL     OW 9229   3.357   1.482   2.727
 2777SOL    HW1 9230   3.312   1.539   2.658
 2777SOL    HW2 9231   3.414   1.540   2.785
 2778SOL     OW 9232   2.220   2.091   5.714
 2778SOL    HW1 9233   2.204   2.136   5.802
 2778SOL    HW2 9234   2.233   2.160   5.643
 2779SOL     OW 9235   5.646   0.588   6.907
 2779SOL    HW1 9236   5.564   0.547   6.947
 2779SOL    HW2 9237   5.662   0.678   6.948
 2780SOL     OW 9238   4.869   5.084   6.610
 2780SOL    HW1 9239   4.798   5.151   6.590
 2780SOL    HW2 9240   4.957   5.116   6.574
 2781SOL     OW 9241   5.452   4.586   0.663
 2781SOL    HW1 9242   5.507   4.670   0.667
 2781SOL    HW2 9243   5.496   4.520   0.603
 2782SOL     OW 9244   2.499   2.484   5.853
 2782SOL    HW1 9245   2.478   2.581   5.837
 2782SOL    HW2 9246   2.569   2.476   5.924
 2783SOL     OW 9247   0.003   5.106   5.245
 2783SOL    HW1 9248   6.998   5.088   5.338
 2783SOL    HW2 9249   7.014   5.024   5.189
 2784SOL     OW 9250   1.973   1.524   1.594
 2784SOL    HW1 9251   1.983   1.426   1.577
 2784SOL    HW2 9252   1.984   1.542   1.692
 2785SOL     OW 9253   6.540   0.730   0.938
 2785SOL    HW1 9254   6.617   0.780   0.898
 2785SOL    HW2 9255   6.529   0.755   1.034
 2786SOL     OW 9256   4.200   6.565   1.268
 2786SOL    HW1 9257   4.297   6.564   1.295
 2786SOL    HW2 9258   4.156   6.645   1.308
 2787SOL     OW 9259   2.472   2.972   5.525
 2787SOL    HW1 9260   2.541   2.944   5.459
 2787SOL    HW2 9261   2.382   2.969   5.482
 2788SOL     OW 9262   1.227   3.863   0.515
 2788SOL    HW1 9263   1.222   3.958   0.486
 2788SOL    HW2 9264   1.276   3.810   0.445
 2789SOL     OW 9265   0.514   2.390   3.969
 2789SOL    HW1 9266   0.551   2.309   4.015
 2789SOL    HW2 9267   0.439   2.427   4.023
 2790SOL     OW 9268   4.098   5.476   3.113
 2790SOL    HW1 9269   4.142   5.538   3.177
 2790SOL    HW2 9270   3.999   5.480   3.125
 2791SOL     OW 9271   1.661   3.317   4.676
 2791SOL    HW1 9272   1.600   3.373   4.732
 2791SOL    HW2 9273   1.612   3.237   4.642
 2792SOL     OW 9274   0.790   2.011   5.431
 2792SOL    HW1 9275   0.710   1.950   5.435
 2792SOL    HW2 9276   0.830   2.019   5.522
 2793SOL     OW 9277   4.670   1.195   3.553
 2793SOL    HW1 9278   4.643   1.108   3.593
 2793SOL    HW2 9279   4.761   1.185   3.511
 2794SOL     OW 9280   1.028   0.669   0.999
 2794SOL    HW1 9281   0.949   0.608   0.996
 2794SOL    HW2 9282   1.072   0.663   1.089
 2795SOL     OW 9283   2.751   4.107   1.099
 2795SOL    HW1 9284   2.720   4.157   1.018
 2795SOL    HW2 9285   2.796   4.022   1.070
 2796SOL     OW 9286   5.229   3.821   2.559
 2796SOL    HW1 9287   5.265   3.814   2.652
 2796SOL    HW2 9288   5.305   3.836   2.496
 2797SOL     OW 9289   4.843   4.867   4.866
 2797SOL    HW1 9290   4.930   4.875   4.915
 2797SOL    HW2 9291   4.856   4.891   4.770
 2798SOL     OW 9292   0.840   3.628   4.187
 2798SOL    HW1 9293   0.915   3.586   4.135
 2798SOL    HW2 9294   0.753   3.595   4.152
 2799SOL     OW 9295   6.476   4.732   5.999
 2799SOL    HW1 9296   6.459   4.816   6.051
 2799SOL    HW2 9297   6.559   4.743   5.944
 2800SOL     OW 9298   3.135   4.563   6.833
 2800SOL    HW1 9299   3.171   4.656   6.826
 2800SOL    HW2 9300   3.069   4.547   6.759
 2801SOL     OW 9301   5.669   5.691   1.901
 2801SOL    HW1 9302   5.714   5.775   1.872
 2801SOL    HW2 9303   5.672   5.684   2.001
 2802SOL     OW 9304   4.301   1.673   5.997
 2802SOL    HW1 9305   4.209   1.705   6.022
 2802SOL    HW2 9306   4.294   1.588   5.946
 2803SOL     OW 9307   3.171   6.349   6.647
 2803SOL    HW1 9308   3.172   6.343   6.547
 2803SOL    HW2 9309   3.204   6.439   6.675
 2804SOL     OW 9310   6.971   4.176   3.400
 2804SOL    HW1 9311   6.972   4.078   3.423
 2804SOL    HW2 9312   6.976   4.230   3.484
 2805SOL     OW 9313   5.561   3.203   0.335
 2805SOL    HW1 9314   5.478   3.247   0.301
 2805SOL    HW2 9315   5.623   3.184   0.258
 2806SOL     OW 9316   6.405   5.523   3.176
 2806SOL    HW1 9317   6.458   5.564   3.250
 2806SOL    HW2 9318   6.454   5.532   3.090
 2807SOL     OW 9319   4.497   4.957   3.305
 2807SOL    HW1 9320   4.568   4.888   3.295
 2807SOL    HW2 9321   4.408   4.913   3.313
 2808SOL     OW 9322   5.614   1.028   4.142
 2808SOL    HW1 9323   5.557   1.036   4.061
 2808SOL    HW2 9324   5.578   0.956   4.202
 2809SOL     OW 9325   5.165   2.387   1.113
 2809SOL    HW1 9326   5.223   2.359   1.037
 2809SOL    HW2 9327   5.072   2.355   1.098
 2810SOL     OW 9328   2.107   6.714   5.195
 2810SOL    HW1 9329   2.040   6.689   5.125
 2810SOL    HW2 9330   2.117   6.813   5.198
 2811SOL     OW 9331   6.746   2.020   3.323
 2811SOL    HW1 9332   6.803   2.100   3.309
 2811SOL    HW2 9333   6.675   2.041   3.391
 2812SOL     OW 9334   4.846   3.655   2.128
 2812SOL    HW1 9335   4.758   3.649   2.081
 2812SOL    HW2 9336   4.841   3.725   2.199
 2813SOL     OW 9337   6.005   0.723   6.734
 2813SOL    HW1 9338   5.962   0.661   6.800
 2813SOL    HW2 9339   6.022   0.812   6.778
 2814SOL     OW 9340   4.798   4.005   5.438
 2814SOL    HW1 9341   4.714   4.058   5.443
 2814SOL    HW2 9342   4.877   4.067   5.444
 2815SOL     OW 9343   0.081   1.025   5.264
 2815SOL    HW1 9344   0.045   0.960   5.196
 2815SOL    HW2 9345   0.034   1.113   5.254
 2816SOL     OW 9346   5.527   6.704   3.648
 2816SOL    HW1 9347   5.572   6.689   3.560
 2816SOL    HW2 9348   5.488   6.619   3.680
 2817SOL     OW 9349   1.046   1.751   1.449
 2817SOL    HW1 9350   1.057   1.797   1.361
 2817SOL    HW2 9351   1.095   1.802   1.520
 2818SOL     OW 9352   6.941   4.657   5.329
 2818SOL    HW1 9353   6.847   4.656   5.293
 2818SOL    HW2 9354   7.005   4.676   5.254
 2819SOL     OW 9355   0.267   2.820   1.398
 2819SOL    HW1 9356   0.333   2.860   1.335
 2819SOL    HW2 9357   0.194   2.776   1.345
 2820SOL     OW 9358   6.922   3.275   3.946
 2820SOL    HW1 9359   7.008   3.324   3.963
 2820SOL    HW2 9360   6.940   3.178   3.932
 2821SOL     OW 9361   1.310   4.106   4.609
 2821SOL    HW1 9362   1.356   4.169   4.547
 2821SOL    HW2 9363   1.364   4.023   4.619
 2822SOL     OW 9364   4.669   2.063   6.818
 2822SOL    HW1 9365   4.711   2.082   6.907
 2822SOL    HW2 9366   4.583   2.113   6.811
 2823SOL     OW 9367   1.979   6.521   3.234
 2823SOL    HW1 9368   1.941   6.518   3.142
 2823SOL    HW2 9369   1.927   6.458   3.293
 2824SOL     OW 9370   2.999   1.512   5.475
 2824SOL    HW1 9371   2.926   1.558   5.424
 2824SOL    HW2 9372   3.030   1.571   5.549
 2825SOL     OW 9373   6.387   6.143   1.432
 2825SOL    HW1 9374   6.478   6.126   1.395
 2825SOL    HW2 9375   6.395   6.197   1.516
 2826SOL     OW 9376   4.425   1.464   4.702
 2826SOL    HW1 9377   4.452   1.544   4.648
 2826SOL    HW2 9378   4.506   1.416   4.733
 2827SOL     OW 9379   5.527   1.069   5.041
 2827SOL    HW1 9380   5.505   1.130   4.965
 2827SOL    HW2 9381   5.447   1.061   5.101
 2828SOL     OW 9382   4.026   1.410   5.480
 2828SOL    HW1 9383   3.971   1.346   5.425
 2828SOL    HW2 9384   3.978   1.496   5.490
 2829SOL     OW 9385   2.632   6.906   6.078
 2829SOL    HW1 9386   2.709   6.908   6.141
 2829SOL    HW2 9387   2.659   6.944   5.990
 2830SOL     OW 9388   4.338   3.335   6.906
 2830SOL    HW1 9389   4.333   3.421   6.956
 2830SOL    HW2 9390   4.275   3.269   6.946
 2831SOL     OW 9391   5.752   6.179   4.311
 2831SOL    HW1 9392   5.770   6.275   4.286
 2831SOL    HW2 9393   5.659   6.171   4.347
 2832SOL     OW 9394   0.684   1.087   2.412
 2832SOL    HW1 9395   0.595   1.126   2.434
 2832SOL    HW2 9396   0.721   1.043   2.494
 2833SOL     OW 9397   6.157   2.914   2.075
 2833SOL    HW1 9398   6.102   2.989   2.112
 2833SOL    HW2 9399   6.099   2.833   2.061
 2834SOL     OW 9400   3.834   1.435   4.951
 2834SOL    HW1 9401   3.838   1.344   4.909
 2834SOL    HW2 9402   3.769   1.435   5.026
 2835SOL     OW 9403   0.335   6.904   2.415
 2835SOL    HW1 9404   0.261   6.915   2.482
 2835SOL    HW2 9405   0.336   6.810   2.381
 2836SOL     OW 9406   6.757   0.388   1.431
 2836SOL    HW1 9407   6.693   0.313   1.415
 2836SOL    HW2 9408   6.719   0.472   1.392
 2837SOL     OW 9409   5.056   4.202   3.978
 2837SOL    HW1 9410   5.038   4.107   4.006
 2837SOL    HW2 9411   5.054   4.261   4.058
 2838SOL     OW 9412   3.119   4.946   2.780
 2838SOL    HW1 9413   3.177   4.885   2.726
 2838SOL    HW2 9414   3.064   4.892   2.844
 2839SOL     OW 9415   5.215   2.069   1.564
 2839SOL    HW1 9416   5.184   2.066   1.469
 2839SOL    HW2 9417   5.308   2.108   1.567
 2840SOL     OW 9418   6.449   1.639   5.365
 2840SOL    HW1 9419   6.469   1.592   5.279
 2840SOL    HW2 9420   6.524   1.624   5.429
 2841SOL     OW 9421   0.785   6.192   1.090
 2841SOL    HW1 9422   0.772   6.229   0.998
 2841SOL    HW2 9423   0.757   6.260   1.157
 2842SOL     OW 9424   6.869   3.503   3.066
 2842SOL    HW1 9425   6.941   3.549   3.117
 2842SOL    HW2 9426   6.782   3.552   3.079
 2843SOL     OW 9427   3.992   0.932   4.186
 2843SOL    HW1 9428   4.027   1.024   4.167
 2843SOL    HW2 9429   3.902   0.939   4.230
 2844SOL     OW 9430   0.451   3.987   6.490
 2844SOL    HW1 9431   0.377   3.954   6.431
 2844SOL    HW2 9432   0.484   3.912   6.547
 2845SOL     OW 9433   6.982   4.767   5.920
 2845SOL    HW1 9434   6.982   4.796   5.824
 2845SOL    HW2 9435   0.019   4.691   5.932
 2846SOL     OW 9436   4.842   1.874   6.423
 2846SOL    HW1 9437   4.809   1.944   6.360
 2846SOL    HW2 9438   4.903   1.915   6.491
 2847SOL     OW 9439   5.796   4.580   4.285
 2847SOL    HW1 9440   5.782   4.679   4.292
 2847SOL    HW2 9441   5.894   4.560   4.285
 2848SOL     OW 9442   1.208   5.090   4.581
 2848SOL    HW1 9443   1.116   5.057   4.604
 2848SOL    HW2 9444   1.267   5.083   4.661
 2849SOL     OW 9445   2.884   2.012   1.384
 2849SOL    HW1 9446   2.977   2.039   1.410
 2849SOL    HW2 9447   2.888   1.949   1.307
 2850SOL     OW 9448   3.662   0.820   0.254
 2850SOL    HW1 9449   3.566   0.809   0.230
 2850SOL    HW2 9450   3.676   0.798   0.351
 2851SOL     OW 9451   1.038   4.420   5.603
 2851SOL    HW1 9452   1.039   4.327   5.638
 2851SOL    HW2 9453   1.117   4.470   5.638
 2852SOL     OW 9454   6.878   3.220   6.763
 2852SOL    HW1 9455   6.813   3.245   6.835
 2852SOL    HW2 9456   6.847   3.259   6.675
 2853SOL     OW 9457   3.476   3.580   0.680
 2853SOL    HW1 9458   3.401   3.599   0.617
 2853SOL    HW2 9459   3.524   3.665   0.701
 2854SOL     OW 9460   2.686   0.892   3.695
 2854SOL    HW1 9461   2.623   0.897   3.617
 2854SOL    HW2 9462   2.774   0.932   3.669
 2855SOL     OW 9463   1.913   0.740   4.970
 2855SOL    HW1 9464   1.860   0.819   5.000
 2855SOL    HW2 9465   2.008   0.767   4.955
 2856SOL     OW 9466   2.272   2.948   5.344
 2856SOL    HW1 9467   2.232   3.031   5.383
 2856SOL    HW2 9468   2.340   2.974   5.275
 2857SOL     OW 9469   3.216   3.208   1.803
 2857SOL    HW1 9470   3.203   3.230   1.900
 2857SOL    HW2 9471   3.142   3.149   1.772
 2858SOL     OW 9472   6.880   3.594   2.536
 2858SOL    HW1 9473   6.938   3.516   2.556
 2858SOL    HW2 9474   6.893   3.665   2.605
 2859SOL     OW 9475   5.688   0.271   0.980
 2859SOL    HW1 9476   5.778   0.238   1.008
 2859SOL    HW2 9477   5.628   0.278   1.059
 2860SOL     OW 9478   4.014   1.745   2.052
 2860SOL    HW1 9479   3.936   1.784   2.101
 2860SOL    HW2 9480   3.982   1.696   1.970
 2861SOL     OW 9481   3.669   5.556   5.655
 2861SOL    HW1 9482   3.632   5.628   5.713
 2861SOL    HW2 9483   3.662   5.468   5.701
 2862SOL     OW 9484   6.118   1.040   4.075
 2862SOL    HW1 9485   6.177   0.959   4.073
 2862SOL    HW2 9486   6.067   1.041   4.161
 2863SOL     OW 9487   6.671   1.986   6.992
 2863SOL    HW1 9488   6.743   2.055   7.003
 2863SOL    HW2 9489   6.703   1.898   0.002
 2864SOL     OW 9490   3.809   1.087   0.399
 2864SOL    HW1 9491   3.893   1.033   0.397
 2864SOL    HW2 9492   3.791   1.124   0.307
 2865SOL     OW 9493   4.957   4.378   5.139
 2865SOL    HW1 9494   4.940   4.464   5.090
 2865SOL    HW2 9495   4.883   4.314   5.121
 2866SOL     OW 9496   0.619   6.390   6.354
 2866SOL    HW1 9497   0.616   6.327   6.432
 2866SOL    HW2 9498   0.641   6.482   6.386
 2867SOL     OW 9499   6.426   4.200   3.723
 2867SOL    HW1 9500   6.507   4.255   3.705
 2867SOL    HW2 9501   6.407   4.199   3.821
 2868SOL     OW 9502   1.520   3.849   5.164
 2868SOL    HW1 9503   1.538   3.933   5.112
 2868SOL    HW2 9504   1.570   3.853   5.250
 2869SOL     OW 9505   6.319   0.833   1.916
 2869SOL    HW1 9506   6.247   0.786   1.864
 2869SOL    HW2 9507   6.316   0.804   2.011
 2870SOL     OW 9508   5.772   2.372   2.945
 2870SOL    HW1 9509   5.840   2.340   2.879
 2870SOL    HW2 9510   5.775   2.312   3.025
 2871SOL     OW 9511   1.694   2.052   6.103
 2871SOL    HW1 9512   1.701   1.994   6.022
 2871SOL    HW2 9513   1.770   2.118   6.103
 2872SOL     OW 9514   2.605   0.573   3.523
 2872SOL    HW1 9515   2.648   0.568   3.433
 2872SOL    HW2 9516   2.507   0.594   3.512
 2873SOL     OW 9517   0.404   5.794   2.202
 2873SOL    HW1 9518   0.452   5.727   2.146
 2873SOL    HW2 9519   0.306   5.791   2.181
 2874SOL     OW 9520   5.985   2.972   2.431
 2874SOL    HW1 9521   6.061   2.937   2.378
 2874SOL    HW2 9522   5.899   2.942   2.391
 2875SOL     OW 9523   3.676   5.490   6.444
 2875SOL    HW1 9524   3.598   5.439   6.479
 2875SOL    HW2 9525   3.650   5.540   6.361
 2876SOL     OW 9526   0.150   0.889   1.807
 2876SOL    HW1 9527   0.104   0.974   1.830
 2876SOL    HW2 9528   0.216   0.906   1.733
 2877SOL     OW 9529   3.069   2.886   5.501
 2877SOL    HW1 9530   3.020   2.959   5.454
 2877SOL    HW2 9531   3.122   2.833   5.434
 2878SOL     OW 9532   2.522   4.517   5.482
 2878SOL    HW1 9533   2.571   4.430   5.488
 2878SOL    HW2 9534   2.436   4.504   5.432
 2879SOL     OW 9535   4.915   4.485   0.431
 2879SOL    HW1 9536   4.933   4.497   0.333
 2879SOL    HW2 9537   4.823   4.448   0.444
 2880SOL     OW 9538   1.236   6.276   1.644
 2880SOL    HW1 9539   1.155   6.218   1.646
 2880SOL    HW2 9540   1.261   6.294   1.549
 2881SOL     OW 9541   6.899   6.271   0.633
 2881SOL    HW1 9542   6.898   6.360   0.588
 2881SOL    HW2 9543   6.894   6.198   0.564
 2882SOL     OW 9544   0.462   2.999   3.313
 2882SOL    HW1 9545   0.491   3.069   3.248
 2882SOL    HW2 9546   0.510   3.011   3.400
 2883SOL     OW 9547   3.729   0.044   2.195
 2883SOL    HW1 9548   3.660   0.038   2.267
 2883SOL    HW2 9549   3.816   0.074   2.234
 2884SOL     OW 9550   0.828   5.775   3.481
 2884SOL    HW1 9551   0.912   5.753   3.430
 2884SOL    HW2 9552   0.851   5.790   3.577
 2885SOL     OW 9553   0.955   2.552   2.979
 2885SOL    HW1 9554   0.879   2.490   2.959
 2885SOL    HW2 9555   0.932   2.609   3.058
 2886SOL     OW 9556   2.463   2.111   6.409
 2886SOL    HW1 9557   2.371   2.103   6.447
 2886SOL    HW2 9558   2.494   2.206   6.418
 2887SOL     OW 9559   1.257   0.508   4.910
 2887SOL    HW1 9560   1.242   0.424   4.962
 2887SOL    HW2 9561   1.282   0.582   4.972
 2888SOL     OW 9562   5.866   4.989   0.006
 2888SOL    HW1 9563   5.935   5.053   6.999
 2888SOL    HW2 9564   5.832   4.934   6.956
 2889SOL     OW 9565   0.299   0.289   1.638
 2889SOL    HW1 9566   0.274   0.234   1.718
 2889SOL    HW2 9567   0.234   0.272   1.564
 2890SOL     OW 9568   4.228   0.528   2.074
 2890SOL    HW1 9569   4.283   0.579   2.007
 2890SOL    HW2 9570   4.289   0.487   2.142
 2891SOL     OW 9571   2.594   4.662   3.809
 2891SOL    HW1 9572   2.519   4.620   3.860
 2891SOL    HW2 9573   2.676   4.664   3.867
 2892SOL     OW 9574   4.353   3.607   6.486
 2892SOL    HW1 9575   4.373   3.534   6.552
 2892SOL    HW2 9576   4.347   3.568   6.394
 2893SOL     OW 9577   2.381   0.229   4.832
 2893SOL    HW1 9578   2.392   0.252   4.929
 2893SOL    HW2 9579   2.411   0.306   4.776
 2894SOL     OW 9580   3.552   2.564   0.204
 2894SOL    HW1 9581   3.464   2.534   0.166
 2894SOL    HW2 9582   3.584   2.645   0.155
 2895SOL     OW 9583   3.676   3.611   6.367
 2895SOL    HW1 9584   3.774   3.611   6.347
 2895SOL    HW2 9585   3.657   3.545   6.440
 2896SOL     OW 9586   2.340   5.012   1.052
 2896SOL    HW1 9587   2.382   5.094   1.013
 2896SOL    HW2 9588   2.275   4.974   0.985
 2897SOL     OW 9589   2.274   6.121   3.759
 2897SOL    HW1 9590   2.282   6.039   3.703
 2897SOL    HW2 9591   2.303   6.100   3.852
 2898SOL     OW 9592   3.684   5.351   1.689
 2898SOL    HW1 9593   3.660   5.414   1.763
 2898SOL    HW2 9594   3.602   5.302   1.659
 2899SOL     OW 9595   6.646   6.937   0.054
 2899SOL    HW1 9596   6.686   6.987   7.003
 2899SOL    HW2 9597   6.556   6.974   0.075
 2900SOL     OW 9598   1.271   5.139   5.869
 2900SOL    HW1 9599   1.207   5.199   5.821
 2900SOL    HW2 9600   1.351   5.191   5.898
 2901SOL     OW 9601   2.873   0.471   1.702
 2901SOL    HW1 9602   2.790   0.502   1.749
 2901SOL    HW2 9603   2.860   0.377   1.670
 2902SOL     OW 9604   5.440   6.150   0.904
 2902SOL    HW1 9605   5.480   6.059   0.895
 2902SOL    HW2 9606   5.513   6.218   0.909
 2903SOL     OW 9607   2.257   1.183   1.963
 2903SOL    HW1 9608   2.271   1.264   1.905
 2903SOL    HW2 9609   2.319   1.110   1.934
 2904SOL     OW 9610   2.142   2.717   5.212
 2904SOL    HW1 9611   2.074   2.790   5.218
 2904SOL    HW2 9612   2.207   2.726   5.288
 2905SOL     OW 9613   1.621   1.937   1.834
 2905SOL    HW1 9614   1.603   1.898   1.924
 2905SOL    HW2 9615   1.613   2.037   1.838
 2906SOL     OW 9616   5.737   5.503   2.132
 2906SOL    HW1 9617   5.639   5.490   2.152
 2906SOL    HW2 9618   5.765   5.439   2.061
 2907SOL     OW 9619   6.960   1.527   4.378
 2907SOL    HW1 9620   7.004   1.465   4.444
 2907SOL    HW2 9621   6.866   1.497   4.361
 2908SOL     OW 9622   3.608   5.998   4.422
 2908SOL    HW1 9623   3.596   6.035   4.330
 2908SOL    HW2 9624   3.705   6.001   4.447
 2909SOL     OW 9625   0.935   5.390   4.631
 2909SOL    HW1 9626   0.930   5.375   4.729
 2909SOL    HW2 9627   1.030   5.410   4.605
 2910SOL     OW 9628   4.314   6.165   6.139
 2910SOL    HW1 9629   4.312   6.107   6.221
 2910SOL    HW2 9630   4.229   6.219   6.135
 2911SOL     OW 9631   1.787   4.786   3.399
 2911SOL    HW1 9632   1.730   4.708   3.375
 2911SOL    HW2 9633   1.806   4.785   3.498
 2912SOL     OW 9634   2.646   6.207   0.433
 2912SOL    HW1 9635   2.567   6.257   0.399
 2912SOL    HW2 9636   2.703   6.268   0.487
 2913SOL     OW 9637   1.822   3.744   2.498
 2913SOL    HW1 9638   1.771   3.792   2.427
 2913SOL    HW2 9639   1.883   3.677   2.456
 2914SOL     OW 9640   5.298   5.766   5.881
 2914SOL    HW1 9641   5.333   5.673   5.866
 2914SOL    HW2 9642   5.219   5.782   5.823
 2915SOL     OW 9643   4.611   1.869   3.654
 2915SOL    HW1 9644   4.545   1.838   3.586
 2915SOL    HW2 9645   4.566   1.926   3.722
 2916SOL     OW 9646   5.897   5.667   5.189
 2916SOL    HW1 9647   5.820   5.619   5.231
 2916SOL    HW2 9648   5.952   5.710   5.261
 2917SOL     OW 9649   4.677   0.639   2.001
 2917SOL    HW1 9650   4.648   0.545   1.983
 2917SOL    HW2 9651   4.645   0.698   1.927
 2918SOL     OW 9652   0.490   3.489   3.813
 2918SOL    HW1 9653   0.410   3.535   3.850
 2918SOL    HW2 9654   0.566   3.554   3.808
 2919SOL     OW 9655   6.128   5.915   0.471
 2919SOL    HW1 9656   6.121   6.015   0.468
 2919SOL    HW2 9657   6.059   5.879   0.534
 2920SOL     OW 9658   4.354   2.339   2.711
 2920SOL    HW1 9659   4.358   2.369   2.616
 2920SOL    HW2 9660   4.446   2.333   2.749
 2921SOL     OW 9661   0.067   0.823   2.600
 2921SOL    HW1 9662   0.026   0.904   2.557
 2921SOL    HW2 9663   0.013   0.797   2.680
 2922SOL     OW 9664   4.486   0.182   5.306
 2922SOL    HW1 9665   4.498   0.214   5.212
 2922SOL    HW2 9666   4.576   0.174   5.349
 2923SOL     OW 9667   6.271   4.944   2.135
 2923SOL    HW1 9668   6.262   4.949   2.035
 2923SOL    HW2 9669   6.181   4.942   2.177
 2924SOL     OW 9670   0.365   1.461   5.287
 2924SOL    HW1 9671   0.402   1.546   5.250
 2924SOL    HW2 9672   0.330   1.405   5.212
 2925SOL     OW 9673   5.413   3.137   1.696
 2925SOL    HW1 9674   5.511   3.140   1.712
 2925SOL    HW2 9675   5.365   3.179   1.773
 2926SOL     OW 9676   0.062   2.004   4.688
 2926SOL    HW1 9677   7.018   1.933   4.692
 2926SOL    HW2 9678   0.080   2.039   4.780
 2927SOL     OW 9679   1.062   2.735   2.543
 2927SOL    HW1 9680   1.040   2.640   2.521
 2927SOL    HW2 9681   1.147   2.761   2.497
 2928SOL     OW 9682   5.687   0.035   0.576
 2928SOL    HW1 9683   5.617   0.107   0.569
 2928SOL    HW2 9684   5.721   0.031   0.670
 2929SOL     OW 9685   0.006   6.955   6.078
 2929SOL    HW1 9686   7.017   6.859   6.056
 2929SOL    HW2 9687   6.952   6.991   6.126
 2930SOL     OW 9688   4.018   6.704   4.326
 2930SOL    HW1 9689   4.047   6.755   4.245
 2930SOL    HW2 9690   3.939   6.749   4.368
 2931SOL     OW 9691   4.342   6.759   6.419
 2931SOL    HW1 9692   4.346   6.857   6.441
 2931SOL    HW2 9693   4.343   6.706   6.503
 2932SOL     OW 9694   1.216   3.919   0.986
 2932SOL    HW1 9695   1.242   3.978   1.062
 2932SOL    HW2 9696   1.167   3.839   1.021
 2933SOL     OW 9697   5.217   2.150   3.390
 2933SOL    HW1 9698   5.238   2.231   3.443
 2933SOL    HW2 9699   5.237   2.068   3.444
 2934SOL     OW 9700   2.509   0.706   6.978
 2934SOL    HW1 9701   2.504   0.698   6.878
 2934SOL    HW2 9702   2.571   0.637   7.014
 2935SOL     OW 9703   5.833   2.603   1.419
 2935SOL    HW1 9704   5.776   2.669   1.467
 2935SOL    HW2 9705   5.860   2.641   1.330
 2936SOL     OW 9706   4.814   5.670   0.110
 2936SOL    HW1 9707   4.773   5.740   0.051
 2936SOL    HW2 9708   4.816   5.702   0.204
 2937SOL     OW 9709   3.283   5.655   6.753
 2937SOL    HW1 9710   3.218   5.657   6.829
 2937SOL    HW2 9711   3.369   5.615   6.784
 2938SOL     OW 9712   4.751   5.883   5.280
 2938SOL    HW1 9713   4.828   5.934   5.319
 2938SOL    HW2 9714   4.666   5.917   5.318
 2939SOL     OW 9715   6.750   6.343   5.541
 2939SOL    HW1 9716   6.685   6.283   5.588
 2939SOL    HW2 9717   6.724   6.438   5.556
 2940SOL     OW 9718   4.760   0.211   5.429
 2940SOL    HW1 9719   4.809   0.133   5.390
 2940SOL    HW2 9720   4.790   0.295   5.384
 2941SOL     OW 9721   1.211   1.884   5.198
 2941SOL    HW1 9722   1.141   1.895   5.268
 2941SOL    HW2 9723   1.214   1.966   5.140
 2942SOL     OW 9724   3.371   6.454   2.651
 2942SOL    HW1 9725   3.370   6.403   2.737
 2942SOL    HW2 9726   3.391   6.551   2.670
 2943SOL     OW 9727   6.267   3.835   3.515
 2943SOL    HW1 9728   6.266   3.821   3.416
 2943SOL    HW2 9729   6.287   3.748   3.561
 2944SOL     OW 9730   4.190   5.705   5.408
 2944SOL    HW1 9731   4.265   5.749   5.358
 2944SOL    HW2 9732   4.180   5.611   5.376
 2945SOL     OW 9733   3.079   3.230   3.290
 2945SOL    HW1 9734   3.177   3.253   3.286
 2945SOL    HW2 9735   3.032   3.270   3.212
 2946SOL     OW 9736   0.078   6.071   6.301
 2946SOL    HW1 9737   0.029   6.113   6.377
 2946SOL    HW2 9738   0.012   6.033   6.236
 2947SOL     OW 9739   6.395   4.251   0.356
 2947SOL    HW1 9740   6.350   4.240   0.267
 2947SOL    HW2 9741   6.428   4.345   0.365
 2948SOL     OW 9742   5.724   3.969   4.502
 2948SOL    HW1 9743   5.702   4.056   4.460
 2948SOL    HW2 9744   5.652   3.944   4.567
 2949SOL     OW 9745   1.144   6.671   0.433
 2949SOL    HW1 9746   1.054   6.714   0.427
 2949SOL    HW2 9747   1.210   6.722   0.378
 2950SOL     OW 9748   5.124   3.189   4.263
 2950SOL    HW1 9749   5.185   3.177   4.184
 2950SOL    HW2 9750   5.162   3.259   4.323
 2951SOL     OW 9751   0.745   1.472   1.493
 2951SOL    HW1 9752   0.799   1.395   1.528
 2951SOL    HW2 9753   0.688   1.441   1.417
 2952SOL     OW 9754   1.831   4.061   2.628
 2952SOL    HW1 9755   1.803   3.966   2.613
 2952SOL    HW2 9756   1.775   4.101   2.701
 2953SOL     OW 9757   4.508   2.590   1.921
 2953SOL    HW1 9758   4.515   2.631   1.830
 2953SOL    HW2 9759   4.571   2.637   1.984
 2954SOL     OW 9760   6.491   6.753   3.116
 2954SOL    HW1 9761   6.528   6.686   3.052
 2954SOL    HW2 9762   6.559   6.823   3.134
 2955SOL     OW 9763   0.759   3.010   0.471
 2955SOL    HW1 9764   0.834   3.044   0.415
 2955SOL    HW2 9765   0.752   3.065   0.555
 2956SOL     OW 9766   0.150   5.013   2.944
 2956SOL    HW1 9767   0.170   5.110   2.933
 2956SOL    HW2 9768   0.136   4.992   3.041
 2957SOL     OW 9769   0.631   3.658   1.983
 2957SOL    HW1 9770   0.640   3.560   2.001
 2957SOL    HW2 9771   0.673   3.680   1.895
 2958SOL     OW 9772   1.934   4.512   6.276
 2958SOL    HW1 9773   1.900   4.551   6.361
 2958SOL    HW2 9774   1.858   4.474   6.224
 2959SOL     OW 9775   4.377   5.654   6.637
 2959SOL    HW1 9776   4.421   5.565   6.650
 2959SOL    HW2 9777   4.284   5.641   6.604
 2960SOL     OW 9778   1.848   1.486   0.193
 2960SOL    HW1 9779   1.887   1.405   0.239
 2960SOL    HW2 9780   1.748   1.484   0.202
 2961SOL     OW 9781   5.526   3.779   3.938
 2961SOL    HW1 9782   5.432   3.806   3.919
 2961SOL    HW2 9783   5.541   3.687   3.903
 2962SOL     OW 9784   4.600   0.630   3.533
 2962SOL    HW1 9785   4.583   0.558   3.466
 2962SOL    HW2 9786   4.515   0.651   3.582
 2963SOL     OW 9787   2.016   1.729   5.175
 2963SOL    HW1 9788   1.940   1.666   5.193
 2963SOL    HW2 9789   1.992   1.820   5.208
 2964SOL     OW 9790   2.947   6.004   0.685
 2964SOL    HW1 9791   2.991   5.925   0.643
 2964SOL    HW2 9792   3.015   6.076   0.699
 2965SOL     OW 9793   0.196   1.468   6.034
 2965SOL    HW1 9794   0.139   1.534   5.984
 2965SOL    HW2 9795   0.283   1.511   6.059
 2966SOL     OW 9796   5.379   4.650   4.250
 2966SOL    HW1 9797   5.318   4.571   4.248
 2966SOL    HW2 9798   5.392   4.681   4.344
 2967SOL     OW 9799   6.010   2.764   3.803
 2967SOL    HW1 9800   6.102   2.765   3.765
 2967SOL    HW2 9801   5.974   2.671   3.801
 2968SOL     OW 9802   0.535   3.970   3.759
 2968SOL    HW1 9803   0.620   3.948   3.807
 2968SOL    HW2 9804   0.495   3.885   3.723
 2969SOL     OW 9805   4.808   2.091   4.606
 2969SOL    HW1 9806   4.768   2.136   4.527
 2969SOL    HW2 9807   4.768   2.000   4.617
 2970SOL     OW 9808   0.790   4.407   6.379
 2970SOL    HW1 9809   0.770   4.372   6.471
 2970SOL    HW2 9810   0.864   4.474   6.385
 2971SOL     OW 9811   5.274   2.169   2.840
 2971SOL    HW1 9812   5.348   2.162   2.773
 2971SOL    HW2 9813   5.210   2.094   2.826
 2972SOL     OW 9814   6.734   3.381   5.799
 2972SOL    HW1 9815   6.661   3.378   5.731
 2972SOL    HW2 9816   6.821   3.361   5.755
 2973SOL     OW 9817   4.875   6.268   3.995
 2973SOL    HW1 9818   4.969   6.299   4.011
 2973SOL    HW2 9819   4.829   6.332   3.933
 2974SOL     OW 9820   6.861   4.331   3.006
 2974SOL    HW1 9821   6.821   4.318   3.097
 2974SOL    HW2 9822   6.948   4.380   3.014
 2975SOL     OW 9823   0.173   0.707   5.345
 2975SOL    HW1 9824   0.260   0.663   5.365
 2975SOL    HW2 9825   0.175   0.802   5.377
 2976SOL     OW 9826   3.551   1.096   2.448
 2976SOL    HW1 9827   3.499   1.019   2.410
 2976SOL    HW2 9828   3.542   1.175   2.387
 2977SOL     OW 9829   3.174   6.517   3.841
 2977SOL    HW1 9830   3.112   6.474   3.907
 2977SOL    HW2 9831   3.268   6.505   3.870
 2978SOL     OW 9832   5.600   4.712   6.962
 2978SOL    HW1 9833   5.671   4.642   6.960
 2978SOL    HW2 9834   5.591   4.753   6.871
 2979SOL     OW 9835   3.703   0.549   2.882
 2979SOL    HW1 9836   3.792   0.554   2.838
 2979SOL    HW2 9837   3.671   0.454   2.882
 2980SOL     OW 9838   0.364   5.986   4.469
 2980SOL    HW1 9839   0.426   5.999   4.392
 2980SOL    HW2 9840   0.291   5.922   4.443
 2981SOL     OW 9841   2.103   1.180   5.750
 2981SOL    HW1 9842   2.011   1.148   5.726
 2981SOL    HW2 9843   2.157   1.190   5.667
 2982SOL     OW 9844   4.665   6.225   2.254
 2982SOL    HW1 9845   4.657   6.323   2.234
 2982SOL    HW2 9846   4.750   6.190   2.215
 2983SOL     OW 9847   6.737   0.908   4.036
 2983SOL    HW1 9848   6.649   0.867   4.062
 2983SOL    HW2 9849   6.750   0.898   3.937
 2984SOL     OW 9850   5.859   5.391   1.630
 2984SOL    HW1 9851   5.794   5.320   1.604
 2984SOL    HW2 9852   5.814   5.480   1.628
 2985SOL     OW 9853   6.458   2.219   2.978
 2985SOL    HW1 9854   6.498   2.132   3.006
 2985SOL    HW2 9855   6.521   2.267   2.917
 2986SOL     OW 9856   1.406   3.228   5.475
 2986SOL    HW1 9857   1.491   3.247   5.426
 2986SOL    HW2 9858   1.398   3.289   5.554
 2987SOL     OW 9859   4.475   2.019   4.617
 2987SOL    HW1 9860   4.408   1.945   4.605
 2987SOL    HW2 9861   4.563   1.991   4.579
 2988SOL     OW 9862   1.403   0.261   1.675
 2988SOL    HW1 9863   1.369   0.168   1.686
 2988SOL    HW2 9864   1.354   0.306   1.600
 2989SOL     OW 9865   6.949   4.934   1.059
 2989SOL    HW1 9866   6.986   4.961   1.148
 2989SOL    HW2 9867   7.023   4.906   0.999
 2990SOL     OW 9868   3.896   1.522   1.234
 2990SOL    HW1 9869   3.908   1.616   1.266
 2990SOL    HW2 9870   3.984   1.486   1.202
 2991SOL     OW 9871   6.851   3.652   0.508
 2991SOL    HW1 9872   6.834   3.629   0.412
 2991SOL    HW2 9873   6.788   3.601   0.566
 2992SOL     OW 9874   3.376   5.141   6.340
 2992SOL    HW1 9875   3.416   5.232   6.345
 2992SOL    HW2 9876   3.283   5.143   6.378
 2993SOL     OW 9877   1.327   5.542   1.267
 2993SOL    HW1 9878   1.334   5.475   1.192
 2993SOL    HW2 9879   1.412   5.541   1.320
 2994SOL     OW 9880   4.991   6.803   6.982
 2994SOL    HW1 9881   5.010   6.869   6.910
 2994SOL    HW2 9882   5.073   6.750   7.001
 2995SOL     OW 9883   1.573   1.632   6.375
 2995SOL    HW1 9884   1.664   1.617   6.413
 2995SOL    HW2 9885   1.572   1.720   6.327
 2996SOL     OW 9886   4.098   5.266   5.623
 2996SOL    HW1 9887   4.051   5.220   5.697
 2996SOL    HW2 9888   4.149   5.199   5.568
 2997SOL     OW 9889   5.778   6.728   1.114
 2997SOL    HW1 9890   5.830   6.753   1.033
 2997SOL    HW2 9891   5.766   6.808   1.173
 2998SOL     OW 9892   6.135   5.647   4.153
 2998SOL    HW1 9893   6.051   5.676   4.107
 2998SOL    HW2 9894   6.112   5.582   4.225
 2999SOL     OW 9895   3.591   6.851   3.200
 2999SOL    HW1 9896   3.665   6.785   3.194
 2999SOL    HW2 9897   3.506   6.808   3.168
 3000SOL     OW 9898   1.109   2.893   5.680
 3000SOL    HW1 9899   1.192   2.949   5.681
 3000SOL    HW2 9900   1.134   2.796   5.678
 3001SOL     OW 9901   5.190   0.223   5.649
 3001SOL    HW1 9902   5.204   0.260   5.558
 3001SOL    HW2 9903   5.156   0.295   5.710
 3002SOL     OW 9904   3.723   0.401   5.932
 3002SOL    HW1 9905   3.751   0.493   5.904
 3002SOL    HW2 9906   3.630   0.383   5.899
 3003SOL     OW 9907   3.040   6.641   5.749
 3003SOL    HW1 9908   2.965   6.652   5.684
 3003SOL    HW2 9909   3.011   6.677   5.839
 3004SOL     OW 9910   5.890   3.351   4.422
 3004SOL    HW1 9911   5.803   3.310   4.447
 3004SOL    HW2 9912   5.954   3.343   4.498
 3005SOL     OW 9913   4.086   2.853   1.194
 3005SOL    HW1 9914   4.113   2.897   1.279
 3005SOL    HW2 9915   4.049   2.921   1.131
 3006SOL     OW 9916   5.444   0.573   1.327
 3006SOL    HW1 9917   5.456   0.644   1.397
 3006SOL    HW2 9918   5.364   0.517   1.351
 3007SOL     OW 9919   6.043   4.893   2.999
 3007SOL    HW1 9920   6.116   4.843   2.952
 3007SOL    HW2 9921   5.956   4.845   2.988
 3008SOL     OW 9922   3.295   6.636   5.699
 3008SOL    HW1 9923   3.196   6.639   5.714
 3008SOL    HW2 9924   3.342   6.669   5.781
 3009SOL     OW 9925   1.204   6.897   3.207
 3009SOL    HW1 9926   1.201   6.957   3.287
 3009SOL    HW2 9927   1.295   6.900   3.167
 3010SOL     OW 9928   3.915   6.201   2.746
 3010SOL    HW1 9929   3.913   6.226   2.650
 3010SOL    HW2 9930   3.847   6.254   2.796
 3011SOL     OW 9931   5.461   6.785   0.151
 3011SOL    HW1 9932   5.416   6.867   0.116
 3011SOL    HW2 9933   5.518   6.810   0.230
 3012SOL     OW 9934   0.264   4.064   3.490
 3012SOL    HW1 9935   0.235   4.113   3.407
 3012SOL    HW2 9936   0.249   3.966   3.478
 3013SOL     OW 9937   6.131   5.321   2.023
 3013SOL    HW1 9938   6.135   5.378   2.105
 3013SOL    HW2 9939   6.045   5.337   1.974
 3014SOL     OW 9940   4.516   0.747   4.012
 3014SOL    HW1 9941   4.427   0.701   4.023
 3014SOL    HW2 9942   4.581   0.684   3.970
 3015SOL     OW 9943   3.112   2.249   0.677
 3015SOL    HW1 9944   3.187   2.309   0.651
 3015SOL    HW2 9945   3.114   2.166   0.620
 3016SOL     OW 9946   3.936   0.011   3.290
 3016SOL    HW1 9947   4.011   0.027   3.354
 3016SOL    HW2 9948   3.919   0.094   3.236
 3017SOL     OW 9949   0.860   6.035   1.334
 3017SOL    HW1 9950   0.862   6.049   1.235
 3017SOL    HW2 9951   0.802   5.957   1.355
 3018SOL     OW 9952   3.989   6.478   0.003
 3018SOL    HW1 9953   4.086   6.464   0.023
 3018SOL    HW2 9954   3.940   6.492   0.089
 3019SOL     OW 9955   3.862   6.910   1.215
 3019SOL    HW1 9956   3.855   7.004   1.180
 3019SOL    HW2 9957   3.938   6.904   1.279
 3020SOL     OW 9958   2.574   3.170   1.148
 3020SOL    HW1 9959   2.645   3.174   1.077
 3020SOL    HW2 9960   2.506   3.242   1.131
 3021SOL     OW 9961   2.260   2.372   0.337
 3021SOL    HW1 9962   2.343   2.327   0.370
 3021SOL    HW2 9963   2.243   2.454   0.391
 3022SOL     OW 9964   4.864   6.922   2.950
 3022SOL    HW1 9965   4.880   7.020   2.934
 3022SOL    HW2 9966   4.774   6.910   2.992
 3023SOL     OW 9967   4.863   5.810   2.597
 3023SOL    HW1 9968   4.824   5.783   2.685
 3023SOL    HW2 9969   4.806   5.880   2.555
 3024SOL     OW 9970   3.168   0.594   0.119
 3024SOL    HW1 9971   3.196   0.632   0.207
 3024SOL    HW2 9972   3.203   0.651   0.045
 3025SOL     OW 9973   2.518   2.624   1.019
 3025SOL    HW1 9974   2.569   2.567   1.083
 3025SOL    HW2 9975   2.579   2.694   0.980
 3026SOL     OW 9976   1.943   3.645   0.925
 3026SOL    HW1 9977   1.993   3.649   1.012
 3026SOL    HW2 9978   2.000   3.685   0.853
 3027SOL     OW 9979   1.858   1.894   3.386
 3027SOL    HW1 9980   1.939   1.843   3.415
 3027SOL    HW2 9981   1.870   1.924   3.291
 3028SOL     OW 9982   1.275   5.910   5.671
 3028SOL    HW1 9983   1.201   5.880   5.611
 3028SOL    HW2 9984   1.363   5.901   5.624
 3029SOL     OW 9985   6.308   5.664   5.255
 3029SOL    HW1 9986   6.214   5.659   5.221
 3029SOL    HW2 9987   6.308   5.650   5.355
 3030SOL     OW 9988   1.405   1.683   5.216
 3030SOL    HW1 9989   1.325   1.744   5.220
 3030SOL    HW2 9990   1.462   1.698   5.297
 3031SOL     OW 9991   0.285   4.416   5.964
 3031SOL    HW1 9992   0.286   4.323   5.927
 3031SOL    HW2 9993   0.359   4.426   6.030
 3032SOL     OW 9994   5.009   0.663   5.849
 3032SOL    HW1 9995   4.946   0.732   5.883
 3032SOL    HW2 9996   5.103   0.686   5.876
 3033SOL     OW 9997   0.444   3.826   6.747
 3033SOL    HW1 9998   0.355   3.842   6.788
 3033SOL    HW2 9999   0.436   3.760   6.672
 3034SOL     OW10000   2.889   6.159   4.602
 3034SOL    HW110001   2.882   6.083   4.667
 3034SOL    HW210002   2.836   6.237   4.636
 3035SOL     OW10003   5.471   1.188   0.174
 3035SOL    HW110004   5.432   1.246   0.246
 3035SOL    HW210005   5.554   1.230   0.139
 3036SOL     OW10006   1.238   4.372   6.732
 3036SOL    HW110007   1.233   4.298   6.665
 3036SOL    HW210008   1.275   4.336   6.818
 3037SOL     OW10009   6.743   6.360   5.241
 3037SOL    HW110010   6.743   6.270   5.198
 3037SOL    HW210011   6.746   6.349   5.341
 3038SOL     OW10012   5.383   6.936   5.968
 3038SOL    HW110013   5.331   6.959   5.886
 3038SOL    HW210014   5.346   6.853   6.009
 3039SOL     OW10015   0.662   4.452   1.579
 3039SOL    HW110016   0.727   4.527   1.565
 3039SOL    HW210017   0.712   4.369   1.602
 3040SOL     OW10018   2.765   3.394   6.923
 3040SOL    HW110019   2.789   3.344   7.006
 3040SOL    HW210020   2.672   3.368   6.895
 3041SOL     OW10021   1.940   2.182   6.108
 3041SOL    HW110022   2.033   2.149   6.122
 3041SOL    HW210023   1.933   2.229   6.020
 3042SOL     OW10024   4.405   0.363   1.778
 3042SOL    HW110025   4.392   0.459   1.801
 3042SOL    HW210026   4.341   0.337   1.705
 3043SOL     OW10027   0.636   5.674   0.664
 3043SOL    HW110028   0.710   5.609   0.680
 3043SOL    HW210029   0.617   5.679   0.566
 3044SOL     OW10030   3.415   4.480   6.154
 3044SOL    HW110031   3.352   4.407   6.126
 3044SOL    HW210032   3.478   4.499   6.079
 3045SOL     OW10033   5.572   1.842   2.644
 3045SOL    HW110034   5.541   1.758   2.599
 3045SOL    HW210035   5.508   1.865   2.717
 3046SOL     OW10036   1.547   2.541   5.548
 3046SOL    HW110037   1.522   2.502   5.636
 3046SOL    HW210038   1.467   2.583   5.506
 3047SOL     OW10039   6.098   5.338   2.550
 3047SOL    HW110040   6.160   5.316   2.626
 3047SOL    HW210041   6.035   5.410   2.579
 3048SOL     OW10042   3.379   2.970   1.428
 3048SOL    HW110043   3.371   2.874   1.403
 3048SOL    HW210044   3.375   3.026   1.345
 3049SOL     OW10045   0.942   0.488   1.979
 3049SOL    HW110046   0.847   0.480   1.949
 3049SOL    HW210047   0.959   0.579   2.014
 3050SOL     OW10048   4.504   5.662   3.832
 3050SOL    HW110049   4.547   5.572   3.836
 3050SOL    HW210050   4.568   5.731   3.864
 3051SOL     OW10051   2.920   5.051   0.123
 3051SOL    HW110052   2.986   5.035   0.050
 3051SOL    HW210053   2.928   4.980   0.192
 3052SOL     OW10054   3.901   6.724   2.927
 3052SOL    HW110055   3.845   6.685   3.000
 3052SOL    HW210056   3.960   6.796   2.966
 3053SOL     OW10057   5.910   6.162   0.146
 3053SOL    HW110058   5.848   6.097   0.190
 3053SOL    HW210059   6.002   6.122   0.142
 3054SOL     OW10060   0.710   3.293   6.977
 3054SOL    HW110061   0.677   3.199   6.986
 3054SOL    HW210062   0.679   3.331   6.890
 3055SOL     OW10063   5.774   6.149   3.487
 3055SOL    HW110064   5.795   6.052   3.492
 3055SOL    HW210065   5.682   6.162   3.452
 3056SOL     OW10066   6.689   0.428   0.919
 3056SOL    HW110067   6.671   0.329   0.916
 3056SOL    HW210068   6.779   0.446   0.881
 3057SOL     OW10069   5.826   5.153   2.553
 3057SOL    HW110070   5.895   5.148   2.626
 3057SOL    HW210071   5.736   5.133   2.591
 3058SOL     OW10072   6.652   5.277   1.027
 3058SOL    HW110073   6.704   5.352   0.985
 3058SOL    HW210074   6.555   5.300   1.029
 3059SOL     OW10075   1.523   2.391   4.764
 3059SOL    HW110076   1.509   2.488   4.787
 3059SOL    HW210077   1.620   2.369   4.770
 3060SOL     OW10078   6.689   6.513   1.613
 3060SOL    HW110079   6.658   6.505   1.519
 3060SOL    HW210080   6.789   6.525   1.614
 3061SOL     OW10081   0.386   0.233   5.429
 3061SOL    HW110082   0.337   0.251   5.514
 3061SOL    HW210083   0.472   0.284   5.429
 3062SOL     OW10084   2.677   6.075   0.680
 3062SOL    HW110085   2.646   6.093   0.587
 3062SOL    HW210086   2.776   6.060   0.681
 3063SOL     OW10087   1.697   5.154   1.425
 3063SOL    HW110088   1.699   5.074   1.485
 3063SOL    HW210089   1.732   5.130   1.335
 3064SOL     OW10090   6.113   3.995   2.975
 3064SOL    HW110091   6.194   4.024   2.924
 3064SOL    HW210092   6.033   4.048   2.945
 3065SOL     OW10093   1.480   0.938   6.909
 3065SOL    HW110094   1.426   1.023   6.905
 3065SOL    HW210095   1.423   0.861   6.879
 3066SOL     OW10096   6.323   4.747   1.491
 3066SOL    HW110097   6.384   4.723   1.567
 3066SOL    HW210098   6.359   4.827   1.444
 3067SOL     OW10099   4.677   6.823   4.153
 3067SOL    HW110100   4.688   6.916   4.188
 3067SOL    HW210101   4.623   6.826   4.068
 3068SOL     OW10102   5.709   5.213   0.946
 3068SOL    HW110103   5.756   5.179   0.864
 3068SOL    HW210104   5.773   5.266   1.001
 3069SOL     OW10105   0.464   6.053   2.234
 3069SOL    HW110106   0.522   6.085   2.309
 3069SOL    HW210107   0.420   5.967   2.260
 3070SOL     OW10108   3.120   1.435   4.139
 3070SOL    HW110109   3.202   1.440   4.083
 3070SOL    HW210110   3.053   1.374   4.096
 3071SOL     OW10111   5.544   6.971   3.592
 3071SOL    HW110112   5.506   6.881   3.612
 3071SOL    HW210113   5.613   6.962   3.519
 3072SOL     OW10114   0.612   6.812   2.047
 3072SOL    HW110115   0.551   6.888   2.067
 3072SOL    HW210116   0.622   6.803   1.948
 3073SOL     OW10117   1.302   3.586   5.313
 3073SOL    HW110118   1.367   3.583   5.237
 3073SOL    HW210119   1.264   3.678   5.321
 3074SOL     OW10120   4.279   3.057   5.802
 3074SOL    HW110121   4.359   3.027   5.854
 3074SOL    HW210122   4.302   3.141   5.752
 3075SOL     OW10123   1.538   5.648   1.026
 3075SOL    HW110124   1.546   5.703   1.109
 3075SOL    HW210125   1.481   5.568   1.045
 3076SOL     OW10126   6.447   0.522   4.913
 3076SOL    HW110127   6.525   0.464   4.938
 3076SOL    HW210128   6.441   0.599   4.977
 3077SOL     OW10129   5.603   4.552   4.505
 3077SOL    HW110130   5.670   4.585   4.437
 3077SOL    HW210131   5.581   4.626   4.568
 3078SOL     OW10132   1.752   3.872   1.852
 3078SOL    HW110133   1.817   3.799   1.829
 3078SOL    HW210134   1.682   3.835   1.914
 3079SOL     OW10135   6.755   2.171   5.061
 3079SOL    HW110136   6.717   2.232   5.131
 3079SOL    HW210137   6.854   2.182   5.058
 3080SOL     OW10138   6.543   5.002   0.704
 3080SOL    HW110139   6.626   5.034   0.750
 3080SOL    HW210140   6.552   4.905   0.685
 3081SOL     OW10141   0.304   4.707   5.437
 3081SOL    HW110142   0.369   4.776   5.468
 3081SOL    HW210143   0.348   4.646   5.371
 3082SOL     OW10144   3.175   0.159   2.515
 3082SOL    HW110145   3.269   0.165   2.480
 3082SOL    HW210146   3.149   0.063   2.524
 3083SOL     OW10147   3.347   0.781   1.867
 3083SOL    HW110148   3.283   0.755   1.795
 3083SOL    HW210149   3.303   0.771   1.956
 3084SOL     OW10150   5.663   5.831   4.714
 3084SOL    HW110151   5.587   5.842   4.777
 3084SOL    HW210152   5.746   5.870   4.754
 3085SOL     OW10153   0.330   5.609   2.548
 3085SOL    HW110154   0.297   5.702   2.532
 3085SOL    HW210155   0.417   5.595   2.501
 3086SOL     OW10156   4.681   1.321   3.774
 3086SOL    HW110157   4.612   1.291   3.841
 3086SOL    HW210158   4.660   1.282   3.685
 3087SOL     OW10159   6.254   4.082   2.738
 3087SOL    HW110160   6.342   4.126   2.755
 3087SOL    HW210161   6.268   4.003   2.678
 3088SOL     OW10162   2.560   4.640   5.742
 3088SOL    HW110163   2.538   4.738   5.747
 3088SOL    HW210164   2.547   4.608   5.648
 3089SOL     OW10165   1.385   2.850   0.071
 3089SOL    HW110166   1.329   2.929   0.046
 3089SOL    HW210167   1.470   2.851   0.018
 3090SOL     OW10168   1.231   1.643   1.082
 3090SOL    HW110169   1.304   1.644   1.151
 3090SOL    HW210170   1.234   1.557   1.031
 3091SOL     OW10171   2.634   6.897   0.746
 3091SOL    HW110172   2.574   6.857   0.677
 3091SOL    HW210173   2.698   6.960   0.702
 3092SOL     OW10174   5.699   6.969   1.298
 3092SOL    HW110175   5.763   0.016   1.273
 3092SOL    HW210176   5.747   6.900   1.351
 3093SOL     OW10177   5.964   5.452   5.593
 3093SOL    HW110178   5.910   5.370   5.573
 3093SOL    HW210179   5.911   5.533   5.570
 3094SOL     OW10180   3.132   6.068   5.489
 3094SOL    HW110181   3.132   6.117   5.576
 3094SOL    HW210182   3.224   6.034   5.470
 3095SOL     OW10183   2.678   4.738   4.664
 3095SOL    HW110184   2.707   4.712   4.756
 3095SOL    HW210185   2.597   4.686   4.639
 3096SOL     OW10186   0.397   0.757   5.075
 3096SOL    HW110187   0.429   0.797   4.989
 3096SOL    HW210188   0.307   0.715   5.061
 3097SOL     OW10189   1.110   2.662   7.021
 3097SOL    HW110190   1.141   2.625   0.082
 3097SOL    HW210191   1.101   2.761   0.002
 3098SOL     OW10192   2.560   2.957   0.556
 3098SOL    HW110193   2.491   3.029   0.553
 3098SOL    HW210194   2.576   2.922   0.463
 3099SOL     OW10195   0.763   5.846   5.585
 3099SOL    HW110196   0.857   5.855   5.553
 3099SOL    HW210197   0.709   5.923   5.550
 3100SOL     OW10198   6.526   6.780   6.556
 3100SOL    HW110199   6.493   6.861   6.507
 3100SOL    HW210200   6.538   6.803   6.653
 3101SOL     OW10201   4.990   0.239   6.583
 3101SOL    HW110202   4.925   0.176   6.539
 3101SOL    HW210203   5.079   0.195   6.589
 3102SOL     OW10204   1.801   4.311   0.610
 3102SOL    HW110205   1.898   4.296   0.591
 3102SOL    HW210206   1.748   4.300   0.525
 3103SOL     OW10207   4.092   2.866   1.661
 3103SOL    HW110208   4.003   2.844   1.699
 3103SOL    HW210209   4.154   2.789   1.672
 3104SOL     OW10210   5.641   6.015   4.063
 3104SOL    HW110211   5.696   5.998   3.982
 3104SOL    HW210212   5.699   6.051   4.137
 3105SOL     OW10213   5.598   6.449   4.475
 3105SOL    HW110214   5.672   6.464   4.408
 3105SOL    HW210215   5.634   6.461   4.567
 3106SOL     OW10216   6.959   2.722   2.955
 3106SOL    HW110217   6.987   2.634   2.992
 3106SOL    HW210218   6.862   2.737   2.975
 3107SOL     OW10219   2.528   0.425   3.859
 3107SOL    HW110220   2.484   0.383   3.779
 3107SOL    HW210221   2.596   0.491   3.829
 3108SOL     OW10222   2.475   1.190   3.450
 3108SOL    HW110223   2.384   1.168   3.416
 3108SOL    HW210224   2.531   1.227   3.376
 3109SOL     OW10225   5.055   5.631   2.949
 3109SOL    HW110226   5.035   5.535   2.970
 3109SOL    HW210227   5.103   5.637   2.861
 3110SOL     OW10228   1.356   3.048   2.585
 3110SOL    HW110229   1.326   3.017   2.675
 3110SOL    HW210230   1.400   3.138   2.593
 3111SOL     OW10231   0.499   5.042   3.621
 3111SOL    HW110232   0.492   5.120   3.560
 3111SOL    HW210233   0.511   4.958   3.568
 3112SOL     OW10234   4.762   3.890   6.811
 3112SOL    HW110235   4.849   3.891   6.861
 3112SOL    HW210236   4.772   3.835   6.728
 3113SOL     OW10237   2.815   6.765   3.351
 3113SOL    HW110238   2.834   6.743   3.255
 3113SOL    HW210239   2.835   6.686   3.408
 3114SOL     OW10240   6.251   4.953   1.001
 3114SOL    HW110241   6.271   4.956   1.099
 3114SOL    HW210242   6.321   4.899   0.955
 3115SOL     OW10243   3.461   4.068   0.895
 3115SOL    HW110244   3.536   4.095   0.834
 3115SOL    HW210245   3.441   4.144   0.957
 3116SOL     OW10246   6.567   2.296   0.340
 3116SOL    HW110247   6.649   2.243   0.319
 3116SOL    HW210248   6.488   2.234   0.344
 3117SOL     OW10249   3.934   3.138   5.051
 3117SOL    HW110250   3.913   3.058   5.108
 3117SOL    HW210251   3.886   3.130   4.964
 3118SOL     OW10252   6.215   4.067   0.921
 3118SOL    HW110253   6.207   4.165   0.941
 3118SOL    HW210254   6.175   4.047   0.832
 3119SOL     OW10255   2.141   4.306   5.468
 3119SOL    HW110256   2.113   4.263   5.554
 3119SOL    HW210257   2.219   4.257   5.430
 3120SOL     OW10258   2.953   5.528   5.041
 3120SOL    HW110259   3.032   5.519   5.101
 3120SOL    HW210260   2.906   5.441   5.033
 3121SOL     OW10261   6.387   0.479   2.523
 3121SOL    HW110262   6.379   0.479   2.423
 3121SOL    HW210263   6.417   0.388   2.554
 3122SOL     OW10264   2.903   5.844   6.554
 3122SOL    HW110265   2.803   5.848   6.557
 3122SOL    HW210266   2.932   5.757   6.515
 3123SOL     OW10267   3.476   6.249   3.744
 3123SOL    HW110268   3.443   6.225   3.835
 3123SOL    HW210269   3.560   6.301   3.751
 3124SOL     OW10270   3.987   1.049   5.850
 3124SOL    HW110271   3.993   1.132   5.795
 3124SOL    HW210272   3.954   0.973   5.794
 3125SOL     OW10273   6.667   1.566   5.936
 3125SOL    HW110274   6.657   1.512   6.020
 3125SOL    HW210275   6.652   1.663   5.956
 3126SOL     OW10276   4.267   6.359   0.018
 3126SOL    HW110277   4.248   6.261   0.023
 3126SOL    HW210278   4.260   6.399   0.110
 3127SOL     OW10279   0.800   1.842   4.197
 3127SOL    HW110280   0.884   1.796   4.224
 3127SOL    HW210281   0.818   1.903   4.119
 3128SOL     OW10282   1.770   0.938   0.982
 3128SOL    HW110283   1.677   0.917   0.953
 3128SOL    HW210284   1.825   0.964   0.902
 3129SOL     OW10285   6.780   3.873   5.356
 3129SOL    HW110286   6.788   3.819   5.440
 3129SOL    HW210287   6.706   3.838   5.300
 3130SOL     OW10288   1.865   4.629   2.014
 3130SOL    HW110289   1.963   4.616   1.996
 3130SOL    HW210290   1.845   4.602   2.109
 3131SOL     OW10291   0.186   3.218   2.916
 3131SOL    HW110292   0.140   3.304   2.892
 3131SOL    HW210293   0.178   3.154   2.840
 3132SOL     OW10294   5.480   6.227   5.561
 3132SOL    HW110295   5.439   6.139   5.536
 3132SOL    HW210296   5.579   6.220   5.558
 3133SOL     OW10297   2.917   1.933   3.291
 3133SOL    HW110298   2.889   2.014   3.241
 3133SOL    HW210299   2.999   1.894   3.249
 3134SOL     OW10300   4.908   3.241   2.050
 3134SOL    HW110301   4.986   3.205   2.100
 3134SOL    HW210302   4.840   3.169   2.038
 3135SOL     OW10303   3.668   1.944   3.468
 3135SOL    HW110304   3.589   1.981   3.418
 3135SOL    HW210305   3.669   1.982   3.560
 3136SOL     OW10306   5.997   6.241   5.185
 3136SOL    HW110307   6.090   6.277   5.179
 3136SOL    HW210308   5.962   6.226   5.092
 3137SOL     OW10309   5.831   1.913   3.739
 3137SOL    HW110310   5.896   1.970   3.790
 3137SOL    HW210311   5.739   1.928   3.773
 3138SOL     OW10312   5.983   1.716   4.789
 3138SOL    HW110313   5.909   1.653   4.764
 3138SOL    HW210314   5.994   1.716   4.889
 3139SOL     OW10315   4.612   6.186   5.261
 3139SOL    HW110316   4.549   6.257   5.233
 3139SOL    HW210317   4.692   6.186   5.201
 3140SOL     OW10318   6.677   6.219   6.724
 3140SOL    HW110319   6.740   6.187   6.794
 3140SOL    HW210320   6.705   6.310   6.693
 3141SOL     OW10321   1.085   5.515   0.201
 3141SOL    HW110322   1.077   5.432   0.146
 3141SOL    HW210323   1.145   5.580   0.155
 3142SOL     OW10324   4.697   6.567   6.218
 3142SOL    HW110325   4.639   6.486   6.227
 3142SOL    HW210326   4.641   6.645   6.191
 3143SOL     OW10327   6.741   1.444   0.286
 3143SOL    HW110328   6.799   1.515   0.326
 3143SOL    HW210329   6.645   1.472   0.292
 3144SOL     OW10330   1.817   3.149   6.649
 3144SOL    HW110331   1.743   3.209   6.617
 3144SOL    HW210332   1.792   3.054   6.632
 3145SOL     OW10333   3.479   5.904   2.843
 3145SOL    HW110334   3.557   5.871   2.789
 3145SOL    HW210335   3.503   5.991   2.885
 3146SOL     OW10336   0.939   0.110   3.228
 3146SOL    HW110337   0.961   0.200   3.266
 3146SOL    HW210338   0.884   0.059   3.294
 3147SOL     OW10339   4.995   4.085   0.156
 3147SOL    HW110340   4.957   4.092   0.064
 3147SOL    HW210341   5.070   4.151   0.166
 3148SOL     OW10342   3.565   5.146   4.637
 3148SOL    HW110343   3.585   5.168   4.541
 3148SOL    HW210344   3.470   5.167   4.657
 3149SOL     OW10345   3.444   0.541   5.680
 3149SOL    HW110346   3.430   0.532   5.779
 3149SOL    HW210347   3.431   0.452   5.637
 3150SOL     OW10348   5.730   6.475   4.725
 3150SOL    HW110349   5.757   6.456   4.820
 3150SOL    HW210350   5.810   6.502   4.672
 3151SOL     OW10351   4.363   1.455   6.287
 3151SOL    HW110352   4.413   1.540   6.269
 3151SOL    HW210353   4.412   1.401   6.355
 3152SOL     OW10354   1.252   5.739   0.854
 3152SOL    HW110355   1.294   5.752   0.944
 3152SOL    HW210356   1.301   5.792   0.786
 3153SOL     OW10357   6.785   4.389   2.368
 3153SOL    HW110358   6.878   4.405   2.337
 3153SOL    HW210359   6.726   4.370   2.290
 3154SOL     OW10360   5.337   2.380   6.239
 3154SOL    HW110361   5.390   2.363   6.322
 3154SOL    HW210362   5.320   2.294   6.192
 3155SOL     OW10363   5.759   5.696   1.107
 3155SOL    HW110364   5.729   5.783   1.069
 3155SOL    HW210365   5.693   5.664   1.175
 3156SOL     OW10366   3.315   3.564   3.660
 3156SOL    HW110367   3.359   3.534   3.576
 3156SOL    HW210368   3.246   3.497   3.688
 3157SOL     OW10369   2.131   4.054   4.257
 3157SOL    HW110370   2.200   4.107   4.307
 3157SOL    HW210371   2.161   3.959   4.250
 3158SOL     OW10372   4.704   6.273   1.278
 3158SOL    HW110373   4.792   6.225   1.279
 3158SOL    HW210374   4.690   6.314   1.187
 3159SOL     OW10375   5.396   5.321   0.302
 3159SOL    HW110376   5.408   5.313   0.401
 3159SOL    HW210377   5.302   5.349   0.282
 3160SOL     OW10378   4.868   4.242   6.944
 3160SOL    HW110379   4.827   4.282   7.026
 3160SOL    HW210380   4.914   4.314   6.891
 3161SOL     OW10381   1.016   1.859   2.941
 3161SOL    HW110382   1.016   1.898   2.849
 3161SOL    HW210383   1.035   1.761   2.935
 3162SOL     OW10384   0.367   5.470   6.299
 3162SOL    HW110385   0.391   5.562   6.266
 3162SOL    HW210386   0.275   5.472   6.338
 3163SOL     OW10387   2.982   4.009   6.186
 3163SOL    HW110388   3.032   4.075   6.242
 3163SOL    HW210389   3.019   3.918   6.202
 3164SOL     OW10390   5.092   4.830   6.911
 3164SOL    HW110391   5.006   4.779   6.903
 3164SOL    HW210392   5.082   4.902   6.980
 3165SOL     OW10393   0.430   1.345   1.600
 3165SOL    HW110394   0.415   1.278   1.673
 3165SOL    HW210395   0.516   1.324   1.553
 3166SOL     OW10396   5.608   3.031   6.358
 3166SOL    HW110397   5.552   2.965   6.409
 3166SOL    HW210398   5.703   3.024   6.388
 3167SOL     OW10399   1.005   5.350   1.714
 3167SOL    HW110400   0.998   5.394   1.625
 3167SOL    HW210401   1.102   5.339   1.738
 3168SOL     OW10402   5.437   3.457   1.382
 3168SOL    HW110403   5.393   3.523   1.442
 3168SOL    HW210404   5.507   3.503   1.327
 3169SOL     OW10405   1.190   2.077   5.673
 3169SOL    HW110406   1.096   2.051   5.695
 3169SOL    HW210407   1.247   1.995   5.673
 3170SOL     OW10408   4.060   0.852   7.018
 3170SOL    HW110409   4.137   0.826   6.959
 3170SOL    HW210410   3.998   0.774   0.002
 3171SOL     OW10411   6.060   6.510   3.428
 3171SOL    HW110412   6.134   6.443   3.429
 3171SOL    HW210413   5.987   6.478   3.369
 3172SOL     OW10414   6.174   0.428   4.844
 3172SOL    HW110415   6.274   0.427   4.849
 3172SOL    HW210416   6.141   0.523   4.842
 3173SOL     OW10417   2.148   0.375   1.643
 3173SOL    HW110418   2.155   0.415   1.551
 3173SOL    HW210419   2.185   0.439   1.710
 3174SOL     OW10420   2.162   2.759   5.998
 3174SOL    HW110421   2.068   2.746   6.027
 3174SOL    HW210422   2.196   2.846   6.032
 3175SOL     OW10423   0.561   6.630   0.541
 3175SOL    HW110424   0.592   6.567   0.470
 3175SOL    HW210425   0.524   6.578   0.618
 3176SOL     OW10426   0.558   4.783   6.931
 3176SOL    HW110427   0.652   4.760   6.908
 3176SOL    HW210428   0.511   4.819   6.850
 3177SOL     OW10429   5.838   6.155   5.970
 3177SOL    HW110430   5.837   6.077   5.908
 3177SOL    HW210431   5.911   6.144   6.038
 3178SOL     OW10432   1.123   2.997   1.396
 3178SOL    HW110433   1.116   3.054   1.478
 3178SOL    HW210434   1.214   3.008   1.356
 3179SOL     OW10435   1.674   1.563   2.831
 3179SOL    HW110436   1.683   1.633   2.902
 3179SOL    HW210437   1.725   1.592   2.750
 3180SOL     OW10438   5.428   0.885   6.220
 3180SOL    HW110439   5.456   0.934   6.302
 3180SOL    HW210440   5.431   0.786   6.238
 3181SOL     OW10441   0.696   1.268   2.936
 3181SOL    HW110442   0.788   1.240   2.964
 3181SOL    HW210443   0.692   1.368   2.933
 3182SOL     OW10444   2.066   5.194   5.181
 3182SOL    HW110445   2.153   5.197   5.230
 3182SOL    HW210446   1.996   5.152   5.240
 3183SOL     OW10447   3.446   3.439   1.581
 3183SOL    HW110448   3.362   3.447   1.635
 3183SOL    HW210449   3.450   3.347   1.540
 3184SOL     OW10450   2.294   1.613   2.112
 3184SOL    HW110451   2.318   1.584   2.019
 3184SOL    HW210452   2.199   1.587   2.131
 3185SOL     OW10453   6.779   6.996   5.572
 3185SOL    HW110454   6.816   0.060   5.596
 3185SOL    HW210455   6.690   6.985   5.616
 3186SOL     OW10456   2.570   1.119   2.029
 3186SOL    HW110457   2.535   1.073   2.111
 3186SOL    HW210458   2.636   1.189   2.055
 3187SOL     OW10459   3.149   4.821   0.253
 3187SOL    HW110460   3.221   4.871   0.203
 3187SOL    HW210461   3.190   4.770   0.328
 3188SOL     OW10462   4.412   6.363   3.232
 3188SOL    HW110463   4.386   6.371   3.136
 3188SOL    HW210464   4.486   6.296   3.241
 3189SOL     OW10465   0.898   6.519   2.502
 3189SOL    HW110466   0.914   6.615   2.480
 3189SOL    HW210467   0.959   6.461   2.448
 3190SOL     OW10468   0.624   5.978   2.025
 3190SOL    HW110469   0.598   6.005   2.117
 3190SOL    HW210470   0.562   5.908   1.991
 3191SOL     OW10471   3.953   0.956   0.968
 3191SOL    HW110472   3.875   0.909   1.009
 3191SOL    HW210473   3.920   1.029   0.908
 3192SOL     OW10474   0.134   3.008   2.769
 3192SOL    HW110475   0.085   2.990   2.854
 3192SOL    HW210476   0.134   2.926   2.712
 3193SOL     OW10477   4.876   3.386   6.427
 3193SOL    HW110478   4.877   3.290   6.455
 3193SOL    HW210479   4.806   3.435   6.479
 3194SOL     OW10480   0.382   3.127   6.148
 3194SOL    HW110481   0.431   3.047   6.113
 3194SOL    HW210482   0.433   3.165   6.225
 3195SOL     OW10483   0.827   3.264   3.476
 3195SOL    HW110484   0.924   3.282   3.486
 3195SOL    HW210485   0.811   3.165   3.483
 3196SOL     OW10486   6.518   7.009   5.873
 3196SOL    HW110487   6.491   0.007   5.780
 3196SOL    HW210488   6.436   6.987   5.927
 3197SOL     OW10489   1.078   4.390   4.030
 3197SOL    HW110490   1.057   4.451   3.954
 3197SOL    HW210491   1.042   4.299   4.011
 3198SOL     OW10492   6.946   1.479   6.972
 3198SOL    HW110493   6.911   1.419   0.019
 3198SOL    HW210494   0.001   1.527   7.004
 3199SOL     OW10495   4.185   1.942   2.600
 3199SOL    HW110496   4.194   1.879   2.523
 3199SOL    HW210497   4.264   1.932   2.660
 3200SOL     OW10498   0.003   1.964   1.366
 3200SOL    HW110499   0.034   2.059   1.370
 3200SOL    HW210500   0.080   1.903   1.382
 3201SOL     OW10501   4.591   4.439   2.719
 3201SOL    HW110502   4.590   4.390   2.631
 3201SOL    HW210503   4.631   4.530   2.706
 3202SOL     OW10504   1.853   5.821   2.065
 3202SOL    HW110505   1.929   5.884   2.051
 3202SOL    HW210506   1.861   5.777   2.154
 3203SOL     OW10507   6.626   6.816   1.681
 3203SOL    HW110508   6.712   6.859   1.707
 3203SOL    HW210509   6.638   6.766   1.595
 3204SOL     OW10510   6.481   5.426   1.844
 3204SOL    HW110511   6.548   5.400   1.774
 3204SOL    HW210512   6.397   5.458   1.801
 3205SOL     OW10513   0.478   3.749   3.594
 3205SOL    HW110514   0.502   3.653   3.582
 3205SOL    HW210515   0.396   3.770   3.540
 3206SOL     OW10516   1.116   0.167   6.654
 3206SOL    HW110517   1.198   0.220   6.673
 3206SOL    HW210518   1.067   0.208   6.577
 3207SOL     OW10519   0.152   1.165   4.109
 3207SOL    HW110520   0.159   1.189   4.012
 3207SOL    HW210521   0.067   1.203   4.147
 3208SOL     OW10522   5.737   6.800   5.027
 3208SOL    HW110523   5.718   6.874   5.092
 3208SOL    HW210524   5.760   6.840   4.938
 3209SOL     OW10525   2.375   0.665   3.368
 3209SOL    HW110526   2.435   0.705   3.298
 3209SOL    HW210527   2.295   0.723   3.380
 3210SOL     OW10528   0.356   4.750   3.203
 3210SOL    HW110529   0.273   4.785   3.248
 3210SOL    HW210530   0.407   4.826   3.164
 3211SOL     OW10531   1.589   4.323   1.845
 3211SOL    HW110532   1.628   4.415   1.837
 3211SOL    HW210533   1.493   4.330   1.873
 3212SOL     OW10534   4.711   1.968   5.890
 3212SOL    HW110535   4.805   1.984   5.861
 3212SOL    HW210536   4.672   1.892   5.839
 3213SOL     OW10537   6.400   6.389   1.931
 3213SOL    HW110538   6.444   6.332   2.001
 3213SOL    HW210539   6.461   6.464   1.905
 3214SOL     OW10540   4.154   5.148   5.957
 3214SOL    HW110541   4.170   5.245   5.977
 3214SOL    HW210542   4.131   5.138   5.860
 3215SOL     OW10543   6.031   0.943   6.918
 3215SOL    HW110544   6.003   0.985   7.004
 3215SOL    HW210545   6.126   0.967   6.899
 3216SOL     OW10546   5.766   6.868   4.454
 3216SOL    HW110547   5.863   6.869   4.481
 3216SOL    HW210548   5.756   6.811   4.372
 3217SOL     OW10549   7.026   4.128   1.516
 3217SOL    HW110550   6.973   4.199   1.469
 3217SOL    HW210551   0.033   4.164   1.603
 3218SOL     OW10552   2.784   0.762   2.379
 3218SOL    HW110553   2.781   0.802   2.471
 3218SOL    HW210554   2.742   0.826   2.314
 3219SOL     OW10555   6.442   0.313   3.749
 3219SOL    HW110556   6.393   0.227   3.733
 3219SOL    HW210557   6.539   0.293   3.766
 3220SOL     OW10558   6.357   2.958   5.314
 3220SOL    HW110559   6.340   2.963   5.215
 3220SOL    HW210560   6.367   2.863   5.342
 3221SOL     OW10561   3.706   0.035   3.081
 3221SOL    HW110562   3.801   0.036   3.111
 3221SOL    HW210563   3.649   7.019   3.151
 3222SOL     OW10564   5.707   2.725   3.081
 3222SOL    HW110565   5.806   2.723   3.077
 3222SOL    HW210566   5.672   2.634   3.105
 3223SOL     OW10567   2.607   4.961   5.272
 3223SOL    HW110568   2.604   5.003   5.362
 3223SOL    HW210569   2.691   4.907   5.262
 3224SOL     OW10570   4.263   5.406   0.464
 3224SOL    HW110571   4.281   5.378   0.558
 3224SOL    HW210572   4.286   5.503   0.453
 3225SOL     OW10573   2.458   3.389   0.377
 3225SOL    HW110574   2.505   3.371   0.290
 3225SOL    HW210575   2.515   3.447   0.435
 3226SOL     OW10576   0.932   0.039   3.872
 3226SOL    HW110577   0.842   0.041   3.915
 3226SOL    HW210578   0.956   0.130   3.840
 3227SOL     OW10579   2.558   1.487   6.148
 3227SOL    HW110580   2.612   1.406   6.127
 3227SOL    HW210581   2.515   1.476   6.238
 3228SOL     OW10582   4.760   2.802   5.003
 3228SOL    HW110583   4.839   2.752   5.039
 3228SOL    HW210584   4.790   2.888   4.963
 3229SOL     OW10585   4.119   2.053   5.134
 3229SOL    HW110586   4.041   2.109   5.159
 3229SOL    HW210587   4.195   2.072   5.196
 3230SOL     OW10588   0.930   0.385   3.274
 3230SOL    HW110589   0.842   0.433   3.279
 3230SOL    HW210590   0.988   0.415   3.350
 3231SOL     OW10591   6.370   5.595   1.076
 3231SOL    HW110592   6.443   5.660   1.098
 3231SOL    HW210593   6.322   5.570   1.160
 3232SOL     OW10594   2.435   4.813   3.351
 3232SOL    HW110595   2.375   4.785   3.276
 3232SOL    HW210596   2.516   4.753   3.353
 3233SOL     OW10597   0.801   4.236   1.668
 3233SOL    HW110598   0.808   4.236   1.768
 3233SOL    HW210599   0.791   4.142   1.636
 3234SOL     OW10600   6.812   1.710   5.201
 3234SOL    HW110601   6.741   1.697   5.132
 3234SOL    HW210602   6.898   1.734   5.156
 3235SOL     OW10603   5.495   0.090   2.755
 3235SOL    HW110604   5.543   0.170   2.719
 3235SOL    HW210605   5.545   0.007   2.729
 3236SOL     OW10606   0.796   3.070   1.858
 3236SOL    HW110607   0.883   3.075   1.907
 3236SOL    HW210608   0.722   3.101   1.918
 3237SOL     OW10609   3.481   6.970   4.508
 3237SOL    HW110610   3.529   6.989   4.422
 3237SOL    HW210611   3.408   6.904   4.492
 3238SOL     OW10612   6.439   6.532   6.469
 3238SOL    HW110613   6.454   6.435   6.490
 3238SOL    HW210614   6.488   6.588   6.536
 3239SOL     OW10615   0.055   6.631   5.556
 3239SOL    HW110616   0.094   6.547   5.594
 3239SOL    HW210617   0.077   6.637   5.458
 3240SOL     OW10618   0.761   1.105   4.491
 3240SOL    HW110619   0.805   1.157   4.564
 3240SOL    HW210620   0.676   1.151   4.465
 3241SOL     OW10621   5.284   1.085   4.373
 3241SOL    HW110622   5.229   1.158   4.413
 3241SOL    HW210623   5.368   1.125   4.335
 3242SOL     OW10624   3.355   6.298   0.129
 3242SOL    HW110625   3.320   6.323   0.219
 3242SOL    HW210626   3.397   6.378   0.086
 3243SOL     OW10627   3.395   5.675   0.519
 3243SOL    HW110628   3.487   5.636   0.525
 3243SOL    HW210629   3.345   5.631   0.444
 3244SOL     OW10630   2.926   6.263   5.782
 3244SOL    HW110631   2.901   6.221   5.695
 3244SOL    HW210632   2.846   6.307   5.822
 3245SOL     OW10633   3.355   2.419   6.161
 3245SOL    HW110634   3.312   2.332   6.187
 3245SOL    HW210635   3.304   2.495   6.202
 3246SOL     OW10636   5.269   6.075   3.499
 3246SOL    HW110637   5.207   6.012   3.453
 3246SOL    HW210638   5.247   6.077   3.597
 3247SOL     OW10639   0.162   1.912   4.422
 3247SOL    HW110640   0.182   1.929   4.519
 3247SOL    HW210641   0.162   1.814   4.405
 3248SOL     OW10642   5.844   4.236   2.347
 3248SOL    HW110643   5.902   4.281   2.414
 3248SOL    HW210644   5.894   4.226   2.261
 3249SOL     OW10645   2.566   4.255   5.500
 3249SOL    HW110646   2.624   4.191   5.551
 3249SOL    HW210647   2.504   4.205   5.440
 3250SOL     OW10648   3.967   6.208   1.809
 3250SOL    HW110649   3.894   6.199   1.876
 3250SOL    HW210650   4.041   6.144   1.831
 3251SOL     OW10651   3.068   1.320   3.289
 3251SOL    HW110652   3.097   1.272   3.206
 3251SOL    HW210653   3.013   1.399   3.264
 3252SOL     OW10654   3.209   2.185   3.351
 3252SOL    HW110655   3.121   2.199   3.305
 3252SOL    HW210656   3.196   2.125   3.429
 3253SOL     OW10657   4.853   3.553   1.090
 3253SOL    HW110658   4.914   3.563   1.011
 3253SOL    HW210659   4.870   3.465   1.135
 3254SOL     OW10660   5.744   5.381   2.399
 3254SOL    HW110661   5.801   5.314   2.447
 3254SOL    HW210662   5.800   5.428   2.330
 3255SOL     OW10663   3.793   4.667   0.495
 3255SOL    HW110664   3.867   4.602   0.475
 3255SOL    HW210665   3.790   4.684   0.594
 3256SOL     OW10666   6.459   6.219   5.038
 3256SOL    HW110667   6.418   6.130   5.019
 3256SOL    HW210668   6.557   6.208   5.056
 3257SOL     OW10669   2.191   1.881   1.015
 3257SOL    HW110670   2.217   1.915   1.106
 3257SOL    HW210671   2.095   1.855   1.016
 3258SOL     OW10672   5.344   6.758   1.353
 3258SOL    HW110673   5.443   6.756   1.364
 3258SOL    HW210674   5.320   6.823   1.281
 3259SOL     OW10675   5.858   6.058   3.148
 3259SOL    HW110676   5.774   6.100   3.183
 3259SOL    HW210677   5.851   5.958   3.156
 3260SOL     OW10678   0.981   2.712   6.762
 3260SOL    HW110679   0.945   2.802   6.788
 3260SOL    HW210680   1.027   2.671   6.841
 3261SOL     OW10681   4.582   0.170   3.182
 3261SOL    HW110682   4.676   0.180   3.214
 3261SOL    HW210683   4.536   0.259   3.188
 3262SOL     OW10684   3.352   1.578   3.586
 3262SOL    HW110685   3.271   1.539   3.542
 3262SOL    HW210686   3.414   1.504   3.613
 3263SOL     OW10687   3.266   5.333   2.048
 3263SOL    HW110688   3.306   5.245   2.025
 3263SOL    HW210689   3.171   5.320   2.078
 3264SOL     OW10690   5.696   4.919   6.305
 3264SOL    HW110691   5.767   4.956   6.244
 3264SOL    HW210692   5.617   4.892   6.251
 3265SOL     OW10693   4.284   0.866   6.853
 3265SOL    HW110694   4.341   0.914   6.920
 3265SOL    HW210695   4.260   0.929   6.779
 3266SOL     OW10696   0.494   1.470   6.144
 3266SOL    HW110697   0.589   1.460   6.114
 3266SOL    HW210698   0.480   1.415   6.227
 3267SOL     OW10699   4.492   2.242   1.483
 3267SOL    HW110700   4.548   2.295   1.546
 3267SOL    HW210701   4.397   2.274   1.486
 3268SOL     OW10702   0.736   4.710   6.514
 3268SOL    HW110703   0.768   4.720   6.609
 3268SOL    HW210704   0.638   4.689   6.515
 3269SOL     OW10705   4.687   3.122   0.445
 3269SOL    HW110706   4.641   3.033   0.437
 3269SOL    HW210707   4.784   3.108   0.463
 3270SOL     OW10708   0.722   5.924   4.653
 3270SOL    HW110709   0.788   5.906   4.726
 3270SOL    HW210710   0.649   5.856   4.657
 3271SOL     OW10711   5.978   2.054   1.197
 3271SOL    HW110712   5.907   2.059   1.267
 3271SOL    HW210713   6.012   1.961   1.189
 3272SOL     OW10714   5.183   6.697   0.166
 3272SOL    HW110715   5.134   6.618   0.129
 3272SOL    HW210716   5.282   6.679   0.162
 3273SOL     OW10717   6.888   7.015   2.535
 3273SOL    HW110718   6.804   6.965   2.558
 3273SOL    HW210719   6.913   6.997   2.440
 3274SOL     OW10720   3.946   1.662   6.480
 3274SOL    HW110721   3.865   1.714   6.506
 3274SOL    HW210722   4.022   1.688   6.539
 3275SOL     OW10723   3.229   0.720   6.930
 3275SOL    HW110724   3.193   0.659   6.859
 3275SOL    HW210725   3.167   0.798   6.941
 3276SOL     OW10726   3.045   6.626   0.323
 3276SOL    HW110727   3.013   6.684   0.397
 3276SOL    HW210728   3.143   6.641   0.308
 3277SOL     OW10729   0.088   6.385   5.203
 3277SOL    HW110730   0.158   6.402   5.273
 3277SOL    HW210731   0.117   6.426   5.117
 3278SOL     OW10732   1.249   1.043   0.246
 3278SOL    HW110733   1.321   1.101   0.208
 3278SOL    HW210734   1.252   1.047   0.346
 3279SOL     OW10735   2.159   0.360   1.006
 3279SOL    HW110736   2.066   0.390   1.022
 3279SOL    HW210737   2.182   0.371   0.909
 3280SOL     OW10738   1.810   5.183   5.805
 3280SOL    HW110739   1.883   5.121   5.833
 3280SOL    HW210740   1.818   5.269   5.855
 3281SOL     OW10741   3.094   5.867   0.166
 3281SOL    HW110742   3.113   5.925   0.245
 3281SOL    HW210743   3.137   5.906   0.085
 3282SOL     OW10744   1.764   5.416   2.584
 3282SOL    HW110745   1.831   5.489   2.573
 3282SOL    HW210746   1.770   5.379   2.677
 3283SOL     OW10747   2.046   0.101   3.639
 3283SOL    HW110748   1.959   0.133   3.601
 3283SOL    HW210749   2.096   0.049   3.570
 3284SOL     OW10750   0.109   4.031   6.559
 3284SOL    HW110751   0.133   4.115   6.510
 3284SOL    HW210752   0.035   3.984   6.510
 3285SOL     OW10753   6.475   2.511   4.166
 3285SOL    HW110754   6.549   2.567   4.129
 3285SOL    HW210755   6.396   2.515   4.104
 3286SOL     OW10756   3.700   4.559   5.576
 3286SOL    HW110757   3.627   4.576   5.642
 3286SOL    HW210758   3.783   4.607   5.605
 3287SOL     OW10759   0.904   5.392   1.309
 3287SOL    HW110760   0.975   5.332   1.344
 3287SOL    HW210761   0.847   5.343   1.244
 3288SOL     OW10762   1.117   6.291   0.138
 3288SOL    HW110763   1.031   6.307   0.187
 3288SOL    HW210764   1.133   6.366   0.073
 3289SOL     OW10765   0.909   5.694   4.688
 3289SOL    HW110766   0.958   5.764   4.636
 3289SOL    HW210767   0.840   5.651   4.630
 3290SOL     OW10768   6.950   5.273   1.888
 3290SOL    HW110769   7.025   5.209   1.872
 3290SOL    HW210770   6.909   5.255   1.977
 3291SOL     OW10771   2.095   6.857   1.373
 3291SOL    HW110772   2.080   6.954   1.354
 3291SOL    HW210773   2.178   6.846   1.428
 3292SOL     OW10774   0.699   5.716   5.254
 3292SOL    HW110775   0.679   5.814   5.249
 3292SOL    HW210776   0.652   5.677   5.333
 3293SOL     OW10777   6.783   0.508   2.939
 3293SOL    HW110778   6.739   0.487   3.026
 3293SOL    HW210779   6.802   0.423   2.890
 3294SOL     OW10780   0.629   0.038   6.874
 3294SOL    HW110781   0.536   0.006   6.856
 3294SOL    HW210782   0.676   0.055   6.787
 3295SOL     OW10783   1.359   2.385   6.570
 3295SOL    HW110784   1.327   2.447   6.499
 3295SOL    HW210785   1.343   2.426   6.660
 3296SOL     OW10786   0.406   6.594   1.807
 3296SOL    HW110787   0.493   6.641   1.821
 3296SOL    HW210788   0.336   6.637   1.864
 3297SOL     OW10789   3.043   2.305   5.992
 3297SOL    HW110790   3.041   2.217   6.040
 3297SOL    HW210791   3.099   2.297   5.910
 3298SOL     OW10792   6.021   3.669   3.346
 3298SOL    HW110793   5.984   3.711   3.263
 3298SOL    HW210794   6.013   3.570   3.339
 3299SOL     OW10795   1.382   0.551   4.632
 3299SOL    HW110796   1.330   0.500   4.564
 3299SOL    HW210797   1.327   0.564   4.715
 3300SOL     OW10798   6.400   0.187   4.588
 3300SOL    HW110799   6.437   0.109   4.538
 3300SOL    HW210800   6.475   0.247   4.616
 3301SOL     OW10801   0.643   3.956   2.969
 3301SOL    HW110802   0.621   4.048   2.999
 3301SOL    HW210803   0.676   3.959   2.874
 3302SOL     OW10804   0.843   5.050   3.722
 3302SOL    HW110805   0.913   5.022   3.657
 3302SOL    HW210806   0.776   5.107   3.675
 3303SOL     OW10807   3.587   4.016   3.839
 3303SOL    HW110808   3.681   4.021   3.806
 3303SOL    HW210809   3.546   3.931   3.806
 3304SOL     OW10810   0.774   6.764   4.092
 3304SOL    HW110811   0.833   6.736   4.168
 3304SOL    HW210812   0.795   6.707   4.012
 3305SOL     OW10813   1.052   1.088   1.804
 3305SOL    HW110814   1.093   1.023   1.868
 3305SOL    HW210815   1.049   1.179   1.845
 3306SOL     OW10816   1.214   3.585   2.414
 3306SOL    HW110817   1.217   3.651   2.489
 3306SOL    HW210818   1.215   3.492   2.450
 3307SOL     OW10819   0.307   6.063   0.288
 3307SOL    HW110820   0.256   6.033   0.368
 3307SOL    HW210821   0.378   6.128   0.316
 3308SOL     OW10822   4.885   5.964   0.526
 3308SOL    HW110823   4.840   5.923   0.605
 3308SOL    HW210824   4.983   5.941   0.528
 3309SOL     OW10825   0.860   5.801   2.608
 3309SOL    HW110826   0.790   5.730   2.605
 3309SOL    HW210827   0.947   5.760   2.637
 3310SOL     OW10828   1.211   6.638   1.422
 3310SOL    HW110829   1.253   6.698   1.354
 3310SOL    HW210830   1.168   6.694   1.493
 3311SOL     OW10831   3.878   6.257   0.594
 3311SOL    HW110832   3.896   6.265   0.692
 3311SOL    HW210833   3.954   6.296   0.543
 3312SOL     OW10834   2.227   3.389   7.023
 3312SOL    HW110835   2.167   3.324   0.044
 3312SOL    HW210836   2.174   3.469   6.995
 3313SOL     OW10837   6.864   5.896   4.668
 3313SOL    HW110838   6.892   5.822   4.608
 3313SOL    HW210839   6.775   5.931   4.639
 3314SOL     OW10840   0.812   3.292   6.370
 3314SOL    HW110841   0.827   3.321   6.465
 3314SOL    HW210842   0.899   3.262   6.330
 3315SOL     OW10843   6.751   3.079   2.975
 3315SOL    HW110844   6.735   3.153   3.040
 3315SOL    HW210845   6.664   3.048   2.938
 3316SOL     OW10846   4.271   0.506   0.479
 3316SOL    HW110847   4.238   0.490   0.572
 3316SOL    HW210848   4.244   0.429   0.420
 3317SOL     OW10849   4.609   2.401   1.670
 3317SOL    HW110850   4.645   2.390   1.763
 3317SOL    HW210851   4.591   2.498   1.652
 3318SOL     OW10852   2.360   5.367   5.053
 3318SOL    HW110853   2.331   5.387   5.147
 3318SOL    HW210854   2.425   5.291   5.054
 3319SOL     OW10855   0.228   5.636   5.930
 3319SOL    HW110856   0.184   5.653   6.019
 3319SOL    HW210857   0.232   5.537   5.914
 3320SOL     OW10858   6.913   2.062   5.810
 3320SOL    HW110859   6.843   2.073   5.880
 3320SOL    HW210860   6.938   1.966   5.802
 3321SOL     OW10861   3.138   3.962   4.000
 3321SOL    HW110862   3.083   3.895   4.050
 3321SOL    HW210863   3.143   3.935   3.904
 3322SOL     OW10864   4.701   1.899   1.362
 3322SOL    HW110865   4.774   1.942   1.415
 3322SOL    HW210866   4.631   1.863   1.423
 3323SOL     OW10867   2.823   5.147   0.417
 3323SOL    HW110868   2.759   5.223   0.405
 3323SOL    HW210869   2.854   5.115   0.328
 3324SOL     OW10870   0.545   2.800   0.282
 3324SOL    HW110871   0.546   2.799   0.382
 3324SOL    HW210872   0.635   2.772   0.248
 3325SOL     OW10873   2.029   2.977   0.335
 3325SOL    HW110874   1.930   2.973   0.354
 3325SOL    HW210875   2.061   2.886   0.309
 3326SOL     OW10876   6.397   0.352   1.860
 3326SOL    HW110877   6.478   0.293   1.860
 3326SOL    HW210878   6.392   0.403   1.946
 3327SOL     OW10879   2.924   6.858   1.835
 3327SOL    HW110880   2.870   6.800   1.896
 3327SOL    HW210881   3.020   6.834   1.841
 3328SOL     OW10882   4.313   0.979   3.015
 3328SOL    HW110883   4.403   0.994   2.975
 3328SOL    HW210884   4.279   0.888   2.989
 3329SOL     OW10885   4.901   1.169   5.436
 3329SOL    HW110886   4.894   1.269   5.429
 3329SOL    HW210887   4.891   1.142   5.532
 3330SOL     OW10888   6.741   5.394   3.294
 3330SOL    HW110889   6.653   5.439   3.310
 3330SOL    HW210890   6.793   5.447   3.227
 3331SOL     OW10891   2.116   3.484   2.714
 3331SOL    HW110892   2.092   3.508   2.809
 3331SOL    HW210893   2.149   3.566   2.667
 3332SOL     OW10894   3.327   4.967   1.081
 3332SOL    HW110895   3.374   5.037   1.134
 3332SOL    HW210896   3.381   4.947   0.999
 3333SOL     OW10897   2.520   3.051   1.672
 3333SOL    HW110898   2.464   3.063   1.590
 3333SOL    HW210899   2.565   2.961   1.668
 3334SOL     OW10900   2.098   2.216   1.703
 3334SOL    HW110901   2.009   2.251   1.675
 3334SOL    HW210902   2.102   2.209   1.803
 3335SOL     OW10903   3.844   4.304   5.534
 3335SOL    HW110904   3.883   4.275   5.621
 3335SOL    HW210905   3.790   4.387   5.547
 3336SOL     OW10906   5.181   5.264   4.305
 3336SOL    HW110907   5.138   5.353   4.308
 3336SOL    HW210908   5.271   5.269   4.349
 3337SOL     OW10909   3.248   3.090   2.723
 3337SOL    HW110910   3.181   3.042   2.779
 3337SOL    HW210911   3.239   3.061   2.628
 3338SOL     OW10912   2.799   2.846   1.647
 3338SOL    HW110913   2.735   2.830   1.573
 3338SOL    HW210914   2.833   2.759   1.682
 3339SOL     OW10915   1.882   0.117   6.200
 3339SOL    HW110916   1.845   0.199   6.243
 3339SOL    HW210917   1.976   0.101   6.232
 3340SOL     OW10918   3.672   0.799   3.930
 3340SOL    HW110919   3.626   0.815   3.843
 3340SOL    HW210920   3.626   0.850   4.002
 3341SOL     OW10921   1.101   4.368   2.482
 3341SOL    HW110922   1.169   4.394   2.551
 3341SOL    HW210923   1.138   4.294   2.426
 3342SOL     OW10924   6.712   0.862   2.718
 3342SOL    HW110925   6.732   0.929   2.789
 3342SOL    HW210926   6.786   0.795   2.713
 3343SOL     OW10927   4.582   5.306   0.302
 3343SOL    HW110928   4.568   5.243   0.379
 3343SOL    HW210929   4.670   5.284   0.259
 3344SOL     OW10930   0.966   3.328   2.182
 3344SOL    HW110931   0.980   3.375   2.269
 3344SOL    HW210932   0.947   3.232   2.199
 3345SOL     OW10933   5.923   5.517   6.544
 3345SOL    HW110934   5.902   5.478   6.633
 3345SOL    HW210935   6.021   5.506   6.525
 3346SOL     OW10936   1.456   1.204   0.140
 3346SOL    HW110937   1.522   1.225   0.067
 3346SOL    HW210938   1.475   1.261   0.220
 3347SOL     OW10939   0.357   3.712   5.929
 3347SOL    HW110940   0.388   3.714   6.024
 3347SOL    HW210941   0.308   3.626   5.912
 3348SOL     OW10942   3.312   4.083   6.030
 3348SOL    HW110943   3.381   4.150   6.002
 3348SOL    HW210944   3.283   4.030   5.950
 3349SOL     OW10945   1.897   5.442   3.335
 3349SOL    HW110946   1.875   5.376   3.408
 3349SOL    HW210947   1.981   5.413   3.289
 3350SOL     OW10948   1.976   4.755   4.393
 3350SOL    HW110949   2.055   4.768   4.333
 3350SOL    HW210950   2.008   4.734   4.486
 3351SOL     OW10951   5.557   0.978   1.688
 3351SOL    HW110952   5.578   0.905   1.753
 3351SOL    HW210953   5.631   0.987   1.622
 3352SOL     OW10954   5.834   1.230   0.338
 3352SOL    HW110955   5.833   1.221   0.238
 3352SOL    HW210956   5.924   1.207   0.373
 3353SOL     OW10957   3.935   0.486   1.188
 3353SOL    HW110958   4.005   0.418   1.207
 3353SOL    HW210959   3.954   0.569   1.240
 3354SOL     OW10960   3.179   4.183   6.268
 3354SOL    HW110961   3.202   4.165   6.173
 3354SOL    HW210962   3.262   4.209   6.318
 3355SOL     OW10963   1.509   0.289   4.838
 3355SOL    HW110964   1.512   0.348   4.757
 3355SOL    HW210965   1.491   0.195   4.811
 3356SOL     OW10966   1.818   0.669   6.002
 3356SOL    HW110967   1.793   0.573   6.003
 3356SOL    HW210968   1.883   0.687   6.076
 3357SOL     OW10969   3.192   2.988   2.485
 3357SOL    HW110970   3.253   3.041   2.426
 3357SOL    HW210971   3.151   2.913   2.433
 3358SOL     OW10972   0.042   1.146   1.793
 3358SOL    HW110973   6.982   1.120   1.836
 3358SOL    HW210974   0.041   1.120   1.697
 3359SOL     OW10975   0.511   0.135   4.836
 3359SOL    HW110976   0.411   0.138   4.827
 3359SOL    HW210977   0.537   0.054   4.888
 3360SOL     OW10978   1.681   4.104   4.068
 3360SOL    HW110979   1.749   4.094   4.140
 3360SOL    HW210980   1.727   4.123   3.981
 3361SOL     OW10981   6.245   6.944   5.230
 3361SOL    HW110982   6.204   6.998   5.303
 3361SOL    HW210983   6.273   7.004   5.155
 3362SOL     OW10984   3.653   0.915   3.652
 3362SOL    HW110985   3.568   0.939   3.605
 3362SOL    HW210986   3.686   0.828   3.617
 3363SOL     OW10987   5.678   3.776   0.369
 3363SOL    HW110988   5.655   3.719   0.448
 3363SOL    HW210989   5.610   3.850   0.361
 3364SOL     OW10990   1.828   3.446   3.349
 3364SOL    HW110991   1.868   3.536   3.333
 3364SOL    HW210992   1.816   3.399   3.261
 3365SOL     OW10993   1.600   3.672   3.419
 3365SOL    HW110994   1.678   3.613   3.398
 3365SOL    HW210995   1.557   3.641   3.504
 3366SOL     OW10996   5.816   3.623   4.678
 3366SOL    HW110997   5.730   3.585   4.711
 3366SOL    HW210998   5.892   3.585   4.731
 3367SOL     OW10999   3.326   4.127   3.839
 3367SOL    HW111000   3.413   4.080   3.856
 3367SOL    HW211001   3.258   4.097   3.906
 3368SOL     OW11002   2.112   0.511   2.144
 3368SOL    HW111003   2.169   0.593   2.138
 3368SOL    HW211004   2.045   0.522   2.217
 3369SOL     OW11005   5.150   2.118   1.287
 3369SOL    HW111006   5.055   2.145   1.303
 3369SOL    HW211007   5.200   2.192   1.242
 3370SOL     OW11008   0.656   5.594   2.622
 3370SOL    HW111009   0.651   5.589   2.522
 3370SOL    HW211010   0.729   5.535   2.655
 3371SOL     OW11011   2.144   2.873   2.044
 3371SOL    HW111012   2.183   2.932   2.115
 3371SOL    HW211013   2.195   2.787   2.040
 3372SOL     OW11014   6.630   4.092   2.781
 3372SOL    HW111015   6.582   4.179   2.793
 3372SOL    HW211016   6.717   4.109   2.735
 3373SOL     OW11017   0.180   3.183   1.787
 3373SOL    HW111018   0.110   3.127   1.831
 3373SOL    HW211019   0.150   3.208   1.695
 3374SOL     OW11020   0.291   6.641   4.019
 3374SOL    HW111021   0.352   6.719   4.038
 3374SOL    HW211022   0.330   6.558   4.057
 3375SOL     OW11023   0.424   5.596   5.665
 3375SOL    HW111024   0.437   5.657   5.743
 3375SOL    HW211025   0.392   5.507   5.698
 3376SOL     OW11026   3.150   2.995   4.391
 3376SOL    HW111027   3.126   2.989   4.488
 3376SOL    HW211028   3.076   3.039   4.341
 3377SOL     OW11029   6.768   5.146   3.781
 3377SOL    HW111030   6.729   5.114   3.867
 3377SOL    HW211031   6.722   5.231   3.753
 3378SOL     OW11032   1.328   6.655   0.180
 3378SOL    HW111033   1.253   6.654   0.113
 3378SOL    HW211034   1.378   6.569   0.175
 3379SOL     OW11035   6.625   4.230   3.541
 3379SOL    HW111036   6.675   4.301   3.492
 3379SOL    HW211037   6.629   4.144   3.489
 3380SOL     OW11038   2.683   4.723   0.440
 3380SOL    HW111039   2.646   4.814   0.459
 3380SOL    HW211040   2.623   4.653   0.480
 3381SOL     OW11041   2.091   4.007   5.880
 3381SOL    HW111042   2.119   3.914   5.856
 3381SOL    HW211043   2.165   4.053   5.928
 3382SOL     OW11044   6.628   3.589   0.677
 3382SOL    HW111045   6.632   3.612   0.775
 3382SOL    HW211046   6.612   3.672   0.624
 3383SOL     OW11047   4.173   5.170   0.369
 3383SOL    HW111048   4.176   5.188   0.271
 3383SOL    HW211049   4.215   5.246   0.418
 3384SOL     OW11050   2.712   3.726   6.770
 3384SOL    HW111051   2.722   3.638   6.723
 3384SOL    HW211052   2.615   3.751   6.775
 3385SOL     OW11053   6.910   2.643   3.973
 3385SOL    HW111054   6.957   2.646   3.885
 3385SOL    HW211055   6.965   2.690   4.042
 3386SOL     OW11056   0.219   5.273   4.856
 3386SOL    HW111057   0.150   5.204   4.835
 3386SOL    HW211058   0.284   5.279   4.779
 3387SOL     OW11059   6.439   1.150   3.285
 3387SOL    HW111060   6.402   1.086   3.352
 3387SOL    HW211061   6.390   1.139   3.198
 3388SOL     OW11062   6.975   3.790   0.860
 3388SOL    HW111063   7.001   3.696   0.842
 3388SOL    HW211064   6.917   3.794   0.941
 3389SOL     OW11065   5.565   5.806   6.679
 3389SOL    HW111066   5.640   5.823   6.743
 3389SOL    HW211067   5.600   5.806   6.586
 3390SOL     OW11068   3.139   5.964   6.488
 3390SOL    HW111069   3.142   6.061   6.509
 3390SOL    HW211070   3.048   5.927   6.509
 3391SOL     OW11071   5.708   3.976   3.915
 3391SOL    HW111072   5.636   3.908   3.928
 3391SOL    HW211073   5.749   3.965   3.825
 3392SOL     OW11074   4.797   0.437   6.091
 3392SOL    HW111075   4.819   0.462   5.997
 3392SOL    HW211076   4.873   0.385   6.130
 3393SOL     OW11077   4.111   6.344   0.501
 3393SOL    HW111078   4.172   6.266   0.503
 3393SOL    HW211079   4.159   6.425   0.536
 3394SOL     OW11080   2.696   5.295   1.568
 3394SOL    HW111081   2.728   5.220   1.625
 3394SOL    HW211082   2.728   5.283   1.474
 3395SOL     OW11083   2.521   6.766   3.275
 3395SOL    HW111084   2.497   6.676   3.238
 3395SOL    HW211085   2.617   6.765   3.303
 3396SOL     OW11086   4.367   0.622   3.677
 3396SOL    HW111087   4.397   0.546   3.736
 3396SOL    HW211088   4.292   0.671   3.721
 3397SOL     OW11089   2.210   5.523   6.572
 3397SOL    HW111090   2.301   5.489   6.549
 3397SOL    HW211091   2.141   5.463   6.533
 3398SOL     OW11092   6.486   2.400   4.582
 3398SOL    HW111093   6.434   2.458   4.644
 3398SOL    HW211094   6.546   2.457   4.526
 3399SOL     OW11095   6.804   6.146   2.065
 3399SOL    HW111096   6.763   6.168   1.977
 3399SOL    HW211097   6.760   6.200   2.137
 3400SOL     OW11098   4.113   2.885   5.673
 3400SOL    HW111099   4.174   2.946   5.723
 3400SOL    HW211100   4.101   2.800   5.724
 3401SOL     OW11101   6.245   3.841   5.533
 3401SOL    HW111102   6.181   3.899   5.483
 3401SOL    HW211103   6.336   3.882   5.531
 3402SOL     OW11104   6.962   3.434   0.667
 3402SOL    HW111105   7.002   3.470   0.751
 3402SOL    HW211106   6.947   3.509   0.602
 3403SOL     OW11107   5.137   6.987   6.855
 3403SOL    HW111108   5.100   6.998   6.763
 3403SOL    HW211109   5.229   6.948   6.851
 3404SOL     OW11110   4.986   4.259   4.646
 3404SOL    HW111111   4.988   4.350   4.689
 3404SOL    HW211112   5.064   4.249   4.586
 3405SOL     OW11113   4.833   6.053   0.249
 3405SOL    HW111114   4.811   6.151   0.254
 3405SOL    HW211115   4.886   6.027   0.329
 3406SOL     OW11116   2.777   5.479   1.748
 3406SOL    HW111117   2.724   5.471   1.833
 3406SOL    HW211118   2.738   5.419   1.679
 3407SOL     OW11119   0.955   4.076   6.544
 3407SOL    HW111120   0.925   4.170   6.530
 3407SOL    HW211121   1.054   4.075   6.560
 3408SOL     OW11122   5.157   0.486   3.565
 3408SOL    HW111123   5.149   0.496   3.664
 3408SOL    HW211124   5.248   0.515   3.536
 3409SOL     OW11125   4.298   0.873   0.685
 3409SOL    HW111126   4.380   0.901   0.735
 3409SOL    HW211127   4.246   0.808   0.740
 3410SOL     OW11128   5.872   0.216   3.260
 3410SOL    HW111129   5.799   0.189   3.197
 3410SOL    HW211130   5.834   0.273   3.333
 3411SOL     OW11131   6.432   3.019   6.053
 3411SOL    HW111132   6.355   3.071   6.090
 3411SOL    HW211133   6.513   3.033   6.110
 3412SOL     OW11134   5.743   3.503   2.145
 3412SOL    HW111135   5.707   3.593   2.171
 3412SOL    HW211136   5.828   3.514   2.094
 3413SOL     OW11137   0.012   0.969   0.210
 3413SOL    HW111138   0.067   0.936   0.133
 3413SOL    HW211139   6.944   0.938   0.199
 3414SOL     OW11140   3.573   3.715   1.121
 3414SOL    HW111141   3.672   3.727   1.120
 3414SOL    HW211142   3.547   3.659   1.200
 3415SOL     OW11143   2.300   1.469   5.959
 3415SOL    HW111144   2.389   1.443   5.995
 3415SOL    HW211145   2.236   1.393   5.971
 3416SOL     OW11146   6.424   6.987   6.442
 3416SOL    HW111147   6.368   0.030   6.487
 3416SOL    HW211148   6.507   0.003   6.406
 3417SOL     OW11149   6.233   6.303   3.428
 3417SOL    HW111150   6.326   6.289   3.394
 3417SOL    HW211151   6.221   6.250   3.512
 3418SOL     OW11152   3.830   4.960   0.952
 3418SOL    HW111153   3.792   5.020   0.882
 3418SOL    HW211154   3.789   4.981   1.040
 3419SOL     OW11155   2.612   5.519   5.185
 3419SOL    HW111156   2.599   5.444   5.121
 3419SOL    HW211157   2.687   5.497   5.247
 3420SOL     OW11158   4.740   1.759   1.990
 3420SOL    HW111159   4.774   1.834   2.047
 3420SOL    HW211160   4.814   1.694   1.972
 3421SOL     OW11161   0.164   2.099   4.902
 3421SOL    HW111162   0.243   2.053   4.943
 3421SOL    HW211163   0.103   2.131   4.975
 3422SOL     OW11164   1.882   6.087   0.693
 3422SOL    HW111165   1.968   6.124   0.730
 3422SOL    HW211166   1.823   6.060   0.769
 3423SOL     OW11167   1.923   4.913   5.606
 3423SOL    HW111168   2.007   4.937   5.654
 3423SOL    HW211169   1.846   4.963   5.647
 3424SOL     OW11170   5.449   1.273   2.063
 3424SOL    HW111171   5.497   1.282   1.976
 3424SOL    HW211172   5.350   1.282   2.047
 3425SOL     OW11173   6.671   3.167   6.315
 3425SOL    HW111174   6.632   3.119   6.393
 3425SOL    HW211175   6.606   3.234   6.280
 3426SOL     OW11176   6.603   3.042   6.688
 3426SOL    HW111177   6.606   3.141   6.680
 3426SOL    HW211178   6.664   3.012   6.760
 3427SOL     OW11179   1.065   1.902   0.450
 3427SOL    HW111180   1.007   1.954   0.387
 3427SOL    HW211181   1.074   1.952   0.536
 3428SOL     OW11182   4.381   6.657   4.714
 3428SOL    HW111183   4.307   6.645   4.648
 3428SOL    HW211184   4.372   6.589   4.787
 3429SOL     OW11185   4.840   6.770   1.385
 3429SOL    HW111186   4.776   6.699   1.353
 3429SOL    HW211187   4.926   6.761   1.336
 3430SOL     OW11188   2.714   4.173   5.844
 3430SOL    HW111189   2.717   4.264   5.802
 3430SOL    HW211190   2.741   4.180   5.940
 3431SOL     OW11191   0.466   4.946   2.648
 3431SOL    HW111192   0.492   4.860   2.605
 3431SOL    HW211193   0.366   4.952   2.654
 3432SOL     OW11194   0.585   4.292   0.270
 3432SOL    HW111195   0.487   4.276   0.284
 3432SOL    HW211196   0.604   4.300   0.172
 3433SOL     OW11197   2.493   1.030   6.869
 3433SOL    HW111198   2.524   0.935   6.859
 3433SOL    HW211199   2.416   1.046   6.807
 3434SOL     OW11200   3.712   2.545   1.756
 3434SOL    HW111201   3.641   2.573   1.692
 3434SOL    HW211202   3.683   2.464   1.806
 3435SOL     OW11203   1.536   1.433   1.366
 3435SOL    HW111204   1.623   1.413   1.412
 3435SOL    HW211205   1.483   1.496   1.423
 3436SOL     OW11206   3.680   6.689   6.400
 3436SOL    HW111207   3.722   6.634   6.328
 3436SOL    HW211208   3.621   6.631   6.457
 3437SOL     OW11209   1.417   0.157   6.363
 3437SOL    HW111210   1.468   0.196   6.286
 3437SOL    HW211211   1.319   0.162   6.343
 3438SOL     OW11212   2.242   3.814   0.955
 3438SOL    HW111213   2.210   3.814   0.860
 3438SOL    HW211214   2.337   3.847   0.958
 3439SOL     OW11215   2.355   5.608   1.576
 3439SOL    HW111216   2.426   5.567   1.520
 3439SOL    HW211217   2.277   5.632   1.518
 3440SOL     OW11218   3.852   3.957   5.388
 3440SOL    HW111219   3.903   3.871   5.396
 3440SOL    HW211220   3.759   3.944   5.421
 3441SOL     OW11221   5.747   4.613   6.027
 3441SOL    HW111222   5.839   4.599   6.061
 3441SOL    HW211223   5.722   4.538   5.966
 3442SOL     OW11224   2.426   3.366   1.038
 3442SOL    HW111225   2.343   3.416   1.015
 3442SOL    HW211226   2.476   3.344   0.954
 3443SOL     OW11227   0.246   6.111   2.481
 3443SOL    HW111228   0.329   6.159   2.510
 3443SOL    HW211229   0.231   6.127   2.383
 3444SOL     OW11230   6.492   4.040   5.540
 3444SOL    HW111231   6.552   4.001   5.610
 3444SOL    HW211232   6.535   4.121   5.501
 3445SOL     OW11233   6.452   4.577   3.967
 3445SOL    HW111234   6.505   4.638   3.908
 3445SOL    HW211235   6.509   4.498   3.993
 3446SOL     OW11236   4.641   0.997   1.627
 3446SOL    HW111237   4.658   0.993   1.529
 3446SOL    HW211238   4.679   1.082   1.664
 3447SOL     OW11239   5.149   0.956   6.252
 3447SOL    HW111240   5.178   0.995   6.164
 3447SOL    HW211241   5.215   0.886   6.280
 3448SOL     OW11242   1.667   4.612   5.433
 3448SOL    HW111243   1.715   4.611   5.521
 3448SOL    HW211244   1.648   4.706   5.407
 3449SOL     OW11245   0.527   4.439   5.645
 3449SOL    HW111246   0.448   4.426   5.704
 3449SOL    HW211247   0.497   4.458   5.552
 3450SOL     OW11248   2.437   6.797   1.418
 3450SOL    HW111249   2.436   6.897   1.418
 3450SOL    HW211250   2.505   6.765   1.353
 3451SOL     OW11251   1.681   1.864   1.575
 3451SOL    HW111252   1.773   1.902   1.563
 3451SOL    HW211253   1.649   1.881   1.668
 3452SOL     OW11254   4.678   0.911   4.637
 3452SOL    HW111255   4.641   0.832   4.588
 3452SOL    HW211256   4.603   0.967   4.673
 3453SOL     OW11257   4.128   6.294   6.666
 3453SOL    HW111258   4.092   6.377   6.708
 3453SOL    HW211259   4.215   6.314   6.621
 3454SOL     OW11260   0.096   2.989   1.540
 3454SOL    HW111261   0.161   2.938   1.484
 3454SOL    HW211262   0.119   3.086   1.537
 3455SOL     OW11263   0.423   3.448   6.069
 3455SOL    HW111264   0.378   3.364   6.037
 3455SOL    HW211265   0.520   3.431   6.081
 3456SOL     OW11266   5.068   5.191   3.599
 3456SOL    HW111267   5.019   5.132   3.534
 3456SOL    HW211268   5.165   5.195   3.574
 3457SOL     OW11269   3.702   4.289   6.266
 3457SOL    HW111270   3.669   4.217   6.326
 3457SOL    HW211271   3.671   4.273   6.173
 3458SOL     OW11272   4.255   1.418   2.375
 3458SOL    HW111273   4.228   1.432   2.470
 3458SOL    HW211274   4.185   1.365   2.328
 3459SOL     OW11275   5.660   6.002   2.225
 3459SOL    HW111276   5.687   5.978   2.318
 3459SOL    HW211277   5.737   6.043   2.177
 3460SOL     OW11278   3.779   2.044   4.608
 3460SOL    HW111279   3.762   2.004   4.698
 3460SOL    HW211280   3.876   2.066   4.599
 3461SOL     OW11281   5.542   4.958   5.113
 3461SOL    HW111282   5.538   5.036   5.175
 3461SOL    HW211283   5.476   4.970   5.039
 3462SOL     OW11284   1.321   3.257   6.466
 3462SOL    HW111285   1.339   3.159   6.472
 3462SOL    HW211286   1.347   3.291   6.376
 3463SOL     OW11287   5.556   4.014   0.314
 3463SOL    HW111288   5.514   4.098   0.279
 3463SOL    HW211289   5.626   4.037   0.382
 3464SOL     OW11290   0.313   4.498   4.709
 3464SOL    HW111291   0.296   4.509   4.807
 3464SOL    HW211292   0.404   4.535   4.687
 3465SOL     OW11293   0.993   1.661   2.568
 3465SOL    HW111294   0.961   1.662   2.474
 3465SOL    HW211295   0.994   1.567   2.602
 3466SOL     OW11296   6.941   3.403   5.047
 3466SOL    HW111297   6.916   3.345   5.123
 3466SOL    HW211298   0.012   3.390   5.025
 3467SOL     OW11299   1.912   2.714   6.136
 3467SOL    HW111300   1.878   2.646   6.072
 3467SOL    HW211301   1.936   2.670   6.222
 3468SOL     OW11302   4.352   6.690   2.413
 3468SOL    HW111303   4.365   6.750   2.492
 3468SOL    HW211304   4.256   6.662   2.408
 3469SOL     OW11305   5.230   3.571   1.517
 3469SOL    HW111306   5.166   3.625   1.462
 3469SOL    HW211307   5.179   3.502   1.569
 3470SOL     OW11308   0.094   5.329   0.934
 3470SOL    HW111309   0.004   5.369   0.923
 3470SOL    HW211310   0.153   5.392   0.984
 3471SOL     OW11311   4.292   0.358   4.330
 3471SOL    HW111312   4.349   0.298   4.386
 3471SOL    HW211313   4.196   0.343   4.353
 3472SOL     OW11314   4.397   1.136   5.061
 3472SOL    HW111315   4.427   1.042   5.043
 3472SOL    HW211316   4.371   1.145   5.157
 3473SOL     OW11317   4.473   6.550   4.036
 3473SOL    HW111318   4.468   6.592   4.127
 3473SOL    HW211319   4.481   6.451   4.046
 3474SOL     OW11320   5.504   4.386   0.948
 3474SOL    HW111321   5.462   4.415   0.862
 3474SOL    HW211322   5.444   4.410   1.024
 3475SOL     OW11323   1.729   6.460   4.801
 3475SOL    HW111324   1.802   6.425   4.860
 3475SOL    HW211325   1.770   6.498   4.718
 3476SOL     OW11326   5.025   1.267   4.687
 3476SOL    HW111327   4.970   1.321   4.751
 3476SOL    HW211328   4.992   1.172   4.688
 3477SOL     OW11329   4.241   5.670   1.963
 3477SOL    HW111330   4.225   5.749   2.022
 3477SOL    HW211331   4.293   5.601   2.013
 3478SOL     OW11332   4.127   4.957   6.954
 3478SOL    HW111333   4.103   4.863   6.927
 3478SOL    HW211334   4.215   4.982   6.913
 3479SOL     OW11335   1.248   7.022   1.644
 3479SOL    HW111336   1.226   6.969   1.726
 3479SOL    HW211337   1.173   7.014   1.578
 3480SOL     OW11338   1.191   0.573   4.077
 3480SOL    HW111339   1.123   0.614   4.137
 3480SOL    HW211340   1.269   0.635   4.067
 3481SOL     OW11341   2.492   0.035   6.597
 3481SOL    HW111342   2.568   0.079   6.644
 3481SOL    HW211343   2.513   6.964   6.585
 3482SOL     OW11344   0.742   1.927   1.426
 3482SOL    HW111345   0.811   1.974   1.481
 3482SOL    HW211346   0.780   1.906   1.336
 3483SOL     OW11347   4.342   1.661   0.578
 3483SOL    HW111348   4.344   1.743   0.634
 3483SOL    HW211349   4.316   1.582   0.635
 3484SOL     OW11350   2.993   3.200   3.983
 3484SOL    HW111351   3.019   3.260   3.907
 3484SOL    HW211352   3.058   3.124   3.989
 3485SOL     OW11353   6.924   1.784   4.738
 3485SOL    HW111354   6.847   1.815   4.683
 3485SOL    HW211355   6.919   1.685   4.750
 3486SOL     OW11356   4.887   1.185   3.408
 3486SOL    HW111357   4.921   1.097   3.377
 3486SOL    HW211358   4.879   1.247   3.330
 3487SOL     OW11359   0.375   0.619   0.471
 3487SOL    HW111360   0.288   0.633   0.425
 3487SOL    HW211361   0.448   0.664   0.419
 3488SOL     OW11362   6.032   3.613   3.745
 3488SOL    HW111363   6.081   3.541   3.696
 3488SOL    HW211364   5.970   3.660   3.683
 3489SOL     OW11365   2.247   6.383   0.053
 3489SOL    HW111366   2.202   6.297   0.027
 3489SOL    HW211367   2.323   6.364   0.114
 3490SOL     OW11368   4.331   2.628   1.468
 3490SOL    HW111369   4.278   2.641   1.384
 3490SOL    HW211370   4.270   2.606   1.543
 3491SOL     OW11371   6.702   2.814   5.335
 3491SOL    HW111372   6.660   2.751   5.270
 3491SOL    HW211373   6.772   2.767   5.388
 3492SOL     OW11374   5.308   5.168   6.271
 3492SOL    HW111375   5.282   5.217   6.188
 3492SOL    HW211376   5.229   5.164   6.333
 3493SOL     OW11377   0.343   4.700   0.833
 3493SOL    HW111378   0.425   4.707   0.891
 3493SOL    HW211379   0.345   4.613   0.784
 3494SOL     OW11380   2.809   6.049   0.963
 3494SOL    HW111381   2.839   6.008   0.877
 3494SOL    HW211382   2.710   6.066   0.960
 3495SOL     OW11383   5.161   4.313   0.556
 3495SOL    HW111384   5.161   4.214   0.569
 3495SOL    HW211385   5.117   4.335   0.469
 3496SOL     OW11386   1.144   4.570   0.225
 3496SOL    HW111387   1.147   4.513   0.308
 3496SOL    HW211388   1.072   4.537   0.164
 3497SOL     OW11389   4.262   6.327   3.810
 3497SOL    HW111390   4.277   6.295   3.716
 3497SOL    HW211391   4.300   6.260   3.874
 3498SOL     OW11392   1.484   1.670   1.221
 3498SOL    HW111393   1.556   1.682   1.152
 3498SOL    HW211394   1.504   1.591   1.278
 3499SOL     OW11395   6.511   3.648   4.125
 3499SOL    HW111396   6.441   3.579   4.112
 3499SOL    HW211397   6.494   3.726   4.065
 3500SOL     OW11398   6.604   3.074   0.697
 3500SOL    HW111399   6.606   3.170   0.670
 3500SOL    HW211400   6.538   3.061   0.771
 3501SOL     OW11401   0.804   4.544   3.886
 3501SOL    HW111402   0.753   4.470   3.843
 3501SOL    HW211403   0.774   4.632   3.849
 3502SOL     OW11404   0.936   3.974   1.750
 3502SOL    HW111405   1.030   3.971   1.785
 3502SOL    HW211406   0.927   3.913   1.671
 3503SOL     OW11407   3.751   6.657   4.027
 3503SOL    HW111408   3.661   6.701   4.024
 3503SOL    HW211409   3.818   6.713   3.978
 3504SOL     OW11410   2.109   3.258   2.546
 3504SOL    HW111411   2.130   3.288   2.453
 3504SOL    HW211412   2.133   3.330   2.611
 3505SOL     OW11413   4.228   6.260   4.923
 3505SOL    HW111414   4.191   6.265   5.015
 3505SOL    HW211415   4.207   6.171   4.883
 3506SOL     OW11416   5.727   4.948   2.343
 3506SOL    HW111417   5.718   4.851   2.367
 3506SOL    HW211418   5.815   4.982   2.376
 3507SOL     OW11419   0.405   0.495   6.360
 3507SOL    HW111420   0.336   0.501   6.288
 3507SOL    HW211421   0.484   0.443   6.326
 3508SOL     OW11422   6.113   3.643   0.280
 3508SOL    HW111423   6.160   3.580   0.342
 3508SOL    HW211424   6.159   3.732   0.283
 3509SOL     OW11425   6.506   0.457   0.686
 3509SOL    HW111426   6.548   0.491   0.769
 3509SOL    HW211427   6.568   0.391   0.642
 3510SOL     OW11428   1.822   2.322   2.186
 3510SOL    HW111429   1.881   2.264   2.242
 3510SOL    HW211430   1.864   2.412   2.175
 3511SOL     OW11431   0.971   0.535   5.090
 3511SOL    HW111432   1.055   0.506   5.043
 3511SOL    HW211433   0.984   0.531   5.189
 3512SOL     OW11434   2.805   3.338   0.693
 3512SOL    HW111435   2.817   3.268   0.624
 3512SOL    HW211436   2.873   3.326   0.766
 3513SOL     OW11437   5.825   4.243   1.282
 3513SOL    HW111438   5.788   4.297   1.207
 3513SOL    HW211439   5.777   4.267   1.367
 3514SOL     OW11440   1.733   6.561   2.097
 3514SOL    HW111441   1.820   6.531   2.060
 3514SOL    HW211442   1.700   6.494   2.164
 3515SOL     OW11443   3.941   5.885   3.169
 3515SOL    HW111444   3.965   5.955   3.102
 3515SOL    HW211445   3.856   5.910   3.216
 3516SOL     OW11446   3.000   1.230   0.838
 3516SOL    HW111447   2.929   1.255   0.773
 3516SOL    HW211448   2.958   1.212   0.927
 3517SOL     OW11449   0.759   0.538   6.397
 3517SOL    HW111450   0.697   0.492   6.334
 3517SOL    HW211451   0.834   0.580   6.346
 3518SOL     OW11452   4.914   3.184   5.530
 3518SOL    HW111453   4.991   3.190   5.466
 3518SOL    HW211454   4.870   3.273   5.537
 3519SOL     OW11455   2.887   6.322   0.543
 3519SOL    HW111456   2.920   6.345   0.452
 3519SOL    HW211457   2.962   6.326   0.609
 3520SOL     OW11458   3.965   5.263   1.036
 3520SOL    HW111459   3.883   5.251   1.091
 3520SOL    HW211460   4.041   5.289   1.095
 3521SOL     OW11461   5.790   1.954   6.378
 3521SOL    HW111462   5.828   2.022   6.442
 3521SOL    HW211463   5.725   1.896   6.427
 3522SOL     OW11464   3.004   5.828   1.264
 3522SOL    HW111465   2.966   5.920   1.255
 3522SOL    HW211466   3.018   5.788   1.173
 3523SOL     OW11467   2.312   5.125   5.297
 3523SOL    HW111468   2.314   5.073   5.382
 3523SOL    HW211469   2.352   5.070   5.224
 3524SOL     OW11470   2.454   0.035   1.512
 3524SOL    HW111471   2.439   0.004   1.606
 3524SOL    HW211472   2.404   0.120   1.497
 3525SOL     OW11473   1.775   3.443   2.598
 3525SOL    HW111474   1.712   3.481   2.530
 3525SOL    HW211475   1.869   3.464   2.571
 3526SOL     OW11476   3.342   0.140   3.252
 3526SOL    HW111477   3.282   0.219   3.237
 3526SOL    HW211478   3.430   0.171   3.288
 3527SOL     OW11479   5.286   3.236   5.904
 3527SOL    HW111480   5.329   3.265   5.989
 3527SOL    HW211481   5.257   3.141   5.912
 3528SOL     OW11482   1.155   7.022   4.082
 3528SOL    HW111483   1.098   0.030   4.007
 3528SOL    HW211484   1.117   6.935   4.115
 3529SOL     OW11485   3.656   6.039   6.733
 3529SOL    HW111486   3.745   6.078   6.710
 3529SOL    HW211487   3.605   6.104   6.788
 3530SOL     OW11488   1.591   5.996   2.986
 3530SOL    HW111489   1.510   6.048   3.010
 3530SOL    HW211490   1.574   5.898   3.001
 3531SOL     OW11491   5.003   4.117   6.645
 3531SOL    HW111492   5.088   4.067   6.661
 3531SOL    HW211493   4.932   4.085   6.707
 3532SOL     OW11494   1.989   6.761   0.016
 3532SOL    HW111495   1.981   6.861   0.013
 3532SOL    HW211496   1.956   6.723   6.957
 3533SOL     OW11497   1.133   1.140   4.038
 3533SOL    HW111498   1.123   1.160   4.135
 3533SOL    HW211499   1.042   1.141   3.994
 3534SOL     OW11500   4.916   0.584   5.092
 3534SOL    HW111501   4.951   0.496   5.059
 3534SOL    HW211502   4.891   0.574   5.189
 3535SOL     OW11503   4.257   6.021   6.817
 3535SOL    HW111504   4.183   5.979   6.870
 3535SOL    HW211505   4.243   6.120   6.813
 3536SOL     OW11506   1.120   4.074   2.712
 3536SOL    HW111507   1.214   4.105   2.729
 3536SOL    HW211508   1.057   4.151   2.720
 3537SOL     OW11509   2.407   4.719   0.979
 3537SOL    HW111510   2.396   4.728   1.078
 3537SOL    HW211511   2.347   4.647   0.945
 3538SOL     OW11512   3.324   1.473   3.984
 3538SOL    HW111513   3.413   1.435   3.958
 3538SOL    HW211514   3.313   1.563   3.942
 3539SOL     OW11515   5.233   6.186   6.726
 3539SOL    HW111516   5.142   6.193   6.767
 3539SOL    HW211517   5.278   6.104   6.759
 3540SOL     OW11518   2.977   4.280   5.919
 3540SOL    HW111519   2.896   4.299   5.864
 3540SOL    HW211520   2.991   4.181   5.925
 3541SOL     OW11521   1.861   3.106   1.470
 3541SOL    HW111522   1.837   3.134   1.563
 3541SOL    HW211523   1.780   3.068   1.424
 3542SOL     OW11524   5.774   1.166   0.050
 3542SOL    HW111525   5.855   1.222   0.031
 3542SOL    HW211526   5.757   1.104   7.000
 3543SOL     OW11527   0.901   2.375   3.916
 3543SOL    HW111528   0.927   2.304   3.981
 3543SOL    HW211529   0.863   2.333   3.834
 3544SOL     OW11530   3.110   4.018   6.983
 3544SOL    HW111531   3.052   3.945   6.946
 3544SOL    HW211532   3.114   4.094   6.918
 3545SOL     OW11533   3.910   0.178   1.098
 3545SOL    HW111534   3.862   0.266   1.098
 3545SOL    HW211535   3.985   0.181   1.164
 3546SOL     OW11536   6.316   4.234   2.423
 3546SOL    HW111537   6.290   4.158   2.362
 3546SOL    HW211538   6.415   4.240   2.428
 3547SOL     OW11539   1.461   3.883   4.615
 3547SOL    HW111540   1.398   3.820   4.659
 3547SOL    HW211541   1.469   3.862   4.518
 3548SOL     OW11542   5.446   0.594   5.807
 3548SOL    HW111543   5.531   0.553   5.773
 3548SOL    HW211544   5.410   0.540   5.882
 3549SOL     OW11545   2.716   6.667   6.806
 3549SOL    HW111546   2.703   6.765   6.816
 3549SOL    HW211547   2.771   6.633   6.882
 3550SOL     OW11548   4.966   1.351   5.147
 3550SOL    HW111549   4.983   1.288   5.223
 3550SOL    HW211550   4.965   1.445   5.181
 3551SOL     OW11551   4.714   2.181   4.351
 3551SOL    HW111552   4.616   2.171   4.338
 3551SOL    HW211553   4.762   2.104   4.308
 3552SOL     OW11554   5.713   6.958   3.378
 3552SOL    HW111555   5.679   7.014   3.302
 3552SOL    HW211556   5.804   6.989   3.404
 3553SOL     OW11557   6.026   5.821   6.613
 3553SOL    HW111558   6.046   5.793   6.707
 3553SOL    HW211559   5.984   5.745   6.564
 3554SOL     OW11560   5.698   4.117   6.941
 3554SOL    HW111561   5.643   4.037   6.965
 3554SOL    HW211562   5.712   4.121   6.842
 3555SOL     OW11563   2.990   1.783   5.305
 3555SOL    HW111564   2.985   1.820   5.212
 3555SOL    HW211565   3.076   1.812   5.347
 3556SOL     OW11566   5.641   0.757   0.529
 3556SOL    HW111567   5.631   0.658   0.534
 3556SOL    HW211568   5.734   0.781   0.504
 3557SOL     OW11569   5.847   0.380   1.344
 3557SOL    HW111570   5.804   0.464   1.310
 3557SOL    HW211571   5.936   0.401   1.384
 3558SOL     OW11572   4.055   5.393   2.642
 3558SOL    HW111573   4.149   5.386   2.608
 3558SOL    HW211574   3.992   5.359   2.572
 3559SOL     OW11575   4.647   7.018   6.482
 3559SOL    HW111576   4.658   0.018   6.578
 3559SOL    HW211577   4.550   7.004   6.462
 3560SOL     OW11578   1.608   5.551   4.052
 3560SOL    HW111579   1.549   5.631   4.041
 3560SOL    HW211580   1.674   5.568   4.125
 3561SOL     OW11581   4.379   3.601   5.317
 3561SOL    HW111582   4.406   3.637   5.406
 3561SOL    HW211583   4.460   3.568   5.269
 3562SOL     OW11584   2.556   1.918   0.127
 3562SOL    HW111585   2.498   1.982   0.077
 3562SOL    HW211586   2.554   1.829   0.081
 3563SOL     OW11587   6.218   2.546   6.065
 3563SOL    HW111588   6.126   2.535   6.102
 3563SOL    HW211589   6.264   2.458   6.061
 3564SOL     OW11590   6.291   3.534   2.106
 3564SOL    HW111591   6.253   3.626   2.107
 3564SOL    HW211592   6.251   3.480   2.180
 3565SOL     OW11593   4.223   5.997   4.821
 3565SOL    HW111594   4.226   5.986   4.721
 3565SOL    HW211595   4.169   5.923   4.861
 3566SOL     OW11596   0.890   0.037   4.894
 3566SOL    HW111597   0.821   7.003   4.933
 3566SOL    HW211598   0.909   0.113   4.957
 3567SOL     OW11599   0.182   2.787   6.513
 3567SOL    HW111600   0.142   2.792   6.422
 3567SOL    HW211601   0.143   2.858   6.572
 3568SOL     OW11602   5.641   3.910   6.124
 3568SOL    HW111603   5.606   3.889   6.033
 3568SOL    HW211604   5.681   3.828   6.164
 3569SOL     OW11605   1.299   0.487   3.723
 3569SOL    HW111606   1.216   0.516   3.769
 3569SOL    HW211607   1.378   0.500   3.783
 3570SOL     OW11608   5.584   1.758   3.798
 3570SOL    HW111609   5.543   1.847   3.817
 3570SOL    HW211610   5.552   1.725   3.709
 3571SOL     OW11611   6.499   6.961   5.349
 3571SOL    HW111612   6.408   6.941   5.312
 3571SOL    HW211613   6.548   6.875   5.366
 3572SOL     OW11614   6.216   6.040   4.851
 3572SOL    HW111615   6.143   5.997   4.798
 3572SOL    HW211616   6.224   6.136   4.825
 3573SOL     OW11617   1.096   2.140   2.207
 3573SOL    HW111618   1.039   2.174   2.133
 3573SOL    HW211619   1.153   2.064   2.174
 3574SOL     OW11620   5.968   3.519   0.093
 3574SOL    HW111621   6.026   3.571   0.155
 3574SOL    HW211622   5.878   3.562   0.088
 3575SOL     OW11623   6.102   6.125   1.849
 3575SOL    HW111624   6.087   6.212   1.897
 3575SOL    HW211625   6.073   6.133   1.754
 3576SOL     OW11626   0.450   1.682   6.416
 3576SOL    HW111627   0.389   1.606   6.396
 3576SOL    HW211628   0.507   1.701   6.336
 3577SOL     OW11629   1.656   2.860   7.017
 3577SOL    HW111630   1.680   2.957   7.017
 3577SOL    HW211631   1.721   2.809   6.960
 3578SOL     OW11632   3.663   4.737   1.364
 3578SOL    HW111633   3.570   4.774   1.369
 3578SOL    HW211634   3.659   4.637   1.374
 3579SOL     OW11635   0.816   4.536   5.189
 3579SOL    HW111636   0.801   4.496   5.098
 3579SOL    HW211637   0.866   4.472   5.246
 3580SOL     OW11638   6.848   2.081   1.785
 3580SOL    HW111639   6.856   2.162   1.843
 3580SOL    HW211640   6.940   2.046   1.766
 3581SOL     OW11641   5.942   0.687   3.605
 3581SOL    HW111642   5.899   0.666   3.692
 3581SOL    HW211643   6.041   0.690   3.617
 3582SOL     OW11644   0.053   0.740   5.759
 3582SOL    HW111645   7.020   0.812   5.724
 3582SOL    HW211646   0.055   0.743   5.859
 3583SOL     OW11647   2.207   5.505   0.703
 3583SOL    HW111648   2.203   5.420   0.651
 3583SOL    HW211649   2.244   5.578   0.645
 3584SOL     OW11650   5.230   7.009   5.766
 3584SOL    HW111651   5.196   0.070   5.731
 3584SOL    HW211652   5.160   6.939   5.756
 3585SOL     OW11653   2.794   5.145   4.011
 3585SOL    HW111654   2.884   5.119   4.047
 3585SOL    HW211655   2.765   5.232   4.052
 3586SOL     OW11656   6.892   1.790   6.059
 3586SOL    HW111657   6.907   1.739   6.144
 3586SOL    HW211658   6.794   1.810   6.050
 3587SOL     OW11659   3.646   0.116   6.646
 3587SOL    HW111660   3.684   0.151   6.561
 3587SOL    HW211661   3.648   0.188   6.716
 3588SOL     OW11662   1.987   1.145   5.300
 3588SOL    HW111663   1.918   1.182   5.238
 3588SOL    HW211664   2.047   1.219   5.330
 3589SOL     OW11665   3.055   0.546   5.135
 3589SOL    HW111666   3.001   0.485   5.078
 3589SOL    HW211667   3.035   0.528   5.232
 3590SOL     OW11668   1.859   4.948   6.739
 3590SOL    HW111669   1.796   4.974   6.666
 3590SOL    HW211670   1.852   5.013   6.815
 3591SOL     OW11671   4.960   1.969   5.856
 3591SOL    HW111672   5.010   1.950   5.940
 3591SOL    HW211673   5.023   1.967   5.778
 3592SOL     OW11674   4.726   2.840   1.728
 3592SOL    HW111675   4.781   2.779   1.784
 3592SOL    HW211676   4.731   2.933   1.765
 3593SOL     OW11677   1.090   4.714   3.338
 3593SOL    HW111678   1.078   4.799   3.389
 3593SOL    HW211679   1.185   4.707   3.308
 3594SOL     OW11680   3.075   0.760   4.078
 3594SOL    HW111681   3.075   0.845   4.130
 3594SOL    HW211682   3.162   0.751   4.029
 3595SOL     OW11683   2.515   6.225   5.401
 3595SOL    HW111684   2.536   6.303   5.341
 3595SOL    HW211685   2.485   6.148   5.345
 3596SOL     OW11686   6.781   3.155   3.406
 3596SOL    HW111687   6.862   3.209   3.430
 3596SOL    HW211688   6.763   3.088   3.478
 3597SOL     OW11689   3.704   6.351   2.899
 3597SOL    HW111690   3.663   6.285   2.837
 3597SOL    HW211691   3.649   6.358   2.982
 3598SOL     OW11692   1.241   0.345   0.345
 3598SOL    HW111693   1.258   0.259   0.297
 3598SOL    HW211694   1.316   0.361   0.410
 3599SOL     OW11695   0.340   1.738   4.188
 3599SOL    HW111696   0.291   1.682   4.255
 3599SOL    HW211697   0.303   1.720   4.097
 3600SOL     OW11698   6.145   0.732   1.035
 3600SOL    HW111699   6.063   0.674   1.035
 3600SOL    HW211700   6.192   0.721   0.947
 3601SOL     OW11701   6.118   3.737   5.252
 3601SOL    HW111702   6.133   3.821   5.303
 3601SOL    HW211703   6.046   3.683   5.295
 3602SOL     OW11704   1.915   1.864   0.537
 3602SOL    HW111705   1.875   1.888   0.449
 3602SOL    HW211706   2.014   1.877   0.534
 3603SOL     OW11707   4.180   4.764   4.617
 3603SOL    HW111708   4.175   4.765   4.717
 3603SOL    HW211709   4.251   4.700   4.588
 3604SOL     OW11710   0.486   3.221   3.177
 3604SOL    HW111711   0.399   3.268   3.166
 3604SOL    HW211712   0.550   3.280   3.226
 3605SOL     OW11713   6.236   3.223   6.452
 3605SOL    HW111714   6.320   3.274   6.469
 3605SOL    HW211715   6.169   3.244   6.524
 3606SOL     OW11716   1.328   4.152   4.885
 3606SOL    HW111717   1.262   4.218   4.920
 3606SOL    HW211718   1.317   4.143   4.786
 3607SOL     OW11719   4.548   6.851   0.090
 3607SOL    HW111720   4.485   6.925   0.068
 3607SOL    HW211721   4.502   6.783   0.148
 3608SOL     OW11722   0.980   2.477   2.446
 3608SOL    HW111723   1.058   2.416   2.439
 3608SOL    HW211724   0.910   2.450   2.380
 3609SOL     OW11725   6.497   6.956   4.820
 3609SOL    HW111726   6.584   6.998   4.796
 3609SOL    HW211727   6.455   6.917   4.738
 3610SOL     OW11728   1.538   5.940   4.921
 3610SOL    HW111729   1.613   6.004   4.936
 3610SOL    HW211730   1.567   5.848   4.946
 3611SOL     OW11731   3.804   5.254   4.816
 3611SOL    HW111732   3.879   5.232   4.753
 3611SOL    HW211733   3.717   5.250   4.766
 3612SOL     OW11734   1.583   6.922   1.573
 3612SOL    HW111735   1.494   6.890   1.540
 3612SOL    HW211736   1.654   6.856   1.547
 3613SOL     OW11737   4.968   5.438   0.042
 3613SOL    HW111738   4.914   5.522   0.035
 3613SOL    HW211739   4.946   5.378   6.991
 3614SOL     OW11740   3.676   3.099   3.619
 3614SOL    HW111741   3.658   3.195   3.603
 3614SOL    HW211742   3.627   3.043   3.552
 3615SOL     OW11743   6.725   6.636   6.378
 3615SOL    HW111744   6.653   6.688   6.424
 3615SOL    HW211745   6.772   6.696   6.312
 3616SOL     OW11746   6.761   1.181   4.453
 3616SOL    HW111747   6.668   1.150   4.470
 3616SOL    HW211748   6.810   1.189   4.539
 3617SOL     OW11749   6.600   0.511   6.812
 3617SOL    HW111750   6.693   0.539   6.787
 3617SOL    HW211751   6.544   0.504   6.730
 3618SOL     OW11752   2.557   1.144   5.978
 3618SOL    HW111753   2.621   1.172   6.050
 3618SOL    HW211754   2.470   1.118   6.020
 3619SOL     OW11755   5.530   2.680   3.925
 3619SOL    HW111756   5.462   2.737   3.971
 3619SOL    HW211757   5.567   2.729   3.846
 3620SOL     OW11758   6.154   1.088   4.421
 3620SOL    HW111759   6.119   1.182   4.420
 3620SOL    HW211760   6.105   1.036   4.491
 3621SOL     OW11761   1.992   3.669   5.900
 3621SOL    HW111762   1.914   3.606   5.892
 3621SOL    HW211763   2.037   3.677   5.811
 3622SOL     OW11764   0.549   2.345   1.225
 3622SOL    HW111765   0.608   2.425   1.230
 3622SOL    HW211766   0.557   2.291   1.308
 3623SOL     OW11767   6.827   5.258   4.294
 3623SOL    HW111768   6.893   5.313   4.243
 3623SOL    HW211769   6.743   5.249   4.241
 3624SOL     OW11770   2.414   0.287   1.608
 3624SOL    HW111771   2.424   0.382   1.580
 3624SOL    HW211772   2.324   0.274   1.650
 3625SOL     OW11773   0.087   3.373   4.488
 3625SOL    HW111774   0.073   3.463   4.530
 3625SOL    HW211775   0.154   3.322   4.541
 3626SOL     OW11776   2.594   3.930   5.313
 3626SOL    HW111777   2.534   3.926   5.233
 3626SOL    HW211778   2.670   3.865   5.301
 3627SOL     OW11779   3.004   3.764   4.123
 3627SOL    HW111780   3.028   3.763   4.220
 3627SOL    HW211781   2.906   3.749   4.113
 3628SOL     OW11782   3.266   5.110   2.926
 3628SOL    HW111783   3.308   5.047   2.992
 3628SOL    HW211784   3.233   5.058   2.847
 3629SOL     OW11785   6.290   2.467   5.245
 3629SOL    HW111786   6.270   2.563   5.266
 3629SOL    HW211787   6.301   2.456   5.146
 3630SOL     OW11788   6.456   1.884   4.029
 3630SOL    HW111789   6.475   1.947   4.105
 3630SOL    HW211790   6.375   1.915   3.979
 3631SOL     OW11791   2.279   1.173   4.269
 3631SOL    HW111792   2.260   1.077   4.285
 3631SOL    HW211793   2.282   1.222   4.357
 3632SOL     OW11794   4.287   0.591   6.713
 3632SOL    HW111795   4.254   0.616   6.621
 3632SOL    HW211796   4.306   0.674   6.765
 3633SOL     OW11797   2.230   3.005   6.098
 3633SOL    HW111798   2.158   3.069   6.071
 3633SOL    HW211799   2.315   3.030   6.053
 3634SOL     OW11800   1.913   5.846   5.046
 3634SOL    HW111801   1.889   5.751   5.026
 3634SOL    HW211802   1.862   5.907   4.986
 3635SOL     OW11803   2.631   1.434   5.332
 3635SOL    HW111804   2.584   1.414   5.246
 3635SOL    HW211805   2.712   1.489   5.313
 3636SOL     OW11806   0.959   5.668   5.917
 3636SOL    HW111807   0.871   5.673   5.869
 3636SOL    HW211808   0.986   5.572   5.927
 3637SOL     OW11809   5.647   1.467   2.019
 3637SOL    HW111810   5.582   1.404   2.062
 3637SOL    HW211811   5.740   1.429   2.027
 3638SOL     OW11812   6.627   5.081   3.998
 3638SOL    HW111813   6.549   5.044   3.947
 3638SOL    HW211814   6.594   5.131   4.078
 3639SOL     OW11815   2.082   5.059   6.994
 3639SOL    HW111816   1.998   5.054   0.021
 3639SOL    HW211817   2.119   5.152   6.999
 3640SOL     OW11818   3.413   5.915   0.662
 3640SOL    HW111819   3.497   5.913   0.717
 3640SOL    HW211820   3.398   5.825   0.621
 3641SOL     OW11821   2.126   0.547   5.346
 3641SOL    HW111822   2.041   0.530   5.298
 3641SOL    HW211823   2.110   0.613   5.420
 3642SOL     OW11824   5.420   6.861   4.055
 3642SOL    HW111825   5.416   6.895   4.149
 3642SOL    HW211826   5.373   6.774   4.049
 3643SOL     OW11827   2.657   4.765   4.925
 3643SOL    HW111828   2.728   4.720   4.979
 3643SOL    HW211829   2.568   4.726   4.946
 3644SOL     OW11830   0.230   1.383   0.720
 3644SOL    HW111831   0.305   1.382   0.654
 3644SOL    HW211832   0.173   1.302   0.707
 3645SOL     OW11833   3.300   0.811   3.241
 3645SOL    HW111834   3.323   0.761   3.325
 3645SOL    HW211835   3.347   0.899   3.242
 3646SOL     OW11836   0.218   5.007   5.457
 3646SOL    HW111837   0.305   5.046   5.428
 3646SOL    HW211838   0.199   4.924   5.405
 3647SOL     OW11839   2.552   3.240   0.810
 3647SOL    HW111840   2.620   3.262   0.741
 3647SOL    HW211841   2.486   3.174   0.772
 3648SOL     OW11842   3.169   6.204   2.662
 3648SOL    HW111843   3.230   6.178   2.588
 3648SOL    HW211844   3.219   6.259   2.729
 3649SOL     OW11845   3.220   3.590   1.210
 3649SOL    HW111846   3.231   3.689   1.201
 3649SOL    HW211847   3.277   3.557   1.286
 3650SOL     OW11848   0.015   6.838   1.427
 3650SOL    HW111849   0.113   6.841   1.448
 3650SOL    HW211850   0.002   6.840   1.328
 3651SOL     OW11851   1.760   5.763   2.642
 3651SOL    HW111852   1.836   5.726   2.589
 3651SOL    HW211853   1.793   5.793   2.731
 3652SOL     OW11854   4.907   5.341   3.124
 3652SOL    HW111855   4.987   5.363   3.179
 3652SOL    HW211856   4.854   5.424   3.106
 3653SOL     OW11857   6.667   2.802   3.454
 3653SOL    HW111858   6.601   2.727   3.462
 3653SOL    HW211859   6.727   2.802   3.534
 3654SOL     OW11860   1.802   6.792   1.459
 3654SOL    HW111861   1.819   6.878   1.411
 3654SOL    HW211862   1.880   6.730   1.444
 3655SOL     OW11863   1.557   0.433   4.345
 3655SOL    HW111864   1.520   0.516   4.385
 3655SOL    HW211865   1.637   0.403   4.397
 3656SOL     OW11866   2.097   2.845   1.769
 3656SOL    HW111867   2.087   2.944   1.761
 3656SOL    HW211868   2.111   2.820   1.865
 3657SOL     OW11869   4.131   6.226   1.519
 3657SOL    HW111870   4.190   6.248   1.596
 3657SOL    HW211871   4.070   6.303   1.501
 3658SOL     OW11872   1.677   6.022   6.006
 3658SOL    HW111873   1.695   5.984   6.097
 3658SOL    HW211874   1.582   6.004   5.981
 3659SOL     OW11875   2.530   4.576   0.007
 3659SOL    HW111876   2.489   4.666   7.018
 3659SOL    HW211877   2.519   4.521   6.950
 3660SOL     OW11878   5.117   5.153   1.779
 3660SOL    HW111879   5.213   5.134   1.757
 3660SOL    HW211880   5.079   5.076   1.831
 3661SOL     OW11881   4.286   0.776   0.420
 3661SOL    HW111882   4.279   0.805   0.515
 3661SOL    HW211883   4.282   0.677   0.415
 3662SOL     OW11884   2.797   0.144   5.327
 3662SOL    HW111885   2.748   0.209   5.385
 3662SOL    HW211886   2.885   0.122   5.369
 3663SOL     OW11887   1.265   2.552   6.785
 3663SOL    HW111888   1.302   2.586   6.872
 3663SOL    HW211889   1.190   2.611   6.756
 3664SOL     OW11890   4.864   1.250   0.876
 3664SOL    HW111891   4.779   1.298   0.854
 3664SOL    HW211892   4.844   1.154   0.896
 3665SOL     OW11893   0.925   6.969   5.664
 3665SOL    HW111894   0.835   7.001   5.693
 3665SOL    HW211895   0.973   0.017   5.617
 3666SOL     OW11896   1.444   5.252   4.020
 3666SOL    HW111897   1.542   5.270   4.008
 3666SOL    HW211898   1.394   5.284   3.940
 3667SOL     OW11899   6.527   1.412   6.597
 3667SOL    HW111900   6.589   1.367   6.662
 3667SOL    HW211901   6.578   1.442   6.517
 3668SOL     OW11902   1.164   6.326   2.283
 3668SOL    HW111903   1.223   6.321   2.203
 3668SOL    HW211904   1.191   6.255   2.349
 3669SOL     OW11905   6.673   2.776   2.980
 3669SOL    HW111906   6.749   2.821   3.029
 3669SOL    HW211907   6.623   2.844   2.927
 3670SOL     OW11908   1.819   5.893   5.808
 3670SOL    HW111909   1.755   5.923   5.879
 3670SOL    HW211910   1.812   5.794   5.796
 3671SOL     OW11911   0.843   0.364   2.802
 3671SOL    HW111912   0.921   0.315   2.763
 3671SOL    HW211913   0.875   0.450   2.842
 3672SOL     OW11914   6.755   0.854   0.822
 3672SOL    HW111915   6.789   0.766   0.789
 3672SOL    HW211916   6.822   0.895   0.884
 3673SOL     OW11917   5.019   0.669   6.856
 3673SOL    HW111918   5.113   0.636   6.841
 3673SOL    HW211919   4.955   0.595   6.837
 3674SOL     OW11920   1.361   6.322   1.019
 3674SOL    HW111921   1.295   6.247   1.011
 3674SOL    HW211922   1.324   6.403   0.974
 3675SOL     OW11923   1.788   2.306   4.885
 3675SOL    HW111924   1.795   2.329   4.982
 3675SOL    HW211925   1.844   2.369   4.831
 3676SOL     OW11926   2.529   5.913   3.547
 3676SOL    HW111927   2.575   5.859   3.476
 3676SOL    HW211928   2.431   5.896   3.542
 3677SOL     OW11929   6.464   0.020   4.360
 3677SOL    HW111930   6.528   7.005   4.295
 3677SOL    HW211931   6.425   6.975   4.418
 3678SOL     OW11932   1.102   1.774   3.501
 3678SOL    HW111933   1.188   1.820   3.523
 3678SOL    HW211934   1.029   1.842   3.490
 3679SOL     OW11935   0.338   0.981   2.028
 3679SOL    HW111936   0.299   1.072   2.016
 3679SOL    HW211937   0.274   0.912   1.995
 3680SOL     OW11938   6.711   3.262   4.130
 3680SOL    HW111939   6.625   3.304   4.101
 3680SOL    HW211940   6.782   3.284   4.064
 3681SOL     OW11941   6.771   6.122   5.745
 3681SOL    HW111942   6.671   6.121   5.737
 3681SOL    HW211943   6.805   6.212   5.718
 3682SOL     OW11944   0.072   1.983   6.127
 3682SOL    HW111945   7.026   1.920   6.100
 3682SOL    HW211946   0.119   1.948   6.207
 3683SOL     OW11947   5.625   6.730   4.652
 3683SOL    HW111948   5.694   6.761   4.586
 3683SOL    HW211949   5.643   6.635   4.676
 3684SOL     OW11950   1.138   3.650   0.993
 3684SOL    HW111951   1.203   3.622   0.922
 3684SOL    HW211952   1.137   3.582   1.066
 3685SOL     OW11953   6.396   6.143   6.223
 3685SOL    HW111954   6.339   6.223   6.203
 3685SOL    HW211955   6.395   6.081   6.144
 3686SOL     OW11956   5.926   4.332   1.649
 3686SOL    HW111957   5.874   4.246   1.641
 3686SOL    HW211958   5.901   4.393   1.574
 3687SOL     OW11959   3.412   0.792   0.204
 3687SOL    HW111960   3.381   0.860   0.138
 3687SOL    HW211961   3.341   0.777   0.273
 3688SOL     OW11962   1.507   3.445   0.099
 3688SOL    HW111963   1.454   3.507   0.040
 3688SOL    HW211964   1.605   3.461   0.085
 3689SOL     OW11965   2.187   0.546   3.703
 3689SOL    HW111966   2.195   0.553   3.803
 3689SOL    HW211967   2.114   0.482   3.681
 3690SOL     OW11968   6.080   0.017   5.799
 3690SOL    HW111969   6.089   7.000   5.709
 3690SOL    HW211970   5.992   0.064   5.805
 3691SOL     OW11971   3.263   2.855   6.905
 3691SOL    HW111972   3.337   2.874   6.970
 3691SOL    HW211973   3.299   2.856   6.812
 3692SOL     OW11974   1.709   0.065   5.505
 3692SOL    HW111975   1.626   0.094   5.456
 3692SOL    HW211976   1.788   0.111   5.466
 3693SOL     OW11977   2.924   2.212   3.173
 3693SOL    HW111978   2.882   2.247   3.090
 3693SOL    HW211979   2.881   2.254   3.253
 3694SOL     OW11980   2.008   5.926   3.263
 3694SOL    HW111981   2.075   5.985   3.308
 3694SOL    HW211982   2.000   5.840   3.314
 3695SOL     OW11983   1.803   2.090   2.016
 3695SOL    HW111984   1.769   2.001   2.048
 3695SOL    HW211985   1.801   2.155   2.091
 3696SOL     OW11986   4.021   7.006   6.298
 3696SOL    HW111987   3.995   0.068   6.336
 3696SOL    HW211988   3.998   6.933   6.363
 3697SOL     OW11989   6.409   0.609   4.244
 3697SOL    HW111990   6.491   0.556   4.222
 3697SOL    HW211991   6.342   0.550   4.289
 3698SOL     OW11992   3.044   0.704   5.730
 3698SOL    HW111993   3.014   0.797   5.710
 3698SOL    HW211994   3.039   0.688   5.829
 3699SOL     OW11995   0.516   4.178   2.660
 3699SOL    HW111996   0.484   4.112   2.592
 3699SOL    HW211997   0.448   4.186   2.733
 3700SOL     OW11998   0.291   0.080   4.126
 3700SOL    HW111999   0.346   0.127   4.058
 3700SOL    HW212000   0.209   0.043   4.083
 3701SOL     OW12001   6.266   0.885   4.643
 3701SOL    HW112002   6.188   0.910   4.586
 3701SOL    HW212003   6.275   0.786   4.647
 3702SOL     OW12004   3.084   0.978   0.187
 3702SOL    HW112005   3.175   1.005   0.155
 3702SOL    HW212006   3.051   1.045   0.254
 3703SOL     OW12007   4.303   4.268   6.492
 3703SOL    HW112008   4.339   4.214   6.568
 3703SOL    HW212009   4.358   4.351   6.481
 3704SOL     OW12010   2.389   6.980   2.683
 3704SOL    HW112011   2.471   0.011   2.676
 3704SOL    HW212012   2.395   6.924   2.766
 3705SOL     OW12013   5.500   0.597   3.835
 3705SOL    HW112014   5.591   0.564   3.860
 3705SOL    HW212015   5.457   0.532   3.773
 3706SOL     OW12016   2.017   2.573   3.850
 3706SOL    HW112017   1.982   2.658   3.889
 3706SOL    HW212018   2.042   2.588   3.754
 3707SOL     OW12019   4.312   2.722   5.345
 3707SOL    HW112020   4.405   2.721   5.307
 3707SOL    HW212021   4.252   2.667   5.288
 3708SOL     OW12022   5.456   0.310   6.510
 3708SOL    HW112023   5.432   0.240   6.442
 3708SOL    HW212024   5.396   0.389   6.498
 3709SOL     OW12025   3.724   0.501   6.582
 3709SOL    HW112026   3.768   0.590   6.565
 3709SOL    HW212027   3.650   0.488   6.516
 3710SOL     OW12028   0.190   4.757   0.601
 3710SOL    HW112029   0.242   4.820   0.542
 3710SOL    HW212030   0.237   4.748   0.689
 3711SOL     OW12031   6.453   5.090   2.503
 3711SOL    HW112032   6.429   5.106   2.598
 3711SOL    HW212033   6.383   5.128   2.443
 3712SOL     OW12034   1.996   0.091   0.527
 3712SOL    HW112035   1.903   0.083   0.564
 3712SOL    HW212036   2.057   0.027   0.573
 3713SOL     OW12037   3.605   6.027   5.443
 3713SOL    HW112038   3.669   5.985   5.507
 3713SOL    HW212039   3.592   6.123   5.466
 3714SOL     OW12040   3.683   0.384   4.619
 3714SOL    HW112041   3.709   0.388   4.715
 3714SOL    HW212042   3.665   0.289   4.593
 3715SOL     OW12043   5.321   4.100   4.842
 3715SOL    HW112044   5.343   4.035   4.915
 3715SOL    HW212045   5.254   4.167   4.875
 3716SOL     OW12046   0.038   0.640   4.318
 3716SOL    HW112047   6.972   0.678   4.303
 3716SOL    HW212048   0.098   0.668   4.244
 3717SOL     OW12049   6.079   6.648   0.970
 3717SOL    HW112050   6.049   6.564   1.014
 3717SOL    HW212051   6.011   6.720   0.986
 3718SOL     OW12052   1.077   5.291   0.077
 3718SOL    HW112053   1.118   5.218   0.132
 3718SOL    HW212054   1.062   5.257   7.010
 3719SOL     OW12055   3.404   4.911   5.706
 3719SOL    HW112056   3.306   4.929   5.696
 3719SOL    HW212057   3.456   4.990   5.675
 3720SOL     OW12058   6.149   1.759   6.033
 3720SOL    HW112059   6.122   1.793   5.943
 3720SOL    HW212060   6.072   1.712   6.076
 3721SOL     OW12061   4.917   4.126   0.571
 3721SOL    HW112062   5.005   4.084   0.594
 3721SOL    HW212063   4.878   4.079   0.492
 3722SOL     OW12064   6.668   6.068   2.496
 3722SOL    HW112065   6.630   6.077   2.588
 3722SOL    HW212066   6.753   6.121   2.489
 3723SOL     OW12067   4.760   0.409   0.970
 3723SOL    HW112068   4.718   0.500   0.973
 3723SOL    HW212069   4.814   0.400   0.886
 3724SOL     OW12070   1.338   5.694   6.288
 3724SOL    HW112071   1.267   5.756   6.256
 3724SOL    HW212072   1.371   5.639   6.211
 3725SOL     OW12073   0.443   6.130   6.591
 3725SOL    HW112074   0.370   6.065   6.569
 3725SOL    HW212075   0.408   6.199   6.655
 3726SOL     OW12076   5.366   3.954   1.493
 3726SOL    HW112077   5.276   3.955   1.448
 3726SOL    HW212078   5.368   4.024   1.565
 3727SOL     OW12079   2.224   3.782   5.638
 3727SOL    HW112080   2.279   3.863   5.617
 3727SOL    HW212081   2.282   3.701   5.637
 3728SOL     OW12082   1.632   3.354   6.567
 3728SOL    HW112083   1.693   3.432   6.580
 3728SOL    HW212084   1.557   3.379   6.506
 3729SOL     OW12085   0.626   1.883   3.417
 3729SOL    HW112086   0.614   1.823   3.496
 3729SOL    HW212087   0.559   1.858   3.346
 3730SOL     OW12088   3.032   1.146   0.381
 3730SOL    HW112089   3.001   1.106   0.468
 3730SOL    HW212090   2.997   1.239   0.374
 3731SOL     OW12091   3.979   6.755   0.223
 3731SOL    HW112092   4.066   6.802   0.235
 3731SOL    HW212093   3.969   6.729   0.127
 3732SOL     OW12094   2.159   3.753   5.155
 3732SOL    HW112095   2.100   3.796   5.087
 3732SOL    HW212096   2.251   3.793   5.150
 3733SOL     OW12097   2.653   3.620   1.310
 3733SOL    HW112098   2.631   3.529   1.345
 3733SOL    HW212099   2.605   3.635   1.224
 3734SOL     OW12100   5.421   0.867   2.360
 3734SOL    HW112101   5.434   0.966   2.351
 3734SOL    HW212102   5.331   0.842   2.322
 3735SOL     OW12103   3.309   1.790   2.352
 3735SOL    HW112104   3.220   1.836   2.349
 3735SOL    HW212105   3.379   1.853   2.318
 3736SOL     OW12106   5.834   2.437   0.396
 3736SOL    HW112107   5.875   2.456   0.307
 3736SOL    HW212108   5.874   2.354   0.435
 3737SOL     OW12109   4.752   6.341   3.389
 3737SOL    HW112110   4.719   6.425   3.347
 3737SOL    HW212111   4.842   6.357   3.429
 3738SOL     OW12112   0.174   0.041   3.692
 3738SOL    HW112113   0.138   0.029   3.599
 3738SOL    HW212114   0.098   0.035   3.758
 3739SOL     OW12115   0.724   4.343   2.585
 3739SOL    HW112116   0.764   4.315   2.498
 3739SOL    HW212117   0.654   4.277   2.612
 3740SOL     OW12118   5.665   1.143   0.530
 3740SOL    HW112119   5.730   1.193   0.473
 3740SOL    HW212120   5.610   1.083   0.473
 3741SOL     OW12121   4.124   2.696   6.753
 3741SOL    HW112122   4.052   2.653   6.700
 3741SOL    HW212123   4.123   2.795   6.736
 3742SOL     OW12124   3.193   3.007   5.734
 3742SOL    HW112125   3.213   3.091   5.683
 3742SOL    HW212126   3.151   2.940   5.673
 3743SOL     OW12127   0.254   5.153   6.868
 3743SOL    HW112128   0.267   5.250   6.888
 3743SOL    HW212129   0.169   5.141   6.816
 3744SOL     OW12130   0.224   5.849   3.431
 3744SOL    HW112131   0.319   5.871   3.452
 3744SOL    HW212132   0.189   5.785   3.499
 3745SOL     OW12133   4.552   5.879   2.577
 3745SOL    HW112134   4.632   5.939   2.570
 3745SOL    HW212135   4.559   5.805   2.510
 3746SOL     OW12136   4.497   1.667   1.919
 3746SOL    HW112137   4.592   1.692   1.939
 3746SOL    HW212138   4.456   1.625   1.999
 3747SOL     OW12139   3.047   0.403   0.288
 3747SOL    HW112140   3.073   0.488   0.244
 3747SOL    HW212141   3.042   0.330   0.220
 3748SOL     OW12142   5.807   1.016   2.550
 3748SOL    HW112143   5.874   0.965   2.497
 3748SOL    HW212144   5.845   1.040   2.639
 3749SOL     OW12145   1.166   0.288   5.030
 3749SOL    HW112146   1.088   0.248   5.078
 3749SOL    HW212147   1.246   0.231   5.043
 3750SOL     OW12148   0.045   4.274   0.098
 3750SOL    HW112149   7.015   4.312   0.172
 3750SOL    HW212150   7.016   4.265   0.015
 3751SOL     OW12151   0.886   4.144   2.436
 3751SOL    HW112152   0.970   4.161   2.385
 3751SOL    HW212153   0.856   4.050   2.421
 3752SOL     OW12154   5.826   0.149   6.358
 3752SOL    HW112155   5.854   0.074   6.299
 3752SOL    HW212156   5.838   0.236   6.310
 3753SOL     OW12157   6.520   0.146   4.109
 3753SOL    HW112158   6.487   0.192   4.191
 3753SOL    HW212159   6.565   0.060   4.135
 3754SOL     OW12160   1.904   1.583   0.918
 3754SOL    HW112161   1.948   1.539   0.996
 3754SOL    HW212162   1.911   1.682   0.927
 3755SOL     OW12163   3.045   4.918   3.899
 3755SOL    HW112164   2.946   4.929   3.889
 3755SOL    HW212165   3.092   4.993   3.851
 3756SOL     OW12166   2.691   6.507   6.596
 3756SOL    HW112167   2.654   6.417   6.622
 3756SOL    HW212168   2.684   6.569   6.674
 3757SOL     OW12169   6.999   4.688   1.317
 3757SOL    HW112170   0.043   4.634   1.365
 3757SOL    HW212171   6.956   4.751   1.382
 3758SOL     OW12172   2.037   6.878   4.075
 3758SOL    HW112173   2.007   6.916   4.162
 3758SOL    HW212174   2.020   6.779   4.074
 3759SOL     OW12175   5.200   6.946   4.623
 3759SOL    HW112176   5.140   6.901   4.690
 3759SOL    HW212177   5.261   7.009   4.671
 3760SOL     OW12178   0.220   1.283   3.002
 3760SOL    HW112179   0.183   1.350   3.066
 3760SOL    HW212180   0.297   1.323   2.952
 3761SOL     OW12181   5.849   0.910   3.988
 3761SOL    HW112182   5.784   0.973   4.029
 3761SOL    HW212183   5.866   0.937   3.893
 3762SOL     OW12184   6.993   2.509   3.119
 3762SOL    HW112185   0.039   2.440   3.132
 3762SOL    HW212186   6.957   2.537   3.208
 3763SOL     OW12187   0.591   4.440   1.012
 3763SOL    HW112188   0.503   4.393   1.007
 3763SOL    HW212189   0.638   4.415   1.096
 3764SOL     OW12190   2.428   0.624   3.068
 3764SOL    HW112191   2.514   0.669   3.093
 3764SOL    HW212192   2.443   0.525   3.063
 3765SOL     OW12193   5.593   2.782   2.593
 3765SOL    HW112194   5.637   2.801   2.681
 3765SOL    HW212195   5.662   2.782   2.521
 3766SOL     OW12196   1.292   3.651   3.315
 3766SOL    HW112197   1.252   3.732   3.358
 3766SOL    HW212198   1.314   3.583   3.386
 3767SOL     OW12199   0.983   5.045   6.467
 3767SOL    HW112200   1.063   4.997   6.430
 3767SOL    HW212201   0.913   5.052   6.397
 3768SOL     OW12202   0.810   6.680   3.524
 3768SOL    HW112203   0.825   6.743   3.448
 3768SOL    HW212204   0.829   6.726   3.610
 3769SOL     OW12205   5.927   5.086   5.321
 3769SOL    HW112206   6.026   5.088   5.305
 3769SOL    HW212207   5.895   4.991   5.317
 3770SOL     OW12208   1.683   0.960   1.475
 3770SOL    HW112209   1.721   0.884   1.527
 3770SOL    HW212210   1.712   1.046   1.517
 3771SOL     OW12211   6.421   5.284   6.432
 3771SOL    HW112212   6.519   5.292   6.446
 3771SOL    HW212213   6.378   5.244   6.513
 3772SOL     OW12214   1.390   6.199   0.658
 3772SOL    HW112215   1.310   6.189   0.598
 3772SOL    HW212216   1.415   6.109   0.696
 3773SOL     OW12217   5.268   4.725   6.368
 3773SOL    HW112218   5.262   4.626   6.378
 3773SOL    HW212219   5.253   4.769   6.456
 3774SOL     OW12220   6.906   4.946   1.744
 3774SOL    HW112221   6.961   4.942   1.661
 3774SOL    HW212222   6.813   4.974   1.721
 3775SOL     OW12223   4.648   5.190   4.747
 3775SOL    HW112224   4.613   5.101   4.775
 3775SOL    HW212225   4.576   5.259   4.758
 3776SOL     OW12226   3.366   2.499   5.830
 3776SOL    HW112227   3.450   2.445   5.824
 3776SOL    HW212228   3.348   2.543   5.742
 3777SOL     OW12229   2.388   6.282   4.392
 3777SOL    HW112230   2.472   6.291   4.446
 3777SOL    HW212231   2.330   6.362   4.406
 3778SOL     OW12232   3.565   5.803   5.784
 3778SOL    HW112233   3.500   5.877   5.804
 3778SOL    HW212234   3.638   5.838   5.726
 3779SOL     OW12235   6.554   5.057   6.974
 3779SOL    HW112236   6.580   4.961   6.981
 3779SOL    HW212237   6.534   5.080   6.879
 3780SOL     OW12238   5.642   3.964   1.533
 3780SOL    HW112239   5.639   3.866   1.548
 3780SOL    HW212240   5.552   3.997   1.506
 3781SOL     OW12241   2.799   6.350   4.773
 3781SOL    HW112242   2.746   6.298   4.840
 3781SOL    HW212243   2.897   6.333   4.787
 3782SOL     OW12244   4.862   5.977   1.516
 3782SOL    HW112245   4.960   5.986   1.535
 3782SOL    HW212246   4.845   5.890   1.471
 3783SOL     OW12247   5.104   5.632   4.410
 3783SOL    HW112248   5.163   5.661   4.335
 3783SOL    HW212249   5.160   5.589   4.481
 3784SOL     OW12250   6.361   1.947   3.767
 3784SOL    HW112251   6.450   1.932   3.808
 3784SOL    HW212252   6.364   2.030   3.711
 3785SOL     OW12253   1.862   3.268   4.050
 3785SOL    HW112254   1.863   3.354   4.101
 3785SOL    HW212255   1.956   3.244   4.024
 3786SOL     OW12256   2.408   2.599   4.719
 3786SOL    HW112257   2.375   2.639   4.804
 3786SOL    HW212258   2.474   2.527   4.739
 3787SOL     OW12259   4.414   6.762   3.562
 3787SOL    HW112260   4.430   6.841   3.504
 3787SOL    HW212261   4.372   6.688   3.509
 3788SOL     OW12262   6.387   3.057   5.019
 3788SOL    HW112263   6.336   3.143   5.025
 3788SOL    HW212264   6.410   3.039   4.923
 3789SOL     OW12265   1.625   2.825   2.477
 3789SOL    HW112266   1.676   2.848   2.394
 3789SOL    HW212267   1.569   2.903   2.504
 3790SOL     OW12268   0.377   6.774   1.312
 3790SOL    HW112269   0.380   6.770   1.412
 3790SOL    HW212270   0.393   6.682   1.276
 3791SOL     OW12271   4.880   1.432   5.421
 3791SOL    HW112272   4.925   1.511   5.463
 3791SOL    HW212273   4.795   1.461   5.377
 3792SOL     OW12274   6.875   0.801   4.557
 3792SOL    HW112275   6.892   0.766   4.650
 3792SOL    HW212276   6.920   0.890   4.547
 3793SOL     OW12277   5.114   5.152   0.608
 3793SOL    HW112278   5.056   5.091   0.553
 3793SOL    HW212279   5.063   5.182   0.689
 3794SOL     OW12280   0.862   4.328   6.665
 3794SOL    HW112281   0.929   4.396   6.694
 3794SOL    HW212282   0.770   4.366   6.675
 3795SOL     OW12283   2.027   6.255   1.720
 3795SOL    HW112284   2.087   6.186   1.679
 3795SOL    HW212285   2.062   6.346   1.700
 3796SOL     OW12286   4.955   1.266   6.661
 3796SOL    HW112287   4.869   1.313   6.641
 3796SOL    HW212288   4.996   1.234   6.576
 3797SOL     OW12289   1.202   4.574   2.258
 3797SOL    HW112290   1.125   4.542   2.314
 3797SOL    HW212291   1.180   4.560   2.162
 3798SOL     OW12292   1.900   6.241   3.342
 3798SOL    HW112293   1.975   6.184   3.375
 3798SOL    HW212294   1.822   6.182   3.318
 3799SOL     OW12295   6.883   1.234   3.447
 3799SOL    HW112296   6.858   1.181   3.527
 3799SOL    HW212297   6.956   1.187   3.397
 3800SOL     OW12298   5.060   2.579   3.048
 3800SOL    HW112299   5.152   2.540   3.039
 3800SOL    HW212300   4.993   2.506   3.061
 3801SOL     OW12301   5.878   1.240   1.666
 3801SOL    HW112302   5.917   1.282   1.747
 3801SOL    HW212303   5.941   1.172   1.629
 3802SOL     OW12304   6.437   2.939   2.139
 3802SOL    HW112305   6.342   2.920   2.112
 3802SOL    HW212306   6.497   2.923   2.061
 3803SOL     OW12307   3.406   3.396   4.223
 3803SOL    HW112308   3.393   3.432   4.315
 3803SOL    HW212309   3.498   3.359   4.213
 3804SOL     OW12310   4.418   5.807   3.211
 3804SOL    HW112311   4.427   5.905   3.198
 3804SOL    HW212312   4.353   5.770   3.145
 3805SOL     OW12313   2.718   2.752   6.918
 3805SOL    HW112314   2.720   2.720   6.823
 3805SOL    HW212315   2.808   2.783   6.946
 3806SOL     OW12316   3.214   4.490   1.548
 3806SOL    HW112317   3.119   4.480   1.520
 3806SOL    HW212318   3.220   4.563   1.617
 3807SOL     OW12319   1.918   4.424   4.313
 3807SOL    HW112320   1.917   4.430   4.413
 3807SOL    HW212321   1.826   4.401   4.281
 3808SOL     OW12322   3.381   6.775   6.508
 3808SOL    HW112323   3.439   6.738   6.580
 3808SOL    HW212324   3.426   6.853   6.465
 3809SOL     OW12325   5.287   2.330   1.700
 3809SOL    HW112326   5.322   2.378   1.620
 3809SOL    HW212327   5.223   2.259   1.671
 3810SOL     OW12328   5.895   2.300   2.153
 3810SOL    HW112329   5.874   2.398   2.157
 3810SOL    HW212330   5.978   2.285   2.099
 3811SOL     OW12331   0.075   5.604   5.503
 3811SOL    HW112332   0.074   5.613   5.404
 3811SOL    HW212333   0.156   5.649   5.541
 3812SOL     OW12334   4.891   5.980   1.076
 3812SOL    HW112335   4.926   6.064   1.116
 3812SOL    HW212336   4.927   5.901   1.127
 3813SOL     OW12337   6.183   4.164   6.841
 3813SOL    HW112338   6.241   4.209   6.773
 3813SOL    HW212339   6.219   4.072   6.859
 3814SOL     OW12340   6.658   0.420   5.111
 3814SOL    HW112341   6.728   0.414   5.182
 3814SOL    HW212342   6.579   0.365   5.137
 3815SOL     OW12343   6.619   3.631   5.916
 3815SOL    HW112344   6.670   3.547   5.901
 3815SOL    HW212345   6.635   3.664   6.009
 3816SOL     OW12346   0.281   5.917   0.033
 3816SOL    HW112347   0.376   5.897   0.011
 3816SOL    HW212348   0.274   5.943   0.129
 3817SOL     OW12349   4.831   4.100   1.975
 3817SOL    HW112350   4.907   4.045   1.941
 3817SOL    HW212351   4.837   4.108   2.074
 3818SOL     OW12352   6.067   6.635   2.888
 3818SOL    HW112353   6.124   6.687   2.952
 3818SOL    HW212354   5.974   6.672   2.888
 3819SOL     OW12355   6.855   4.517   3.815
 3819SOL    HW112356   6.907   4.532   3.900
 3819SOL    HW212357   6.918   4.504   3.739
 3820SOL     OW12358   4.327   0.203   4.610
 3820SOL    HW112359   4.397   0.271   4.586
 3820SOL    HW212360   4.322   0.193   4.709
 3821SOL     OW12361   2.097   0.314   0.371
 3821SOL    HW112362   2.099   0.218   0.402
 3821SOL    HW212363   2.060   0.371   0.444
 3822SOL     OW12364   4.601   0.765   1.764
 3822SOL    HW112365   4.600   0.697   1.690
 3822SOL    HW212366   4.605   0.857   1.724
 3823SOL     OW12367   4.520   6.153   6.995
 3823SOL    HW112368   4.461   6.219   0.016
 3823SOL    HW212369   4.463   6.080   6.957
 3824SOL     OW12370   2.297   2.922   0.028
 3824SOL    HW112371   2.347   2.925   6.967
 3824SOL    HW212372   2.347   2.973   0.097
 3825SOL     OW12373   1.474   3.764   5.727
 3825SOL    HW112374   1.387   3.718   5.747
 3825SOL    HW212375   1.455   3.860   5.703
 3826SOL     OW12376   6.070   4.032   3.509
 3826SOL    HW112377   6.082   4.089   3.427
 3826SOL    HW212378   6.140   3.961   3.511
 3827SOL     OW12379   0.853   1.216   1.500
 3827SOL    HW112380   0.773   1.160   1.480
 3827SOL    HW212381   0.928   1.191   1.439
 3828SOL     OW12382   3.629   4.099   4.162
 3828SOL    HW112383   3.575   4.021   4.130
 3828SOL    HW212384   3.586   4.184   4.133
 3829SOL     OW12385   0.847   3.855   2.415
 3829SOL    HW112386   0.870   3.791   2.489
 3829SOL    HW212387   0.748   3.855   2.400
 3830SOL     OW12388   6.714   1.433   4.361
 3830SOL    HW112389   6.654   1.422   4.282
 3830SOL    HW212390   6.733   1.343   4.401
 3831SOL     OW12391   4.663   1.825   3.281
 3831SOL    HW112392   4.618   1.897   3.333
 3831SOL    HW212393   4.594   1.770   3.234
 3832SOL     OW12394   6.447   0.717   3.865
 3832SOL    HW112395   6.476   0.767   3.947
 3832SOL    HW212396   6.349   0.731   3.850
 3833SOL     OW12397   0.615   1.765   5.843
 3833SOL    HW112398   0.688   1.697   5.832
 3833SOL    HW212399   0.635   1.822   5.922
 3834SOL     OW12400   4.573   4.042   0.495
 3834SOL    HW112401   4.568   3.990   0.580
 3834SOL    HW212402   4.664   4.030   0.455
 3835SOL     OW12403   4.188   5.381   4.596
 3835SOL    HW112404   4.109   5.436   4.621
 3835SOL    HW212405   4.168   5.284   4.611
 3836SOL     OW12406   0.191   6.408   5.658
 3836SOL    HW112407   0.122   6.353   5.611
 3836SOL    HW212408   0.231   6.355   5.733
 3837SOL     OW12409   4.495   4.813   5.157
 3837SOL    HW112410   4.581   4.767   5.134
 3837SOL    HW212411   4.512   4.882   5.227
 3838SOL     OW12412   0.785   1.274   3.765
 3838SOL    HW112413   0.688   1.261   3.746
 3838SOL    HW212414   0.833   1.299   3.681
 3839SOL     OW12415   3.998   0.786   3.492
 3839SOL    HW112416   4.083   0.836   3.482
 3839SOL    HW212417   4.018   0.693   3.522
 3840SOL     OW12418   2.408   1.174   0.037
 3840SOL    HW112419   2.451   1.123   6.989
 3840SOL    HW212420   2.314   1.141   0.050
 3841SOL     OW12421   6.053   4.473   4.256
 3841SOL    HW112422   6.053   4.434   4.164
 3841SOL    HW212423   6.138   4.449   4.303
 3842SOL     OW12424   2.145   3.225   5.188
 3842SOL    HW112425   2.081   3.203   5.114
 3842SOL    HW212426   2.216   3.155   5.193
 3843SOL     OW12427   5.409   2.688   6.875
 3843SOL    HW112428   5.472   2.702   6.799
 3843SOL    HW212429   5.320   2.727   6.852
 3844SOL     OW12430   0.926   6.129   0.493
 3844SOL    HW112431   0.876   6.098   0.574
 3844SOL    HW212432   0.896   6.077   0.413
 3845SOL     OW12433   1.727   5.844   0.881
 3845SOL    HW112434   1.669   5.783   0.935
 3845SOL    HW212435   1.823   5.824   0.900
 3846SOL     OW12436   1.302   2.662   3.488
 3846SOL    HW112437   1.358   2.662   3.406
 3846SOL    HW212438   1.349   2.711   3.561
 3847SOL     OW12439   6.997   1.295   6.572
 3847SOL    HW112440   0.027   1.237   6.514
 3847SOL    HW212441   0.010   1.299   6.664
 3848SOL     OW12442   5.442   3.694   2.732
 3848SOL    HW112443   5.514   3.654   2.789
 3848SOL    HW212444   5.375   3.624   2.709
 3849SOL     OW12445   6.627   5.542   6.903
 3849SOL    HW112446   6.587   5.548   6.995
 3849SOL    HW212447   6.695   5.615   6.892
 3850SOL     OW12448   2.544   2.277   1.418
 3850SOL    HW112449   2.607   2.240   1.486
 3850SOL    HW212450   2.460   2.308   1.463
 3851SOL     OW12451   0.521   6.031   2.741
 3851SOL    HW112452   0.525   5.932   2.757
 3851SOL    HW212453   0.545   6.079   2.825
 3852SOL     OW12454   3.172   6.206   5.723
 3852SOL    HW112455   3.200   6.272   5.654
 3852SOL    HW212456   3.082   6.232   5.759
 3853SOL     OW12457   2.272   0.816   3.689
 3853SOL    HW112458   2.356   0.837   3.640
 3853SOL    HW212459   2.257   0.717   3.688
 3854SOL     OW12460   1.948   2.567   2.879
 3854SOL    HW112461   2.016   2.633   2.910
 3854SOL    HW212462   1.858   2.611   2.875
 3855SOL     OW12463   3.998   0.304   0.471
 3855SOL    HW112464   3.949   0.295   0.557
 3855SOL    HW212465   3.946   0.364   0.409
 3856SOL     OW12466   0.781   1.351   6.780
 3856SOL    HW112467   0.768   1.444   6.747
 3856SOL    HW212468   0.875   1.321   6.761
 3857SOL     OW12469   1.923   0.922   5.449
 3857SOL    HW112470   1.835   0.914   5.402
 3857SOL    HW212471   1.973   1.001   5.413
 3858SOL     OW12472   4.050   0.897   4.583
 3858SOL    HW112473   4.028   0.800   4.571
 3858SOL    HW212474   4.126   0.921   4.522
 3859SOL     OW12475   5.276   0.450   1.643
 3859SOL    HW112476   5.224   0.472   1.561
 3859SOL    HW212477   5.333   0.369   1.625
 3860SOL     OW12478   1.395   0.220   4.208
 3860SOL    HW112479   1.468   0.285   4.231
 3860SOL    HW212480   1.340   0.202   4.290
 3861SOL     OW12481   4.218   5.927   2.122
 3861SOL    HW112482   4.297   5.971   2.165
 3861SOL    HW212483   4.178   5.860   2.185
 3862SOL     OW12484   1.331   6.902   3.684
 3862SOL    HW112485   1.248   6.846   3.689
 3862SOL    HW212486   1.342   6.951   3.770
 3863SOL     OW12487   4.279   0.598   0.996
 3863SOL    HW112488   4.374   0.611   0.967
 3863SOL    HW212489   4.218   0.648   0.935
 3864SOL     OW12490   2.692   0.185   4.531
 3864SOL    HW112491   2.780   0.149   4.559
 3864SOL    HW212492   2.619   0.134   4.577
 3865SOL     OW12493   3.526   0.647   0.017
 3865SOL    HW112494   3.501   0.706   0.094
 3865SOL    HW212495   3.463   0.662   6.968
 3866SOL     OW12496   2.391   2.505   6.912
 3866SOL    HW112497   2.362   2.583   6.856
 3866SOL    HW212498   2.311   2.450   6.936
 3867SOL     OW12499   0.408   3.666   2.418
 3867SOL    HW112500   0.317   3.627   2.402
 3867SOL    HW212501   0.477   3.597   2.396
 3868SOL     OW12502   3.866   1.055   6.804
 3868SOL    HW112503   3.800   1.129   6.818
 3868SOL    HW212504   3.958   1.087   6.825
 3869SOL     OW12505   6.451   3.339   3.658
 3869SOL    HW112506   6.426   3.246   3.630
 3869SOL    HW212507   6.537   3.337   3.709
 3870SOL     OW12508   6.483   0.715   3.560
 3870SOL    HW112509   6.448   0.622   3.546
 3870SOL    HW212510   6.496   0.731   3.658
 3871SOL     OW12511   3.578   5.647   4.146
 3871SOL    HW112512   3.508   5.718   4.143
 3871SOL    HW212513   3.586   5.612   4.240
 3872SOL     OW12514   3.516   3.767   4.429
 3872SOL    HW112515   3.534   3.833   4.357
 3872SOL    HW212516   3.567   3.793   4.511
 3873SOL     OW12517   4.414   2.277   0.901
 3873SOL    HW112518   4.450   2.365   0.931
 3873SOL    HW212519   4.409   2.276   0.801
 3874SOL     OW12520   3.178   0.763   0.366
 3874SOL    HW112521   3.090   0.804   0.343
 3874SOL    HW212522   3.179   0.736   0.462
 3875SOL     OW12523   1.210   2.143   5.105
 3875SOL    HW112524   1.297   2.173   5.143
 3875SOL    HW212525   1.161   2.222   5.068
 3876SOL     OW12526   4.235   5.843   1.210
 3876SOL    HW112527   4.176   5.793   1.147
 3876SOL    HW212528   4.213   5.941   1.206
 3877SOL     OW12529   0.153   2.520   0.404
 3877SOL    HW112530   0.089   2.461   0.453
 3877SOL    HW212531   0.246   2.488   0.419
 3878SOL     OW12532   3.846   6.482   4.214
 3878SOL    HW112533   3.807   6.549   4.150
 3878SOL    HW212534   3.915   6.527   4.271
 3879SOL     OW12535   4.805   5.005   6.851
 3879SOL    HW112536   4.799   4.912   6.887
 3879SOL    HW212537   4.823   5.001   6.753
 3880SOL     OW12538   4.708   4.269   4.366
 3880SOL    HW112539   4.740   4.174   4.359
 3880SOL    HW212540   4.693   4.292   4.462
 3881SOL     OW12541   1.286   4.265   6.999
 3881SOL    HW112542   1.333   4.176   6.999
 3881SOL    HW212543   1.203   4.258   0.027
 3882SOL     OW12544   0.781   1.186   0.772
 3882SOL    HW112545   0.735   1.190   0.861
 3882SOL    HW212546   0.878   1.207   0.783
 3883SOL     OW12547   4.443   5.847   3.499
 3883SOL    HW112548   4.410   5.823   3.407
 3883SOL    HW212549   4.387   5.802   3.568
 3884SOL     OW12550   1.147   5.695   3.277
 3884SOL    HW112551   1.102   5.722   3.191
 3884SOL    HW212552   1.233   5.745   3.287
 3885SOL     OW12553   5.688   6.923   2.900
 3885SOL    HW112554   5.735   6.845   2.858
 3885SOL    HW212555   5.601   6.893   2.938
 3886SOL     OW12556   4.199   6.535   6.031
 3886SOL    HW112557   4.201   6.608   5.962
 3886SOL    HW212558   4.174   6.449   5.987
 3887SOL     OW12559   0.276   6.357   1.434
 3887SOL    HW112560   0.354   6.417   1.416
 3887SOL    HW212561   0.302   6.289   1.503
 3888SOL     OW12562   5.953   6.239   4.567
 3888SOL    HW112563   5.865   6.193   4.575
 3888SOL    HW212564   6.027   6.173   4.582
 3889SOL     OW12565   6.320   3.552   6.969
 3889SOL    HW112566   6.317   3.454   6.947
 3889SOL    HW212567   6.397   3.569   0.004
 3890SOL     OW12568   5.508   3.968   4.686
 3890SOL    HW112569   5.448   3.888   4.684
 3890SOL    HW212570   5.470   4.036   4.749
 3891SOL     OW12571   5.804   4.759   3.933
 3891SOL    HW112572   5.751   4.685   3.977
 3891SOL    HW212573   5.850   4.813   4.003
 3892SOL     OW12574   6.798   2.254   1.534
 3892SOL    HW112575   6.722   2.210   1.487
 3892SOL    HW212576   6.812   2.210   1.623
 3893SOL     OW12577   4.688   3.157   1.132
 3893SOL    HW112578   4.746   3.229   1.169
 3893SOL    HW212579   4.711   3.070   1.176
 3894SOL     OW12580   4.948   0.377   6.819
 3894SOL    HW112581   4.975   0.326   6.901
 3894SOL    HW212582   4.931   0.313   6.744
 3895SOL     OW12583   1.377   6.655   5.048
 3895SOL    HW112584   1.433   6.650   5.131
 3895SOL    HW212585   1.322   6.739   5.049
 3896SOL     OW12586   0.920   0.774   0.091
 3896SOL    HW112587   0.993   0.795   0.156
 3896SOL    HW212588   0.896   0.677   0.099
 3897SOL     OW12589   4.823   5.706   2.067
 3897SOL    HW112590   4.812   5.606   2.072
 3897SOL    HW212591   4.803   5.746   2.157
 3898SOL     OW12592   3.624   2.530   6.227
 3898SOL    HW112593   3.530   2.498   6.215
 3898SOL    HW212594   3.655   2.575   6.144
 3899SOL     OW12595   4.439   0.149   6.274
 3899SOL    HW112596   4.500   0.077   6.240
 3899SOL    HW212597   4.487   0.204   6.342
 3900SOL     OW12598   5.256   3.622   3.685
 3900SOL    HW112599   5.185   3.685   3.652
 3900SOL    HW212600   5.343   3.642   3.639
 3901SOL     OW12601   2.775   0.850   6.414
 3901SOL    HW112602   2.851   0.905   6.379
 3901SOL    HW212603   2.688   0.894   6.389
 3902SOL     OW12604   5.805   3.423   2.647
 3902SOL    HW112605   5.856   3.364   2.709
 3902SOL    HW212606   5.869   3.482   2.597
 3903SOL     OW12607   3.438   5.907   6.837
 3903SOL    HW112608   3.519   5.916   6.778
 3903SOL    HW212609   3.440   5.817   6.882
 3904SOL     OW12610   0.906   0.196   6.464
 3904SOL    HW112611   0.891   0.099   6.484
 3904SOL    HW212612   0.824   0.249   6.490
 3905SOL     OW12613   6.999   6.312   6.063
 3905SOL    HW112614   6.936   6.350   6.131
 3905SOL    HW212615   0.067   6.323   6.096
 3906SOL     OW12616   5.792   6.353   5.328
 3906SOL    HW112617   5.730   6.276   5.312
 3906SOL    HW212618   5.880   6.335   5.282
 3907SOL     OW12619   5.927   1.911   3.480
 3907SOL    HW112620   5.861   1.912   3.405
 3907SOL    HW212621   5.880   1.888   3.565
 3908SOL     OW12622   0.575   2.305   6.613
 3908SOL    HW112623   0.639   2.323   6.537
 3908SOL    HW212624   0.492   2.359   6.599
 3909SOL     OW12625   5.223   5.455   4.584
 3909SOL    HW112626   5.138   5.412   4.613
 3909SOL    HW212627   5.275   5.392   4.526
 3910SOL     OW12628   3.257   3.767   2.685
 3910SOL    HW112629   3.319   3.809   2.618
 3910SOL    HW212630   3.167   3.752   2.643
 3911SOL     OW12631   5.920   1.821   4.524
 3911SOL    HW112632   5.850   1.750   4.535
 3911SOL    HW212633   5.979   1.823   4.605
 3912SOL     OW12634   5.645   1.935   5.521
 3912SOL    HW112635   5.610   1.988   5.599
 3912SOL    HW212636   5.568   1.902   5.467
 3913SOL     OW12637   1.494   6.783   6.583
 3913SOL    HW112638   1.498   6.846   6.505
 3913SOL    HW212639   1.448   6.828   6.660
 3914SOL     OW12640   3.133   0.252   6.939
 3914SOL    HW112641   3.088   0.194   7.007
 3914SOL    HW212642   3.125   0.209   6.848
 3915SOL     OW12643   5.087   5.307   1.293
 3915SOL    HW112644   5.118   5.291   1.387
 3915SOL    HW212645   5.133   5.242   1.231
 3916SOL     OW12646   0.995   6.987   2.640
 3916SOL    HW112647   1.013   0.052   2.676
 3916SOL    HW212648   0.924   6.943   2.695
 3917SOL     OW12649   1.741   0.139   0.066
 3917SOL    HW112650   1.721   0.153   6.995
 3917SOL    HW212651   1.811   0.205   0.095
 3918SOL     OW12652   5.325   4.135   1.717
 3918SOL    HW112653   5.327   4.232   1.693
 3918SOL    HW212654   5.231   4.103   1.720
 3919SOL     OW12655   3.928   6.888   0.646
 3919SOL    HW112656   3.861   6.949   0.604
 3919SOL    HW212657   3.977   6.936   0.718
 3920SOL     OW12658   2.129   2.747   0.150
 3920SOL    HW112659   2.153   2.706   0.238
 3920SOL    HW212660   2.195   2.819   0.128
 3921SOL     OW12661   0.927   3.799   1.529
 3921SOL    HW112662   0.970   3.872   1.476
 3921SOL    HW212663   0.899   3.725   1.467
 3922SOL     OW12664   0.071   3.598   1.712
 3922SOL    HW112665   0.071   3.557   1.803
 3922SOL    HW212666   7.012   3.648   1.698
 3923SOL     OW12667   0.804   0.609   0.449
 3923SOL    HW112668   0.783   0.559   0.533
 3923SOL    HW212669   0.882   0.566   0.404
 3924SOL     OW12670   6.283   5.118   4.515
 3924SOL    HW112671   6.357   5.070   4.467
 3924SOL    HW212672   6.240   5.056   4.580
 3925SOL     OW12673   1.420   5.141   1.971
 3925SOL    HW112674   1.508   5.186   1.988
 3925SOL    HW212675   1.383   5.107   2.057
 3926SOL     OW12676   4.334   4.601   2.312
 3926SOL    HW112677   4.275   4.576   2.389
 3926SOL    HW212678   4.371   4.692   2.327
 3927SOL     OW12679   0.398   3.033   6.546
 3927SOL    HW112680   0.461   3.064   6.475
 3927SOL    HW212681   0.337   2.963   6.508
 3928SOL     OW12682   4.727   5.920   0.034
 3928SOL    HW112683   4.669   5.994   0.001
 3928SOL    HW212684   4.767   5.945   0.122
 3929SOL     OW12685   0.691   0.495   5.064
 3929SOL    HW112686   0.644   0.536   4.986
 3929SOL    HW212687   0.774   0.547   5.084
 3930SOL     OW12688   2.513   2.069   3.826
 3930SOL    HW112689   2.521   2.077   3.727
 3930SOL    HW212690   2.497   1.974   3.851
 3931SOL     OW12691   0.286   1.404   2.176
 3931SOL    HW112692   0.222   1.474   2.209
 3931SOL    HW212693   0.370   1.408   2.230
 3932SOL     OW12694   0.107   3.018   4.439
 3932SOL    HW112695   0.016   2.981   4.459
 3932SOL    HW212696   0.118   3.029   4.340
 3933SOL     OW12697   1.531   0.173   6.104
 3933SOL    HW112698   1.536   0.088   6.053
 3933SOL    HW212699   1.523   0.250   6.040
 3934SOL     OW12700   5.790   7.017   5.859
 3934SOL    HW112701   5.832   6.959   5.929
 3934SOL    HW212702   5.715   6.968   5.815
 3935SOL     OW12703   3.427   0.355   0.937
 3935SOL    HW112704   3.396   0.263   0.963
 3935SOL    HW212705   3.362   0.423   0.971
 3936SOL     OW12706   6.672   6.006   4.503
 3936SOL    HW112707   6.600   6.062   4.545
 3936SOL    HW212708   6.756   6.059   4.496
 3937SOL     OW12709   0.315   1.679   2.696
 3937SOL    HW112710   0.280   1.691   2.603
 3937SOL    HW212711   0.254   1.619   2.747
 3938SOL     OW12712   0.096   1.531   3.178
 3938SOL    HW112713   0.115   1.488   3.266
 3938SOL    HW212714   7.024   1.524   3.157
 3939SOL     OW12715   2.954   1.861   1.996
 3939SOL    HW112716   2.888   1.829   1.929
 3939SOL    HW212717   3.034   1.801   1.996
 3940SOL     OW12718   4.221   3.125   1.022
 3940SOL    HW112719   4.143   3.117   1.085
 3940SOL    HW212720   4.240   3.221   1.004
 3941SOL     OW12721   4.634   4.767   5.828
 3941SOL    HW112722   4.693   4.848   5.836
 3941SOL    HW212723   4.683   4.686   5.859
 3942SOL     OW12724   6.512   6.519   0.089
 3942SOL    HW112725   6.455   6.469   0.023
 3942SOL    HW212726   6.601   6.537   0.048
 3943SOL     OW12727   0.552   3.175   4.298
 3943SOL    HW112728   0.527   3.265   4.334
 3943SOL    HW212729   0.483   3.144   4.234
 3944SOL     OW12730   4.607   2.232   5.020
 3944SOL    HW112731   4.515   2.265   4.996
 3944SOL    HW212732   4.669   2.248   4.943
 3945SOL     OW12733   0.405   1.680   0.838
 3945SOL    HW112734   0.323   1.624   0.824
 3945SOL    HW212735   0.457   1.644   0.916
 3946SOL     OW12736   4.861   4.421   3.783
 3946SOL    HW112737   4.950   4.409   3.741
 3946SOL    HW212738   4.795   4.359   3.740
 3947SOL     OW12739   4.364   6.254   0.358
 3947SOL    HW112740   4.335   6.173   0.308
 3947SOL    HW212741   4.435   6.230   0.424
 3948SOL     OW12742   6.646   4.495   1.101
 3948SOL    HW112743   6.699   4.575   1.072
 3948SOL    HW212744   6.590   4.519   1.181
 3949SOL     OW12745   4.779   5.712   2.834
 3949SOL    HW112746   4.746   5.783   2.896
 3949SOL    HW212747   4.855   5.663   2.877
 3950SOL     OW12748   1.572   5.433   1.381
 3950SOL    HW112749   1.630   5.437   1.462
 3950SOL    HW212750   1.629   5.432   1.299
 3951SOL     OW12751   4.636   0.814   1.316
 3951SOL    HW112752   4.561   0.843   1.376
 3951SOL    HW212753   4.643   0.714   1.319
 3952SOL     OW12754   0.027   2.728   1.265
 3952SOL    HW112755   7.022   2.643   1.223
 3952SOL    HW212756   0.016   2.803   1.201
 3953SOL     OW12757   3.833   3.224   2.049
 3953SOL    HW112758   3.920   3.174   2.053
 3953SOL    HW212759   3.821   3.262   1.957
 3954SOL     OW12760   4.160   5.443   5.369
 3954SOL    HW112761   4.192   5.367   5.313
 3954SOL    HW212762   4.118   5.408   5.453
 3955SOL     OW12763   3.663   1.818   5.417
 3955SOL    HW112764   3.622   1.780   5.334
 3955SOL    HW212765   3.592   1.841   5.482
 3956SOL     OW12766   1.584   1.178   2.286
 3956SOL    HW112767   1.637   1.124   2.352
 3956SOL    HW212768   1.555   1.118   2.211
 3957SOL     OW12769   3.954   6.981   4.692
 3957SOL    HW112770   4.035   7.020   4.648
 3957SOL    HW212771   3.873   0.007   4.666
 3958SOL     OW12772   6.129   2.548   4.122
 3958SOL    HW112773   6.093   2.640   4.132
 3958SOL    HW212774   6.104   2.493   4.202
 3959SOL     OW12775   5.211   4.979   0.105
 3959SOL    HW112776   5.125   5.029   0.094
 3959SOL    HW212777   5.205   4.921   0.187
 3960SOL     OW12778   5.277   1.982   5.279
 3960SOL    HW112779   5.359   2.008   5.330
 3960SOL    HW212780   5.303   1.923   5.203
 3961SOL     OW12781   5.154   0.173   2.809
 3961SOL    HW112782   5.192   0.220   2.888
 3961SOL    HW212783   5.202   0.202   2.726
 3962SOL     OW12784   0.703   5.340   6.396
 3962SOL    HW112785   0.620   5.298   6.432
 3962SOL    HW212786   0.711   5.319   6.298
 3963SOL     OW12787   5.007   6.140   1.815
 3963SOL    HW112788   4.960   6.213   1.765
 3963SOL    HW212789   5.088   6.112   1.763
 3964SOL     OW12790   4.727   4.181   3.263
 3964SOL    HW112791   4.733   4.213   3.168
 3964SOL    HW212792   4.739   4.082   3.266
 3965SOL     OW12793   5.236   3.419   4.375
 3965SOL    HW112794   5.214   3.494   4.437
 3965SOL    HW212795   5.236   3.453   4.281
 3966SOL     OW12796   3.864   5.703   6.849
 3966SOL    HW112797   3.798   5.651   6.795
 3966SOL    HW212798   3.879   5.657   6.936
 3967SOL     OW12799   2.199   4.275   1.519
 3967SOL    HW112800   2.114   4.243   1.478
 3967SOL    HW212801   2.179   4.331   1.599
 3968SOL     OW12802   4.426   0.401   0.779
 3968SOL    HW112803   4.414   0.384   0.877
 3968SOL    HW212804   4.337   0.407   0.735
 3969SOL     OW12805   1.568   5.460   2.204
 3969SOL    HW112806   1.551   5.485   2.300
 3969SOL    HW212807   1.482   5.462   2.153
 3970SOL     OW12808   5.935   5.938   1.976
 3970SOL    HW112809   6.013   5.995   1.951
 3970SOL    HW212810   5.953   5.892   2.063
 3971SOL     OW12811   2.418   5.972   4.269
 3971SOL    HW112812   2.489   5.920   4.316
 3971SOL    HW212813   2.346   5.996   4.334
 3972SOL     OW12814   1.235   3.879   6.381
 3972SOL    HW112815   1.217   3.931   6.465
 3972SOL    HW212816   1.317   3.915   6.337
 3973SOL     OW12817   1.216   6.060   1.084
 3973SOL    HW112818   1.222   6.091   1.179
 3973SOL    HW212819   1.250   5.967   1.077
 3974SOL     OW12820   2.023   0.874   5.915
 3974SOL    HW112821   1.965   0.793   5.924
 3974SOL    HW212822   2.112   0.856   5.956
 3975SOL     OW12823   5.009   1.962   6.140
 3975SOL    HW112824   5.030   1.864   6.149
 3975SOL    HW212825   4.912   1.977   6.154
 3976SOL     OW12826   1.709   6.332   2.649
 3976SOL    HW112827   1.744   6.245   2.683
 3976SOL    HW212828   1.632   6.362   2.706
 3977SOL     OW12829   1.432   3.911   6.656
 3977SOL    HW112830   1.475   3.852   6.724
 3977SOL    HW212831   1.470   3.891   6.566
 3978SOL     OW12832   6.726   5.098   3.214
 3978SOL    HW112833   6.723   5.044   3.299
 3978SOL    HW212834   6.724   5.196   3.237
 3979SOL     OW12835   3.421   1.350   6.093
 3979SOL    HW112836   3.326   1.370   6.071
 3979SOL    HW212837   3.427   1.260   6.137
 3980SOL     OW12838   6.169   6.527   6.358
 3980SOL    HW112839   6.100   6.485   6.417
 3980SOL    HW212840   6.254   6.539   6.409
 3981SOL     OW12841   5.127   6.231   0.511
 3981SOL    HW112842   5.083   6.244   0.600
 3981SOL    HW212843   5.225   6.220   0.524
 3982SOL     OW12844   2.222   0.010   2.110
 3982SOL    HW112845   2.236   0.056   2.197
 3982SOL    HW212846   2.219   0.078   2.036
 3983SOL     OW12847   4.398   5.307   3.915
 3983SOL    HW112848   4.324   5.349   3.862
 3983SOL    HW212849   4.397   5.343   4.008
 3984SOL     OW12850   6.194   1.758   2.748
 3984SOL    HW112851   6.097   1.778   2.737
 3984SOL    HW212852   6.247   1.842   2.739
 3985SOL     OW12853   3.482   5.329   6.548
 3985SOL    HW112854   3.398   5.334   6.602
 3985SOL    HW212855   3.553   5.282   6.600
 3986SOL     OW12856   5.148   1.835   2.612
 3986SOL    HW112857   5.093   1.915   2.634
 3986SOL    HW212858   5.194   1.849   2.524
 3987SOL     OW12859   3.170   4.945   4.630
 3987SOL    HW112860   3.073   4.931   4.611
 3987SOL    HW212861   3.224   4.912   4.553
 3988SOL     OW12862   4.475   5.675   0.627
 3988SOL    HW112863   4.412   5.682   0.548
 3988SOL    HW212864   4.448   5.598   0.684
 3989SOL     OW12865   6.251   2.134   0.299
 3989SOL    HW112866   6.198   2.140   0.384
 3989SOL    HW212867   6.256   2.224   0.257
 3990SOL     OW12868   5.118   2.489   1.851
 3990SOL    HW112869   5.186   2.559   1.875
 3990SOL    HW212870   5.161   2.420   1.793
 3991SOL     OW12871   0.904   1.191   2.648
 3991SOL    HW112872   0.947   1.279   2.667
 3991SOL    HW212873   0.888   1.142   2.733
 3992SOL     OW12874   3.388   2.099   0.565
 3992SOL    HW112875   3.297   2.076   0.530
 3992SOL    HW212876   3.395   2.198   0.577
 3993SOL     OW12877   1.276   3.142   2.176
 3993SOL    HW112878   1.244   3.096   2.259
 3993SOL    HW212879   1.305   3.075   2.109
 3994SOL     OW12880   2.652   6.754   4.978
 3994SOL    HW112881   2.727   6.742   5.043
 3994SOL    HW212882   2.567   6.773   5.028
 3995SOL     OW12883   1.644   3.245   5.351
 3995SOL    HW112884   1.631   3.344   5.349
 3995SOL    HW212885   1.709   3.221   5.423
 3996SOL     OW12886   6.949   6.584   5.273
 3996SOL    HW112887   6.857   6.547   5.283
 3996SOL    HW212888   7.011   6.512   5.241
 3997SOL     OW12889   5.586   1.507   3.882
 3997SOL    HW112890   5.486   1.507   3.886
 3997SOL    HW212891   5.619   1.602   3.881
 3998SOL     OW12892   4.029   2.163   3.645
 3998SOL    HW112893   4.114   2.116   3.666
 3998SOL    HW212894   3.976   2.177   3.728
 3999SOL     OW12895   6.272   2.581   4.618
 3999SOL    HW112896   6.279   2.662   4.676
 3999SOL    HW212897   6.181   2.578   4.576
 4000SOL     OW12898   3.820   6.874   3.799
 4000SOL    HW112899   3.779   6.950   3.850
 4000SOL    HW212900   3.749   6.827   3.747
 4001SOL     OW12901   2.154   2.356   3.739
 4001SOL    HW112902   2.095   2.415   3.794
 4001SOL    HW212903   2.241   2.343   3.786
 4002SOL     OW12904   2.124   3.619   1.778
 4002SOL    HW112905   2.130   3.711   1.817
 4002SOL    HW212906   2.190   3.559   1.822
 4003SOL     OW12907   3.312   0.257   4.448
 4003SOL    HW112908   3.292   0.225   4.540
 4003SOL    HW212909   3.368   0.190   4.400
 4004SOL     OW12910   6.588   2.146   4.631
 4004SOL    HW112911   6.551   2.237   4.615
 4004SOL    HW212912   6.682   2.154   4.666
 4005SOL     OW12913   4.891   5.582   6.715
 4005SOL    HW112914   4.855   5.675   6.715
 4005SOL    HW212915   4.902   5.550   6.620
 4006SOL     OW12916   3.875   5.336   2.439
 4006SOL    HW112917   3.806   5.391   2.486
 4006SOL    HW212918   3.879   5.364   2.343
 4007SOL     OW12919   0.023   2.520   6.770
 4007SOL    HW112920   0.119   2.548   6.763
 4007SOL    HW212921   7.010   2.510   6.679
 4008SOL     OW12922   2.622   2.517   4.479
 4008SOL    HW112923   2.630   2.616   4.488
 4008SOL    HW212924   2.600   2.493   4.385
 4009SOL     OW12925   4.032   3.549   2.100
 4009SOL    HW112926   4.088   3.612   2.045
 4009SOL    HW212927   3.936   3.559   2.075
 4010SOL     OW12928   2.372   3.167   0.541
 4010SOL    HW112929   2.289   3.167   0.596
 4010SOL    HW212930   2.372   3.247   0.482
 4011SOL     OW12931   1.200   2.323   1.741
 4011SOL    HW112932   1.121   2.364   1.695
 4011SOL    HW212933   1.265   2.290   1.672
 4012SOL     OW12934   7.002   3.933   2.546
 4012SOL    HW112935   0.064   3.892   2.569
 4012SOL    HW212936   6.977   3.909   2.452
 4013SOL     OW12937   4.615   2.537   3.779
 4013SOL    HW112938   4.664   2.481   3.713
 4013SOL    HW212939   4.533   2.489   3.809
 4014SOL     OW12940   5.570   5.998   3.154
 4014SOL    HW112941   5.478   5.974   3.123
 4014SOL    HW212942   5.564   6.053   3.237
 4015SOL     OW12943   4.917   4.258   5.495
 4015SOL    HW112944   4.955   4.219   5.411
 4015SOL    HW212945   4.983   4.322   5.535
 4016SOL     OW12946   3.388   6.259   5.930
 4016SOL    HW112947   3.346   6.263   6.021
 4016SOL    HW212948   3.325   6.216   5.866
 4017SOL     OW12949   6.620   5.579   0.185
 4017SOL    HW112950   6.693   5.638   0.218
 4017SOL    HW212951   6.639   5.485   0.210
 4018SOL     OW12952   4.117   6.091   1.138
 4018SOL    HW112953   4.041   6.026   1.144
 4018SOL    HW212954   4.087   6.180   1.173
 4019SOL     OW12955   5.038   4.742   3.549
 4019SOL    HW112956   5.083   4.689   3.477
 4019SOL    HW212957   5.101   4.753   3.626
 4020SOL     OW12958   5.379   2.342   5.478
 4020SOL    HW112959   5.416   2.360   5.386
 4020SOL    HW212960   5.281   2.358   5.478
 4021SOL     OW12961   3.316   4.433   5.753
 4021SOL    HW112962   3.245   4.424   5.823
 4021SOL    HW212963   3.364   4.345   5.744
 4022SOL     OW12964   5.092   0.507   0.943
 4022SOL    HW112965   5.122   0.528   0.850
 4022SOL    HW212966   5.168   0.522   1.006
 4023SOL     OW12967   6.021   1.089   5.605
 4023SOL    HW112968   5.923   1.103   5.623
 4023SOL    HW212969   6.054   1.163   5.546
 4024SOL     OW12970   4.328   4.987   4.112
 4024SOL    HW112971   4.292   4.952   4.026
 4024SOL    HW212972   4.287   4.937   4.188
 4025SOL     OW12973   0.598   4.360   3.816
 4025SOL    HW112974   0.544   4.306   3.751
 4025SOL    HW212975   0.538   4.403   3.883
 4026SOL     OW12976   5.221   6.120   4.045
 4026SOL    HW112977   5.171   6.204   4.064
 4026SOL    HW212978   5.187   6.047   4.104
 4027SOL     OW12979   4.199   5.495   1.766
 4027SOL    HW112980   4.175   5.416   1.822
 4027SOL    HW212981   4.226   5.571   1.826
 4028SOL     OW12982   2.159   0.972   3.882
 4028SOL    HW112983   2.193   0.901   3.820
 4028SOL    HW212984   2.183   1.063   3.845
 4029SOL     OW12985   1.861   4.430   4.590
 4029SOL    HW112986   1.807   4.346   4.602
 4029SOL    HW212987   1.851   4.488   4.671
 4030SOL     OW12988   0.028   2.219   5.419
 4030SOL    HW112989   7.009   2.199   5.506
 4030SOL    HW212990   0.041   2.318   5.410
 4031SOL     OW12991   3.960   5.592   3.894
 4031SOL    HW112992   3.986   5.678   3.849
 4031SOL    HW212993   4.037   5.528   3.889
 4032SOL     OW12994   4.772   0.093   4.764
 4032SOL    HW112995   4.830   0.055   4.692
 4032SOL    HW212996   4.802   0.186   4.786
 4033SOL     OW12997   3.228   3.921   5.291
 4033SOL    HW112998   3.214   3.943   5.195
 4033SOL    HW212999   3.150   3.955   5.345
 4034SOL     OW13000   6.823   2.776   3.674
 4034SOL    HW113001   6.913   2.734   3.678
 4034SOL    HW213002   6.771   2.752   3.756
 4035SOL     OW13003   7.008   4.825   0.434
 4035SOL    HW113004   0.031   4.782   0.510
 4035SOL    HW213005   0.016   4.918   0.420
 4036SOL     OW13006   6.716   6.938   3.088
 4036SOL    HW113007   6.773   7.020   3.076
 4036SOL    HW213008   6.740   6.893   3.175
 4037SOL     OW13009   0.007   3.935   6.798
 4037SOL    HW113010   0.059   3.987   6.731
 4037SOL    HW213011   6.936   3.935   6.773
 4038SOL     OW13012   5.471   4.808   4.051
 4038SOL    HW113013   5.499   4.741   3.982
 4038SOL    HW213014   5.427   4.761   4.127
 4039SOL     OW13015   4.518   6.155   0.839
 4039SOL    HW113016   4.484   6.084   0.777
 4039SOL    HW213017   4.442   6.213   0.868
 4040SOL     OW13018   3.994   5.978   1.598
 4040SOL    HW113019   3.996   6.014   1.505
 4040SOL    HW213020   4.025   6.049   1.662
 4041SOL     OW13021   1.586   6.599   4.371
 4041SOL    HW113022   1.511   6.595   4.438
 4041SOL    HW213023   1.635   6.685   4.382
 4042SOL     OW13024   6.158   5.425   1.721
 4042SOL    HW113025   6.061   5.410   1.698
 4042SOL    HW213026   6.183   5.365   1.797
 4043SOL     OW13027   6.576   2.893   1.334
 4043SOL    HW113028   6.617   2.824   1.393
 4043SOL    HW213029   6.501   2.938   1.382
 4044SOL     OW13030   6.765   5.936   3.583
 4044SOL    HW113031   6.812   5.847   3.581
 4044SOL    HW213032   6.830   6.008   3.604
 4045SOL     OW13033   2.615   6.300   5.806
 4045SOL    HW113034   2.573   6.272   5.892
 4045SOL    HW213035   2.648   6.395   5.815
 4046SOL     OW13036   1.696   2.854   1.141
 4046SOL    HW113037   1.704   2.927   1.209
 4046SOL    HW213038   1.707   2.765   1.186
 4047SOL     OW13039   2.992   3.702   1.063
 4047SOL    HW113040   2.916   3.652   1.021
 4047SOL    HW213041   3.058   3.636   1.101
 4048SOL     OW13042   5.681   1.175   1.182
 4048SOL    HW113043   5.695   1.077   1.170
 4048SOL    HW213044   5.587   1.191   1.214
 4049SOL     OW13045   5.598   0.815   5.148
 4049SOL    HW113046   5.502   0.788   5.150
 4049SOL    HW213047   5.605   0.912   5.125
 4050SOL     OW13048   2.703   0.320   0.900
 4050SOL    HW113049   2.763   0.244   0.923
 4050SOL    HW213050   2.611   0.302   0.934
 4051SOL     OW13051   3.032   3.916   0.592
 4051SOL    HW113052   3.090   3.955   0.663
 4051SOL    HW213053   3.054   3.819   0.580
 4052SOL     OW13054   1.718   6.416   1.338
 4052SOL    HW113055   1.664   6.345   1.293
 4052SOL    HW213056   1.702   6.412   1.437
 4053SOL     OW13057   3.643   4.876   3.540
 4053SOL    HW113058   3.655   4.777   3.538
 4053SOL    HW213059   3.730   4.919   3.565
 4054SOL     OW13060   5.216   2.264   0.405
 4054SOL    HW113061   5.268   2.285   0.322
 4054SOL    HW213062   5.213   2.165   0.417
 4055SOL     OW13063   3.461   2.107   0.088
 4055SOL    HW113064   3.527   2.106   0.012
 4055SOL    HW213065   3.511   2.107   0.175
 4056SOL     OW13066   3.894   3.558   0.383
 4056SOL    HW113067   3.974   3.574   0.442
 4056SOL    HW213068   3.827   3.503   0.433
 4057SOL     OW13069   5.524   2.475   6.520
 4057SOL    HW113070   5.488   2.426   6.599
 4057SOL    HW213071   5.452   2.533   6.482
 4058SOL     OW13072   0.512   0.456   4.705
 4058SOL    HW113073   0.475   0.456   4.798
 4058SOL    HW213074   0.525   0.361   4.675
 4059SOL     OW13075   0.145   1.681   4.847
 4059SOL    HW113076   0.058   1.728   4.832
 4059SOL    HW213077   0.149   1.600   4.788
 4060SOL     OW13078   4.619   5.421   3.814
 4060SOL    HW113079   4.561   5.350   3.853
 4060SOL    HW213080   4.711   5.414   3.855
 4061SOL     OW13081   3.048   3.218   1.408
 4061SOL    HW113082   3.078   3.186   1.498
 4061SOL    HW213083   3.003   3.143   1.359
 4062SOL     OW13084   2.689   7.008   3.034
 4062SOL    HW113085   2.643   6.935   2.983
 4062SOL    HW213086   2.782   6.978   3.057
 4063SOL     OW13087   3.010   5.487   5.766
 4063SOL    HW113088   2.998   5.394   5.733
 4063SOL    HW213089   3.077   5.488   5.840
 4064SOL     OW13090   6.395   0.050   3.864
 4064SOL    HW113091   6.442   0.076   3.948
 4064SOL    HW213092   6.298   0.036   3.883
 4065SOL     OW13093   6.224   4.764   6.699
 4065SOL    HW113094   6.210   4.730   6.792
 4065SOL    HW213095   6.136   4.791   6.660
 4066SOL     OW13096   6.201   5.080   1.898
 4066SOL    HW113097   6.118   5.043   1.857
 4066SOL    HW213098   6.179   5.164   1.949
 4067SOL     OW13099   6.393   1.057   1.796
 4067SOL    HW113100   6.388   1.138   1.854
 4067SOL    HW213101   6.363   0.977   1.848
 4068SOL     OW13102   5.857   0.669   3.872
 4068SOL    HW113103   5.839   0.743   3.935
 4068SOL    HW213104   5.889   0.589   3.922
 4069SOL     OW13105   0.095   5.515   1.195
 4069SOL    HW113106   0.176   5.507   1.254
 4069SOL    HW213107   0.036   5.436   1.208
 4070SOL     OW13108   0.838   3.763   2.706
 4070SOL    HW113109   0.763   3.697   2.714
 4070SOL    HW213110   0.802   3.850   2.674
 4071SOL     OW13111   2.097   0.214   3.887
 4071SOL    HW113112   2.085   0.197   3.789
 4071SOL    HW213113   2.171   0.158   3.922
 4072SOL     OW13114   0.732   0.587   3.996
 4072SOL    HW113115   0.764   0.553   3.908
 4072SOL    HW213116   0.801   0.649   4.035
 4073SOL     OW13117   2.546   5.109   0.742
 4073SOL    HW113118   2.524   5.158   0.658
 4073SOL    HW213119   2.519   5.013   0.733
 4074SOL     OW13120   1.340   2.868   0.595
 4074SOL    HW113121   1.383   2.956   0.616
 4074SOL    HW213122   1.391   2.823   0.523
 4075SOL     OW13123   5.251   0.862   4.052
 4075SOL    HW113124   5.310   0.913   3.989
 4075SOL    HW213125   5.288   0.771   4.066
 4076SOL     OW13126   1.641   2.714   3.784
 4076SOL    HW113127   1.674   2.735   3.876
 4076SOL    HW213128   1.670   2.622   3.758
 4077SOL     OW13129   2.652   1.451   0.837
 4077SOL    HW113130   2.671   1.442   0.935
 4077SOL    HW213131   2.561   1.492   0.825
 4078SOL     OW13132   5.482   4.082   2.169
 4078SOL    HW113133   5.488   4.101   2.071
 4078SOL    HW213134   5.571   4.099   2.211
 4079SOL     OW13135   0.096   0.924   3.620
 4079SOL    HW113136   0.083   1.023   3.620
 4079SOL    HW213137   0.133   0.895   3.709
 4080SOL     OW13138   3.873   2.987   2.514
 4080SOL    HW113139   3.924   3.072   2.525
 4080SOL    HW213140   3.889   2.950   2.423
 4081SOL     OW13141   2.480   2.418   6.376
 4081SOL    HW113142   2.418   2.413   6.454
 4081SOL    HW213143   2.480   2.511   6.339
 4082SOL     OW13144   1.312   2.669   5.493
 4082SOL    HW113145   1.216   2.645   5.511
 4082SOL    HW213146   1.324   2.688   5.396
 4083SOL     OW13147   5.878   5.143   2.865
 4083SOL    HW113148   5.833   5.066   2.909
 4083SOL    HW213149   5.904   5.211   2.934
 4084SOL     OW13150   4.474   0.649   3.127
 4084SOL    HW113151   4.439   0.726   3.179
 4084SOL    HW213152   4.571   0.661   3.109
 4085SOL     OW13153   4.120   4.803   1.842
 4085SOL    HW113154   4.045   4.811   1.908
 4085SOL    HW213155   4.196   4.753   1.884
 4086SOL     OW13156   6.072   5.156   5.695
 4086SOL    HW113157   6.158   5.206   5.684
 4086SOL    HW213158   5.997   5.210   5.656
 4087SOL     OW13159   2.137   0.633   2.485
 4087SOL    HW113160   2.052   0.672   2.451
 4087SOL    HW213161   2.162   0.678   2.571
 4088SOL     OW13162   0.424   1.698   5.125
 4088SOL    HW113163   0.511   1.721   5.169
 4088SOL    HW213164   0.396   1.774   5.066
 4089SOL     OW13165   0.955   0.581   2.924
 4089SOL    HW113166   0.917   0.655   2.980
 4089SOL    HW213167   1.036   0.615   2.875
 4090SOL     OW13168   2.812   1.945   6.037
 4090SOL    HW113169   2.746   1.975   5.968
 4090SOL    HW213170   2.779   1.860   6.079
 4091SOL     OW13171   3.300   5.905   1.211
 4091SOL    HW113172   3.293   5.978   1.279
 4091SOL    HW213173   3.213   5.856   1.206
 4092SOL     OW13174   5.564   2.809   4.492
 4092SOL    HW113175   5.620   2.803   4.575
 4092SOL    HW213176   5.621   2.789   4.412
 4093SOL     OW13177   5.717   4.394   3.830
 4093SOL    HW113178   5.648   4.466   3.820
 4093SOL    HW213179   5.713   4.333   3.751
 4094SOL     OW13180   6.895   5.955   0.230
 4094SOL    HW113181   6.882   5.862   0.264
 4094SOL    HW213182   6.948   5.954   0.146
 4095SOL     OW13183   1.178   5.075   0.209
 4095SOL    HW113184   1.271   5.046   0.185
 4095SOL    HW213185   1.173   5.092   0.307
 4096SOL     OW13186   0.360   0.466   6.641
 4096SOL    HW113187   0.277   0.413   6.657
 4096SOL    HW213188   0.381   0.464   6.543
 4097SOL     OW13189   6.359   4.478   4.952
 4097SOL    HW113190   6.381   4.396   4.899
 4097SOL    HW213191   6.376   4.559   4.897
 4098SOL     OW13192   2.042   4.290   2.613
 4098SOL    HW113193   2.082   4.327   2.529
 4098SOL    HW213194   2.013   4.195   2.597
 4099SOL     OW13195   5.189   4.116   6.054
 4099SOL    HW113196   5.163   4.020   6.062
 4099SOL    HW213197   5.107   4.172   6.043
 4100SOL     OW13198   1.782   1.042   3.730
 4100SOL    HW113199   1.700   1.097   3.747
 4100SOL    HW213200   1.828   1.023   3.816
 4101SOL     OW13201   6.667   5.339   0.347
 4101SOL    HW113202   6.741   5.276   0.371
 4101SOL    HW213203   6.599   5.292   0.291
 4102SOL     OW13204   1.750   6.680   0.149
 4102SOL    HW113205   1.843   6.702   0.118
 4102SOL    HW213206   1.754   6.598   0.207
 4103SOL     OW13207   1.993   6.602   4.090
 4103SOL    HW113208   2.032   6.511   4.101
 4103SOL    HW213209   1.900   6.603   4.127
 4104SOL     OW13210   1.966   5.582   4.634
 4104SOL    HW113211   2.062   5.562   4.616
 4104SOL    HW213212   1.913   5.498   4.630
 4105SOL     OW13213   4.622   0.385   1.933
 4105SOL    HW113214   4.559   0.367   1.858
 4105SOL    HW213215   4.690   0.311   1.937
 4106SOL     OW13216   0.933   1.196   3.006
 4106SOL    HW113217   0.900   1.150   3.089
 4106SOL    HW213218   1.029   1.172   2.991
 4107SOL     OW13219   0.992   0.392   0.420
 4107SOL    HW113220   0.940   0.324   0.472
 4107SOL    HW213221   1.087   0.363   0.410
 4108SOL     OW13222   6.605   5.899   5.493
 4108SOL    HW113223   6.551   5.962   5.438
 4108SOL    HW213224   6.691   5.944   5.519
 4109SOL     OW13225   5.654   5.772   3.357
 4109SOL    HW113226   5.561   5.791   3.327
 4109SOL    HW213227   5.651   5.711   3.436
 4110SOL     OW13228   5.281   3.306   0.258
 4110SOL    HW113229   5.291   3.399   0.221
 4110SOL    HW213230   5.229   3.250   0.193
 4111SOL     OW13231   6.514   3.892   3.981
 4111SOL    HW113232   6.582   3.965   3.989
 4111SOL    HW213233   6.431   3.927   3.939
 4112SOL     OW13234   4.482   6.170   4.751
 4112SOL    HW113235   4.428   6.168   4.667
 4112SOL    HW213236   4.469   6.257   4.798
 4113SOL     OW13237   4.337   5.506   4.402
 4113SOL    HW113238   4.261   5.523   4.340
 4113SOL    HW213239   4.307   5.445   4.476
 4114SOL     OW13240   0.408   1.089   1.466
 4114SOL    HW113241   0.388   1.124   1.558
 4114SOL    HW213242   0.402   0.989   1.466
 4115SOL     OW13243   4.069   5.840   3.811
 4115SOL    HW113244   4.061   5.885   3.901
 4115SOL    HW213245   4.037   5.903   3.740
 4116SOL     OW13246   4.893   3.822   2.325
 4116SOL    HW113247   4.828   3.867   2.387
 4116SOL    HW213248   4.962   3.774   2.380
 4117SOL     OW13249   1.042   1.388   3.899
 4117SOL    HW113250   1.068   1.294   3.923
 4117SOL    HW213251   1.033   1.396   3.800
 4118SOL     OW13252   0.481   6.475   0.088
 4118SOL    HW113253   0.419   6.397   0.094
 4118SOL    HW213254   0.498   6.498   7.019
 4119SOL     OW13255   0.480   0.417   4.307
 4119SOL    HW113256   0.520   0.360   4.235
 4119SOL    HW213257   0.546   0.487   4.335
 4120SOL     OW13258   1.988   0.802   6.568
 4120SOL    HW113259   1.991   0.780   6.666
 4120SOL    HW213260   1.893   0.797   6.537
 4121SOL     OW13261   6.538   6.656   2.430
 4121SOL    HW113262   6.558   6.564   2.463
 4121SOL    HW213263   6.618   6.715   2.446
 4122SOL     OW13264   0.552   4.446   2.891
 4122SOL    HW113265   0.571   4.412   2.799
 4122SOL    HW213266   0.591   4.537   2.902
 4123SOL     OW13267   5.056   4.927   1.263
 4123SOL    HW113268   5.067   4.875   1.348
 4123SOL    HW213269   4.998   5.006   1.280
 4124SOL     OW13270   6.226   5.373   0.413
 4124SOL    HW113271   6.218   5.330   0.323
 4124SOL    HW213272   6.296   5.327   0.467
 4125SOL     OW13273   6.346   2.275   0.632
 4125SOL    HW113274   6.399   2.327   0.699
 4125SOL    HW213275   6.306   2.338   0.565
 4126SOL     OW13276   1.426   3.453   2.858
 4126SOL    HW113277   1.399   3.549   2.850
 4126SOL    HW213278   1.361   3.405   2.917
 4127SOL     OW13279   4.201   1.760   4.478
 4127SOL    HW113280   4.191   1.670   4.435
 4127SOL    HW213281   4.159   1.830   4.419
 4128SOL     OW13282   1.050   2.915   0.089
 4128SOL    HW113283   1.024   3.011   0.077
 4128SOL    HW213284   0.976   2.867   0.137
 4129SOL     OW13285   2.856   2.302   0.705
 4129SOL    HW113286   2.955   2.296   0.691
 4129SOL    HW213287   2.838   2.350   0.791
 4130SOL     OW13288   5.791   3.125   0.784
 4130SOL    HW113289   5.886   3.108   0.758
 4130SOL    HW213290   5.749   3.188   0.718
 4131SOL     OW13291   4.999   6.613   3.114
 4131SOL    HW113292   4.958   6.584   3.028
 4131SOL    HW213293   4.934   6.669   3.165
 4132SOL     OW13294   0.428   5.378   3.585
 4132SOL    HW113295   0.513   5.426   3.607
 4132SOL    HW213296   0.370   5.437   3.529
 4133SOL     OW13297   5.642   0.327   2.686
 4133SOL    HW113298   5.679   0.384   2.613
 4133SOL    HW213299   5.701   0.333   2.766
 4134SOL     OW13300   1.390   3.497   1.357
 4134SOL    HW113301   1.343   3.412   1.382
 4134SOL    HW213302   1.435   3.486   1.268
 4135SOL     OW13303   6.681   0.624   2.054
 4135SOL    HW113304   6.749   0.616   2.127
 4135SOL    HW213305   6.612   0.552   2.065
 4136SOL     OW13306   1.061   4.929   0.928
 4136SOL    HW113307   1.075   4.948   0.831
 4136SOL    HW213308   1.135   4.972   0.981
 4137SOL     OW13309   1.196   2.490   0.244
 4137SOL    HW113310   1.295   2.483   0.235
 4137SOL    HW213311   1.164   2.417   0.305
 4138SOL     OW13312   4.994   0.280   0.022
 4138SOL    HW113313   5.070   0.230   0.065
 4138SOL    HW213314   4.908   0.232   0.040
 4139SOL     OW13315   2.210   4.237   2.831
 4139SOL    HW113316   2.172   4.155   2.875
 4139SOL    HW213317   2.156   4.259   2.750
 4140SOL     OW13318   1.779   0.257   5.781
 4140SOL    HW113319   1.700   0.282   5.726
 4140SOL    HW213320   1.817   0.339   5.824
 4141SOL     OW13321   4.669   0.581   6.325
 4141SOL    HW113322   4.713   0.555   6.240
 4141SOL    HW213323   4.575   0.608   6.307
 4142SOL     OW13324   0.686   5.389   2.149
 4142SOL    HW113325   0.734   5.436   2.074
 4142SOL    HW213326   0.747   5.380   2.227
 4143SOL     OW13327   5.721   2.701   6.259
 4143SOL    HW113328   5.704   2.609   6.294
 4143SOL    HW213329   5.635   2.741   6.228
 4144SOL     OW13330   6.311   0.923   0.591
 4144SOL    HW113331   6.313   1.018   0.559
 4144SOL    HW213332   6.311   0.921   0.691
 4145SOL     OW13333   6.755   0.664   1.797
 4145SOL    HW113334   6.714   0.620   1.876
 4145SOL    HW213335   6.842   0.706   1.823
 4146SOL     OW13336   5.149   5.999   1.996
 4146SOL    HW113337   5.138   6.065   1.922
 4146SOL    HW213338   5.232   6.019   2.047
 4147SOL     OW13339   4.262   4.864   6.397
 4147SOL    HW113340   4.250   4.912   6.310
 4147SOL    HW213341   4.254   4.930   6.473
 4148SOL     OW13342   2.228   1.544   5.426
 4148SOL    HW113343   2.295   1.479   5.464
 4148SOL    HW213344   2.193   1.601   5.500
 4149SOL     OW13345   1.531   3.642   6.562
 4149SOL    HW113346   1.606   3.615   6.622
 4149SOL    HW213347   1.446   3.598   6.593
 4150SOL     OW13348   5.311   1.908   6.641
 4150SOL    HW113349   5.392   1.947   6.683
 4150SOL    HW213350   5.338   1.846   6.567
 4151SOL     OW13351   3.091   5.938   4.541
 4151SOL    HW113352   3.057   5.884   4.464
 4151SOL    HW213353   3.039   6.023   4.547
 4152SOL     OW13354   2.921   4.404   1.251
 4152SOL    HW113355   2.949   4.331   1.189
 4152SOL    HW213356   2.909   4.367   1.343
 4153SOL     OW13357   0.033   5.899   1.395
 4153SOL    HW113358   0.092   5.894   1.476
 4153SOL    HW213359   6.998   5.820   1.394
 4154SOL     OW13360   1.239   6.337   3.957
 4154SOL    HW113361   1.147   6.325   3.920
 4154SOL    HW213362   1.280   6.247   3.974
 4155SOL     OW13363   0.624   0.869   1.825
 4155SOL    HW113364   0.600   0.807   1.900
 4155SOL    HW213365   0.629   0.962   1.860
 4156SOL     OW13366   0.291   5.342   6.052
 4156SOL    HW113367   0.333   5.259   6.015
 4156SOL    HW213368   0.333   5.364   6.140
 4157SOL     OW13369   5.894   6.215   1.625
 4157SOL    HW113370   5.900   6.115   1.636
 4157SOL    HW213371   5.963   6.244   1.558
 4158SOL     OW13372   0.945   2.770   1.512
 4158SOL    HW113373   0.976   2.840   1.447
 4158SOL    HW213374   0.937   2.810   1.603
 4159SOL     OW13375   3.116   0.480   3.880
 4159SOL    HW113376   3.141   0.470   3.976
 4159SOL    HW213377   3.183   0.539   3.834
 4160SOL     OW13378   6.831   0.079   6.937
 4160SOL    HW113379   6.770   0.159   6.938
 4160SOL    HW213380   6.907   0.096   6.875
 4161SOL     OW13381   3.564   3.127   1.972
 4161SOL    HW113382   3.657   3.161   1.984
 4161SOL    HW213383   3.502   3.174   2.035
 4162SOL     OW13384   5.407   5.473   1.619
 4162SOL    HW113385   5.452   5.401   1.565
 4162SOL    HW213386   5.408   5.448   1.715
 4163SOL     OW13387   3.619   5.813   1.894
 4163SOL    HW113388   3.569   5.881   1.948
 4163SOL    HW213389   3.711   5.847   1.874
 4164SOL     OW13390   6.694   0.712   6.076
 4164SOL    HW113391   6.734   0.760   5.998
 4164SOL    HW213392   6.736   0.744   6.160
 4165SOL     OW13393   4.729   0.551   4.685
 4165SOL    HW113394   4.817   0.505   4.677
 4165SOL    HW213395   4.729   0.633   4.628
 4166SOL     OW13396   5.821   1.666   1.245
 4166SOL    HW113397   5.815   1.567   1.254
 4166SOL    HW213398   5.904   1.691   1.194
 4167SOL     OW13399   3.419   5.721   4.409
 4167SOL    HW113400   3.324   5.751   4.415
 4167SOL    HW213401   3.480   5.799   4.424
 4168SOL     OW13402   5.263   3.725   6.628
 4168SOL    HW113403   5.353   3.702   6.667
 4168SOL    HW213404   5.210   3.641   6.616
 4169SOL     OW13405   5.272   2.964   5.934
 4169SOL    HW113406   5.317   2.901   5.997
 4169SOL    HW213407   5.279   2.928   5.840
 4170SOL     OW13408   0.157   2.474   4.620
 4170SOL    HW113409   0.149   2.387   4.572
 4170SOL    HW213410   0.148   2.549   4.555
 4171SOL     OW13411   0.632   1.888   0.108
 4171SOL    HW113412   0.700   1.827   0.148
 4171SOL    HW213413   0.606   1.958   0.176
 4172SOL     OW13414   3.047   4.296   0.823
 4172SOL    HW113415   3.122   4.359   0.801
 4172SOL    HW213416   2.999   4.269   0.739
 4173SOL     OW13417   5.189   2.440   6.648
 4173SOL    HW113418   5.265   2.393   6.692
 4173SOL    HW213419   5.185   2.535   6.679
 4174SOL     OW13420   3.385   0.677   4.855
 4174SOL    HW113421   3.391   0.580   4.831
 4174SOL    HW213422   3.289   0.701   4.872
 4175SOL     OW13423   0.601   4.404   6.671
 4175SOL    HW113424   0.536   4.377   6.601
 4175SOL    HW213425   0.567   4.486   6.718
 4176SOL     OW13426   5.194   0.236   5.970
 4176SOL    HW113427   5.227   0.157   5.919
 4176SOL    HW213428   5.272   0.283   6.012
 4177SOL     OW13429   4.177   4.759   2.498
 4177SOL    HW113430   4.267   4.802   2.505
 4177SOL    HW213431   4.124   4.780   2.580
 4178SOL     OW13432   3.938   5.635   1.321
 4178SOL    HW113433   4.001   5.620   1.397
 4178SOL    HW213434   3.955   5.568   1.249
 4179SOL     OW13435   5.561   3.019   5.470
 4179SOL    HW113436   5.551   2.977   5.380
 4179SOL    HW213437   5.648   3.067   5.476
 4180SOL     OW13438   4.493   3.868   0.725
 4180SOL    HW113439   4.460   3.793   0.668
 4180SOL    HW213440   4.417   3.905   0.779
 4181SOL     OW13441   4.673   6.766   4.888
 4181SOL    HW113442   4.699   6.716   4.805
 4181SOL    HW213443   4.704   6.861   4.881
 4182SOL     OW13444   6.924   6.650   4.833
 4182SOL    HW113445   6.865   6.727   4.857
 4182SOL    HW213446   6.990   6.635   4.907
 4183SOL     OW13447   4.400   1.770   0.826
 4183SOL    HW113448   4.453   1.809   0.901
 4183SOL    HW213449   4.306   1.802   0.830
 4184SOL     OW13450   3.379   5.737   3.843
 4184SOL    HW113451   3.466   5.717   3.798
 4184SOL    HW213452   3.395   5.793   3.924
 4185SOL     OW13453   5.807   2.745   3.428
 4185SOL    HW113454   5.716   2.709   3.449
 4185SOL    HW213455   5.799   2.841   3.401
 4186SOL     OW13456   1.813   6.479   0.295
 4186SOL    HW113457   1.869   6.456   0.374
 4186SOL    HW213458   1.805   6.399   0.235
 4187SOL     OW13459   1.796   3.569   6.657
 4187SOL    HW113460   1.792   3.526   6.747
 4187SOL    HW213461   1.888   3.604   6.641
 4188SOL     OW13462   4.335   0.102   0.383
 4188SOL    HW113463   4.269   0.050   0.329
 4188SOL    HW213464   4.307   0.198   0.387
 4189SOL     OW13465   5.186   4.665   3.791
 4189SOL    HW113466   5.277   4.696   3.818
 4189SOL    HW213467   5.167   4.576   3.833
 4190SOL     OW13468   6.733   5.730   1.343
 4190SOL    HW113469   6.808   5.721   1.277
 4190SOL    HW213470   6.765   5.704   1.434
 4191SOL     OW13471   4.395   4.712   6.904
 4191SOL    HW113472   4.321   4.659   6.861
 4191SOL    HW213473   4.369   4.734   6.999
 4192SOL     OW13474   1.592   3.306   1.220
 4192SOL    HW113475   1.546   3.327   1.133
 4192SOL    HW213476   1.625   3.391   1.261
 4193SOL     OW13477   0.739   0.504   0.709
 4193SOL    HW113478   0.760   0.408   0.691
 4193SOL    HW213479   0.640   0.519   0.702
 4194SOL     OW13480   4.297   1.335   5.447
 4194SOL    HW113481   4.319   1.241   5.423
 4194SOL    HW213482   4.198   1.347   5.449
 4195SOL     OW13483   3.315   6.166   0.667
 4195SOL    HW113484   3.343   6.071   0.679
 4195SOL    HW213485   3.316   6.213   0.756
 4196SOL     OW13486   6.226   3.136   1.916
 4196SOL    HW113487   6.277   3.203   1.970
 4196SOL    HW213488   6.215   3.052   1.969
 4197SOL     OW13489   3.537   0.911   6.769
 4197SOL    HW113490   3.481   0.939   6.692
 4197SOL    HW213491   3.544   0.811   6.770
 4198SOL     OW13492   6.649   2.302   2.278
 4198SOL    HW113493   6.707   2.371   2.322
 4198SOL    HW213494   6.653   2.217   2.331
 4199SOL     OW13495   0.854   3.828   6.027
 4199SOL    HW113496   0.812   3.741   6.052
 4199SOL    HW213497   0.816   3.859   5.940
 4200SOL     OW13498   5.001   0.867   3.831
 4200SOL    HW113499   4.986   0.781   3.784
 4200SOL    HW213500   5.096   0.896   3.820
 4201SOL     OW13501   5.388   6.481   3.778
 4201SOL    HW113502   5.437   6.395   3.765
 4201SOL    HW213503   5.316   6.489   3.709
 4202SOL     OW13504   5.314   4.028   1.118
 4202SOL    HW113505   5.380   4.080   1.172
 4202SOL    HW213506   5.317   3.932   1.146
 4203SOL     OW13507   6.428   5.520   6.111
 4203SOL    HW113508   6.345   5.472   6.081
 4203SOL    HW213509   6.405   5.584   6.184
 4204SOL     OW13510   2.265   3.379   6.441
 4204SOL    HW113511   2.175   3.397   6.480
 4204SOL    HW213512   2.265   3.289   6.397
 4205SOL     OW13513   3.762   6.255   5.554
 4205SOL    HW113514   3.801   6.262   5.462
 4205SOL    HW213515   3.665   6.280   5.551
 4206SOL     OW13516   1.682   2.105   4.751
 4206SOL    HW113517   1.750   2.067   4.689
 4206SOL    HW213518   1.721   2.183   4.801
 4207SOL     OW13519   1.365   2.198   2.327
 4207SOL    HW113520   1.364   2.280   2.384
 4207SOL    HW213521   1.271   2.177   2.298
 4208SOL     OW13522   2.054   3.502   4.364
 4208SOL    HW113523   1.956   3.481   4.359
 4208SOL    HW213524   2.077   3.530   4.457
 4209SOL     OW13525   6.821   6.498   2.229
 4209SOL    HW113526   6.810   6.595   2.206
 4209SOL    HW213527   6.906   6.464   2.190
 4210SOL     OW13528   4.060   3.832   4.577
 4210SOL    HW113529   4.033   3.896   4.505
 4210SOL    HW213530   4.078   3.883   4.661
 4211SOL     OW13531   4.248   2.432   5.542
 4211SOL    HW113532   4.304   2.509   5.572
 4211SOL    HW213533   4.152   2.456   5.551
 4212SOL     OW13534   0.139   2.429   3.479
 4212SOL    HW113535   0.210   2.369   3.443
 4212SOL    HW213536   0.077   2.376   3.538
 4213SOL     OW13537   3.347   1.069   3.803
 4213SOL    HW113538   3.252   1.099   3.814
 4213SOL    HW213539   3.362   1.041   3.708
 4214SOL     OW13540   0.033   6.007   3.628
 4214SOL    HW113541   0.033   6.021   3.529
 4214SOL    HW213542   0.126   5.989   3.659
 4215SOL     OW13543   4.545   6.801   5.547
 4215SOL    HW113544   4.614   6.729   5.556
 4215SOL    HW213545   4.521   6.812   5.450
 4216SOL     OW13546   2.670   5.706   1.976
 4216SOL    HW113547   2.620   5.772   1.921
 4216SOL    HW213548   2.757   5.746   2.006
 4217SOL     OW13549   0.650   0.470   2.619
 4217SOL    HW113550   0.711   0.540   2.579
 4217SOL    HW213551   0.697   0.425   2.695
 4218SOL     OW13552   2.935   1.404   1.274
 4218SOL    HW113553   2.847   1.404   1.321
 4218SOL    HW213554   3.002   1.455   1.328
 4219SOL     OW13555   4.739   5.549   3.083
 4219SOL    HW113556   4.693   5.596   3.158
 4219SOL    HW213557   4.671   5.509   3.022
 4220SOL     OW13558   5.442   1.797   1.987
 4220SOL    HW113559   5.533   1.786   2.027
 4220SOL    HW213560   5.451   1.820   1.890
 4221SOL     OW13561   0.582   6.139   0.118
 4221SOL    HW113562   0.539   6.053   0.090
 4221SOL    HW213563   0.551   6.163   0.210
 4222SOL     OW13564   4.822   3.078   4.333
 4222SOL    HW113565   4.841   3.160   4.280
 4222SOL    HW213566   4.872   3.083   4.420
 4223SOL     OW13567   4.182   3.357   1.955
 4223SOL    HW113568   4.132   3.426   2.007
 4223SOL    HW213569   4.253   3.401   1.901
 4224SOL     OW13570   4.899   3.632   4.630
 4224SOL    HW113571   4.893   3.553   4.570
 4224SOL    HW213572   4.921   3.603   4.723
 4225SOL     OW13573   0.283   2.056   5.429
 4225SOL    HW113574   0.200   2.112   5.437
 4225SOL    HW213575   0.347   2.082   5.501
 4226SOL     OW13576   1.286   5.838   4.858
 4226SOL    HW113577   1.377   5.876   4.875
 4226SOL    HW213578   1.259   5.783   4.937
 4227SOL     OW13579   5.356   5.384   2.313
 4227SOL    HW113580   5.262   5.356   2.330
 4227SOL    HW213581   5.418   5.334   2.373
 4228SOL     OW13582   1.870   5.432   3.812
 4228SOL    HW113583   1.865   5.372   3.892
 4228SOL    HW213584   1.834   5.384   3.732
 4229SOL     OW13585   6.660   4.564   5.367
 4229SOL    HW113586   6.632   4.478   5.408
 4229SOL    HW213587   6.579   4.618   5.344
 4230SOL     OW13588   0.558   0.906   2.186
 4230SOL    HW113589   0.595   0.989   2.228
 4230SOL    HW213590   0.494   0.932   2.113
 4231SOL     OW13591   5.861   1.425   5.636
 4231SOL    HW113592   5.942   1.382   5.596
 4231SOL    HW213593   5.889   1.493   5.703
 4232SOL     OW13594   1.853   5.956   3.825
 4232SOL    HW113595   1.828   5.903   3.907
 4232SOL    HW213596   1.917   5.904   3.770
 4233SOL     OW13597   4.534   5.231   3.449
 4233SOL    HW113598   4.579   5.143   3.463
 4233SOL    HW213599   4.436   5.217   3.433
 4234SOL     OW13600   2.936   5.580   6.138
 4234SOL    HW113601   2.924   5.607   6.043
 4234SOL    HW213602   3.010   5.514   6.145
 4235SOL     OW13603   0.270   5.968   5.535
 4235SOL    HW113604   0.328   6.012   5.603
 4235SOL    HW213605   0.212   5.900   5.579
 4236SOL     OW13606   0.132   5.447   2.634
 4236SOL    HW113607   0.205   5.512   2.610
 4236SOL    HW213608   0.168   5.354   2.629
 4237SOL     OW13609   6.892   4.856   3.734
 4237SOL    HW113610   6.819   4.923   3.741
 4237SOL    HW213611   6.913   4.819   3.825
 4238SOL     OW13612   2.614   6.725   2.877
 4238SOL    HW113613   2.701   6.678   2.892
 4238SOL    HW213614   2.604   6.748   2.780
 4239SOL     OW13615   4.369   1.092   3.768
 4239SOL    HW113616   4.347   1.109   3.672
 4239SOL    HW213617   4.333   1.166   3.824
 4240SOL     OW13618   6.968   6.578   1.655
 4240SOL    HW113619   0.002   6.557   1.578
 4240SOL    HW213620   6.975   6.675   1.677
 4241SOL     OW13621   6.345   3.218   0.565
 4241SOL    HW113622   6.426   3.273   0.587
 4241SOL    HW213623   6.340   3.140   0.627
 4242SOL     OW13624   2.343   1.925   3.445
 4242SOL    HW113625   2.350   1.825   3.451
 4242SOL    HW213626   2.411   1.967   3.506
 4243SOL     OW13627   4.766   0.331   2.976
 4243SOL    HW113628   4.854   0.282   2.969
 4243SOL    HW213629   4.693   0.272   2.942
 4244SOL     OW13630   3.589   3.308   2.557
 4244SOL    HW113631   3.633   3.382   2.506
 4244SOL    HW213632   3.582   3.227   2.498
 4245SOL     OW13633   6.514   2.094   6.592
 4245SOL    HW113634   6.583   2.027   6.621
 4245SOL    HW213635   6.471   2.062   6.507
 4246SOL     OW13636   1.061   3.457   1.357
 4246SOL    HW113637   1.017   3.546   1.363
 4246SOL    HW213638   1.029   3.398   1.431
 4247SOL     OW13639   0.243   5.647   4.700
 4247SOL    HW113640   0.177   5.698   4.645
 4247SOL    HW213641   0.198   5.569   4.742
 4248SOL     OW13642   1.600   2.954   5.366
 4248SOL    HW113643   1.527   2.930   5.301
 4248SOL    HW213644   1.603   3.054   5.375
 4249SOL     OW13645   5.526   3.867   5.847
 4249SOL    HW113646   5.569   3.777   5.850
 4249SOL    HW213647   5.589   3.933   5.805
 4250SOL     OW13648   0.342   4.507   3.060
 4250SOL    HW113649   0.315   4.600   3.087
 4250SOL    HW213650   0.424   4.512   3.003
 4251SOL     OW13651   5.861   4.163   0.500
 4251SOL    HW113652   5.850   4.200   0.408
 4251SOL    HW213653   5.841   4.235   0.567
 4252SOL     OW13654   0.614   5.636   5.492
 4252SOL    HW113655   0.658   5.716   5.533
 4252SOL    HW213656   0.535   5.609   5.547
 4253SOL     OW13657   4.440   6.808   2.177
 4253SOL    HW113658   4.418   6.770   2.267
 4253SOL    HW213659   4.385   6.762   2.107
 4254SOL     OW13660   2.652   4.386   1.159
 4254SOL    HW113661   2.749   4.370   1.176
 4254SOL    HW213662   2.604   4.399   1.246
 4255SOL     OW13663   0.373   2.088   4.566
 4255SOL    HW113664   0.444   2.158   4.573
 4255SOL    HW213665   0.286   2.131   4.542
 4256SOL     OW13666   1.928   0.213   1.801
 4256SOL    HW113667   1.973   0.281   1.745
 4256SOL    HW213668   1.831   0.236   1.811
 4257SOL     OW13669   3.846   1.942   4.359
 4257SOL    HW113670   3.851   1.843   4.372
 4257SOL    HW213671   3.811   1.985   4.442
 4258SOL     OW13672   5.091   6.592   2.359
 4258SOL    HW113673   5.150   6.575   2.280
 4258SOL    HW213674   5.133   6.661   2.418
 4259SOL     OW13675   2.308   2.569   0.527
 4259SOL    HW113676   2.302   2.491   0.589
 4259SOL    HW213677   2.347   2.647   0.576
 4260SOL     OW13678   4.982   5.320   3.842
 4260SOL    HW113679   5.012   5.315   3.747
 4260SOL    HW213680   5.047   5.274   3.901
 4261SOL     OW13681   1.606   6.873   2.043
 4261SOL    HW113682   1.653   6.793   2.005
 4261SOL    HW213683   1.583   6.937   1.970
 4262SOL     OW13684   0.527   5.045   6.586
 4262SOL    HW113685   0.499   5.130   6.543
 4262SOL    HW213686   0.578   5.064   6.670
 4263SOL     OW13687   3.192   4.994   5.397
 4263SOL    HW113688   3.203   4.944   5.311
 4263SOL    HW213689   3.253   5.073   5.398
 4264SOL     OW13690   7.000   0.759   0.935
 4264SOL    HW113691   6.924   0.731   0.994
 4264SOL    HW213692   0.017   0.678   0.896
 4265SOL     OW13693   6.928   1.550   1.024
 4265SOL    HW113694   6.936   1.530   1.122
 4265SOL    HW213695   6.864   1.485   0.982
 4266SOL     OW13696   2.379   5.246   0.903
 4266SOL    HW113697   2.428   5.300   0.972
 4266SOL    HW213698   2.446   5.204   0.841
 4267SOL     OW13699   1.779   3.961   4.791
 4267SOL    HW113700   1.834   3.948   4.874
 4267SOL    HW213701   1.799   3.887   4.726
 4268SOL     OW13702   2.065   0.779   0.607
 4268SOL    HW113703   1.981   0.726   0.599
 4268SOL    HW213704   2.056   0.864   0.554
 4269SOL     OW13705   3.441   3.001   0.277
 4269SOL    HW113706   3.487   3.060   0.211
 4269SOL    HW213707   3.344   2.994   0.254
 4270SOL     OW13708   3.432   2.909   5.147
 4270SOL    HW113709   3.488   2.894   5.065
 4270SOL    HW213710   3.437   3.005   5.173
 4271SOL     OW13711   0.762   6.975   6.604
 4271SOL    HW113712   0.779   6.912   6.680
 4271SOL    HW213713   0.670   6.959   6.568
 4272SOL     OW13714   6.991   4.915   4.535
 4272SOL    HW113715   6.893   4.923   4.553
 4272SOL    HW213716   0.001   4.835   4.582
 4273SOL     OW13717   5.491   6.549   5.733
 4273SOL    HW113718   5.525   6.643   5.740
 4273SOL    HW213719   5.530   6.506   5.651
 4274SOL     OW13720   1.574   6.802   3.980
 4274SOL    HW113721   1.517   6.881   3.955
 4274SOL    HW213722   1.608   6.758   3.897
 4275SOL     OW13723   0.685   6.941   6.074
 4275SOL    HW113724   0.605   6.993   6.047
 4275SOL    HW213725   0.659   6.874   6.144
 4276SOL     OW13726   2.264   4.156   2.263
 4276SOL    HW113727   2.215   4.069   2.257
 4276SOL    HW213728   2.284   4.189   2.170
 4277SOL     OW13729   6.891   5.707   3.597
 4277SOL    HW113730   6.989   5.720   3.580
 4277SOL    HW213731   6.859   5.626   3.549
 4278SOL     OW13732   6.552   0.289   5.437
 4278SOL    HW113733   6.532   0.327   5.527
 4278SOL    HW213734   6.649   0.303   5.417
 4279SOL     OW13735   3.337   6.664   5.290
 4279SOL    HW113736   3.246   6.624   5.279
 4279SOL    HW213737   3.403   6.592   5.309
 4280SOL     OW13738   5.110   2.517   4.069
 4280SOL    HW113739   5.198   2.471   4.070
 4280SOL    HW213740   5.094   2.559   4.158
 4281SOL     OW13741   2.393   4.338   5.117
 4281SOL    HW113742   2.369   4.267   5.051
 4281SOL    HW213743   2.450   4.407   5.073
 4282SOL     OW13744   1.760   2.405   1.381
 4282SOL    HW113745   1.702   2.482   1.355
 4282SOL    HW213746   1.840   2.439   1.432
 4283SOL     OW13747   1.686   0.459   4.107
 4283SOL    HW113748   1.768   0.502   4.145
 4283SOL    HW213749   1.617   0.449   4.179
 4284SOL     OW13750   5.906   2.068   2.637
 4284SOL    HW113751   5.980   2.043   2.575
 4284SOL    HW213752   5.822   2.083   2.585
 4285SOL     OW13753   1.214   6.732   5.933
 4285SOL    HW113754   1.129   6.784   5.939
 4285SOL    HW213755   1.204   6.648   5.987
 4286SOL     OW13756   5.095   5.636   0.379
 4286SOL    HW113757   5.046   5.645   0.466
 4286SOL    HW213758   5.131   5.726   0.352
 4287SOL     OW13759   5.312   6.516   4.546
 4287SOL    HW113760   5.234   6.472   4.501
 4287SOL    HW213761   5.396   6.489   4.499
 4288SOL     OW13762   1.288   6.480   3.118
 4288SOL    HW113763   1.264   6.542   3.192
 4288SOL    HW213764   1.384   6.453   3.128
 4289SOL     OW13765   5.473   2.738   1.480
 4289SOL    HW113766   5.483   2.720   1.382
 4289SOL    HW213767   5.550   2.792   1.512
 4290SOL     OW13768   2.415   0.988   1.859
 4290SOL    HW113769   2.426   0.898   1.817
 4290SOL    HW213770   2.501   1.017   1.900
 4291SOL     OW13771   6.540   3.888   0.889
 4291SOL    HW113772   6.599   3.967   0.875
 4291SOL    HW213773   6.467   3.912   0.953
 4292SOL     OW13774   5.780   5.144   6.651
 4292SOL    HW113775   5.685   5.114   6.659
 4292SOL    HW213776   5.794   5.226   6.707
 4293SOL     OW13777   6.973   2.759   6.905
 4293SOL    HW113778   0.031   2.788   6.951
 4293SOL    HW213779   6.993   2.680   6.846
 4294SOL     OW13780   4.256   2.081   5.917
 4294SOL    HW113781   4.231   2.071   5.821
 4294SOL    HW213782   4.311   2.002   5.945
 4295SOL     OW13783   3.589   0.398   4.256
 4295SOL    HW113784   3.667   0.439   4.305
 4295SOL    HW213785   3.522   0.470   4.236
 4296SOL     OW13786   2.549   1.647   1.157
 4296SOL    HW113787   2.518   1.670   1.065
 4296SOL    HW213788   2.480   1.676   1.223
 4297SOL     OW13789   5.479   0.801   5.560
 4297SOL    HW113790   5.506   0.830   5.652
 4297SOL    HW213791   5.550   0.742   5.521
 4298SOL     OW13792   2.531   6.065   1.259
 4298SOL    HW113793   2.534   5.980   1.312
 4298SOL    HW213794   2.538   6.044   1.162
 4299SOL     OW13795   0.836   3.576   6.607
 4299SOL    HW113796   0.848   3.590   6.705
 4299SOL    HW213797   0.902   3.631   6.556
 4300SOL     OW13798   4.705   0.972   6.557
 4300SOL    HW113799   4.800   0.982   6.588
 4300SOL    HW213800   4.695   1.016   6.468
 4301SOL     OW13801   2.741   1.691   0.730
 4301SOL    HW113802   2.722   1.609   0.785
 4301SOL    HW213803   2.661   1.712   0.674
 4302SOL     OW13804   1.114   6.626   0.005
 4302SOL    HW113805   1.038   6.572   6.995
 4302SOL    HW213806   1.187   6.631   6.963
 4303SOL     OW13807   0.293   3.337   1.985
 4303SOL    HW113808   0.250   3.262   1.935
 4303SOL    HW213809   0.293   3.316   2.083
 4304SOL     OW13810   3.067   3.772   4.391
 4304SOL    HW113811   3.146   3.834   4.397
 4304SOL    HW213812   3.031   3.755   4.483
 4305SOL     OW13813   6.181   1.416   3.366
 4305SOL    HW113814   6.188   1.374   3.457
 4305SOL    HW213815   6.174   1.515   3.376
 4306SOL     OW13816   6.988   5.115   5.555
 4306SOL    HW113817   6.940   5.199   5.529
 4306SOL    HW213818   0.060   5.127   5.540
 4307SOL     OW13819   5.264   4.090   6.324
 4307SOL    HW113820   5.256   4.086   6.224
 4307SOL    HW213821   5.350   4.134   6.349
 4308SOL     OW13822   5.063   6.137   4.518
 4308SOL    HW113823   5.129   6.061   4.523
 4308SOL    HW213824   4.972   6.101   4.500
 4309SOL     OW13825   1.408   1.328   0.621
 4309SOL    HW113826   1.480   1.351   0.687
 4309SOL    HW213827   1.366   1.240   0.646
 4310SOL     OW13828   1.927   1.729   2.896
 4310SOL    HW113829   1.962   1.822   2.883
 4310SOL    HW213830   1.868   1.726   2.976
 4311SOL     OW13831   2.155   6.162   3.378
 4311SOL    HW113832   2.171   6.229   3.451
 4311SOL    HW213833   2.166   6.208   3.290
 4312SOL     OW13834   1.989   5.164   2.128
 4312SOL    HW113835   2.077   5.212   2.131
 4312SOL    HW213836   1.927   5.215   2.068
 4313SOL     OW13837   5.156   0.886   2.317
 4313SOL    HW113838   5.095   0.873   2.238
 4313SOL    HW213839   5.130   0.823   2.390
 4314SOL     OW13840   4.964   3.155   2.696
 4314SOL    HW113841   4.972   3.060   2.666
 4314SOL    HW213842   4.926   3.158   2.789
 4315SOL     OW13843   2.445   0.522   2.062
 4315SOL    HW113844   2.386   0.477   2.129
 4315SOL    HW213845   2.540   0.500   2.082
 4316SOL     OW13846   6.130   0.414   2.057
 4316SOL    HW113847   6.105   0.339   1.995
 4316SOL    HW213848   6.125   0.501   2.007
 4317SOL     OW13849   3.668   1.133   3.825
 4317SOL    HW113850   3.680   1.080   3.741
 4317SOL    HW213851   3.637   1.073   3.898
 4318SOL     OW13852   0.169   3.175   3.864
 4318SOL    HW113853   0.155   3.271   3.889
 4318SOL    HW213854   0.114   3.153   3.784
 4319SOL     OW13855   2.450   3.490   6.614
 4319SOL    HW113856   2.410   3.576   6.647
 4319SOL    HW213857   2.396   3.455   6.537
 4320SOL     OW13858   0.212   6.282   2.780
 4320SOL    HW113859   0.178   6.197   2.819
 4320SOL    HW213860   0.134   6.336   2.746
 4321SOL     OW13861   6.832   0.344   5.331
 4321SOL    HW113862   6.862   0.259   5.288
 4321SOL    HW213863   6.910   0.388   5.376
 4322SOL     OW13864   6.098   1.192   0.443
 4322SOL    HW113865   6.091   1.182   0.543
 4322SOL    HW213866   6.112   1.102   0.401
 4323SOL     OW13867   6.444   3.244   3.087
 4323SOL    HW113868   6.395   3.250   3.174
 4323SOL    HW213869   6.538   3.273   3.100
 4324SOL     OW13870   5.780   4.149   6.146
 4324SOL    HW113871   5.730   4.073   6.105
 4324SOL    HW213872   5.717   4.206   6.199
 4325SOL     OW13873   1.860   1.463   6.734
 4325SOL    HW113874   1.791   1.534   6.742
 4325SOL    HW213875   1.821   1.375   6.759
 4326SOL     OW13876   6.061   2.591   5.090
 4326SOL    HW113877   6.046   2.636   5.002
 4326SOL    HW213878   6.097   2.499   5.074
 4327SOL     OW13879   6.201   6.462   2.732
 4327SOL    HW113880   6.135   6.505   2.794
 4327SOL    HW213881   6.174   6.478   2.638
 4328SOL     OW13882   5.451   5.108   0.137
 4328SOL    HW113883   5.383   5.076   0.071
 4328SOL    HW213884   5.415   5.188   0.186
 4329SOL     OW13885   4.195   2.002   5.647
 4329SOL    HW113886   4.254   2.083   5.641
 4329SOL    HW213887   4.146   1.989   5.561
 4330SOL     OW13888   1.056   0.447   5.896
 4330SOL    HW113889   0.980   0.405   5.845
 4330SOL    HW213890   1.086   0.384   5.968
 4331SOL     OW13891   6.155   2.462   6.682
 4331SOL    HW113892   6.187   2.420   6.597
 4331SOL    HW213893   6.180   2.558   6.684
 4332SOL     OW13894   4.988   2.931   2.038
 4332SOL    HW113895   4.988   2.840   2.079
 4332SOL    HW213896   4.895   2.968   2.040
 4333SOL     OW13897   5.384   0.592   4.804
 4333SOL    HW113898   5.358   0.688   4.817
 4333SOL    HW213899   5.420   0.580   4.711
 4334SOL     OW13900   4.309   1.622   2.146
 4334SOL    HW113901   4.307   1.563   2.227
 4334SOL    HW213902   4.225   1.676   2.141
 4335SOL     OW13903   3.533   4.123   5.002
 4335SOL    HW113904   3.451   4.136   4.946
 4335SOL    HW213905   3.569   4.031   4.987
 4336SOL     OW13906   1.170   6.462   4.505
 4336SOL    HW113907   1.220   6.453   4.418
 4336SOL    HW213908   1.224   6.517   4.569
 4337SOL     OW13909   6.883   5.530   0.909
 4337SOL    HW113910   6.836   5.612   0.940
 4337SOL    HW213911   6.908   5.540   0.813
 4338SOL     OW13912   6.525   6.197   4.060
 4338SOL    HW113913   6.512   6.176   4.157
 4338SOL    HW213914   6.443   6.171   4.009
 4339SOL     OW13915   6.097   1.314   5.495
 4339SOL    HW113916   6.093   1.329   5.396
 4339SOL    HW213917   6.192   1.322   5.526
 4340SOL     OW13918   5.396   3.734   1.687
 4340SOL    HW113919   5.353   3.653   1.647
 4340SOL    HW213920   5.357   3.816   1.646
 4341SOL     OW13921   1.364   4.508   1.221
 4341SOL    HW113922   1.348   4.593   1.171
 4341SOL    HW213923   1.277   4.472   1.254
 4342SOL     OW13924   0.963   3.210   3.013
 4342SOL    HW113925   0.917   3.133   3.057
 4342SOL    HW213926   0.947   3.293   3.066
 4343SOL     OW13927   2.476   1.307   1.471
 4343SOL    HW113928   2.575   1.295   1.472
 4343SOL    HW213929   2.435   1.251   1.543
 4344SOL     OW13930   1.889   5.009   3.039
 4344SOL    HW113931   1.819   5.008   3.111
 4344SOL    HW213932   1.845   5.030   2.952
 4345SOL     OW13933   1.332   2.316   5.540
 4345SOL    HW113934   1.333   2.380   5.617
 4345SOL    HW213935   1.271   2.240   5.560
 4346SOL     OW13936   1.966   3.364   1.938
 4346SOL    HW113937   2.051   3.408   1.967
 4346SOL    HW213938   1.912   3.429   1.884
 4347SOL     OW13939   5.603   6.537   2.936
 4347SOL    HW113940   5.503   6.527   2.936
 4347SOL    HW213941   5.643   6.470   2.873
 4348SOL     OW13942   1.953   4.187   6.851
 4348SOL    HW113943   2.041   4.163   6.809
 4348SOL    HW213944   1.900   4.242   6.787
 4349SOL     OW13945   0.202   1.373   3.410
 4349SOL    HW113946   0.138   1.308   3.369
 4349SOL    HW213947   0.214   1.351   3.507
 4350SOL     OW13948   5.050   2.025   3.681
 4350SOL    HW113949   4.974   2.090   3.678
 4350SOL    HW213950   5.100   2.036   3.767
 4351SOL     OW13951   2.732   5.979   1.792
 4351SOL    HW113952   2.792   5.927   1.732
 4351SOL    HW213953   2.765   5.972   1.887
 4352SOL     OW13954   6.408   0.994   2.320
 4352SOL    HW113955   6.479   1.024   2.257
 4352SOL    HW213956   6.439   1.005   2.414
 4353SOL     OW13957   3.516   5.670   6.284
 4353SOL    HW113958   3.575   5.736   6.238
 4353SOL    HW213959   3.487   5.706   6.372
 4354SOL     OW13960   2.360   0.277   0.593
 4354SOL    HW113961   2.383   0.253   0.499
 4354SOL    HW213962   2.334   0.195   0.644
 4355SOL     OW13963   4.740   1.114   0.400
 4355SOL    HW113964   4.678   1.192   0.407
 4355SOL    HW213965   4.687   1.029   0.406
 4356SOL     OW13966   4.319   4.112   0.808
 4356SOL    HW113967   4.258   4.071   0.741
 4356SOL    HW213968   4.266   4.145   0.886
 4357SOL     OW13969   5.997   0.249   6.963
 4357SOL    HW113970   6.074   0.260   6.900
 4357SOL    HW213971   6.032   0.243   0.031
 4358SOL     OW13972   0.755   6.581   1.634
 4358SOL    HW113973   0.727   6.535   1.549
 4358SOL    HW213974   0.815   6.521   1.686
 4359SOL     OW13975   6.967   2.330   4.034
 4359SOL    HW113976   6.891   2.267   4.049
 4359SOL    HW213977   6.940   2.400   3.968
 4360SOL     OW13978   1.160   3.373   1.106
 4360SOL    HW113979   1.113   3.298   1.059
 4360SOL    HW213980   1.124   3.381   1.199
 4361SOL     OW13981   4.966   2.486   2.203
 4361SOL    HW113982   5.014   2.573   2.189
 4361SOL    HW213983   5.011   2.414   2.149
 4362SOL     OW13984   6.382   4.033   4.624
 4362SOL    HW113985   6.442   4.102   4.581
 4362SOL    HW213986   6.318   4.079   4.685
 4363SOL     OW13987   4.996   2.250   5.947
 4363SOL    HW113988   4.964   2.158   5.922
 4363SOL    HW213989   5.094   2.247   5.966
 4364SOL     OW13990   3.135   4.058   4.665
 4364SOL    HW113991   3.165   4.002   4.588
 4364SOL    HW213992   3.097   4.144   4.631
 4365SOL     OW13993   3.686   2.103   2.730
 4365SOL    HW113994   3.589   2.091   2.707
 4365SOL    HW213995   3.739   2.117   2.647
 4366SOL     OW13996   5.963   5.562   0.994
 4366SOL    HW113997   5.939   5.519   0.907
 4366SOL    HW213998   5.883   5.610   1.030
 4367SOL     OW13999   1.417   6.259   6.169
 4367SOL    HW114000   1.364   6.324   6.115
 4367SOL    HW214001   1.427   6.174   6.119
 4368SOL     OW14002   5.712   3.902   1.949
 4368SOL    HW114003   5.746   3.910   2.043
 4368SOL    HW214004   5.642   3.971   1.933
 4369SOL     OW14005   4.228   5.423   2.207
 4369SOL    HW114006   4.174   5.339   2.214
 4369SOL    HW214007   4.308   5.407   2.150
 4370SOL     OW14008   5.605   4.938   3.541
 4370SOL    HW114009   5.671   4.864   3.558
 4370SOL    HW214010   5.569   4.971   3.628
 4371SOL     OW14011   6.323   1.992   1.949
 4371SOL    HW114012   6.258   1.937   2.003
 4371SOL    HW214013   6.287   2.005   1.857
 4372SOL     OW14014   4.139   1.121   3.171
 4372SOL    HW114015   4.193   1.068   3.105
 4372SOL    HW214016   4.111   1.062   3.246
 4373SOL     OW14017   6.853   1.761   6.563
 4373SOL    HW114018   6.795   1.801   6.635
 4373SOL    HW214019   6.835   1.807   6.476
 4374SOL     OW14020   1.946   2.587   1.458
 4374SOL    HW114021   1.946   2.586   1.558
 4374SOL    HW214022   2.007   2.659   1.425
 4375SOL     OW14023   2.753   6.647   4.631
 4375SOL    HW114024   2.795   6.560   4.658
 4375SOL    HW214025   2.674   6.629   4.573
 4376SOL     OW14026   5.565   0.866   2.856
 4376SOL    HW114027   5.568   0.892   2.759
 4376SOL    HW214028   5.657   0.843   2.886
 4377SOL     OW14029   5.794   4.411   6.437
 4377SOL    HW114030   5.747   4.437   6.522
 4377SOL    HW214031   5.892   4.422   6.449
 4378SOL     OW14032   1.871   0.376   3.928
 4378SOL    HW114033   1.820   0.372   4.014
 4378SOL    HW214034   1.955   0.323   3.936
 4379SOL     OW14035   2.719   2.112   5.184
 4379SOL    HW114036   2.678   2.029   5.146
 4379SOL    HW214037   2.741   2.176   5.109
 4380SOL     OW14038   0.373   1.131   1.757
 4380SOL    HW114039   0.458   1.108   1.804
 4380SOL    HW214040   0.302   1.151   1.824
 4381SOL     OW14041   2.375   6.591   5.887
 4381SOL    HW114042   2.321   6.638   5.817
 4381SOL    HW214043   2.384   6.495   5.863
 4382SOL     OW14044   6.847   3.731   5.597
 4382SOL    HW114045   6.946   3.714   5.590
 4382SOL    HW214046   6.798   3.645   5.582
 4383SOL     OW14047   5.582   2.866   0.003
 4383SOL    HW114048   5.543   2.800   6.965
 4383SOL    HW214049   5.563   2.835   0.097
 4384SOL     OW14050   6.189   6.442   3.967
 4384SOL    HW114051   6.092   6.434   3.942
 4384SOL    HW214052   6.244   6.456   3.884
 4385SOL     OW14053   5.735   1.610   4.466
 4385SOL    HW114054   5.811   1.565   4.418
 4385SOL    HW214055   5.665   1.637   4.399
 4386SOL     OW14056   1.005   3.173   5.334
 4386SOL    HW114057   1.086   3.122   5.304
 4386SOL    HW214058   1.033   3.265   5.362
 4387SOL     OW14059   6.605   1.829   0.384
 4387SOL    HW114060   6.676   1.886   0.425
 4387SOL    HW214061   6.563   1.877   0.307
 4388SOL     OW14062   5.183   2.178   6.521
 4388SOL    HW114063   5.177   2.256   6.584
 4388SOL    HW214064   5.138   2.099   6.563
 4389SOL     OW14065   1.049   3.586   1.862
 4389SOL    HW114066   0.962   3.540   1.850
 4389SOL    HW214067   1.092   3.601   1.773
 4390SOL     OW14068   6.652   0.885   1.971
 4390SOL    HW114069   6.688   0.797   2.002
 4390SOL    HW214070   6.556   0.874   1.947
 4391SOL     OW14071   2.206   6.263   6.705
 4391SOL    HW114072   2.183   6.357   6.734
 4391SOL    HW214073   2.185   6.252   6.608
 4392SOL     OW14074   2.084   2.448   5.101
 4392SOL    HW114075   1.992   2.419   5.128
 4392SOL    HW214076   2.100   2.542   5.131
 4393SOL     OW14077   4.954   0.736   1.689
 4393SOL    HW114078   4.957   0.817   1.747
 4393SOL    HW214079   4.863   0.695   1.694
 4394SOL     OW14080   1.200   0.313   1.483
 4394SOL    HW114081   1.141   0.265   1.548
 4394SOL    HW214082   1.153   0.321   1.395
 4395SOL     OW14083   2.775   5.523   0.918
 4395SOL    HW114084   2.808   5.602   0.867
 4395SOL    HW214085   2.691   5.488   0.876
 4396SOL     OW14086   2.464   0.008   3.249
 4396SOL    HW114087   2.476   6.939   3.275
 4396SOL    HW214088   2.534   0.033   3.183
 4397SOL     OW14089   2.875   1.922   4.505
 4397SOL    HW114090   2.812   1.856   4.546
 4397SOL    HW214091   2.863   1.920   4.405
 4398SOL     OW14092   2.018   2.847   5.596
 4398SOL    HW114093   2.086   2.918   5.578
 4398SOL    HW214094   2.000   2.796   5.511
 4399SOL     OW14095   2.950   0.228   2.364
 4399SOL    HW114096   2.976   0.175   2.284
 4399SOL    HW214097   3.023   0.225   2.432
 4400SOL     OW14098   1.818   5.372   4.671
 4400SOL    HW114099   1.853   5.286   4.707
 4400SOL    HW214100   1.745   5.353   4.604
 4401SOL     OW14101   3.498   0.324   6.205
 4401SOL    HW114102   3.551   0.263   6.146
 4401SOL    HW214103   3.406   0.286   6.218
 4402SOL     OW14104   1.624   0.298   3.212
 4402SOL    HW114105   1.550   0.247   3.256
 4402SOL    HW214106   1.592   0.333   3.124
 4403SOL     OW14107   1.440   4.972   1.372
 4403SOL    HW114108   1.425   5.069   1.353
 4403SOL    HW214109   1.532   4.959   1.410
 4404SOL     OW14110   0.582   6.755   6.272
 4404SOL    HW114111   0.487   6.747   6.244
 4404SOL    HW214112   0.592   6.725   6.367
 4405SOL     OW14113   1.838   5.294   3.553
 4405SOL    HW114114   1.776   5.230   3.599
 4405SOL    HW214115   1.925   5.249   3.537
 4406SOL     OW14116   6.438   3.675   1.804
 4406SOL    HW114117   6.384   3.643   1.881
 4406SOL    HW214118   6.485   3.760   1.829
 4407SOL     OW14119   6.112   6.377   1.956
 4407SOL    HW114120   6.047   6.447   1.928
 4407SOL    HW214121   6.205   6.408   1.938
 4408SOL     OW14122   3.948   0.676   0.584
 4408SOL    HW114123   3.848   0.671   0.596
 4408SOL    HW214124   3.969   0.722   0.498
 4409SOL     OW14125   3.253   0.539   3.147
 4409SOL    HW114126   3.222   0.634   3.144
 4409SOL    HW214127   3.325   0.525   3.078
 4410SOL     OW14128   1.292   6.356   1.390
 4410SOL    HW114129   1.358   6.315   1.327
 4410SOL    HW214130   1.301   6.455   1.388
 4411SOL     OW14131   3.197   4.461   5.506
 4411SOL    HW114132   3.140   4.383   5.477
 4411SOL    HW214133   3.251   4.435   5.585
 4412SOL     OW14134   5.171   6.386   2.576
 4412SOL    HW114135   5.146   6.478   2.549
 4412SOL    HW214136   5.259   6.388   2.624
 4413SOL     OW14137   4.339   6.100   3.937
 4413SOL    HW114138   4.414   6.148   3.981
 4413SOL    HW214139   4.368   6.069   3.847
 4414SOL     OW14140   4.543   4.273   1.310
 4414SOL    HW114141   4.587   4.316   1.232
 4414SOL    HW214142   4.609   4.216   1.358
 4415SOL     OW14143   3.085   3.341   1.174
 4415SOL    HW114144   3.079   3.314   1.270
 4415SOL    HW214145   3.136   3.426   1.166
 4416SOL     OW14146   4.415   2.336   3.068
 4416SOL    HW114147   4.411   2.434   3.087
 4416SOL    HW214148   4.445   2.321   2.974
 4417SOL     OW14149   0.065   3.772   3.760
 4417SOL    HW114150   0.024   3.857   3.793
 4417SOL    HW214151   0.034   3.755   3.666
 4418SOL     OW14152   5.928   6.719   6.320
 4418SOL    HW114153   5.954   6.766   6.405
 4418SOL    HW214154   5.984   6.637   6.309
 4419SOL     OW14155   6.466   5.733   6.474
 4419SOL    HW114156   6.455   5.672   6.553
 4419SOL    HW214157   6.430   5.687   6.392
 4420SOL     OW14158   3.678   2.049   0.854
 4420SOL    HW114159   3.621   2.065   0.934
 4420SOL    HW214160   3.620   2.038   0.773
 4421SOL     OW14161   1.354   2.462   5.292
 4421SOL    HW114162   1.345   2.409   5.376
 4421SOL    HW214163   1.450   2.460   5.262
 4422SOL     OW14164   6.890   4.454   6.659
 4422SOL    HW114165   6.989   4.449   6.646
 4422SOL    HW214166   6.845   4.420   6.576
 4423SOL     OW14167   5.561   4.186   5.006
 4423SOL    HW114168   5.607   4.183   4.918
 4423SOL    HW214169   5.556   4.094   5.045
 4424SOL     OW14170   5.121   5.661   3.412
 4424SOL    HW114171   5.048   5.632   3.474
 4424SOL    HW214172   5.207   5.666   3.461
 4425SOL     OW14173   1.888   5.310   1.528
 4425SOL    HW114174   1.816   5.251   1.492
 4425SOL    HW214175   1.880   5.401   1.487
 4426SOL     OW14176   0.769   6.957   4.472
 4426SOL    HW114177   0.682   6.908   4.483
 4426SOL    HW214178   0.820   6.952   4.558
 4427SOL     OW14179   2.926   6.188   2.542
 4427SOL    HW114180   3.008   6.168   2.596
 4427SOL    HW214181   2.919   6.287   2.527
 4428SOL     OW14182   5.370   0.166   3.609
 4428SOL    HW114183   5.301   0.185   3.540
 4428SOL    HW214184   5.396   0.069   3.605
 4429SOL     OW14185   2.541   6.040   3.180
 4429SOL    HW114186   2.478   6.075   3.248
 4429SOL    HW214187   2.631   6.026   3.221
 4430SOL     OW14188   5.135   4.502   5.329
 4430SOL    HW114189   5.055   4.467   5.281
 4430SOL    HW214190   5.218   4.466   5.286
 4431SOL     OW14191   3.531   6.718   3.753
 4431SOL    HW114192   3.444   6.730   3.706
 4431SOL    HW214193   3.526   6.759   3.844
 4432SOL     OW14194   1.010   3.582   5.998
 4432SOL    HW114195   0.923   3.617   5.964
 4432SOL    HW214196   1.055   3.653   6.053
 4433SOL     OW14197   0.458   0.679   5.332
 4433SOL    HW114198   0.513   0.749   5.376
 4433SOL    HW214199   0.456   0.695   5.233
 4434SOL     OW14200   0.100   0.387   2.483
 4434SOL    HW114201   0.158   0.466   2.503
 4434SOL    HW214202   0.054   0.358   2.567
 4435SOL     OW14203   1.984   3.372   0.328
 4435SOL    HW114204   2.005   3.292   0.272
 4435SOL    HW214205   2.067   3.401   0.376
 4436SOL     OW14206   4.238   1.820   1.848
 4436SOL    HW114207   4.324   1.770   1.843
 4436SOL    HW214208   4.176   1.776   1.913
 4437SOL     OW14209   0.190   3.972   0.741
 4437SOL    HW114210   0.096   3.945   0.762
 4437SOL    HW214211   0.213   3.945   0.648
 4438SOL     OW14212   3.694   0.964   5.695
 4438SOL    HW114213   3.605   0.926   5.668
 4438SOL    HW214214   3.735   1.012   5.617
 4439SOL     OW14215   2.510   6.451   2.815
 4439SOL    HW114216   2.593   6.394   2.814
 4439SOL    HW214217   2.536   6.547   2.824
 4440SOL     OW14218   1.444   4.965   0.185
 4440SOL    HW114219   1.468   5.032   0.114
 4440SOL    HW214220   1.496   4.985   0.268
 4441SOL     OW14221   7.013   0.957   0.562
 4441SOL    HW114222   0.026   0.977   0.651
 4441SOL    HW214223   7.011   1.040   0.507
 4442SOL     OW14224   1.743   4.635   6.468
 4442SOL    HW114225   1.689   4.717   6.446
 4442SOL    HW214226   1.689   4.553   6.450
 4443SOL     OW14227   0.464   5.738   5.894
 4443SOL    HW114228   0.498   5.769   5.982
 4443SOL    HW214229   0.369   5.708   5.903
 4444SOL     OW14230   5.719   4.425   6.915
 4444SOL    HW114231   5.816   4.420   6.939
 4444SOL    HW214232   5.673   4.342   6.944
 4445SOL     OW14233   0.063   5.402   6.985
 4445SOL    HW114234   0.119   5.415   6.903
 4445SOL    HW214235   0.023   5.490   7.011
 4446SOL     OW14236   5.353   0.479   1.096
 4446SOL    HW114237   5.399   0.509   1.180
 4446SOL    HW214238   5.417   0.484   1.019
 4447SOL     OW14239   5.029   5.549   5.475
 4447SOL    HW114240   5.064   5.624   5.418
 4447SOL    HW214241   4.933   5.532   5.453
 4448SOL     OW14242   3.770   6.186   2.000
 4448SOL    HW114243   3.804   6.166   2.092
 4448SOL    HW214244   3.725   6.275   2.000
 4449SOL     OW14245   3.419   1.516   5.496
 4449SOL    HW114246   3.455   1.441   5.440
 4449SOL    HW214247   3.402   1.484   5.589
 4450SOL     OW14248   3.322   6.962   0.191
 4450SOL    HW114249   3.360   0.028   0.196
 4450SOL    HW214250   3.361   6.905   0.263
 4451SOL     OW14251   5.391   4.471   2.818
 4451SOL    HW114252   5.428   4.520   2.897
 4451SOL    HW214253   5.297   4.442   2.838
 4452SOL     OW14254   4.762   6.175   4.754
 4452SOL    HW114255   4.815   6.157   4.671
 4452SOL    HW214256   4.672   6.133   4.746
 4453SOL     OW14257   6.883   3.936   0.661
 4453SOL    HW114258   6.924   3.884   0.737
 4453SOL    HW214259   6.814   3.880   0.616
 4454SOL     OW14260   0.959   2.287   6.747
 4454SOL    HW114261   0.939   2.190   6.739
 4454SOL    HW214262   0.937   2.333   6.661
 4455SOL     OW14263   0.493   6.692   5.402
 4455SOL    HW114264   0.558   6.616   5.411
 4455SOL    HW214265   0.416   6.678   5.465
 4456SOL     OW14266   2.017   0.353   4.850
 4456SOL    HW114267   2.084   0.287   4.884
 4456SOL    HW214268   2.061   0.414   4.785
 4457SOL     OW14269   1.292   2.846   4.932
 4457SOL    HW114270   1.356   2.776   4.901
 4457SOL    HW214271   1.203   2.804   4.949
 4458SOL     OW14272   1.921   3.861   6.614
 4458SOL    HW114273   1.864   3.887   6.692
 4458SOL    HW214274   1.979   3.785   6.640
 4459SOL     OW14275   1.312   2.943   2.874
 4459SOL    HW114276   1.376   2.988   2.937
 4459SOL    HW214277   1.338   2.847   2.862
 4460SOL     OW14278   6.671   3.469   4.416
 4460SOL    HW114279   6.718   3.544   4.370
 4460SOL    HW214280   6.641   3.498   4.507
 4461SOL     OW14281   2.583   0.924   1.218
 4461SOL    HW114282   2.485   0.908   1.219
 4461SOL    HW214283   2.621   0.904   1.309
 4462SOL     OW14284   6.458   4.805   3.159
 4462SOL    HW114285   6.519   4.752   3.100
 4462SOL    HW214286   6.392   4.744   3.203
 4463SOL     OW14287   6.291   1.624   0.792
 4463SOL    HW114288   6.205   1.628   0.842
 4463SOL    HW214289   6.316   1.528   0.777
 4464SOL     OW14290   0.538   5.195   0.607
 4464SOL    HW114291   0.554   5.239   0.695
 4464SOL    HW214292   0.618   5.142   0.580
 4465SOL     OW14293   3.089   5.705   1.038
 4465SOL    HW114294   3.164   5.679   0.978
 4465SOL    HW214295   3.056   5.624   1.087
 4466SOL     OW14296   1.479   2.636   3.255
 4466SOL    HW114297   1.546   2.615   3.327
 4466SOL    HW214298   1.457   2.552   3.205
 4467SOL     OW14299   4.652   5.947   2.944
 4467SOL    HW114300   4.639   6.037   2.902
 4467SOL    HW214301   4.685   5.958   3.037
 4468SOL     OW14302   1.686   2.772   1.430
 4468SOL    HW114303   1.640   2.833   1.494
 4468SOL    HW214304   1.783   2.795   1.426
 4469SOL     OW14305   2.870   6.049   1.225
 4469SOL    HW114306   2.829   6.130   1.267
 4469SOL    HW214307   2.852   6.049   1.127
 4470SOL     OW14308   1.804   0.034   2.827
 4470SOL    HW114309   1.897   0.014   2.796
 4470SOL    HW214310   1.743   0.038   2.748
 4471SOL     OW14311   0.988   1.050   6.231
 4471SOL    HW114312   1.030   1.016   6.315
 4471SOL    HW214313   1.055   1.104   6.180
 4472SOL     OW14314   1.456   2.279   1.007
 4472SOL    HW114315   1.528   2.268   1.075
 4472SOL    HW214316   1.410   2.367   1.020
 4473SOL     OW14317   0.260   3.208   4.568
 4473SOL    HW114318   0.210   3.134   4.525
 4473SOL    HW214319   0.358   3.191   4.559
 4474SOL     OW14320   3.078   5.777   0.605
 4474SOL    HW114321   3.038   5.749   0.518
 4474SOL    HW214322   3.141   5.707   0.637
 4475SOL     OW14323   1.263   4.131   1.184
 4475SOL    HW114324   1.257   4.192   1.263
 4475SOL    HW214325   1.359   4.121   1.157
 4476SOL     OW14326   4.931   1.345   3.896
 4476SOL    HW114327   5.009   1.295   3.858
 4476SOL    HW214328   4.865   1.364   3.823
 4477SOL     OW14329   1.660   0.919   5.259
 4477SOL    HW114330   1.615   0.834   5.231
 4477SOL    HW214331   1.591   0.989   5.274
 4478SOL     OW14332   1.843   0.623   0.630
 4478SOL    HW114333   1.759   0.636   0.682
 4478SOL    HW214334   1.876   0.529   0.643
 4479SOL     OW14335   1.002   3.207   0.581
 4479SOL    HW114336   0.906   3.212   0.609
 4479SOL    HW214337   1.055   3.277   0.629
 4480SOL     OW14338   0.933   6.201   3.978
 4480SOL    HW114339   0.901   6.265   4.048
 4480SOL    HW214340   0.855   6.148   3.944
 4481SOL     OW14341   2.213   3.900   6.224
 4481SOL    HW114342   2.174   3.983   6.184
 4481SOL    HW214343   2.205   3.904   6.324
 4482SOL     OW14344   2.692   6.112   6.915
 4482SOL    HW114345   2.753   6.058   6.857
 4482SOL    HW214346   2.727   6.112   7.009
 4483SOL     OW14347   1.321   3.153   0.834
 4483SOL    HW114348   1.320   3.190   0.742
 4483SOL    HW214349   1.403   3.097   0.847
 4484SOL     OW14350   2.297   1.923   0.362
 4484SOL    HW114351   2.392   1.942   0.389
 4484SOL    HW214352   2.292   1.913   0.263
 4485SOL     OW14353   5.671   2.416   5.102
 4485SOL    HW114354   5.628   2.412   5.012
 4485SOL    HW214355   5.747   2.350   5.105
 4486SOL     OW14356   4.777   5.569   5.374
 4486SOL    HW114357   4.709   5.500   5.400
 4486SOL    HW214358   4.733   5.639   5.318
 4487SOL     OW14359   0.699   3.038   0.141
 4487SOL    HW114360   0.781   3.088   0.168
 4487SOL    HW214361   0.675   2.973   0.214
 4488SOL     OW14362   0.096   4.304   4.491
 4488SOL    HW114363   0.181   4.264   4.524
 4488SOL    HW214364   0.028   4.305   4.565
 4489SOL     OW14365   4.716   5.915   5.629
 4489SOL    HW114366   4.719   5.824   5.672
 4489SOL    HW214367   4.642   5.918   5.562
 4490SOL     OW14368   5.099   1.330   1.190
 4490SOL    HW114369   5.009   1.332   1.234
 4490SOL    HW214370   5.138   1.422   1.192
 4491SOL     OW14371   0.888   2.971   3.529
 4491SOL    HW114372   0.906   2.875   3.507
 4491SOL    HW214373   0.974   3.019   3.538
 4492SOL     OW14374   6.314   0.342   2.281
 4492SOL    HW114375   6.231   0.287   2.290
 4492SOL    HW214376   6.390   0.283   2.253
 4493SOL     OW14377   4.896   1.678   4.445
 4493SOL    HW114378   4.827   1.717   4.506
 4493SOL    HW214379   4.851   1.622   4.376
 4494SOL     OW14380   1.214   0.278   0.695
 4494SOL    HW114381   1.314   0.274   0.703
 4494SOL    HW214382   1.174   0.281   0.786
 4495SOL     OW14383   5.318   5.190   1.470
 4495SOL    HW114384   5.363   5.266   1.423
 4495SOL    HW214385   5.297   5.118   1.404
 4496SOL     OW14386   3.795   5.845   6.337
 4496SOL    HW114387   3.740   5.831   6.420
 4496SOL    HW214388   3.844   5.760   6.315
 4497SOL     OW14389   4.226   1.486   6.559
 4497SOL    HW114390   4.260   1.579   6.574
 4497SOL    HW214391   4.206   1.473   6.462
 4498SOL     OW14392   1.051   5.277   5.731
 4498SOL    HW114393   1.036   5.369   5.696
 4498SOL    HW214394   1.072   5.216   5.655
 4499SOL     OW14395   5.970   2.235   2.815
 4499SOL    HW114396   5.947   2.153   2.762
 4499SOL    HW214397   6.064   2.227   2.848
 4500SOL     OW14398   4.161   5.658   7.004
 4500SOL    HW114399   4.144   5.569   0.020
 4500SOL    HW214400   4.259   5.678   7.006
 4501SOL     OW14401   5.786   0.683   2.997
 4501SOL    HW114402   5.813   0.694   2.901
 4501SOL    HW214403   5.735   0.597   3.007
 4502SOL     OW14404   0.060   3.755   6.441
 4502SOL    HW114405   0.065   3.713   6.532
 4502SOL    HW214406   6.999   3.804   6.432
 4503SOL     OW14407   2.715   0.636   2.943
 4503SOL    HW114408   2.800   0.680   2.913
 4503SOL    HW214409   2.638   0.670   2.888
 4504SOL     OW14410   0.033   1.892   2.733
 4504SOL    HW114411   7.016   1.860   2.649
 4504SOL    HW214412   0.033   1.818   2.800
 4505SOL     OW14413   6.036   4.742   4.459
 4505SOL    HW114414   5.957   4.800   4.438
 4505SOL    HW214415   6.007   4.665   4.515
 4506SOL     OW14416   4.755   2.521   5.205
 4506SOL    HW114417   4.799   2.443   5.247
 4506SOL    HW214418   4.814   2.602   5.215
 4507SOL     OW14419   6.502   3.020   3.368
 4507SOL    HW114420   6.548   2.935   3.394
 4507SOL    HW214421   6.568   3.095   3.366
 4508SOL     OW14422   0.889   5.547   0.702
 4508SOL    HW114423   0.924   5.477   0.763
 4508SOL    HW214424   0.924   5.531   0.609
 4509SOL     OW14425   4.695   2.752   2.107
 4509SOL    HW114426   4.701   2.851   2.095
 4509SOL    HW214427   4.711   2.730   2.203
 4510SOL     OW14428   4.279   1.354   3.765
 4510SOL    HW114429   4.201   1.413   3.744
 4510SOL    HW214430   4.342   1.403   3.825
 4511SOL     OW14431   0.284   4.377   0.758
 4511SOL    HW114432   0.302   4.366   0.856
 4511SOL    HW214433   0.369   4.373   0.707
 4512SOL     OW14434   3.254   3.248   5.511
 4512SOL    HW114435   3.181   3.312   5.490
 4512SOL    HW214436   3.284   3.203   5.426
 4513SOL     OW14437   1.291   6.464   0.565
 4513SOL    HW114438   1.243   6.519   0.498
 4513SOL    HW214439   1.333   6.385   0.520
 4514SOL     OW14440   3.360   4.671   6.366
 4514SOL    HW114441   3.423   4.626   6.302
 4514SOL    HW214442   3.395   4.662   6.459
 4515SOL     OW14443   4.604   0.784   6.757
 4515SOL    HW114444   4.620   0.848   6.682
 4515SOL    HW214445   4.644   0.695   6.734
 4516SOL     OW14446   3.387   1.433   5.167
 4516SOL    HW114447   3.473   1.385   5.186
 4516SOL    HW214448   3.408   1.528   5.144
 4517SOL     OW14449   3.791   1.018   5.449
 4517SOL    HW114450   3.727   0.972   5.388
 4517SOL    HW214451   3.830   1.098   5.403
 4518SOL     OW14452   1.333   6.885   0.962
 4518SOL    HW114453   1.264   6.835   0.910
 4518SOL    HW214454   1.326   6.863   1.059
 4519SOL     OW14455   4.632   6.760   6.777
 4519SOL    HW114456   4.641   6.854   6.743
 4519SOL    HW214457   4.535   6.741   6.795
 4520SOL     OW14458   4.181   5.528   5.063
 4520SOL    HW114459   4.099   5.573   5.098
 4520SOL    HW214460   4.155   5.448   5.009
 4521SOL     OW14461   4.308   2.325   4.192
 4521SOL    HW114462   4.270   2.355   4.104
 4521SOL    HW214463   4.397   2.368   4.206
 4522SOL     OW14464   5.250   4.546   3.103
 4522SOL    HW114465   5.186   4.487   3.152
 4522SOL    HW214466   5.201   4.598   3.034
 4523SOL     OW14467   0.255   3.483   5.825
 4523SOL    HW114468   0.252   3.477   5.725
 4523SOL    HW214469   0.260   3.391   5.864
 4524SOL     OW14470   1.096   3.828   2.898
 4524SOL    HW114471   1.090   3.913   2.846
 4524SOL    HW214472   1.108   3.848   2.995
 4525SOL     OW14473   3.375   2.293   5.374
 4525SOL    HW114474   3.326   2.264   5.456
 4525SOL    HW214475   3.310   2.329   5.306
 4526SOL     OW14476   0.659   7.018   5.703
 4526SOL    HW114477   0.657   6.993   5.606
 4526SOL    HW214478   0.597   6.959   5.754
 4527SOL     OW14479   6.526   0.865   3.020
 4527SOL    HW114480   6.502   0.794   2.954
 4527SOL    HW214481   6.531   0.826   3.111
 4528SOL     OW14482   4.337   1.091   5.351
 4528SOL    HW114483   4.417   1.066   5.404
 4528SOL    HW214484   4.257   1.040   5.384
 4529SOL     OW14485   2.237   0.630   3.974
 4529SOL    HW114486   2.310   0.692   4.002
 4529SOL    HW214487   2.148   0.672   3.992
 4530SOL     OW14488   3.463   5.421   6.139
 4530SOL    HW114489   3.367   5.397   6.156
 4530SOL    HW214490   3.481   5.513   6.174
 4531SOL     OW14491   0.995   5.514   5.589
 4531SOL    HW114492   0.947   5.511   5.502
 4531SOL    HW214493   1.025   5.607   5.608
 4532SOL     OW14494   5.889   0.774   2.769
 4532SOL    HW114495   5.939   0.689   2.753
 4532SOL    HW214496   5.951   0.852   2.760
 4533SOL     OW14497   3.006   0.412   1.294
 4533SOL    HW114498   2.967   0.332   1.249
 4533SOL    HW214499   2.933   0.469   1.331
 4534SOL     OW14500   4.615   0.963   3.722
 4534SOL    HW114501   4.516   0.961   3.735
 4534SOL    HW214502   4.660   0.989   3.807
 4535SOL     OW14503   2.394   0.667   1.038
 4535SOL    HW114504   2.368   0.737   0.971
 4535SOL    HW214505   2.454   0.600   0.994
 4536SOL     OW14506   2.848   0.545   5.580
 4536SOL    HW114507   2.812   0.619   5.524
 4536SOL    HW214508   2.906   0.582   5.653
 4537SOL     OW14509   2.897   3.723   3.596
 4537SOL    HW114510   2.877   3.713   3.693
 4537SOL    HW214511   2.996   3.722   3.581
 4538SOL     OW14512   0.428   1.910   0.691
 4538SOL    HW114513   0.397   1.828   0.738
 4538SOL    HW214514   0.517   1.893   0.650
 4539SOL     OW14515   1.312   6.228   5.558
 4539SOL    HW114516   1.231   6.260   5.509
 4539SOL    HW214517   1.371   6.177   5.496
 4540SOL     OW14518   0.872   0.497   0.178
 4540SOL    HW114519   0.829   0.436   0.112
 4540SOL    HW214520   0.902   0.445   0.258
 4541SOL     OW14521   4.611   2.715   5.634
 4541SOL    HW114522   4.628   2.813   5.635
 4541SOL    HW214523   4.512   2.699   5.644
 4542SOL     OW14524   6.777   2.143   0.239
 4542SOL    HW114525   6.830   2.066   0.275
 4542SOL    HW214526   6.828   2.186   0.164
 4543SOL     OW14527   3.846   2.485   0.190
 4543SOL    HW114528   3.762   2.509   0.239
 4543SOL    HW214529   3.893   2.410   0.238
 4544SOL     OW14530   5.386   6.147   0.540
 4544SOL    HW114531   5.339   6.079   0.596
 4544SOL    HW214532   5.405   6.109   0.450
 4545SOL     OW14533   2.186   2.987   4.856
 4545SOL    HW114534   2.102   3.035   4.882
 4545SOL    HW214535   2.247   2.982   4.935
 4546SOL     OW14536   2.883   0.959   5.703
 4546SOL    HW114537   2.815   1.018   5.660
 4546SOL    HW214538   2.973   1.002   5.696
 4547SOL     OW14539   0.031   0.260   0.177
 4547SOL    HW114540   0.063   0.327   0.244
 4547SOL    HW214541   6.975   0.296   0.132
 4548SOL     OW14542   2.429   1.684   3.009
 4548SOL    HW114543   2.353   1.623   2.984
 4548SOL    HW214544   2.490   1.695   2.931
 4549SOL     OW14545   6.573   3.819   4.661
 4549SOL    HW114546   6.562   3.784   4.568
 4549SOL    HW214547   6.495   3.878   4.684
 4550SOL     OW14548   1.691   4.565   3.246
 4550SOL    HW114549   1.778   4.526   3.217
 4550SOL    HW214550   1.636   4.493   3.290
 4551SOL     OW14551   1.349   2.751   5.219
 4551SOL    HW114552   1.421   2.684   5.200
 4551SOL    HW214553   1.320   2.794   5.134
 4552SOL     OW14554   5.373   1.670   0.473
 4552SOL    HW114555   5.466   1.649   0.444
 4552SOL    HW214556   5.308   1.625   0.411
 4553SOL     OW14557   6.672   5.372   6.497
 4553SOL    HW114558   6.729   5.438   6.546
 4553SOL    HW214559   6.722   5.287   6.484
 4554SOL     OW14560   6.545   6.479   3.462
 4554SOL    HW114561   6.635   6.516   3.487
 4554SOL    HW214562   6.492   6.550   3.416
 4555SOL     OW14563   1.647   0.891   0.113
 4555SOL    HW114564   1.597   0.873   0.028
 4555SOL    HW214565   1.593   0.953   0.171
 4556SOL     OW14566   5.886   4.507   5.303
 4556SOL    HW114567   5.893   4.556   5.390
 4556SOL    HW214568   5.963   4.531   5.245
 4557SOL     OW14569   6.809   4.571   3.309
 4557SOL    HW114570   6.771   4.479   3.298
 4557SOL    HW214571   6.847   4.601   3.222
 4558SOL     OW14572   0.669   3.850   4.917
 4558SOL    HW114573   0.766   3.866   4.933
 4558SOL    HW214574   0.618   3.866   5.001
 4559SOL     OW14575   6.856   2.949   3.220
 4559SOL    HW114576   6.839   3.004   3.301
 4559SOL    HW214577   6.835   3.003   3.138
 4560SOL     OW14578   6.211   4.461   2.849
 4560SOL    HW114579   6.301   4.463   2.893
 4560SOL    HW214580   6.141   4.485   2.916
 4561SOL     OW14581   3.911   2.202   3.892
 4561SOL    HW114582   3.925   2.113   3.936
 4561SOL    HW214583   3.813   2.224   3.893
 4562SOL     OW14584   3.507   1.325   1.337
 4562SOL    HW114585   3.579   1.322   1.268
 4562SOL    HW214586   3.418   1.323   1.291
 4563SOL     OW14587   0.645   4.322   2.031
 4563SOL    HW114588   0.681   4.231   2.013
 4563SOL    HW214589   0.714   4.390   2.004
 4564SOL     OW14590   1.588   3.757   2.071
 4564SOL    HW114591   1.621   3.829   2.132
 4564SOL    HW214592   1.505   3.716   2.110
 4565SOL     OW14593   1.939   5.741   6.211
 4565SOL    HW114594   1.992   5.796   6.276
 4565SOL    HW214595   1.997   5.720   6.132
 4566SOL     OW14596   6.083   5.009   2.671
 4566SOL    HW114597   6.181   4.992   2.681
 4566SOL    HW214598   6.057   5.088   2.727
 4567SOL     OW14599   0.037   0.123   6.841
 4567SOL    HW114600   0.086   0.195   6.792
 4567SOL    HW214601   0.103   0.055   6.874
 4568SOL     OW14602   1.508   5.204   3.325
 4568SOL    HW114603   1.475   5.154   3.405
 4568SOL    HW214604   1.563   5.144   3.268
 4569SOL     OW14605   2.151   0.875   3.312
 4569SOL    HW114606   2.058   0.841   3.303
 4569SOL    HW214607   2.193   0.882   3.222
 4570SOL     OW14608   5.685   6.511   2.043
 4570SOL    HW114609   5.604   6.463   2.077
 4570SOL    HW214610   5.656   6.593   1.994
 4571SOL     OW14611   3.173   3.235   6.992
 4571SOL    HW114612   3.263   3.214   6.954
 4571SOL    HW214613   3.155   3.333   6.984
 4572SOL     OW14614   2.887   3.353   1.936
 4572SOL    HW114615   2.817   3.423   1.948
 4572SOL    HW214616   2.862   3.293   1.861
 4573SOL     OW14617   3.044   5.461   1.669
 4573SOL    HW114618   2.957   5.448   1.717
 4573SOL    HW214619   3.056   5.388   1.601
 4574SOL     OW14620   5.271   0.962   1.272
 4574SOL    HW114621   5.254   0.905   1.352
 4574SOL    HW214622   5.185   0.998   1.238
 4575SOL     OW14623   0.204   0.020   5.509
 4575SOL    HW114624   0.112   0.056   5.495
 4575SOL    HW214625   0.270   0.076   5.459
 4576SOL     OW14626   2.834   4.832   5.261
 4576SOL    HW114627   2.838   4.757   5.196
 4576SOL    HW214628   2.843   4.797   5.354
 4577SOL     OW14629   0.981   2.065   2.444
 4577SOL    HW114630   0.895   2.112   2.465
 4577SOL    HW214631   0.998   2.071   2.345
 4578SOL     OW14632   1.923   1.492   2.425
 4578SOL    HW114633   1.983   1.571   2.407
 4578SOL    HW214634   1.874   1.469   2.341
 4579SOL     OW14635   4.765   0.902   3.103
 4579SOL    HW114636   4.715   0.987   3.123
 4579SOL    HW214637   4.778   0.894   3.004
 4580SOL     OW14638   0.034   2.111   0.558
 4580SOL    HW114639   0.029   2.101   0.658
 4580SOL    HW214640   0.015   2.206   0.534
 4581SOL     OW14641   3.194   0.880   0.969
 4581SOL    HW114642   3.269   0.864   1.033
 4581SOL    HW214643   3.108   0.847   1.010
 4582SOL     OW14644   5.827   1.347   3.786
 4582SOL    HW114645   5.812   1.391   3.697
 4582SOL    HW214646   5.759   1.379   3.851
 4583SOL     OW14647   1.406   0.226   7.015
 4583SOL    HW114648   1.327   0.194   6.963
 4583SOL    HW214649   1.389   0.214   0.086
 4584SOL     OW14650   1.322   0.751   4.356
 4584SOL    HW114651   1.261   0.677   4.386
 4584SOL    HW214652   1.309   0.767   4.258
 4585SOL     OW14653   2.023   3.552   3.600
 4585SOL    HW114654   2.066   3.513   3.681
 4585SOL    HW214655   2.015   3.482   3.529
 4586SOL     OW14656   5.796   4.677   6.640
 4586SOL    HW114657   5.720   4.617   6.665
 4586SOL    HW214658   5.800   4.686   6.541
 4587SOL     OW14659   3.249   3.091   4.927
 4587SOL    HW114660   3.259   3.191   4.932
 4587SOL    HW214661   3.212   3.057   5.013
 4588SOL     OW14662   3.102   3.766   6.233
 4588SOL    HW114663   3.190   3.718   6.242
 4588SOL    HW214664   3.027   3.702   6.249
 4589SOL     OW14665   6.422   6.948   2.827
 4589SOL    HW114666   6.407   6.853   2.856
 4589SOL    HW214667   6.446   7.003   2.906
 4590SOL     OW14668   3.245   5.610   0.834
 4590SOL    HW114669   3.169   5.573   0.780
 4590SOL    HW214670   3.330   5.564   0.807
 4591SOL     OW14671   1.782   0.636   5.458
 4591SOL    HW114672   1.845   0.695   5.407
 4591SOL    HW214673   1.740   0.687   5.533
 4592SOL     OW14674   1.998   1.844   3.689
 4592SOL    HW114675   1.990   1.943   3.676
 4592SOL    HW214676   2.022   1.800   3.603
 4593SOL     OW14677   1.574   5.926   4.617
 4593SOL    HW114678   1.595   6.023   4.603
 4593SOL    HW214679   1.556   5.910   4.714
 4594SOL     OW14680   1.798   0.572   3.105
 4594SOL    HW114681   1.878   0.613   3.149
 4594SOL    HW214682   1.822   0.481   3.069
 4595SOL     OW14683   5.827   2.159   6.612
 4595SOL    HW114684   5.897   2.213   6.657
 4595SOL    HW214685   5.789   2.093   6.677
 4596SOL     OW14686   6.830   0.835   2.408
 4596SOL    HW114687   6.884   0.887   2.475
 4596SOL    HW214688   6.747   0.801   2.452
 4597SOL     OW14689   3.180   6.188   7.001
 4597SOL    HW114690   3.116   6.264   6.995
 4597SOL    HW214691   3.257   6.213   0.034
 4598SOL     OW14692   1.865   4.738   0.139
 4598SOL    HW114693   1.899   4.722   0.047
 4598SOL    HW214694   1.765   4.744   0.137
 4599SOL     OW14695   2.260   5.828   2.256
 4599SOL    HW114696   2.167   5.825   2.294
 4599SOL    HW214697   2.268   5.763   2.181
 4600SOL     OW14698   0.379   6.312   5.889
 4600SOL    HW114699   0.450   6.380   5.870
 4600SOL    HW214700   0.341   6.328   5.980
 4601SOL     OW14701   1.765   0.982   5.018
 4601SOL    HW114702   1.690   0.969   4.952
 4601SOL    HW214703   1.731   0.965   5.110
 4602SOL     OW14704   2.925   2.468   6.821
 4602SOL    HW114705   2.834   2.428   6.814
 4602SOL    HW214706   2.972   2.430   6.901
 4603SOL     OW14707   4.835   6.791   0.618
 4603SOL    HW114708   4.878   6.879   0.637
 4603SOL    HW214709   4.737   6.804   0.605
 4604SOL     OW14710   6.226   6.760   5.732
 4604SOL    HW114711   6.145   6.734   5.784
 4604SOL    HW214712   6.208   6.745   5.634
 4605SOL     OW14713   3.659   0.453   2.005
 4605SOL    HW114714   3.578   0.438   1.950
 4605SOL    HW214715   3.671   0.551   2.021
 4606SOL     OW14716   6.622   6.648   4.579
 4606SOL    HW114717   6.715   6.686   4.574
 4606SOL    HW214718   6.573   6.690   4.655
 4607SOL     OW14719   2.057   2.192   1.328
 4607SOL    HW114720   2.087   2.223   1.238
 4607SOL    HW214721   2.006   2.265   1.373
 4608SOL     OW14722   6.863   2.927   4.443
 4608SOL    HW114723   6.873   3.021   4.412
 4608SOL    HW214724   6.777   2.889   4.409
 4609SOL     OW14725   4.271   6.036   6.540
 4609SOL    HW114726   4.302   6.131   6.528
 4609SOL    HW214727   4.256   6.018   6.637
 4610SOL     OW14728   5.514   3.652   6.744
 4610SOL    HW114729   5.554   3.743   6.743
 4610SOL    HW214730   5.582   3.586   6.778
 4611SOL     OW14731   1.131   1.024   6.614
 4611SOL    HW114732   1.046   0.997   6.658
 4611SOL    HW214733   1.177   0.942   6.578
 4612SOL     OW14734   2.045   0.974   1.592
 4612SOL    HW114735   2.140   0.943   1.580
 4612SOL    HW214736   1.984   0.918   1.536
 4613SOL     OW14737   1.738   4.656   1.364
 4613SOL    HW114738   1.693   4.629   1.279
 4613SOL    HW214739   1.702   4.601   1.440
 4614SOL     OW14740   6.507   4.325   4.765
 4614SOL    HW114741   6.589   4.380   4.748
 4614SOL    HW214742   6.443   4.338   4.690
 4615SOL     OW14743   1.200   3.281   6.959
 4615SOL    HW114744   1.268   3.291   0.005
 4615SOL    HW214745   1.203   3.360   6.899
 4616SOL     OW14746   6.352   2.547   6.447
 4616SOL    HW114747   6.351   2.494   6.362
 4616SOL    HW214748   6.444   2.546   6.486
 4617SOL     OW14749   0.186   3.078   3.281
 4617SOL    HW114750   0.279   3.043   3.294
 4617SOL    HW214751   0.191   3.175   3.255
 4618SOL     OW14752   1.847   4.225   6.001
 4618SOL    HW114753   1.849   4.182   6.092
 4618SOL    HW214754   1.793   4.168   5.939
 4619SOL     OW14755   4.600   6.014   6.266
 4619SOL    HW114756   4.526   5.968   6.315
 4619SOL    HW214757   4.631   5.956   6.190
 4620SOL     OW14758   0.541   4.723   2.445
 4620SOL    HW114759   0.605   4.685   2.512
 4620SOL    HW214760   0.576   4.707   2.353
 4621SOL     OW14761   3.867   0.180   2.697
 4621SOL    HW114762   3.801   0.185   2.772
 4621SOL    HW214763   3.828   0.225   2.616
 4622SOL     OW14764   5.574   6.075   1.877
 4622SOL    HW114765   5.565   5.982   1.842
 4622SOL    HW214766   5.668   6.106   1.864
 4623SOL     OW14767   2.547   5.359   1.101
 4623SOL    HW114768   2.618   5.423   1.128
 4623SOL    HW214769   2.515   5.308   1.181
 4624SOL     OW14770   4.398   1.046   1.991
 4624SOL    HW114771   4.398   1.053   1.891
 4624SOL    HW214772   4.396   1.138   2.030
 4625SOL     OW14773   1.824   6.116   1.859
 4625SOL    HW114774   1.874   6.190   1.816
 4625SOL    HW214775   1.808   6.043   1.793
 4626SOL     OW14776   4.589   3.836   1.697
 4626SOL    HW114777   4.504   3.885   1.680
 4626SOL    HW214778   4.659   3.901   1.727
 4627SOL     OW14779   5.452   0.251   5.099
 4627SOL    HW114780   5.391   0.208   5.166
 4627SOL    HW214781   5.399   0.275   5.017
 4628SOL     OW14782   5.635   5.057   4.503
 4628SOL    HW114783   5.581   4.976   4.527
 4628SOL    HW214784   5.592   5.103   4.426
 4629SOL     OW14785   2.535   6.249   6.733
 4629SOL    HW114786   2.440   6.258   6.763
 4629SOL    HW214787   2.593   6.221   6.809
 4630SOL     OW14788   2.112   3.369   2.300
 4630SOL    HW114789   2.023   3.332   2.272
 4630SOL    HW214790   2.156   3.412   2.221
 4631SOL     OW14791   6.976   0.706   3.062
 4631SOL    HW114792   6.938   0.636   3.002
 4631SOL    HW214793   0.023   0.666   3.118
 4632SOL     OW14794   3.383   4.915   2.684
 4632SOL    HW114795   3.400   4.911   2.586
 4632SOL    HW214796   3.461   4.878   2.734
 4633SOL     OW14797   5.147   1.376   4.446
 4633SOL    HW114798   5.247   1.377   4.441
 4633SOL    HW214799   5.119   1.339   4.535
 4634SOL     OW14800   3.066   3.905   4.890
 4634SOL    HW114801   3.097   3.970   4.958
 4634SOL    HW214802   3.081   3.942   4.798
 4635SOL     OW14803   4.916   6.497   1.814
 4635SOL    HW114804   4.907   6.466   1.909
 4635SOL    HW214805   4.826   6.524   1.779
 4636SOL     OW14806   1.878   5.422   0.601
 4636SOL    HW114807   1.801   5.456   0.654
 4636SOL    HW214808   1.934   5.499   0.569
 4637SOL     OW14809   3.050   0.946   3.163
 4637SOL    HW114810   3.101   0.880   3.218
 4637SOL    HW214811   3.111   0.987   3.095
 4638SOL     OW14812   3.443   5.036   0.356
 4638SOL    HW114813   3.482   5.113   0.407
 4638SOL    HW214814   3.501   4.956   0.368
 4639SOL     OW14815   3.543   2.230   1.274
 4639SOL    HW114816   3.522   2.254   1.369
 4639SOL    HW214817   3.598   2.303   1.232
 4640SOL     OW14818   6.444   2.462   6.922
 4640SOL    HW114819   6.359   2.493   6.965
 4640SOL    HW214820   6.508   2.434   6.993
 4641SOL     OW14821   1.111   6.214   4.240
 4641SOL    HW114822   1.147   6.124   4.267
 4641SOL    HW214823   1.058   6.205   4.156
 4642SOL     OW14824   0.049   1.520   3.610
 4642SOL    HW114825   0.096   1.504   3.523
 4642SOL    HW214826   0.092   1.596   3.658
 4643SOL     OW14827   0.508   1.862   0.375
 4643SOL    HW114828   0.527   1.789   0.440
 4643SOL    HW214829   0.445   1.829   0.304
 4644SOL     OW14830   1.120   0.786   0.249
 4644SOL    HW114831   1.119   0.748   0.342
 4644SOL    HW214832   1.201   0.843   0.238
 4645SOL     OW14833   0.799   2.014   3.977
 4645SOL    HW114834   0.731   2.074   4.020
 4645SOL    HW214835   0.831   2.055   3.892
 4646SOL     OW14836   2.062   5.156   3.522
 4646SOL    HW114837   2.089   5.110   3.607
 4646SOL    HW214838   2.113   5.116   3.446
 4647SOL     OW14839   1.403   6.314   2.126
 4647SOL    HW114840   1.422   6.411   2.109
 4647SOL    HW214841   1.449   6.286   2.210
 4648SOL     OW14842   2.849   2.021   4.855
 4648SOL    HW114843   2.813   2.106   4.892
 4648SOL    HW214844   2.908   2.040   4.777
 4649SOL     OW14845   6.583   0.959   0.076
 4649SOL    HW114846   6.560   0.880   0.019
 4649SOL    HW214847   6.515   0.969   0.148
 4650SOL     OW14848   5.476   5.843   1.760
 4650SOL    HW114849   5.544   5.777   1.794
 4650SOL    HW214850   5.395   5.795   1.729
 4651SOL     OW14851   6.817   3.304   6.498
 4651SOL    HW114852   6.774   3.264   6.417
 4651SOL    HW214853   6.804   3.403   6.498
 4652SOL     OW14854   0.208   6.770   4.989
 4652SOL    HW114855   0.204   6.811   4.898
 4652SOL    HW214856   0.292   6.800   5.035
 4653SOL     OW14857   5.628   5.441   0.804
 4653SOL    HW114858   5.531   5.437   0.782
 4653SOL    HW214859   5.652   5.366   0.865
 4654SOL     OW14860   0.976   0.208   5.562
 4654SOL    HW114861   0.941   0.237   5.651
 4654SOL    HW214862   0.911   0.233   5.490
 4655SOL     OW14863   4.803   2.632   1.336
 4655SOL    HW114864   4.828   2.597   1.427
 4655SOL    HW214865   4.710   2.667   1.338
 4656SOL     OW14866   0.740   0.877   1.579
 4656SOL    HW114867   0.685   0.886   1.663
 4656SOL    HW214868   0.837   0.884   1.602
 4657SOL     OW14869   4.894   0.320   2.261
 4657SOL    HW114870   4.960   0.314   2.186
 4657SOL    HW214871   4.807   0.280   2.232
 4658SOL     OW14872   1.326   3.026   5.887
 4658SOL    HW114873   1.381   3.022   5.804
 4658SOL    HW214874   1.357   2.957   5.952
 4659SOL     OW14875   2.350   4.768   0.344
 4659SOL    HW114876   2.419   4.796   0.277
 4659SOL    HW214877   2.296   4.693   0.306
 4660SOL     OW14878   1.146   6.738   4.227
 4660SOL    HW114879   1.093   6.686   4.294
 4660SOL    HW214880   1.240   6.704   4.225
 4661SOL     OW14881   0.872   2.270   5.750
 4661SOL    HW114882   0.855   2.341   5.682
 4661SOL    HW214883   0.912   2.190   5.706
 4662SOL     OW14884   2.421   6.604   5.300
 4662SOL    HW114885   2.456   6.673   5.362
 4662SOL    HW214886   2.331   6.573   5.331
 4663SOL     OW14887   1.592   0.195   0.300
 4663SOL    HW114888   1.660   0.209   0.373
 4663SOL    HW214889   1.638   0.159   0.219
 4664SOL     OW14890   6.671   6.632   6.802
 4664SOL    HW114891   6.743   6.701   6.792
 4664SOL    HW214892   6.582   6.677   6.805
 4665SOL     OW14893   1.905   0.130   4.561
 4665SOL    HW114894   1.984   0.113   4.620
 4665SOL    HW214895   1.868   0.221   4.581
 4666SOL     OW14896   2.624   1.867   4.890
 4666SOL    HW114897   2.710   1.915   4.874
 4666SOL    HW214898   2.549   1.932   4.886
 4667SOL     OW14899   6.546   3.727   1.267
 4667SOL    HW114900   6.576   3.721   1.362
 4667SOL    HW214901   6.615   3.778   1.214
 4668SOL     OW14902   4.397   2.389   3.785
 4668SOL    HW114903   4.355   2.345   3.706
 4668SOL    HW214904   4.340   2.373   3.866
 4669SOL     OW14905   5.384   6.870   6.873
 4669SOL    HW114906   5.442   6.936   6.827
 4669SOL    HW214907   5.428   6.840   6.958
 4670SOL     OW14908   0.422   2.664   0.642
 4670SOL    HW114909   0.521   2.678   0.632
 4670SOL    HW214910   0.391   2.597   0.575
 4671SOL     OW14911   0.835   3.680   0.668
 4671SOL    HW114912   0.902   3.754   0.666
 4671SOL    HW214913   0.744   3.717   0.650
 4672SOL     OW14914   2.387   3.932   6.812
 4672SOL    HW114915   2.444   3.944   6.894
 4672SOL    HW214916   2.343   4.018   6.789
 4673SOL     OW14917   5.683   0.820   0.022
 4673SOL    HW114918   5.623   0.816   0.101
 4673SOL    HW214919   5.770   0.863   0.048
 4674SOL     OW14920   1.143   2.177   1.376
 4674SOL    HW114921   1.170   2.171   1.280
 4674SOL    HW214922   1.224   2.182   1.434
 4675SOL     OW14923   2.416   6.145   0.177
 4675SOL    HW114924   2.365   6.062   0.198
 4675SOL    HW214925   2.412   6.207   0.255
 4676SOL     OW14926   0.459   6.173   4.042
 4676SOL    HW114927   0.525   6.169   3.967
 4676SOL    HW214928   0.438   6.269   4.062
 4677SOL     OW14929   4.348   0.209   6.666
 4677SOL    HW114930   4.429   0.236   6.614
 4677SOL    HW214931   4.315   0.287   6.719
 4678SOL     OW14932   2.178   4.614   6.543
 4678SOL    HW114933   2.090   4.577   6.574
 4678SOL    HW214934   2.252   4.556   6.577
 4679SOL     OW14935   2.733   0.726   5.385
 4679SOL    HW114936   2.700   0.685   5.301
 4679SOL    HW214937   2.694   0.818   5.395
 4680SOL     OW14938   2.066   4.916   0.614
 4680SOL    HW114939   2.020   4.833   0.581
 4680SOL    HW214940   2.050   4.925   0.712
 4681SOL     OW14941   0.548   5.540   4.861
 4681SOL    HW114942   0.491   5.487   4.924
 4681SOL    HW214943   0.601   5.607   4.913
 4682SOL     OW14944   4.533   6.588   0.726
 4682SOL    HW114945   4.574   6.641   0.652
 4682SOL    HW214946   4.566   6.623   0.814
 4683SOL     OW14947   6.780   4.256   3.779
 4683SOL    HW114948   6.739   4.241   3.689
 4683SOL    HW214949   6.794   4.354   3.793
 4684SOL     OW14950   1.409   1.102   4.077
 4684SOL    HW114951   1.434   1.146   4.164
 4684SOL    HW214952   1.328   1.147   4.039
 4685SOL     OW14953   5.075   4.886   5.003
 4685SOL    HW114954   5.103   4.964   5.060
 4685SOL    HW214955   5.154   4.851   4.954
 4686SOL     OW14956   4.282   5.703   0.431
 4686SOL    HW114957   4.208   5.768   0.412
 4686SOL    HW214958   4.331   5.684   0.346
 4687SOL     OW14959   5.473   6.371   4.744
 4687SOL    HW114960   5.567   6.404   4.732
 4687SOL    HW214961   5.409   6.436   4.703
 4688SOL     OW14962   0.499   1.924   6.495
 4688SOL    HW114963   0.463   1.835   6.468
 4688SOL    HW214964   0.550   1.916   6.580
 4689SOL     OW14965   1.547   5.294   5.319
 4689SOL    HW114966   1.533   5.393   5.314
 4689SOL    HW214967   1.615   5.273   5.390
 4690SOL     OW14968   1.763   2.447   0.178
 4690SOL    HW114969   1.788   2.360   0.220
 4690SOL    HW214970   1.829   2.470   0.107
 4691SOL     OW14971   2.780   5.043   1.025
 4691SOL    HW114972   2.776   5.143   1.032
 4691SOL    HW214973   2.721   5.012   0.950
 4692SOL     OW14974   0.405   5.269   3.137
 4692SOL    HW114975   0.466   5.347   3.155
 4692SOL    HW214976   0.376   5.271   3.042
 4693SOL     OW14977   0.399   1.585   3.356
 4693SOL    HW114978   0.475   1.536   3.399
 4693SOL    HW214979   0.324   1.522   3.339
 4694SOL     OW14980   1.359   1.816   6.619
 4694SOL    HW114981   1.337   1.860   6.706
 4694SOL    HW214982   1.434   1.864   6.575
 4695SOL     OW14983   3.448   2.829   2.100
 4695SOL    HW114984   3.490   2.850   2.188
 4695SOL    HW214985   3.356   2.868   2.097
 4696SOL     OW14986   0.092   3.330   6.826
 4696SOL    HW114987   0.012   3.292   6.778
 4696SOL    HW214988   0.164   3.261   6.831
 4697SOL     OW14989   0.855   5.041   0.270
 4697SOL    HW114990   0.915   5.065   0.194
 4697SOL    HW214991   0.863   4.943   0.291
 4698SOL     OW14992   5.578   2.743   1.233
 4698SOL    HW114993   5.672   2.717   1.212
 4698SOL    HW214994   5.572   2.843   1.241
 4699SOL     OW14995   6.989   0.386   3.563
 4699SOL    HW114996   6.965   0.419   3.471
 4699SOL    HW214997   6.965   0.455   3.631
 4700SOL     OW14998   4.634   0.560   1.570
 4700SOL    HW114999   4.593   0.559   1.479
 4700SOL    HW215000   4.701   0.486   1.577
 4701SOL     OW15001   0.892   0.877   0.825
 4701SOL    HW115002   0.937   0.959   0.861
 4701SOL    HW215003   0.945   0.797   0.850
 4702SOL     OW15004   3.411   4.443   0.200
 4702SOL    HW115005   3.337   4.495   0.158
 4702SOL    HW215006   3.470   4.405   0.128
 4703SOL     OW15007   2.122   0.784   1.874
 4703SOL    HW115008   2.088   0.878   1.867
 4703SOL    HW215009   2.071   0.726   1.811
 4704SOL     OW15010   4.934   6.558   0.527
 4704SOL    HW115011   4.980   6.519   0.606
 4704SOL    HW215012   4.914   6.655   0.544
 4705SOL     OW15013   3.340   3.558   4.462
 4705SOL    HW115014   3.405   3.632   4.444
 4705SOL    HW215015   3.265   3.593   4.520
 4706SOL     OW15016   4.052   5.733   1.009
 4706SOL    HW115017   4.122   5.662   0.998
 4706SOL    HW215018   3.962   5.693   0.995
 4707SOL     OW15019   2.542   6.053   0.891
 4707SOL    HW115020   2.488   5.971   0.907
 4707SOL    HW215021   2.601   6.039   0.812
 4708SOL     OW15022   2.387   2.382   1.968
 4708SOL    HW115023   2.312   2.432   2.012
 4708SOL    HW215024   2.471   2.396   2.020
 4709SOL     OW15025   4.048   4.473   6.004
 4709SOL    HW115026   4.116   4.538   6.038
 4709SOL    HW215027   4.062   4.384   6.046
 4710SOL     OW15028   5.345   1.822   0.975
 4710SOL    HW115029   5.423   1.849   1.031
 4710SOL    HW215030   5.375   1.806   0.881
 4711SOL     OW15031   3.264   0.446   2.251
 4711SOL    HW115032   3.185   0.487   2.205
 4711SOL    HW215033   3.238   0.419   2.344
 4712SOL     OW15034   1.467   4.685   0.521
 4712SOL    HW115035   1.379   4.690   0.568
 4712SOL    HW215036   1.496   4.776   0.494
 4713SOL     OW15037   2.029   5.806   0.879
 4713SOL    HW115038   2.078   5.755   0.808
 4713SOL    HW215039   2.067   5.898   0.886
 4714SOL     OW15040   3.645   2.502   1.174
 4714SOL    HW115041   3.719   2.560   1.142
 4714SOL    HW215042   3.619   2.529   1.267
 4715SOL     OW15043   6.989   3.633   3.535
 4715SOL    HW115044   6.913   3.573   3.561
 4715SOL    HW215045   0.046   3.602   3.581
 4716SOL     OW15046   3.301   5.999   0.393
 4716SOL    HW115047   3.333   6.021   0.486
 4716SOL    HW215048   3.215   6.047   0.376
 4717SOL     OW15049   1.739   5.819   4.035
 4717SOL    HW115050   1.797   5.738   4.048
 4717SOL    HW215051   1.702   5.848   4.123
 4718SOL     OW15052   5.693   1.135   6.203
 4718SOL    HW115053   5.694   1.126   6.303
 4718SOL    HW215054   5.785   1.157   6.170
 4719SOL     OW15055   4.677   2.751   1.075
 4719SOL    HW115056   4.743   2.816   1.115
 4719SOL    HW215057   4.612   2.723   1.146
 4720SOL     OW15058   2.458   0.910   5.031
 4720SOL    HW115059   2.541   0.958   5.060
 4720SOL    HW215060   2.483   0.822   4.990
 4721SOL     OW15061   1.554   2.367   1.601
 4721SOL    HW115062   1.631   2.351   1.539
 4721SOL    HW215063   1.563   2.459   1.642
 4722SOL     OW15064   2.135   6.843   0.954
 4722SOL    HW115065   2.045   6.873   0.923
 4722SOL    HW215066   2.126   6.791   1.039
 4723SOL     OW15067   2.853   6.987   6.660
 4723SOL    HW115068   2.792   6.969   6.737
 4723SOL    HW215069   2.801   0.009   6.588
 4724SOL     OW15070   4.523   5.607   1.755
 4724SOL    HW115071   4.611   5.564   1.737
 4724SOL    HW215072   4.471   5.612   1.669
 4725SOL     OW15073   5.877   5.892   3.480
 4725SOL    HW115074   5.957   5.833   3.471
 4725SOL    HW215075   5.797   5.848   3.440
 4726SOL     OW15076   0.375   5.399   6.874
 4726SOL    HW115077   0.350   5.467   6.943
 4726SOL    HW215078   0.442   5.438   6.811
 4727SOL     OW15079   0.128   6.574   6.722
 4727SOL    HW115080   0.097   6.629   6.799
 4727SOL    HW215081   0.050   6.525   6.682
 4728SOL     OW15082   0.062   1.197   0.329
 4728SOL    HW115083   0.151   1.229   0.295
 4728SOL    HW215084   0.036   1.113   0.282
 4729SOL     OW15085   3.508   0.263   1.640
 4729SOL    HW115086   3.476   0.197   1.572
 4729SOL    HW215087   3.594   0.303   1.610
 4730SOL     OW15088   1.477   0.130   5.356
 4730SOL    HW115089   1.444   0.116   5.263
 4730SOL    HW215090   1.400   0.138   5.418
 4731SOL     OW15091   5.581   1.753   5.818
 4731SOL    HW115092   5.601   1.660   5.785
 4731SOL    HW215093   5.486   1.776   5.798
 4732SOL     OW15094   0.295   2.167   0.441
 4732SOL    HW115095   0.208   2.156   0.489
 4732SOL    HW215096   0.364   2.109   0.484
 4733SOL     OW15097   6.905   3.000   3.920
 4733SOL    HW115098   6.820   2.993   3.971
 4733SOL    HW215099   6.915   2.920   3.860
 4734SOL     OW15100   4.241   4.553   6.735
 4734SOL    HW115101   4.201   4.600   6.656
 4734SOL    HW215102   4.171   4.541   6.805
 4735SOL     OW15103   0.916   5.368   3.213
 4735SOL    HW115104   0.984   5.411   3.274
 4735SOL    HW215105   0.870   5.294   3.262
 4736SOL     OW15106   1.245   0.815   0.835
 4736SOL    HW115107   1.244   0.792   0.932
 4736SOL    HW215108   1.194   0.900   0.820
 4737SOL     OW15109   2.577   5.450   1.926
 4737SOL    HW115110   2.486   5.456   1.886
 4737SOL    HW215111   2.604   5.539   1.962
 4738SOL     OW15112   0.017   6.435   2.649
 4738SOL    HW115113   6.967   6.489   2.612
 4738SOL    HW215114   0.028   6.352   2.595
 4739SOL     OW15115   4.941   0.551   1.208
 4739SOL    HW115116   4.946   0.546   1.108
 4739SOL    HW215117   4.929   0.646   1.235
 4740SOL     OW15118   0.520   2.365   3.527
 4740SOL    HW115119   0.552   2.415   3.607
 4740SOL    HW215120   0.556   2.407   3.444
 4741SOL     OW15121   3.875   3.839   1.432
 4741SOL    HW115122   3.955   3.885   1.469
 4741SOL    HW215123   3.878   3.841   1.332
 4742SOL     OW15124   3.123   6.836   0.611
 4742SOL    HW115125   3.196   6.796   0.557
 4742SOL    HW215126   3.141   6.822   0.709
 4743SOL     OW15127   2.182   4.878   1.444
 4743SOL    HW115128   2.177   4.977   1.462
 4743SOL    HW215129   2.185   4.828   1.530
 4744SOL     OW15130   2.444   5.798   1.005
 4744SOL    HW115131   2.499   5.773   0.926
 4744SOL    HW215132   2.351   5.762   0.994
 4745SOL     OW15133   1.399   4.601   6.588
 4745SOL    HW115134   1.373   4.527   6.649
 4745SOL    HW215135   1.471   4.655   6.630
 4746SOL     OW15136   4.717   5.881   4.189
 4746SOL    HW115137   4.694   5.847   4.097
 4746SOL    HW215138   4.722   5.804   4.252
 4747SOL     OW15139   1.578   2.147   0.127
 4747SOL    HW115140   1.630   2.181   0.206
 4747SOL    HW215141   1.483   2.178   0.134
 4748SOL     OW15142   1.683   6.771   2.850
 4748SOL    HW115143   1.589   6.759   2.883
 4748SOL    HW215144   1.717   6.861   2.877
 4749SOL     OW15145   2.192   1.322   6.509
 4749SOL    HW115146   2.222   1.413   6.480
 4749SOL    HW215147   2.092   1.320   6.515
 4750SOL     OW15148   4.958   2.539   5.514
 4750SOL    HW115149   4.924   2.500   5.599
 4750SOL    HW215150   4.949   2.639   5.516
 4751SOL     OW15151   4.337   0.445   3.478
 4751SOL    HW115152   4.359   0.522   3.538
 4751SOL    HW215153   4.419   0.391   3.461
 4752SOL     OW15154   4.650   1.824   6.991
 4752SOL    HW115155   4.607   1.742   6.952
 4752SOL    HW215156   4.655   1.895   6.920
 4753SOL     OW15157   3.494   6.255   5.560
 4753SOL    HW115158   3.493   6.316   5.639
 4753SOL    HW215159   3.436   6.294   5.488
 4754SOL     OW15160   4.616   4.671   6.779
 4754SOL    HW115161   4.525   4.687   6.816
 4754SOL    HW215162   4.624   4.715   6.689
 4755SOL     OW15163   1.405   0.941   1.514
 4755SOL    HW115164   1.360   0.962   1.600
 4755SOL    HW215165   1.503   0.964   1.520
 4756SOL     OW15166   6.121   3.945   6.392
 4756SOL    HW115167   6.131   3.930   6.490
 4756SOL    HW215168   6.181   4.020   6.364
 4757SOL     OW15169   2.015   3.856   1.541
 4757SOL    HW115170   1.932   3.895   1.501
 4757SOL    HW215171   2.080   3.930   1.559
 4758SOL     OW15172   2.913   6.267   3.294
 4758SOL    HW115173   2.841   6.204   3.323
 4758SOL    HW215174   2.885   6.313   3.209
 4759SOL     OW15175   0.799   5.593   1.754
 4759SOL    HW115176   0.755   5.681   1.735
 4759SOL    HW215177   0.775   5.528   1.683
 4760SOL     OW15178   1.307   5.786   1.127
 4760SOL    HW115179   1.263   5.699   1.152
 4760SOL    HW215180   1.377   5.808   1.195
 4761SOL     OW15181   6.390   6.295   1.659
 4761SOL    HW115182   6.400   6.301   1.758
 4761SOL    HW215183   6.321   6.361   1.629
 4762SOL     OW15184   1.503   0.404   2.135
 4762SOL    HW115185   1.483   0.324   2.191
 4762SOL    HW215186   1.425   0.467   2.137
 4763SOL     OW15187   5.617   4.396   1.771
 4763SOL    HW115188   5.544   4.455   1.807
 4763SOL    HW215189   5.705   4.430   1.802
 4764SOL     OW15190   4.776   2.725   0.611
 4764SOL    HW115191   4.803   2.634   0.580
 4764SOL    HW215192   4.830   2.750   0.690
 4765SOL     OW15193   3.797   1.688   4.315
 4765SOL    HW115194   3.847   1.651   4.236
 4765SOL    HW215195   3.741   1.615   4.355
 4766SOL     OW15196   0.408   0.256   3.960
 4766SOL    HW115197   0.491   0.288   4.006
 4766SOL    HW215198   0.376   0.327   3.897
 4767SOL     OW15199   1.896   4.443   3.541
 4767SOL    HW115200   1.947   4.485   3.466
 4767SOL    HW215201   1.878   4.347   3.521
 4768SOL     OW15202   4.522   2.862   6.656
 4768SOL    HW115203   4.447   2.800   6.630
 4768SOL    HW215204   4.573   2.822   6.732
 4769SOL     OW15205   2.585   4.425   0.547
 4769SOL    HW115206   2.489   4.446   0.569
 4769SOL    HW215207   2.642   4.441   0.627
 4770SOL     OW15208   0.637   1.412   5.610
 4770SOL    HW115209   0.545   1.446   5.590
 4770SOL    HW215210   0.639   1.372   5.701
 4771SOL     OW15211   1.734   6.828   4.875
 4771SOL    HW115212   1.764   6.861   4.785
 4771SOL    HW215213   1.655   6.768   4.863
 4772SOL     OW15214   3.068   5.062   2.200
 4772SOL    HW115215   3.066   4.981   2.142
 4772SOL    HW215216   3.082   5.034   2.296
 4773SOL     OW15217   1.973   5.129   4.733
 4773SOL    HW115218   2.069   5.114   4.755
 4773SOL    HW215219   1.919   5.050   4.763
 4774SOL     OW15220   1.485   4.492   0.086
 4774SOL    HW115221   1.394   4.456   0.065
 4774SOL    HW215222   1.495   4.498   0.186
 4775SOL     OW15223   6.258   6.358   5.194
 4775SOL    HW115224   6.240   6.453   5.170
 4775SOL    HW215225   6.341   6.326   5.148
 4776SOL     OW15226   6.908   1.094   6.189
 4776SOL    HW115227   6.854   1.176   6.172
 4776SOL    HW215228   6.892   1.027   6.116
 4777SOL     OW15229   1.121   0.297   2.332
 4777SOL    HW115230   1.180   0.299   2.251
 4777SOL    HW215231   1.146   0.218   2.389
 4778SOL     OW15232   1.912   1.186   6.886
 4778SOL    HW115233   2.007   1.217   6.884
 4778SOL    HW215234   1.900   1.110   6.821
 4779SOL     OW15235   5.545   0.183   4.599
 4779SOL    HW115236   5.605   0.138   4.533
 4779SOL    HW215237   5.590   0.265   4.635
 4780SOL     OW15238   6.079   2.709   4.854
 4780SOL    HW115239   6.039   2.799   4.866
 4780SOL    HW215240   6.177   2.713   4.875
 4781SOL     OW15241   2.080   5.425   2.396
 4781SOL    HW115242   2.149   5.364   2.356
 4781SOL    HW215243   1.990   5.401   2.361
 4782SOL     OW15244   6.625   6.903   4.127
 4782SOL    HW115245   6.699   6.874   4.067
 4782SOL    HW215246   6.541   6.855   4.102
 4783SOL     OW15247   6.539   3.385   6.203
 4783SOL    HW115248   6.622   3.441   6.202
 4783SOL    HW215249   6.486   3.402   6.120
 4784SOL     OW15250   5.262   3.092   6.706
 4784SOL    HW115251   5.169   3.083   6.742
 4784SOL    HW215252   5.258   3.122   6.610
 4785SOL     OW15253   0.018   6.787   4.319
 4785SOL    HW115254   0.012   6.728   4.239
 4785SOL    HW215255   0.114   6.809   4.338
 4786SOL     OW15256   1.451   5.458   0.081
 4786SOL    HW115257   1.401   5.540   0.109
 4786SOL    HW215258   1.482   5.469   7.012
 4787SOL     OW15259   3.361   1.692   3.836
 4787SOL    HW115260   3.386   1.659   3.745
 4787SOL    HW215261   3.444   1.699   3.892
 4788SOL     OW15262   6.361   6.073   0.556
 4788SOL    HW115263   6.324   6.131   0.629
 4788SOL    HW215264   6.316   5.984   0.558
 4789SOL     OW15265   5.899   1.098   2.788
 4789SOL    HW115266   5.880   1.086   2.886
 4789SOL    HW215267   5.914   1.195   2.769
 4790SOL     OW15268   6.609   1.969   4.902
 4790SOL    HW115269   6.692   1.948   4.850
 4790SOL    HW215270   6.629   2.041   4.968
 4791SOL     OW15271   0.189   0.560   0.811
 4791SOL    HW115272   0.200   0.520   0.902
 4791SOL    HW215273   0.273   0.608   0.786
 4792SOL     OW15274   2.162   3.099   2.812
 4792SOL    HW115275   2.143   3.104   2.910
 4792SOL    HW215276   2.136   3.185   2.769
 4793SOL     OW15277   0.990   3.411   5.659
 4793SOL    HW115278   1.044   3.337   5.699
 4793SOL    HW215279   1.008   3.416   5.561
 4794SOL     OW15280   4.260   1.401   4.494
 4794SOL    HW115281   4.277   1.455   4.412
 4794SOL    HW215282   4.286   1.455   4.575
 4795SOL     OW15283   6.811   0.809   6.356
 4795SOL    HW115284   6.831   0.892   6.407
 4795SOL    HW215285   6.766   0.743   6.417
 4796SOL     OW15286   4.179   0.886   5.407
 4796SOL    HW115287   4.125   0.929   5.480
 4796SOL    HW215288   4.120   0.869   5.328
 4797SOL     OW15289   1.245   5.204   5.261
 4797SOL    HW115290   1.197   5.230   5.178
 4797SOL    HW215291   1.344   5.213   5.247
 4798SOL     OW15292   4.238   4.984   6.645
 4798SOL    HW115293   4.316   5.002   6.704
 4798SOL    HW215294   4.203   4.891   6.662
 4799SOL     OW15295   3.599   2.812   0.106
 4799SOL    HW115296   3.542   2.872   0.161
 4799SOL    HW215297   3.674   2.865   0.066
 4800SOL     OW15298   1.080   4.205   0.150
 4800SOL    HW115299   1.125   4.222   0.238
 4800SOL    HW215300   0.991   4.163   0.166
 4801SOL     OW15301   5.488   2.592   2.189
 4801SOL    HW115302   5.444   2.578   2.278
 4801SOL    HW215303   5.479   2.687   2.161
 4802SOL     OW15304   6.289   0.418   4.409
 4802SOL    HW115305   6.314   0.334   4.361
 4802SOL    HW215306   6.347   0.428   4.490
 4803SOL     OW15307   5.357   4.294   5.959
 4803SOL    HW115308   5.338   4.317   5.863
 4803SOL    HW215309   5.296   4.221   5.989
 4804SOL     OW15310   4.546   1.302   1.255
 4804SOL    HW115311   4.550   1.398   1.284
 4804SOL    HW215312   4.465   1.288   1.197
 4805SOL     OW15313   6.701   0.915   6.667
 4805SOL    HW115314   6.665   0.976   6.737
 4805SOL    HW215315   6.684   0.955   6.577
 4806SOL     OW15316   1.030   1.399   3.625
 4806SOL    HW115317   1.097   1.432   3.559
 4806SOL    HW215318   0.950   1.459   3.625
 4807SOL     OW15319   0.705   3.406   5.713
 4807SOL    HW115320   0.674   3.312   5.706
 4807SOL    HW215321   0.804   3.410   5.701
 4808SOL     OW15322   3.872   5.896   1.215
 4808SOL    HW115323   3.910   5.808   1.243
 4808SOL    HW215324   3.786   5.912   1.265
 4809SOL     OW15325   3.546   4.283   1.314
 4809SOL    HW115326   3.485   4.222   1.363
 4809SOL    HW215327   3.550   4.371   1.361
 4810SOL     OW15328   0.582   5.059   3.916
 4810SOL    HW115329   0.568   5.075   3.818
 4810SOL    HW215330   0.607   5.145   3.960
 4811SOL     OW15331   3.238   4.129   4.180
 4811SOL    HW115332   3.163   4.190   4.206
 4811SOL    HW215333   3.204   4.062   4.114
 4812SOL     OW15334   1.348   0.349   2.711
 4812SOL    HW115335   1.272   0.412   2.694
 4812SOL    HW215336   1.407   0.345   2.631
 4813SOL     OW15337   6.333   1.301   5.620
 4813SOL    HW115338   6.379   1.376   5.668
 4813SOL    HW215339   6.382   1.216   5.637
 4814SOL     OW15340   5.940   3.956   1.520
 4814SOL    HW115341   5.842   3.968   1.536
 4814SOL    HW215342   5.956   3.870   1.471
 4815SOL     OW15343   5.953   4.966   1.813
 4815SOL    HW115344   5.877   4.919   1.857
 4815SOL    HW215345   5.927   4.993   1.720
 4816SOL     OW15346   2.103   1.451   2.623
 4816SOL    HW115347   2.154   1.534   2.646
 4816SOL    HW215348   2.035   1.474   2.553
 4817SOL     OW15349   3.924   2.453   0.634
 4817SOL    HW115350   4.003   2.397   0.657
 4817SOL    HW215351   3.841   2.412   0.673
 4818SOL     OW15352   3.749   0.847   5.208
 4818SOL    HW115353   3.748   0.776   5.278
 4818SOL    HW215354   3.658   0.853   5.166
 4819SOL     OW15355   3.525   0.152   1.165
 4819SOL    HW115356   3.481   0.125   1.251
 4819SOL    HW215357   3.574   0.238   1.179
 4820SOL     OW15358   6.107   4.118   1.887
 4820SOL    HW115359   6.038   4.120   1.814
 4820SOL    HW215360   6.189   4.071   1.855
 4821SOL     OW15361   0.352   4.918   1.464
 4821SOL    HW115362   0.307   4.855   1.400
 4821SOL    HW215363   0.424   4.969   1.416
 4822SOL     OW15364   1.663   4.115   2.832
 4822SOL    HW115365   1.685   4.212   2.817
 4822SOL    HW215366   1.670   4.094   2.929
 4823SOL     OW15367   1.483   1.244   4.335
 4823SOL    HW115368   1.572   1.215   4.368
 4823SOL    HW215369   1.412   1.219   4.402
 4824SOL     OW15370   5.477   2.893   2.117
 4824SOL    HW115371   5.378   2.894   2.098
 4824SOL    HW215372   5.507   2.985   2.140
 4825SOL     OW15373   0.670   3.396   3.274
 4825SOL    HW115374   0.706   3.430   3.187
 4825SOL    HW215375   0.744   3.355   3.327
 4826SOL     OW15376   6.609   5.986   0.118
 4826SOL    HW115377   6.561   6.061   0.163
 4826SOL    HW215378   6.687   5.957   0.174
 4827SOL     OW15379   5.545   0.787   1.448
 4827SOL    HW115380   5.475   0.849   1.482
 4827SOL    HW215381   5.632   0.836   1.438
 4828SOL     OW15382   5.148   3.861   0.242
 4828SOL    HW115383   5.072   3.915   0.204
 4828SOL    HW215384   5.116   3.768   0.260
 4829SOL     OW15385   3.248   0.664   5.547
 4829SOL    HW115386   3.170   0.674   5.608
 4829SOL    HW215387   3.327   0.632   5.600
 4830SOL     OW15388   4.028   7.002   5.173
 4830SOL    HW115389   4.048   6.978   5.078
 4830SOL    HW215390   3.948   0.036   5.177
 4831SOL     OW15391   6.581   3.937   5.902
 4831SOL    HW115392   6.648   3.958   5.832
 4831SOL    HW215393   6.566   3.838   5.905
 4832SOL     OW15394   2.014   3.196   6.850
 4832SOL    HW115395   1.953   3.176   6.773
 4832SOL    HW215396   2.101   3.150   6.835
 4833SOL     OW15397   5.137   1.567   3.280
 4833SOL    HW115398   5.110   1.581   3.375
 4833SOL    HW215399   5.136   1.469   3.259
 4834SOL     OW15400   5.707   0.648   2.611
 4834SOL    HW115401   5.787   0.687   2.657
 4834SOL    HW215402   5.636   0.717   2.604
 4835SOL     OW15403   2.046   0.501   6.427
 4835SOL    HW115404   2.125   0.439   6.425
 4835SOL    HW215405   2.028   0.528   6.522
 4836SOL     OW15406   5.285   2.830   2.996
 4836SOL    HW115407   5.291   2.881   3.081
 4836SOL    HW215408   5.218   2.757   3.005
 4837SOL     OW15409   1.413   3.884   0.276
 4837SOL    HW115410   1.446   3.797   0.313
 4837SOL    HW215411   1.478   3.957   0.298
 4838SOL     OW15412   2.732   5.801   2.272
 4838SOL    HW115413   2.652   5.785   2.329
 4838SOL    HW215414   2.793   5.866   2.318
 4839SOL     OW15415   0.681   6.141   6.486
 4839SOL    HW115416   0.588   6.146   6.523
 4839SOL    HW215417   0.745   6.119   6.560
 4840SOL     OW15418   7.002   6.603   0.040
 4840SOL    HW115419   0.043   6.649   0.098
 4840SOL    HW215420   6.912   6.610   0.083
 4841SOL     OW15421   2.471   5.774   2.389
 4841SOL    HW115422   2.470   5.833   2.470
 4841SOL    HW215423   2.387   5.788   2.336
 4842SOL     OW15424   3.553   6.214   1.325
 4842SOL    HW115425   3.477   6.163   1.366
 4842SOL    HW215426   3.559   6.190   1.228
 4843SOL     OW15427   7.004   3.401   0.172
 4843SOL    HW115428   6.992   3.306   0.144
 4843SOL    HW215429   0.055   3.441   0.123
 4844SOL     OW15430   6.435   1.764   5.632
 4844SOL    HW115431   6.410   1.726   5.543
 4844SOL    HW215432   6.533   1.784   5.634
 4845SOL     OW15433   6.188   5.537   3.906
 4845SOL    HW115434   6.147   5.478   3.837
 4845SOL    HW215435   6.131   5.536   3.989
 4846SOL     OW15436   1.164   4.387   0.853
 4846SOL    HW115437   1.153   4.396   0.952
 4846SOL    HW215438   1.155   4.291   0.827
 4847SOL     OW15439   4.058   2.223   4.234
 4847SOL    HW115440   4.028   2.278   4.311
 4847SOL    HW215441   4.148   2.254   4.203
 4848SOL     OW15442   2.826   2.213   2.413
 4848SOL    HW115443   2.873   2.237   2.328
 4848SOL    HW215444   2.732   2.189   2.393
 4849SOL     OW15445   1.360   6.034   0.106
 4849SOL    HW115446   1.306   6.070   0.030
 4849SOL    HW215447   1.444   5.993   0.071
 4850SOL     OW15448   3.840   0.617   2.437
 4850SOL    HW115449   3.848   0.708   2.479
 4850SOL    HW215450   3.897   0.613   2.355
 4851SOL     OW15451   5.032   6.550   5.051
 4851SOL    HW115452   5.091   6.551   4.970
 4851SOL    HW215453   4.937   6.546   5.023
 4852SOL     OW15454   1.596   1.446   0.784
 4852SOL    HW115455   1.620   1.454   0.881
 4852SOL    HW215456   1.566   1.535   0.749
 4853SOL     OW15457   2.948   1.599   1.873
 4853SOL    HW115458   2.992   1.575   1.959
 4853SOL    HW215459   3.013   1.649   1.815
 4854SOL     OW15460   4.701   6.767   1.070
 4854SOL    HW115461   4.672   6.673   1.088
 4854SOL    HW215462   4.637   6.830   1.115
 4855SOL     OW15463   0.187   2.654   2.491
 4855SOL    HW115464   0.164   2.612   2.403
 4855SOL    HW215465   0.240   2.738   2.475
 4856SOL     OW15466   2.793   4.732   3.611
 4856SOL    HW115467   2.837   4.809   3.658
 4856SOL    HW215468   2.720   4.695   3.667
 4857SOL     OW15469   6.955   1.816   5.558
 4857SOL    HW115470   6.988   1.897   5.510
 4857SOL    HW215471   6.991   1.814   5.651
 4858SOL     OW15472   1.368   1.423   3.581
 4858SOL    HW115473   1.395   1.485   3.655
 4858SOL    HW215474   1.342   1.334   3.620
 4859SOL     OW15475   2.444   5.739   5.176
 4859SOL    HW115476   2.386   5.732   5.095
 4859SOL    HW215477   2.500   5.656   5.184
 4860SOL     OW15478   4.551   4.960   0.835
 4860SOL    HW115479   4.500   5.040   0.803
 4860SOL    HW215480   4.641   4.958   0.790
 4861SOL     OW15481   5.242   3.643   5.453
 4861SOL    HW115482   5.340   3.663   5.447
 4861SOL    HW215483   5.219   3.618   5.547
 4862SOL     OW15484   1.570   6.279   2.397
 4862SOL    HW115485   1.633   6.356   2.405
 4862SOL    HW215486   1.612   6.198   2.438
 4863SOL     OW15487   6.338   4.300   6.671
 4863SOL    HW115488   6.407   4.237   6.633
 4863SOL    HW215489   6.376   4.392   6.677
 4864SOL     OW15490   2.746   1.352   3.802
 4864SOL    HW115491   2.833   1.339   3.756
 4864SOL    HW215492   2.759   1.344   3.901
 4865SOL     OW15493   1.997   6.444   4.949
 4865SOL    HW115494   1.941   6.518   4.987
 4865SOL    HW215495   2.091   6.476   4.938
 4866SOL     OW15496   6.601   4.110   6.871
 4866SOL    HW115497   6.553   4.042   6.928
 4866SOL    HW215498   6.587   4.201   6.909
 4867SOL     OW15499   5.211   6.925   2.883
 4867SOL    HW115500   5.172   7.010   2.849
 4867SOL    HW215501   5.199   6.853   2.815
 4868SOL     OW15502   0.001   4.616   0.767
 4868SOL    HW115503   0.069   4.652   0.704
 4868SOL    HW215504   6.987   4.533   0.728
 4869SOL     OW15505   0.790   1.094   0.313
 4869SOL    HW115506   0.841   1.008   0.323
 4869SOL    HW215507   0.842   1.156   0.253
 4870SOL     OW15508   0.951   6.282   2.096
 4870SOL    HW115509   0.864   6.264   2.143
 4870SOL    HW215510   1.011   6.334   2.157
 4871SOL     OW15511   1.402   1.558   4.316
 4871SOL    HW115512   1.355   1.607   4.241
 4871SOL    HW215513   1.452   1.480   4.278
 4872SOL     OW15514   5.880   6.854   3.113
 4872SOL    HW115515   5.816   6.871   3.038
 4872SOL    HW215516   5.956   6.918   3.106
 4873SOL     OW15517   6.854   5.803   5.366
 4873SOL    HW115518   6.910   5.871   5.414
 4873SOL    HW215519   6.855   5.823   5.268
 4874SOL     OW15520   5.548   2.807   2.887
 4874SOL    HW115521   5.598   2.781   2.969
 4874SOL    HW215522   5.450   2.812   2.908
 4875SOL     OW15523   5.781   6.451   4.985
 4875SOL    HW115524   5.777   6.361   5.028
 4875SOL    HW215525   5.837   6.513   5.041
 4876SOL     OW15526   2.086   1.281   3.124
 4876SOL    HW115527   1.990   1.311   3.123
 4876SOL    HW215528   2.095   1.202   3.186
 4877SOL     OW15529   0.036   1.771   5.089
 4877SOL    HW115530   0.081   1.712   5.022
 4877SOL    HW215531   0.079   1.861   5.088
 4878SOL     OW15532   0.756   2.429   2.308
 4878SOL    HW115533   0.727   2.335   2.328
 4878SOL    HW215534   0.675   2.487   2.297
 4879SOL     OW15535   5.590   1.477   3.317
 4879SOL    HW115536   5.655   1.452   3.246
 4879SOL    HW215537   5.518   1.534   3.278
 4880SOL     OW15538   6.796   2.618   6.277
 4880SOL    HW115539   6.707   2.590   6.240
 4880SOL    HW215540   6.796   2.605   6.376
 4881SOL     OW15541   1.604   2.952   1.639
 4881SOL    HW115542   1.636   3.019   1.706
 4881SOL    HW215543   1.601   2.861   1.681
 4882SOL     OW15544   4.443   2.145   4.352
 4882SOL    HW115545   4.383   2.196   4.292
 4882SOL    HW215546   4.405   2.144   4.445
 4883SOL     OW15547   6.490   3.959   1.505
 4883SOL    HW115548   6.500   4.000   1.414
 4883SOL    HW215549   6.396   3.927   1.517
 4884SOL     OW15550   2.280   6.611   1.948
 4884SOL    HW115551   2.230   6.658   1.875
 4884SOL    HW215552   2.274   6.664   2.032
 4885SOL     OW15553   1.257   4.120   0.428
 4885SOL    HW115554   1.163   4.154   0.428
 4885SOL    HW215555   1.303   4.149   0.512
 4886SOL     OW15556   2.782   1.309   2.052
 4886SOL    HW115557   2.720   1.362   1.993
 4886SOL    HW215558   2.846   1.257   1.995
 4887SOL     OW15559   6.470   6.886   1.041
 4887SOL    HW115560   6.504   6.830   0.965
 4887SOL    HW215561   6.543   6.945   1.074
 4888SOL     OW15562   4.137   6.205   3.206
 4888SOL    HW115563   4.197   6.284   3.195
 4888SOL    HW215564   4.074   6.200   3.129
 4889SOL     OW15565   6.745   3.050   3.655
 4889SOL    HW115566   6.761   3.094   3.744
 4889SOL    HW215567   6.771   2.953   3.660
 4890SOL     OW15568   0.431   1.551   4.760
 4890SOL    HW115569   0.379   1.634   4.740
 4890SOL    HW215570   0.514   1.549   4.704
 4891SOL     OW15571   2.718   5.808   6.070
 4891SOL    HW115572   2.636   5.847   6.028
 4891SOL    HW215573   2.784   5.783   5.998
 4892SOL     OW15574   5.355   5.863   2.819
 4892SOL    HW115575   5.268   5.832   2.781
 4892SOL    HW215576   5.384   5.946   2.773
 4893SOL     OW15577   0.541   3.345   1.875
 4893SOL    HW115578   0.448   3.364   1.907
 4893SOL    HW215579   0.607   3.384   1.939
 4894SOL     OW15580   4.784   0.085   1.925
 4894SOL    HW115581   4.864   0.045   1.879
 4894SOL    HW215582   4.737   0.013   1.976
 4895SOL     OW15583   6.904   4.537   4.122
 4895SOL    HW115584   6.988   4.484   4.113
 4895SOL    HW215585   6.842   4.491   4.185
 4896SOL     OW15586   1.903   5.005   3.840
 4896SOL    HW115587   1.867   5.000   3.933
 4896SOL    HW215588   1.998   5.034   3.842
 4897SOL     OW15589   1.548   6.334   5.193
 4897SOL    HW115590   1.532   6.427   5.226
 4897SOL    HW215591   1.575   6.276   5.269
 4898SOL     OW15592   4.482   2.029   3.827
 4898SOL    HW115593   4.403   2.073   3.784
 4898SOL    HW215594   4.499   2.071   3.916
 4899SOL     OW15595   0.002   5.522   1.912
 4899SOL    HW115596   6.978   5.437   1.891
 4899SOL    HW215597   0.074   5.502   1.979
 4900SOL     OW15598   3.769   5.890   5.622
 4900SOL    HW115599   3.809   5.977   5.648
 4900SOL    HW215600   3.840   5.832   5.582
 4901SOL     OW15601   0.015   1.796   5.813
 4901SOL    HW115602   7.003   1.776   5.903
 4901SOL    HW215603   0.106   1.756   5.805
 4902SOL     OW15604   1.591   7.017   5.863
 4902SOL    HW115605   1.543   6.961   5.794
 4902SOL    HW215606   1.652   0.055   5.817
 4903SOL     OW15607   5.281   4.635   2.192
 4903SOL    HW115608   5.198   4.591   2.225
 4903SOL    HW215609   5.306   4.710   2.253
 4904SOL     OW15610   1.918   0.336   0.125
 4904SOL    HW115611   1.960   0.369   0.209
 4904SOL    HW215612   1.862   0.408   0.085
 4905SOL     OW15613   3.369   6.448   2.378
 4905SOL    HW115614   3.441   6.491   2.324
 4905SOL    HW215615   3.391   6.458   2.476
 4906SOL     OW15616   4.798   3.060   4.865
 4906SOL    HW115617   4.759   3.027   4.779
 4906SOL    HW215618   4.881   3.113   4.847
 4907SOL     OW15619   4.659   1.669   6.391
 4907SOL    HW115620   4.666   1.657   6.292
 4907SOL    HW215621   4.685   1.762   6.415
 4908SOL     OW15622   3.998   6.553   6.747
 4908SOL    HW115623   3.923   6.539   6.682
 4908SOL    HW215624   3.972   6.518   6.837
 4909SOL     OW15625   5.207   4.728   4.655
 4909SOL    HW115626   5.237   4.725   4.750
 4909SOL    HW215627   5.262   4.664   4.601
 4910SOL     OW15628   4.573   1.394   5.527
 4910SOL    HW115629   4.610   1.464   5.466
 4910SOL    HW215630   4.477   1.378   5.505
 4911SOL     OW15631   7.023   2.781   2.024
 4911SOL    HW115632   0.005   2.684   2.002
 4911SOL    HW215633   0.044   2.836   1.954
 4912SOL     OW15634   5.756   2.249   4.127
 4912SOL    HW115635   5.743   2.258   4.225
 4912SOL    HW215636   5.781   2.338   4.088
 4913SOL     OW15637   0.029   3.025   5.921
 4913SOL    HW115638   0.086   2.955   5.963
 4913SOL    HW215639   6.959   3.003   5.937
 4914SOL     OW15640   4.615   0.342   3.465
 4914SOL    HW115641   4.620   0.295   3.377
 4914SOL    HW215642   4.701   0.328   3.514
 4915SOL     OW15643   3.361   5.117   6.052
 4915SOL    HW115644   3.363   5.133   6.151
 4915SOL    HW215645   3.294   5.178   6.010
 4916SOL     OW15646   6.374   2.359   3.834
 4916SOL    HW115647   6.461   2.340   3.881
 4916SOL    HW215648   6.324   2.429   3.884
 4917SOL     OW15649   4.580   6.833   0.547
 4917SOL    HW115650   4.523   6.859   0.624
 4917SOL    HW215651   4.609   6.914   0.497
 4918SOL     OW15652   6.225   5.289   2.790
 4918SOL    HW115653   6.308   5.255   2.834
 4918SOL    HW215654   6.187   5.364   2.844
 4919SOL     OW15655   3.708   4.010   2.303
 4919SOL    HW115656   3.646   4.075   2.257
 4919SOL    HW215657   3.753   4.056   2.379
 4920SOL     OW15658   5.919   0.832   5.561
 4920SOL    HW115659   5.989   0.765   5.537
 4920SOL    HW215660   5.963   0.921   5.576
 4921SOL     OW15661   0.413   7.005   2.156
 4921SOL    HW115662   0.456   0.069   2.151
 4921SOL    HW215663   0.395   6.982   2.252
 4922SOL     OW15664   3.347   2.302   6.530
 4922SOL    HW115665   3.302   2.374   6.477
 4922SOL    HW215666   3.420   2.342   6.584
 4923SOL     OW15667   3.339   1.594   1.950
 4923SOL    HW115668   3.422   1.649   1.950
 4923SOL    HW215669   3.279   1.625   1.876
 4924SOL     OW15670   2.423   0.365   5.405
 4924SOL    HW115671   2.388   0.428   5.336
 4924SOL    HW215672   2.394   0.272   5.383
 4925SOL     OW15673   5.409   5.494   3.433
 4925SOL    HW115674   5.415   5.398   3.462
 4925SOL    HW215675   5.364   5.548   3.504
 4926SOL     OW15676   5.566   2.424   1.085
 4926SOL    HW115677   5.616   2.408   1.170
 4926SOL    HW215678   5.508   2.506   1.095
 4927SOL     OW15679   3.530   1.622   6.532
 4927SOL    HW115680   3.443   1.658   6.566
 4927SOL    HW215681   3.518   1.587   6.439
 4928SOL     OW15682   0.079   1.866   0.445
 4928SOL    HW115683   0.104   1.797   0.513
 4928SOL    HW215684   0.083   1.957   0.486
 4929SOL     OW15685   0.483   6.368   5.013
 4929SOL    HW115686   0.486   6.339   4.917
 4929SOL    HW215687   0.552   6.438   5.029
 4930SOL     OW15688   5.299   6.305   2.349
 4930SOL    HW115689   5.249   6.353   2.421
 4930SOL    HW215690   5.267   6.211   2.341
 4931SOL     OW15691   6.373   5.792   0.731
 4931SOL    HW115692   6.437   5.719   0.756
 4931SOL    HW215693   6.306   5.758   0.666
 4932SOL     OW15694   3.101   3.225   2.118
 4932SOL    HW115695   3.040   3.246   2.042
 4932SOL    HW215696   3.054   3.243   2.205
 4933SOL     OW15697   2.877   6.614   5.550
 4933SOL    HW115698   2.895   6.687   5.484
 4933SOL    HW215699   2.853   6.530   5.500
 4934SOL     OW15700   4.076   4.799   3.032
 4934SOL    HW115701   4.160   4.746   3.016
 4934SOL    HW215702   4.077   4.836   3.125
 4935SOL     OW15703   0.078   1.098   6.399
 4935SOL    HW115704   0.023   1.041   6.460
 4935SOL    HW215705   0.048   1.085   6.305
 4936SOL     OW15706   3.169   3.066   0.656
 4936SOL    HW115707   3.244   3.041   0.595
 4936SOL    HW215708   3.174   3.012   0.740
 4937SOL     OW15709   4.463   2.418   5.243
 4937SOL    HW115710   4.540   2.364   5.208
 4937SOL    HW215711   4.485   2.515   5.235
 4938SOL     OW15712   4.350   5.674   6.151
 4938SOL    HW115713   4.361   5.760   6.101
 4938SOL    HW215714   4.257   5.669   6.187
 4939SOL     OW15715   4.486   2.971   5.945
 4939SOL    HW115716   4.490   2.874   5.921
 4939SOL    HW215717   4.521   2.984   6.037
 4940SOL     OW15718   1.900   6.162   4.456
 4940SOL    HW115719   1.881   6.086   4.393
 4940SOL    HW215720   1.981   6.211   4.424
 4941SOL     OW15721   5.488   0.445   0.875
 4941SOL    HW115722   5.426   0.369   0.858
 4941SOL    HW215723   5.581   0.411   0.891
 4942SOL     OW15724   5.375   4.352   5.628
 4942SOL    HW115725   5.397   4.255   5.622
 4942SOL    HW215726   5.448   4.406   5.586
 4943SOL     OW15727   4.899   2.256   1.303
 4943SOL    HW115728   4.897   2.354   1.280
 4943SOL    HW215729   4.815   2.213   1.270
 4944SOL     OW15730   2.121   4.800   2.653
 4944SOL    HW115731   2.202   4.848   2.621
 4944SOL    HW215732   2.061   4.864   2.701
 4945SOL     OW15733   0.702   6.604   4.506
 4945SOL    HW115734   0.693   6.518   4.556
 4945SOL    HW215735   0.796   6.615   4.474
 4946SOL     OW15736   1.121   4.181   2.283
 4946SOL    HW115737   1.170   4.095   2.271
 4946SOL    HW215738   1.137   4.240   2.203
 4947SOL     OW15739   0.365   6.848   0.579
 4947SOL    HW115740   0.428   6.771   0.564
 4947SOL    HW215741   0.417   6.926   0.614
 4948SOL     OW15742   1.802   1.393   2.027
 4948SOL    HW115743   1.717   1.403   2.079
 4948SOL    HW215744   1.789   1.429   1.935
 4949SOL     OW15745   5.531   1.664   4.266
 4949SOL    HW115746   5.602   1.687   4.200
 4949SOL    HW215747   5.462   1.737   4.268
 4950SOL     OW15748   3.240   5.803   5.242
 4950SOL    HW115749   3.250   5.709   5.274
 4950SOL    HW215750   3.149   5.815   5.201
 4951SOL     OW15751   4.339   2.014   3.368
 4951SOL    HW115752   4.402   2.075   3.320
 4951SOL    HW215753   4.247   2.028   3.332
 4952SOL     OW15754   0.692   5.734   4.992
 4952SOL    HW115755   0.754   5.809   4.971
 4952SOL    HW215756   0.706   5.704   5.086
 4953SOL     OW15757   1.606   5.398   1.666
 4953SOL    HW115758   1.629   5.429   1.758
 4953SOL    HW215759   1.577   5.302   1.669
 4954SOL     OW15760   5.491   5.475   6.635
 4954SOL    HW115761   5.537   5.434   6.714
 4954SOL    HW215762   5.527   5.568   6.620
 4955SOL     OW15763   0.954   6.363   1.414
 4955SOL    HW115764   1.009   6.444   1.432
 4955SOL    HW215765   0.968   6.297   1.488
 4956SOL     OW15766   4.758   6.169   4.449
 4956SOL    HW115767   4.733   6.264   4.467
 4956SOL    HW215768   4.740   6.148   4.352
 4957SOL     OW15769   1.018   0.281   3.797
 4957SOL    HW115770   1.053   0.304   3.888
 4957SOL    HW215771   1.094   0.276   3.732
 4958SOL     OW15772   0.007   5.925   7.005
 4958SOL    HW115773   0.107   5.925   7.017
 4958SOL    HW215774   7.011   5.924   6.908
 4959SOL     OW15775   1.049   1.066   1.341
 4959SOL    HW115776   1.114   1.132   1.380
 4959SOL    HW215777   1.079   1.041   1.249
 4960SOL     OW15778   3.762   6.570   5.152
 4960SOL    HW115779   3.831   6.599   5.218
 4960SOL    HW215780   3.802   6.501   5.091
 4961SOL     OW15781   4.227   0.494   5.087
 4961SOL    HW115782   4.185   0.520   5.175
 4961SOL    HW215783   4.326   0.493   5.097
 4962SOL     OW15784   6.946   1.522   1.295
 4962SOL    HW115785   0.011   1.483   1.308
 4962SOL    HW215786   6.933   1.597   1.361
 4963SOL     OW15787   0.285   5.132   1.645
 4963SOL    HW115788   0.364   5.142   1.706
 4963SOL    HW215789   0.292   5.045   1.596
 4964SOL     OW15790   3.793   6.360   3.558
 4964SOL    HW115791   3.755   6.398   3.474
 4964SOL    HW215792   3.891   6.342   3.546
 4965SOL     OW15793   6.871   6.757   4.557
 4965SOL    HW115794   6.936   6.768   4.481
 4965SOL    HW215795   6.915   6.707   4.631
 4966SOL     OW15796   3.732   4.923   4.107
 4966SOL    HW115797   3.762   4.966   4.022
 4966SOL    HW215798   3.797   4.944   4.179
 4967SOL     OW15799   4.271   2.379   5.891
 4967SOL    HW115800   4.279   2.288   5.930
 4967SOL    HW215801   4.305   2.378   5.797
 4968SOL     OW15802   5.929   3.476   5.714
 4968SOL    HW115803   5.993   3.548   5.742
 4968SOL    HW215804   5.843   3.518   5.686
 4969SOL     OW15805   0.941   1.964   1.994
 4969SOL    HW115806   0.892   1.928   1.914
 4969SOL    HW215807   0.878   1.970   2.071
 4970SOL     OW15808   0.798   2.571   6.071
 4970SOL    HW115809   0.795   2.661   6.029
 4970SOL    HW215810   0.704   2.537   6.084
 4971SOL     OW15811   6.254   6.097   3.991
 4971SOL    HW115812   6.258   6.151   4.075
 4971SOL    HW215813   6.279   6.002   4.012
 4972SOL     OW15814   1.056   2.535   6.024
 4972SOL    HW115815   1.096   2.480   6.097
 4972SOL    HW215816   0.960   2.553   6.043
 4973SOL     OW15817   5.655   5.989   2.897
 4973SOL    HW115818   5.625   6.001   2.991
 4973SOL    HW215819   5.580   6.012   2.835
 4974SOL     OW15820   5.269   6.676   1.802
 4974SOL    HW115821   5.173   6.690   1.827
 4974SOL    HW215822   5.279   6.586   1.759
 4975SOL     OW15823   5.722   5.970   0.243
 4975SOL    HW115824   5.635   5.926   0.222
 4975SOL    HW215825   5.726   5.991   0.341
 4976SOL     OW15826   4.045   0.353   4.660
 4976SOL    HW115827   4.014   0.273   4.712
 4976SOL    HW215828   4.127   0.329   4.608
 4977SOL     OW15829   3.513   4.055   0.184
 4977SOL    HW115830   3.586   3.992   0.156
 4977SOL    HW215831   3.524   4.142   0.134
 4978SOL     OW15832   6.054   2.954   5.992
 4978SOL    HW115833   6.096   2.874   6.034
 4978SOL    HW215834   6.123   3.024   5.976
 4979SOL     OW15835   1.768   1.553   5.143
 4979SOL    HW115836   1.782   1.598   5.054
 4979SOL    HW215837   1.777   1.454   5.131
 4980SOL     OW15838   2.438   5.513   2.315
 4980SOL    HW115839   2.460   5.610   2.325
 4980SOL    HW215840   2.522   5.460   2.305
 4981SOL     OW15841   4.174   6.615   5.480
 4981SOL    HW115842   4.170   6.676   5.559
 4981SOL    HW215843   4.254   6.637   5.424
 4982SOL     OW15844   2.605   2.786   0.261
 4982SOL    HW115845   2.544   2.862   0.241
 4982SOL    HW215846   2.586   2.710   0.199
 4983SOL     OW15847   5.436   3.042   4.392
 4983SOL    HW115848   5.471   2.954   4.422
 4983SOL    HW215849   5.404   3.095   4.471
 4984SOL     OW15850   4.831   3.903   2.933
 4984SOL    HW115851   4.892   3.886   2.857
 4984SOL    HW215852   4.847   3.836   3.005
 4985SOL     OW15853   5.562   4.006   2.655
 4985SOL    HW115854   5.659   4.008   2.632
 4985SOL    HW215855   5.519   4.091   2.626
 4986SOL     OW15856   5.107   4.678   1.922
 4986SOL    HW115857   5.156   4.688   2.009
 4986SOL    HW215858   5.092   4.581   1.904
 4987SOL     OW15859   0.314   3.684   1.010
 4987SOL    HW115860   0.334   3.665   0.914
 4987SOL    HW215861   0.399   3.701   1.059
 4988SOL     OW15862   0.305   2.144   5.184
 4988SOL    HW115863   0.381   2.139   5.120
 4988SOL    HW215864   0.317   2.076   5.257
 4989SOL     OW15865   0.320   0.979   0.565
 4989SOL    HW115866   0.374   1.015   0.489
 4989SOL    HW215867   0.378   0.921   0.622
 4990SOL     OW15868   0.483   2.437   5.330
 4990SOL    HW115869   0.545   2.369   5.293
 4990SOL    HW215870   0.405   2.448   5.268
 4991SOL     OW15871   1.645   2.620   4.502
 4991SOL    HW115872   1.713   2.551   4.529
 4991SOL    HW215873   1.659   2.703   4.557
 4992SOL     OW15874   3.139   1.046   5.705
 4992SOL    HW115875   3.217   1.077   5.651
 4992SOL    HW215876   3.137   1.094   5.793
 4993SOL     OW15877   2.809   5.822   4.157
 4993SOL    HW115878   2.783   5.897   4.096
 4993SOL    HW215879   2.765   5.737   4.126
 4994SOL     OW15880   0.061   6.617   2.385
 4994SOL    HW115881   7.005   6.604   2.442
 4994SOL    HW215882   0.050   6.699   2.330
 4995SOL     OW15883   5.756   2.402   5.990
 4995SOL    HW115884   5.668   2.450   5.994
 4995SOL    HW215885   5.743   2.313   5.948
 4996SOL     OW15886   0.696   1.272   4.210
 4996SOL    HW115887   0.604   1.300   4.184
 4996SOL    HW215888   0.724   1.320   4.293
 4997SOL     OW15889   0.618   2.543   3.360
 4997SOL    HW115890   0.659   2.581   3.277
 4997SOL    HW215891   0.558   2.611   3.402
 4998SOL     OW15892   1.333   5.487   4.987
 4998SOL    HW115893   1.277   5.407   4.969
 4998SOL    HW215894   1.412   5.488   4.925
 4999SOL     OW15895   6.131   4.297   1.268
 4999SOL    HW115896   6.031   4.295   1.274
 4999SOL    HW215897   6.158   4.344   1.184
 5000SOL     OW15898   6.959   5.761   4.227
 5000SOL    HW115899   7.002   5.835   4.174
 5000SOL    HW215900   6.939   5.684   4.165
 5001SOL     OW15901   4.625   4.296   5.749
 5001SOL    HW115902   4.707   4.354   5.749
 5001SOL    HW215903   4.623   4.241   5.665
 5002SOL     OW15904   2.318   1.410   1.286
 5002SOL    HW115905   2.351   1.504   1.273
 5002SOL    HW215906   2.381   1.360   1.345
 5003SOL     OW15907   6.540   5.530   2.941
 5003SOL    HW115908   6.614   5.463   2.944
 5003SOL    HW215909   6.578   5.623   2.940
 5004SOL     OW15910   3.509   5.537   6.871
 5004SOL    HW115911   3.592   5.519   6.817
 5004SOL    HW215912   3.533   5.550   6.967
 5005SOL     OW15913   4.530   2.471   6.991
 5005SOL    HW115914   4.616   2.497   6.947
 5005SOL    HW215915   4.538   2.378   0.000
 5006SOL     OW15916   5.264   4.951   3.975
 5006SOL    HW115917   5.192   4.893   4.014
 5006SOL    HW215918   5.353   4.910   3.994
 5007SOL     OW15919   3.886   1.537   4.637
 5007SOL    HW115920   3.814   1.503   4.577
 5007SOL    HW215921   3.929   1.459   4.685
 5008SOL     OW15922   6.648   1.614   3.797
 5008SOL    HW115923   6.648   1.613   3.897
 5008SOL    HW215924   6.709   1.543   3.762
 5009SOL     OW15925   2.082   6.082   3.988
 5009SOL    HW115926   2.016   6.042   3.925
 5009SOL    HW215927   2.114   6.169   3.951
 5010SOL     OW15928   4.082   3.267   4.621
 5010SOL    HW115929   4.112   3.360   4.642
 5010SOL    HW215930   4.059   3.260   4.524
 5011SOL     OW15931   1.784   2.494   2.563
 5011SOL    HW115932   1.849   2.570   2.558
 5011SOL    HW215933   1.692   2.527   2.544
 5012SOL     OW15934   6.303   3.271   6.852
 5012SOL    HW115935   6.216   3.252   6.807
 5012SOL    HW215936   6.295   3.249   6.949
 5013SOL     OW15937   4.501   1.342   6.479
 5013SOL    HW115938   4.583   1.377   6.526
 5013SOL    HW215939   4.517   1.249   6.448
 5014SOL     OW15940   6.086   6.556   0.057
 5014SOL    HW115941   6.039   6.523   0.139
 5014SOL    HW215942   6.025   6.550   7.004
 5015SOL     OW15943   5.125   2.299   3.148
 5015SOL    HW115944   5.206   2.340   3.190
 5015SOL    HW215945   5.060   2.272   3.219
 5016SOL     OW15946   2.405   6.849   2.389
 5016SOL    HW115947   2.380   6.909   2.464
 5016SOL    HW215948   2.422   6.757   2.424
 5017SOL     OW15949   2.581   2.763   1.501
 5017SOL    HW115950   2.549   2.694   1.436
 5017SOL    HW215951   2.534   2.750   1.589
 5018SOL     OW15952   6.527   5.232   4.226
 5018SOL    HW115953   6.446   5.286   4.247
 5018SOL    HW215954   6.526   5.148   4.280
 5019SOL     OW15955   2.703   5.403   6.138
 5019SOL    HW115956   2.756   5.479   6.177
 5019SOL    HW215957   2.689   5.419   6.040
 5020SOL     OW15958   5.166   5.664   6.750
 5020SOL    HW115959   5.072   5.638   6.728
 5020SOL    HW215960   5.181   5.655   6.849
 5021SOL     OW15961   2.200   5.060   6.083
 5021SOL    HW115962   2.194   5.156   6.108
 5021SOL    HW215963   2.122   5.036   6.025
 5022SOL     OW15964   1.807   5.090   0.749
 5022SOL    HW115965   1.770   5.158   0.686
 5022SOL    HW215966   1.897   5.120   0.783
 5023SOL     OW15967   6.671   3.396   2.494
 5023SOL    HW115968   6.723   3.480   2.510
 5023SOL    HW215969   6.582   3.402   2.540
 5024SOL     OW15970   5.434   3.445   5.290
 5024SOL    HW115971   5.457   3.426   5.386
 5024SOL    HW215972   5.377   3.527   5.285
 5025SOL     OW15973   6.535   1.802   2.922
 5025SOL    HW115974   6.525   1.860   3.003
 5025SOL    HW215975   6.568   1.712   2.950
 5026SOL     OW15976   0.479   6.385   2.772
 5026SOL    HW115977   0.406   6.321   2.798
 5026SOL    HW215978   0.439   6.471   2.741
 5027SOL     OW15979   1.176   0.022   3.454
 5027SOL    HW115980   1.215   6.971   3.505
 5027SOL    HW215981   1.205   0.108   3.496
 5028SOL     OW15982   1.159   0.695   2.792
 5028SOL    HW115983   1.225   0.672   2.720
 5028SOL    HW215984   1.099   0.769   2.760
 5029SOL     OW15985   7.008   1.053   2.502
 5029SOL    HW115986   0.049   1.086   2.435
 5029SOL    HW215987   6.992   1.124   2.570
 5030SOL     OW15988   1.884   5.559   6.886
 5030SOL    HW115989   1.860   5.566   6.983
 5030SOL    HW215990   1.828   5.623   6.833
 5031SOL     OW15991   5.730   0.145   4.880
 5031SOL    HW115992   5.715   0.174   4.786
 5031SOL    HW215993   5.724   0.224   4.941
 5032SOL     OW15994   1.037   6.157   0.836
 5032SOL    HW115995   1.116   6.127   0.781
 5032SOL    HW215996   1.038   6.108   0.924
 5033SOL     OW15997   1.606   4.397   6.019
 5033SOL    HW115998   1.611   4.407   5.920
 5033SOL    HW215999   1.698   4.389   6.057
 5034SOL     OW16000   6.610   4.097   0.455
 5034SOL    HW116001   6.679   4.087   0.383
 5034SOL    HW216002   6.526   4.134   0.414
 5035SOL     OW16003   6.217   4.035   1.180
 5035SOL    HW116004   6.177   4.113   1.228
 5035SOL    HW216005   6.245   4.062   1.088
 5036SOL     OW16006   1.901   0.589   2.301
 5036SOL    HW116007   1.895   0.682   2.265
 5036SOL    HW216008   1.809   0.554   2.318
 5037SOL     OW16009   4.623   2.677   3.367
 5037SOL    HW116010   4.575   2.597   3.402
 5037SOL    HW216011   4.654   2.733   3.443
 5038SOL     OW16012   2.725   6.572   5.799
 5038SOL    HW116013   2.726   6.666   5.833
 5038SOL    HW216014   2.734   6.572   5.699
 5039SOL     OW16015   2.003   1.476   3.640
 5039SOL    HW116016   2.035   1.463   3.546
 5039SOL    HW216017   2.080   1.499   3.699
 5040SOL     OW16018   2.907   3.336   6.554
 5040SOL    HW116019   3.006   3.330   6.559
 5040SOL    HW216020   2.866   3.268   6.615
 5041SOL     OW16021   1.409   5.403   1.060
 5041SOL    HW116022   1.460   5.318   1.069
 5041SOL    HW216023   1.352   5.398   0.977
 5042SOL     OW16024   6.078   2.202   5.961
 5042SOL    HW116025   5.995   2.216   6.016
 5042SOL    HW216026   6.144   2.148   6.013
 5043SOL     OW16027   4.398   6.956   3.377
 5043SOL    HW116028   4.339   6.893   3.327
 5043SOL    HW216029   4.391   0.021   3.337
 5044SOL     OW16030   6.129   4.411   3.166
 5044SOL    HW116031   6.099   4.319   3.192
 5044SOL    HW216032   6.058   4.455   3.111
 5045SOL     OW16033   5.878   2.821   6.450
 5045SOL    HW116034   5.813   2.780   6.387
 5045SOL    HW216035   5.971   2.798   6.422
 5046SOL     OW16036   3.304   3.121   5.290
 5046SOL    HW116037   3.218   3.106   5.242
 5046SOL    HW216038   3.359   3.189   5.241
 5047SOL     OW16039   1.327   0.911   2.640
 5047SOL    HW116040   1.425   0.924   2.628
 5047SOL    HW216041   1.285   0.892   2.551
 5048SOL     OW16042   5.596   3.207   1.483
 5048SOL    HW116043   5.516   3.187   1.540
 5048SOL    HW216044   5.578   3.288   1.427
 5049SOL     OW16045   1.527   2.584   2.565
 5049SOL    HW116046   1.541   2.679   2.537
 5049SOL    HW216047   1.454   2.543   2.510
 5050SOL     OW16048   0.866   3.628   0.944
 5050SOL    HW116049   0.842   3.634   0.847
 5050SOL    HW216050   0.965   3.623   0.955
 5051SOL     OW16051   2.925   4.412   0.341
 5051SOL    HW116052   2.846   4.419   0.280
 5051SOL    HW216053   2.995   4.354   0.299
 5052SOL     OW16054   5.589   3.645   0.986
 5052SOL    HW116055   5.602   3.744   0.990
 5052SOL    HW216056   5.640   3.609   0.908
 5053SOL     OW16057   2.165   4.985   0.357
 5053SOL    HW116058   2.196   4.892   0.344
 5053SOL    HW216059   2.134   4.997   0.452
 5054SOL     OW16060   3.777   6.077   5.026
 5054SOL    HW116061   3.690   6.035   5.002
 5054SOL    HW216062   3.819   6.026   5.101
 5055SOL     OW16063   1.795   2.103   3.887
 5055SOL    HW116064   1.733   2.041   3.841
 5055SOL    HW216065   1.753   2.194   3.894
 5056SOL     OW16066   1.837   2.343   5.161
 5056SOL    HW116067   1.860   2.246   5.172
 5056SOL    HW216068   1.783   2.374   5.239
 5057SOL     OW16069   0.861   4.828   3.043
 5057SOL    HW116070   0.912   4.743   3.061
 5057SOL    HW216071   0.859   4.883   3.126
 5058SOL     OW16072   3.724   3.899   6.840
 5058SOL    HW116073   3.669   3.853   6.909
 5058SOL    HW216074   3.681   3.986   6.815
 5059SOL     OW16075   4.034   1.509   3.274
 5059SOL    HW116076   4.027   1.596   3.324
 5059SOL    HW216077   4.100   1.519   3.200
 5060SOL     OW16078   0.080   3.652   5.648
 5060SOL    HW116079   0.136   3.689   5.574
 5060SOL    HW216080   0.139   3.614   5.719
 5061SOL     OW16081   3.840   2.396   5.382
 5061SOL    HW116082   3.889   2.483   5.377
 5061SOL    HW216083   3.742   2.413   5.393
 5062SOL     OW16084   5.409   0.570   3.504
 5062SOL    HW116085   5.463   0.504   3.555
 5062SOL    HW216086   5.462   0.654   3.491
 5063SOL     OW16087   1.164   1.043   2.089
 5063SOL    HW116088   1.196   1.067   2.180
 5063SOL    HW216089   1.081   0.987   2.096
 5064SOL     OW16090   5.098   5.921   0.816
 5064SOL    HW116091   5.000   5.905   0.831
 5064SOL    HW216092   5.130   5.990   0.881
 5065SOL     OW16093   2.243   1.063   2.649
 5065SOL    HW116094   2.160   1.108   2.683
 5065SOL    HW216095   2.262   1.094   2.556
 5066SOL     OW16096   2.429   4.843   2.343
 5066SOL    HW116097   2.494   4.811   2.412
 5066SOL    HW216098   2.379   4.922   2.379
 5067SOL     OW16099   5.299   2.554   0.516
 5067SOL    HW116100   5.235   2.515   0.582
 5067SOL    HW216101   5.387   2.507   0.524
 5068SOL     OW16102   2.846   5.734   0.766
 5068SOL    HW116103   2.910   5.678   0.713
 5068SOL    HW216104   2.868   5.831   0.753
 5069SOL     OW16105   3.594   4.931   5.007
 5069SOL    HW116106   3.518   4.952   4.945
 5069SOL    HW216107   3.561   4.872   5.082
 5070SOL     OW16108   5.581   3.711   5.008
 5070SOL    HW116109   5.570   3.633   4.946
 5070SOL    HW216110   5.656   3.769   4.976
 5071SOL     OW16111   2.635   0.194   4.246
 5071SOL    HW116112   2.663   0.280   4.204
 5071SOL    HW216113   2.650   0.199   4.345
 5072SOL     OW16114   0.568   1.314   0.136
 5072SOL    HW116115   0.589   1.247   0.066
 5072SOL    HW216116   0.470   1.334   0.135
 5073SOL     OW16117   2.436   0.924   2.466
 5073SOL    HW116118   2.364   0.895   2.404
 5073SOL    HW216119   2.464   0.848   2.524
 5074SOL     OW16120   3.429   2.095   1.761
 5074SOL    HW116121   3.482   2.044   1.694
 5074SOL    HW216122   3.490   2.155   1.813
 5075SOL     OW16123   0.993   3.530   0.238
 5075SOL    HW116124   1.068   3.464   0.249
 5075SOL    HW216125   1.026   3.622   0.258
 5076SOL     OW16126   5.848   6.970   6.191
 5076SOL    HW116127   5.760   6.998   6.153
 5076SOL    HW216128   5.836   6.886   6.244
 5077SOL     OW16129   0.362   4.653   4.015
 5077SOL    HW116130   0.414   4.584   4.066
 5077SOL    HW216131   0.386   4.744   4.048
 5078SOL     OW16132   0.454   2.005   4.298
 5078SOL    HW116133   0.400   1.921   4.295
 5078SOL    HW216134   0.451   2.044   4.390
 5079SOL     OW16135   1.739   3.016   5.832
 5079SOL    HW116136   1.687   3.025   5.917
 5079SOL    HW216137   1.818   3.078   5.833
 5080SOL     OW16138   5.772   5.848   6.884
 5080SOL    HW116139   5.843   5.829   6.952
 5080SOL    HW216140   5.687   5.871   6.930
 5081SOL     OW16141   3.038   5.833   5.555
 5081SOL    HW116142   2.948   5.820   5.514
 5081SOL    HW216143   3.075   5.922   5.526
 5082SOL     OW16144   5.876   6.170   2.141
 5082SOL    HW116145   5.846   6.217   2.057
 5082SOL    HW216146   5.952   6.109   2.120
 5083SOL     OW16147   1.811   0.297   3.000
 5083SOL    HW116148   1.727   0.281   3.053
 5083SOL    HW216149   1.840   0.211   2.958
 5084SOL     OW16150   2.316   4.953   5.522
 5084SOL    HW116151   2.287   4.886   5.453
 5084SOL    HW216152   2.330   4.907   5.610
 5085SOL     OW16153   0.559   4.578   5.361
 5085SOL    HW116154   0.652   4.550   5.337
 5085SOL    HW216155   0.560   4.671   5.397
 5086SOL     OW16156   1.669   5.250   2.063
 5086SOL    HW116157   1.646   5.302   2.145
 5086SOL    HW216158   1.679   5.312   1.986
 5087SOL     OW16159   6.299   4.654   2.145
 5087SOL    HW116160   6.222   4.634   2.206
 5087SOL    HW216161   6.283   4.611   2.056
 5088SOL     OW16162   5.486   6.364   2.149
 5088SOL    HW116163   5.469   6.276   2.104
 5088SOL    HW216164   5.430   6.371   2.231
 5089SOL     OW16165   5.332   5.464   5.749
 5089SOL    HW116166   5.371   5.376   5.722
 5089SOL    HW216167   5.233   5.461   5.741
 5090SOL     OW16168   2.994   0.062   5.093
 5090SOL    HW116169   2.972   0.002   5.016
 5090SOL    HW216170   2.927   0.047   5.166
 5091SOL     OW16171   6.391   6.714   6.265
 5091SOL    HW116172   6.383   6.631   6.321
 5091SOL    HW216173   6.391   6.794   6.325
 5092SOL     OW16174   3.076   3.480   4.303
 5092SOL    HW116175   3.167   3.461   4.340
 5092SOL    HW216176   3.042   3.567   4.339
 5093SOL     OW16177   2.582   1.736   2.758
 5093SOL    HW116178   2.654   1.731   2.827
 5093SOL    HW216179   2.584   1.825   2.713
 5094SOL     OW16180   2.129   5.452   5.540
 5094SOL    HW116181   2.189   5.381   5.502
 5094SOL    HW216182   2.134   5.534   5.483
 5095SOL     OW16183   6.592   1.530   2.988
 5095SOL    HW116184   6.555   1.494   2.903
 5095SOL    HW216185   6.529   1.508   3.063
 5096SOL     OW16186   5.631   2.744   5.483
 5096SOL    HW116187   5.682   2.798   5.417
 5096SOL    HW216188   5.545   2.714   5.443
 5097SOL     OW16189   1.191   0.568   5.656
 5097SOL    HW116190   1.101   0.606   5.633
 5097SOL    HW216191   1.179   0.493   5.721
 5098SOL     OW16192   3.610   3.307   1.135
 5098SOL    HW116193   3.652   3.380   1.188
 5098SOL    HW216194   3.581   3.342   1.046
 5099SOL     OW16195   1.536   0.114   2.224
 5099SOL    HW116196   1.487   0.029   2.243
 5099SOL    HW216197   1.631   0.093   2.200
 5100SOL     OW16198   5.210   4.037   2.217
 5100SOL    HW116199   5.309   4.041   2.204
 5100SOL    HW216200   5.186   3.952   2.265
 5101SOL     OW16201   3.553   0.518   6.377
 5101SOL    HW116202   3.471   0.575   6.385
 5101SOL    HW216203   3.538   0.449   6.307
 5102SOL     OW16204   4.700   4.522   4.630
 5102SOL    HW116205   4.716   4.426   4.608
 5102SOL    HW216206   4.788   4.568   4.644
 5103SOL     OW16207   0.260   0.913   6.025
 5103SOL    HW116208   0.218   1.000   6.050
 5103SOL    HW216209   0.309   0.923   5.939
 5104SOL     OW16210   3.591   3.586   1.753
 5104SOL    HW116211   3.574   3.504   1.698
 5104SOL    HW216212   3.683   3.621   1.735
 5105SOL     OW16213   4.172   3.228   6.266
 5105SOL    HW116214   4.204   3.180   6.348
 5105SOL    HW216215   4.180   3.167   6.187
 5106SOL     OW16216   4.487   2.532   0.800
 5106SOL    HW116217   4.417   2.603   0.796
 5106SOL    HW216218   4.517   2.508   0.708
 5107SOL     OW16219   4.880   3.550   0.141
 5107SOL    HW116220   4.870   3.453   0.121
 5107SOL    HW216221   4.927   3.561   0.229
 5108SOL     OW16222   4.164   4.661   0.272
 5108SOL    HW116223   4.116   4.619   0.349
 5108SOL    HW216224   4.098   4.700   0.208
 5109SOL     OW16225   1.058   2.833   1.177
 5109SOL    HW116226   1.119   2.871   1.246
 5109SOL    HW216227   1.066   2.886   1.092
 5110SOL     OW16228   4.903   0.410   5.839
 5110SOL    HW116229   4.836   0.402   5.765
 5110SOL    HW216230   4.947   0.500   5.835
 5111SOL     OW16231   0.244   6.496   4.661
 5111SOL    HW116232   0.204   6.480   4.571
 5111SOL    HW216233   0.175   6.483   4.731
 5112SOL     OW16234   6.823   6.924   3.333
 5112SOL    HW116235   6.789   6.899   3.424
 5112SOL    HW216236   6.911   6.971   3.343
 5113SOL     OW16237   1.794   3.941   6.863
 5113SOL    HW116238   1.793   4.040   6.849
 5113SOL    HW216239   1.872   3.916   6.920
 5114SOL     OW16240   4.766   5.201   1.135
 5114SOL    HW116241   4.770   5.118   1.079
 5114SOL    HW216242   4.806   5.183   1.225
 5115SOL     OW16243   1.736   3.744   1.085
 5115SOL    HW116244   1.814   3.686   1.062
 5115SOL    HW216245   1.701   3.787   1.002
 5116SOL     OW16246   1.497   0.894   6.388
 5116SOL    HW116247   1.400   0.890   6.367
 5116SOL    HW216248   1.525   0.989   6.399
 5117SOL     OW16249   1.425   2.463   3.865
 5117SOL    HW116250   1.421   2.453   3.766
 5117SOL    HW216251   1.510   2.423   3.899
 5118SOL     OW16252   4.743   5.562   6.260
 5118SOL    HW116253   4.836   5.531   6.282
 5118SOL    HW216254   4.706   5.507   6.186
 5119SOL     OW16255   5.514   1.006   0.371
 5119SOL    HW116256   5.423   1.019   0.411
 5119SOL    HW216257   5.520   1.056   0.285
 5120SOL     OW16258   5.405   6.305   6.391
 5120SOL    HW116259   5.497   6.328   6.422
 5120SOL    HW216260   5.411   6.242   6.314
 5121SOL     OW16261   1.434   3.378   6.234
 5121SOL    HW116262   1.422   3.348   6.139
 5121SOL    HW216263   1.457   3.475   6.235
 5122SOL     OW16264   5.430   5.278   4.465
 5122SOL    HW116265   5.426   5.239   4.557
 5122SOL    HW216266   5.513   5.332   4.456
 5123SOL     OW16267   4.985   3.240   1.475
 5123SOL    HW116268   4.964   3.149   1.511
 5123SOL    HW216269   5.084   3.250   1.466
 5124SOL     OW16270   2.135   5.991   4.920
 5124SOL    HW116271   2.065   5.948   4.978
 5124SOL    HW216272   2.171   6.072   4.967
 5125SOL     OW16273   0.075   2.027   3.799
 5125SOL    HW116274   0.091   1.939   3.845
 5125SOL    HW216275   0.125   2.099   3.848
 5126SOL     OW16276   2.180   0.441   0.724
 5126SOL    HW116277   2.241   0.377   0.677
 5126SOL    HW216278   2.210   0.534   0.706
 5127SOL     OW16279   2.206   5.308   0.019
 5127SOL    HW116280   2.173   5.369   6.973
 5127SOL    HW216281   2.292   5.265   7.017
 5128SOL     OW16282   6.300   6.997   2.171
 5128SOL    HW116283   6.259   0.029   2.102
 5128SOL    HW216284   6.310   6.904   2.135
 5129SOL     OW16285   5.680   0.003   0.857
 5129SOL    HW116286   5.662   0.098   0.880
 5129SOL    HW216287   5.594   6.984   0.831
 5130SOL     OW16288   0.048   4.806   3.313
 5130SOL    HW116289   0.045   4.769   3.406
 5130SOL    HW216290   0.017   4.902   3.314
 5131SOL     OW16291   2.739   2.336   2.692
 5131SOL    HW116292   2.680   2.412   2.666
 5131SOL    HW216293   2.764   2.283   2.610
 5132SOL     OW16294   3.090   6.508   5.305
 5132SOL    HW116295   3.000   6.500   5.347
 5132SOL    HW216296   3.091   6.457   5.219
 5133SOL     OW16297   4.060   6.745   6.162
 5133SOL    HW116298   4.079   6.834   6.204
 5133SOL    HW216299   4.119   6.676   6.204
 5134SOL     OW16300   6.610   3.940   0.065
 5134SOL    HW116301   6.685   3.973   0.123
 5134SOL    HW216302   6.647   3.877   7.023
 5135SOL     OW16303   6.109   2.067   4.401
 5135SOL    HW116304   6.147   2.123   4.475
 5135SOL    HW216305   6.077   2.126   4.327
 5136SOL     OW16306   4.050   1.285   3.906
 5136SOL    HW116307   4.139   1.301   3.864
 5136SOL    HW216308   4.000   1.215   3.854
 5137SOL     OW16309   3.435   4.640   6.641
 5137SOL    HW116310   3.449   4.724   6.693
 5137SOL    HW216311   3.376   4.578   6.693
 5138SOL     OW16312   2.627   3.305   6.216
 5138SOL    HW116313   2.679   3.339   6.138
 5138SOL    HW216314   2.569   3.379   6.251
 5139SOL     OW16315   0.581   0.194   3.262
 5139SOL    HW116316   0.603   0.186   3.165
 5139SOL    HW216317   0.548   0.287   3.281
 5140SOL     OW16318   3.723   2.829   1.783
 5140SOL    HW116319   3.734   2.732   1.802
 5140SOL    HW216320   3.637   2.844   1.733
 5141SOL     OW16321   6.530   3.314   6.714
 5141SOL    HW116322   6.501   3.352   6.626
 5141SOL    HW216323   6.451   3.302   6.773
 5142SOL     OW16324   5.494   3.131   4.135
 5142SOL    HW116325   5.488   3.109   4.232
 5142SOL    HW216326   5.402   3.148   4.099
 5143SOL     OW16327   6.698   4.876   4.580
 5143SOL    HW116328   6.628   4.856   4.649
 5143SOL    HW216329   6.742   4.790   4.552
 5144SOL     OW16330   1.745   1.241   5.159
 5144SOL    HW116331   1.648   1.263   5.149
 5144SOL    HW216332   1.770   1.167   5.097
 5145SOL     OW16333   3.335   5.976   5.782
 5145SOL    HW116334   3.307   6.071   5.764
 5145SOL    HW216335   3.337   5.925   5.696
 5146SOL     OW16336   2.820   4.658   0.012
 5146SOL    HW116337   2.777   4.585   0.067
 5146SOL    HW216338   2.858   4.727   0.073
 5147SOL     OW16339   5.983   4.909   6.618
 5147SOL    HW116340   5.916   4.838   6.640
 5147SOL    HW216341   5.944   4.999   6.637
 5148SOL     OW16342   0.480   6.158   1.878
 5148SOL    HW116343   0.500   6.113   1.790
 5148SOL    HW216344   0.514   6.101   1.952
 5149SOL     OW16345   6.324   1.308   4.651
 5149SOL    HW116346   6.382   1.227   4.646
 5149SOL    HW216347   6.352   1.373   4.580
 5150SOL     OW16348   1.481   5.155   4.459
 5150SOL    HW116349   1.508   5.147   4.555
 5150SOL    HW216350   1.388   5.122   4.448
 5151SOL     OW16351   4.163   1.057   6.691
 5151SOL    HW116352   4.129   1.012   6.609
 5151SOL    HW216353   4.245   1.110   6.669
 5152SOL     OW16354   0.568   4.970   0.231
 5152SOL    HW116355   0.482   5.016   0.209
 5152SOL    HW216356   0.644   5.034   0.218
 5153SOL     OW16357   1.792   1.362   0.590
 5153SOL    HW116358   1.723   1.384   0.658
 5153SOL    HW216359   1.859   1.436   0.585
 5154SOL     OW16360   2.165   3.223   4.680
 5154SOL    HW116361   2.145   3.194   4.586
 5154SOL    HW216362   2.249   3.179   4.711
 5155SOL     OW16363   3.012   1.224   2.482
 5155SOL    HW116364   2.917   1.226   2.449
 5155SOL    HW216365   3.073   1.205   2.406
 5156SOL     OW16366   5.822   2.852   5.698
 5156SOL    HW116367   5.850   2.778   5.759
 5156SOL    HW216368   5.766   2.816   5.624
 5157SOL     OW16369   5.911   2.996   3.666
 5157SOL    HW116370   5.989   2.976   3.607
 5157SOL    HW216371   5.900   2.921   3.732
 5158SOL     OW16372   4.263   1.466   1.369
 5158SOL    HW116373   4.337   1.528   1.342
 5158SOL    HW216374   4.225   1.422   1.288
 5159SOL     OW16375   0.907   2.860   4.436
 5159SOL    HW116376   0.986   2.840   4.378
 5159SOL    HW216377   0.911   2.956   4.466
 5160SOL     OW16378   2.069   2.923   4.295
 5160SOL    HW116379   2.062   2.823   4.288
 5160SOL    HW216380   2.087   2.948   4.390
 5161SOL     OW16381   1.230   3.042   6.831
 5161SOL    HW116382   1.224   3.135   6.868
 5161SOL    HW216383   1.146   2.992   6.851
 5162SOL     OW16384   6.260   6.306   4.797
 5162SOL    HW116385   6.300   6.341   4.882
 5162SOL    HW216386   6.285   6.365   4.721
 5163SOL     OW16387   5.365   3.501   0.987
 5163SOL    HW116388   5.364   3.433   1.060
 5163SOL    HW216389   5.442   3.563   1.001
 5164SOL     OW16390   5.946   4.534   6.190
 5164SOL    HW116391   5.879   4.547   6.262
 5164SOL    HW216392   6.033   4.575   6.216
 5165SOL     OW16393   6.445   4.585   4.392
 5165SOL    HW116394   6.442   4.653   4.465
 5165SOL    HW216395   6.356   4.541   4.384
 5166SOL     OW16396   0.893   0.092   1.853
 5166SOL    HW116397   0.931   0.129   1.938
 5166SOL    HW216398   0.911   7.020   1.849
 5167SOL     OW16399   0.781   6.415   5.521
 5167SOL    HW116400   0.837   6.332   5.523
 5167SOL    HW216401   0.807   6.474   5.598
 5168SOL     OW16402   4.262   2.101   2.982
 5168SOL    HW116403   4.201   2.130   2.908
 5168SOL    HW216404   4.290   2.181   3.034
 5169SOL     OW16405   3.712   4.562   6.338
 5169SOL    HW116406   3.687   4.607   6.252
 5169SOL    HW216407   3.725   4.464   6.322
 5170SOL     OW16408   5.048   4.021   4.533
 5170SOL    HW116409   5.106   4.052   4.458
 5170SOL    HW216410   5.003   4.100   4.575
 5171SOL     OW16411   2.498   4.575   4.519
 5171SOL    HW116412   2.492   4.518   4.437
 5171SOL    HW216413   2.440   4.536   4.591
 5172SOL     OW16414   2.075   5.232   1.179
 5172SOL    HW116415   2.066   5.323   1.139
 5172SOL    HW216416   2.155   5.186   1.141
 5173SOL     OW16417   5.957   3.867   5.884
 5173SOL    HW116418   5.956   3.886   5.982
 5173SOL    HW216419   5.971   3.952   5.834
 5174SOL     OW16420   1.235   4.531   5.760
 5174SOL    HW116421   1.153   4.507   5.812
 5174SOL    HW216422   1.316   4.521   5.818
 5175SOL     OW16423   0.412   4.811   6.698
 5175SOL    HW116424   0.313   4.813   6.707
 5175SOL    HW216425   0.443   4.894   6.652
 5176SOL     OW16426   5.051   3.563   0.887
 5176SOL    HW116427   5.002   3.578   0.801
 5176SOL    HW216428   5.150   3.563   0.870
 5177SOL     OW16429   5.480   6.665   6.685
 5177SOL    HW116430   5.577   6.676   6.664
 5177SOL    HW216431   5.451   6.739   6.746
 5178SOL     OW16432   2.262   1.972   1.261
 5178SOL    HW116433   2.351   2.017   1.253
 5178SOL    HW216434   2.194   2.038   1.295
 5179SOL     OW16435   2.675   6.035   5.727
 5179SOL    HW116436   2.657   6.133   5.737
 5179SOL    HW216437   2.588   5.986   5.714
 5180SOL     OW16438   3.321   2.440   1.159
 5180SOL    HW116439   3.402   2.383   1.169
 5180SOL    HW216440   3.324   2.487   1.071
 5181SOL     OW16441   3.363   5.400   2.595
 5181SOL    HW116442   3.307   5.384   2.677
 5181SOL    HW216443   3.325   5.347   2.519
 5182SOL     OW16444   5.098   4.396   1.866
 5182SOL    HW116445   5.155   4.365   1.942
 5182SOL    HW216446   5.153   4.403   1.783
 5183SOL     OW16447   4.675   0.528   2.776
 5183SOL    HW116448   4.737   0.490   2.844
 5183SOL    HW216449   4.709   0.617   2.746
 5184SOL     OW16450   0.988   1.565   2.937
 5184SOL    HW116451   1.027   1.526   3.020
 5184SOL    HW216452   0.889   1.554   2.937
 5185SOL     OW16453   3.908   0.292   2.351
 5185SOL    HW116454   3.883   0.263   2.258
 5185SOL    HW216455   3.858   0.375   2.374
 5186SOL     OW16456   6.095   4.484   0.588
 5186SOL    HW116457   6.004   4.491   0.627
 5186SOL    HW216458   6.089   4.490   0.488
 5187SOL     OW16459   5.271   1.684   3.841
 5187SOL    HW116460   5.172   1.682   3.827
 5187SOL    HW216461   5.306   1.590   3.844
 5188SOL     OW16462   0.913   3.712   5.156
 5188SOL    HW116463   0.825   3.696   5.111
 5188SOL    HW216464   0.909   3.799   5.205
 5189SOL     OW16465   4.718   5.298   6.545
 5189SOL    HW116466   4.727   5.314   6.447
 5189SOL    HW216467   4.640   5.351   6.580
 5190SOL     OW16468   1.491   2.380   3.537
 5190SOL    HW116469   1.563   2.445   3.560
 5190SOL    HW216470   1.512   2.336   3.450
 5191SOL     OW16471   3.923   0.517   1.787
 5191SOL    HW116472   3.929   0.613   1.757
 5191SOL    HW216473   3.828   0.496   1.810
 5192SOL     OW16474   6.157   4.601   2.596
 5192SOL    HW116475   6.175   4.564   2.687
 5192SOL    HW216476   6.125   4.527   2.536
 5193SOL     OW16477   5.031   3.747   3.110
 5193SOL    HW116478   5.104   3.787   3.055
 5193SOL    HW216479   5.025   3.649   3.090
 5194SOL     OW16480   5.913   0.981   5.863
 5194SOL    HW116481   5.984   1.049   5.882
 5194SOL    HW216482   5.845   1.021   5.802
 5195SOL     OW16483   5.991   6.702   5.822
 5195SOL    HW116484   5.960   6.640   5.751
 5195SOL    HW216485   5.937   6.687   5.905
 5196SOL     OW16486   0.653   3.263   1.599
 5196SOL    HW116487   0.633   3.313   1.683
 5196SOL    HW216488   0.643   3.165   1.615
 5197SOL     OW16489   3.066   6.302   4.853
 5197SOL    HW116490   3.115   6.219   4.828
 5197SOL    HW216491   3.132   6.377   4.863
 5198SOL     OW16492   4.355   6.880   5.947
 5198SOL    HW116493   4.303   6.950   5.996
 5198SOL    HW216494   4.394   6.919   5.864
 5199SOL     OW16495   0.958   5.017   1.485
 5199SOL    HW116496   1.046   4.982   1.453
 5199SOL    HW216497   0.956   5.016   1.585
 5200SOL     OW16498   6.523   0.762   5.106
 5200SOL    HW116499   6.508   0.859   5.126
 5200SOL    HW216500   6.577   0.722   5.180
 5201SOL     OW16501   6.523   5.130   4.851
 5201SOL    HW116502   6.536   5.184   4.767
 5201SOL    HW216503   6.552   5.184   4.930
 5202SOL     OW16504   3.839   2.927   5.756
 5202SOL    HW116505   3.786   2.977   5.688
 5202SOL    HW216506   3.936   2.927   5.731
 5203SOL     OW16507   1.893   0.850   6.946
 5203SOL    HW116508   1.875   0.926   6.884
 5203SOL    HW216509   1.894   0.884   0.014
 5204SOL     OW16510   2.858   0.074   0.902
 5204SOL    HW116511   2.895   0.050   0.812
 5204SOL    HW216512   2.777   0.019   0.920
 5205SOL     OW16513   0.181   6.170   0.991
 5205SOL    HW116514   0.261   6.230   0.983
 5205SOL    HW216515   0.139   6.182   1.081
 5206SOL     OW16516   1.041   4.998   3.908
 5206SOL    HW116517   1.025   5.059   3.986
 5206SOL    HW216518   0.964   5.003   3.845
 5207SOL     OW16519   6.729   0.304   3.691
 5207SOL    HW116520   6.822   0.314   3.655
 5207SOL    HW216521   6.700   0.209   3.683
 5208SOL     OW16522   5.686   2.029   0.632
 5208SOL    HW116523   5.644   2.056   0.545
 5208SOL    HW216524   5.748   2.100   0.663
 5209SOL     OW16525   5.880   5.776   3.175
 5209SOL    HW116526   5.965   5.758   3.224
 5209SOL    HW216527   5.806   5.723   3.216
 5210SOL     OW16528   5.176   4.039   0.484
 5210SOL    HW116529   5.154   3.969   0.415
 5210SOL    HW216530   5.273   4.033   0.508
 5211SOL     OW16531   5.099   2.423   4.820
 5211SOL    HW116532   5.141   2.334   4.808
 5211SOL    HW216533   5.166   2.487   4.858
 5212SOL     OW16534   1.094   3.791   0.259
 5212SOL    HW116535   1.098   3.877   0.311
 5212SOL    HW216536   1.175   3.784   0.201
 5213SOL     OW16537   3.783   3.679   2.937
 5213SOL    HW116538   3.774   3.695   3.036
 5213SOL    HW216539   3.821   3.588   2.922
 5214SOL     OW16540   5.907   3.606   5.381
 5214SOL    HW116541   5.834   3.625   5.316
 5214SOL    HW216542   5.934   3.510   5.375
 5215SOL     OW16543   0.581   3.907   5.186
 5215SOL    HW116544   0.649   3.967   5.228
 5215SOL    HW216545   0.495   3.914   5.236
 5216SOL     OW16546   5.301   5.018   1.253
 5216SOL    HW116547   5.339   5.046   1.165
 5216SOL    HW216548   5.208   4.983   1.241
 5217SOL     OW16549   4.742   5.894   3.205
 5217SOL    HW116550   4.836   5.860   3.201
 5217SOL    HW216551   4.683   5.824   3.246
 5218SOL     OW16552   7.002   0.093   1.151
 5218SOL    HW116553   6.930   0.068   1.216
 5218SOL    HW216554   0.049   0.025   1.155
 5219SOL     OW16555   3.181   1.405   4.963
 5219SOL    HW116556   3.258   1.417   5.026
 5219SOL    HW216557   3.152   1.495   4.930
 5220SOL     OW16558   2.449   5.000   3.765
 5220SOL    HW116559   2.488   5.073   3.820
 5220SOL    HW216560   2.498   4.915   3.781
 5221SOL     OW16561   6.496   5.553   1.372
 5221SOL    HW116562   6.456   5.619   1.435
 5221SOL    HW216563   6.564   5.599   1.314
 5222SOL     OW16564   6.309   3.755   1.133
 5222SOL    HW116565   6.271   3.847   1.148
 5222SOL    HW216566   6.395   3.745   1.182
 5223SOL     OW16567   6.916   3.086   0.429
 5223SOL    HW116568   6.998   3.039   0.397
 5223SOL    HW216569   6.916   3.091   0.529
 5224SOL     OW16570   6.891   2.195   4.707
 5224SOL    HW116571   6.963   2.132   4.679
 5224SOL    HW216572   6.929   2.287   4.721
 5225SOL     OW16573   0.174   1.637   4.397
 5225SOL    HW116574   0.188   1.623   4.495
 5225SOL    HW216575   0.084   1.602   4.371
 5226SOL     OW16576   0.612   6.524   3.932
 5226SOL    HW116577   0.597   6.613   3.887
 5226SOL    HW216578   0.705   6.493   3.913
 5227SOL     OW16579   0.693   2.863   5.558
 5227SOL    HW116580   0.669   2.786   5.498
 5227SOL    HW216581   0.785   2.896   5.534
 5228SOL     OW16582   1.104   1.536   5.515
 5228SOL    HW116583   1.175   1.468   5.533
 5228SOL    HW216584   1.092   1.547   5.416
 5229SOL     OW16585   3.463   1.855   6.126
 5229SOL    HW116586   3.485   1.811   6.039
 5229SOL    HW216587   3.533   1.922   6.149
 5230SOL     OW16588   7.025   6.866   2.069
 5230SOL    HW116589   0.062   6.866   1.991
 5230SOL    HW216590   6.950   6.802   2.051
 5231SOL     OW16591   6.805   2.854   2.163
 5231SOL    HW116592   6.723   2.796   2.162
 5231SOL    HW216593   6.878   2.810   2.111
 5232SOL     OW16594   1.602   3.039   6.071
 5232SOL    HW116595   1.538   2.964   6.088
 5232SOL    HW216596   1.649   3.063   6.156
 5233SOL     OW16597   3.202   6.939   2.805
 5233SOL    HW116598   3.138   6.862   2.794
 5233SOL    HW216599   3.240   6.937   2.897
 5234SOL     OW16600   2.677   2.232   0.013
 5234SOL    HW116601   2.735   2.151   0.000
 5234SOL    HW216602   2.678   2.259   0.109
 5235SOL     OW16603   1.881   2.356   1.653
 5235SOL    HW116604   1.918   2.449   1.660
 5235SOL    HW216605   1.802   2.348   1.713
 5236SOL     OW16606   3.128   5.168   1.238
 5236SOL    HW116607   3.207   5.135   1.290
 5236SOL    HW216608   3.071   5.090   1.211
 5237SOL     OW16609   2.297   1.806   2.635
 5237SOL    HW116610   2.231   1.784   2.706
 5237SOL    HW216611   2.369   1.737   2.634
 5238SOL     OW16612   0.747   6.492   2.887
 5238SOL    HW116613   0.737   6.465   2.983
 5238SOL    HW216614   0.698   6.578   2.872
 5239SOL     OW16615   2.431   3.840   0.581
 5239SOL    HW116616   2.495   3.819   0.507
 5239SOL    HW216617   2.469   3.811   0.668
 5240SOL     OW16618   2.372   4.138   5.975
 5240SOL    HW116619   2.445   4.073   5.991
 5240SOL    HW216620   2.393   4.194   5.895
 5241SOL     OW16621   0.773   6.242   2.299
 5241SOL    HW116622   0.769   6.333   2.341
 5241SOL    HW216623   0.750   6.172   2.367
 5242SOL     OW16624   4.295   0.723   0.143
 5242SOL    HW116625   4.288   0.776   0.228
 5242SOL    HW216626   4.384   0.741   0.101
 5243SOL     OW16627   2.552   6.157   1.945
 5243SOL    HW116628   2.615   6.095   1.897
 5243SOL    HW216629   2.517   6.225   1.880
 5244SOL     OW16630   4.825   1.799   0.383
 5244SOL    HW116631   4.762   1.865   0.344
 5244SOL    HW216632   4.886   1.764   0.312
 5245SOL     OW16633   3.139   3.771   1.793
 5245SOL    HW116634   3.105   3.762   1.700
 5245SOL    HW216635   3.237   3.751   1.795
 5246SOL     OW16636   6.442   4.042   6.656
 5246SOL    HW116637   6.466   3.970   6.591
 5246SOL    HW216638   6.481   4.022   6.745
 5247SOL     OW16639   4.010   2.078   6.689
 5247SOL    HW116640   3.933   2.135   6.660
 5247SOL    HW216641   4.096   2.124   6.667
 5248SOL     OW16642   5.599   0.777   3.478
 5248SOL    HW116643   5.666   0.740   3.413
 5248SOL    HW216644   5.611   0.876   3.484
 5249SOL     OW16645   0.737   4.468   0.458
 5249SOL    HW116646   0.681   4.412   0.397
 5249SOL    HW216647   0.814   4.507   0.406
 5250SOL     OW16648   1.671   6.080   1.006
 5250SOL    HW116649   1.691   5.994   0.959
 5250SOL    HW216650   1.656   6.152   0.939
 5251SOL     OW16651   0.908   4.788   0.314
 5251SOL    HW116652   0.831   4.792   0.378
 5251SOL    HW216653   0.905   4.701   0.264
 5252SOL     OW16654   3.491   6.256   2.135
 5252SOL    HW116655   3.396   6.257   2.106
 5252SOL    HW216656   3.524   6.350   2.145
 5253SOL     OW16657   6.865   5.601   4.779
 5253SOL    HW116658   6.872   5.610   4.680
 5253SOL    HW216659   6.956   5.589   4.818
 5254SOL     OW16660   4.984   6.372   3.619
 5254SOL    HW116661   4.989   6.275   3.593
 5254SOL    HW216662   4.910   6.384   3.685
 5255SOL     OW16663   6.712   1.971   5.320
 5255SOL    HW116664   6.730   1.887   5.267
 5255SOL    HW216665   6.763   2.047   5.280
 5256SOL     OW16666   0.080   1.760   2.082
 5256SOL    HW116667   0.120   1.850   2.096
 5256SOL    HW216668   0.125   1.714   2.005
 5257SOL     OW16669   3.883   1.122   6.390
 5257SOL    HW116670   3.843   1.081   6.308
 5257SOL    HW216671   3.857   1.218   6.396
 5258SOL     OW16672   4.539   1.303   3.312
 5258SOL    HW116673   4.577   1.270   3.398
 5258SOL    HW216674   4.439   1.291   3.313
 5259SOL     OW16675   6.162   4.949   3.450
 5259SOL    HW116676   6.120   4.862   3.476
 5259SOL    HW216677   6.262   4.938   3.448
 5260SOL     OW16678   2.319   0.647   0.566
 5260SOL    HW116679   2.236   0.699   0.549
 5260SOL    HW216680   2.357   0.616   0.479
 5261SOL     OW16681   5.603   4.489   6.662
 5261SOL    HW116682   5.646   4.450   6.744
 5261SOL    HW216683   5.504   4.476   6.668
 5262SOL     OW16684   1.555   1.323   2.730
 5262SOL    HW116685   1.637   1.292   2.682
 5262SOL    HW216686   1.574   1.411   2.774
 5263SOL     OW16687   1.372   6.461   2.448
 5263SOL    HW116688   1.449   6.398   2.441
 5263SOL    HW216689   1.293   6.423   2.400
 5264SOL     OW16690   6.362   1.563   1.935
 5264SOL    HW116691   6.429   1.637   1.940
 5264SOL    HW216692   6.279   1.596   1.891
 5265SOL     OW16693   6.484   4.778   5.275
 5265SOL    HW116694   6.403   4.735   5.235
 5265SOL    HW216695   6.462   4.812   5.366
 5266SOL     OW16696   1.668   0.540   6.514
 5266SOL    HW116697   1.696   0.636   6.509
 5266SOL    HW216698   1.576   0.530   6.477
 5267SOL     OW16699   5.469   2.424   4.594
 5267SOL    HW116700   5.523   2.393   4.516
 5267SOL    HW216701   5.411   2.500   4.567
 5268SOL     OW16702   5.036   0.276   6.167
 5268SOL    HW116703   5.099   0.250   6.093
 5268SOL    HW216704   5.012   0.195   6.220
 5269SOL     OW16705   0.565   6.920   3.580
 5269SOL    HW116706   0.503   6.842   3.568
 5269SOL    HW216707   0.519   6.991   3.633
 5270SOL     OW16708   0.273   1.260   6.472
 5270SOL    HW116709   0.208   1.187   6.451
 5270SOL    HW216710   0.360   1.240   6.428
 5271SOL     OW16711   0.497   4.974   3.120
 5271SOL    HW116712   0.448   5.037   3.179
 5271SOL    HW216713   0.512   5.017   3.030
 5272SOL     OW16714   4.124   0.517   0.068
 5272SOL    HW116715   4.033   0.559   0.070
 5272SOL    HW216716   4.192   0.584   0.098
 5273SOL     OW16717   2.295   2.100   2.600
 5273SOL    HW116718   2.304   2.007   2.562
 5273SOL    HW216719   2.202   2.134   2.583
 5274SOL     OW16720   5.120   4.857   1.020
 5274SOL    HW116721   5.080   4.905   1.098
 5274SOL    HW216722   5.052   4.795   0.980
 5275SOL     OW16723   4.346   1.968   6.973
 5275SOL    HW116724   4.414   1.899   6.999
 5275SOL    HW216725   4.273   1.924   6.921
 5276SOL     OW16726   4.337   6.622   1.593
 5276SOL    HW116727   4.382   6.656   1.675
 5276SOL    HW216728   4.240   6.648   1.595
 5277SOL     OW16729   2.403   2.737   1.700
 5277SOL    HW116730   2.305   2.743   1.716
 5277SOL    HW216731   2.432   2.642   1.705
 5278SOL     OW16732   4.581   3.578   1.652
 5278SOL    HW116733   4.603   3.585   1.554
 5278SOL    HW216734   4.597   3.667   1.695
 5279SOL     OW16735   2.142   5.448   2.691
 5279SOL    HW116736   2.165   5.426   2.597
 5279SOL    HW216737   2.225   5.474   2.741
 5280SOL     OW16738   4.504   0.260   5.037
 5280SOL    HW116739   4.579   0.279   4.973
 5280SOL    HW216740   4.434   0.206   4.991
 5281SOL     OW16741   0.317   2.768   2.107
 5281SOL    HW116742   0.351   2.814   2.025
 5281SOL    HW216743   0.221   2.793   2.121
 5282SOL     OW16744   5.164   1.372   2.063
 5282SOL    HW116745   5.067   1.361   2.042
 5282SOL    HW216746   5.200   1.452   2.016
 5283SOL     OW16747   5.547   5.428   6.327
 5283SOL    HW116748   5.570   5.343   6.278
 5283SOL    HW216749   5.551   5.411   6.426
 5284SOL     OW16750   5.238   2.854   3.734
 5284SOL    HW116751   5.184   2.824   3.656
 5284SOL    HW216752   5.192   2.829   3.819
 5285SOL     OW16753   3.695   5.854   2.683
 5285SOL    HW116754   3.680   5.815   2.592
 5285SOL    HW216755   3.791   5.845   2.708
 5286SOL     OW16756   2.303   5.112   2.135
 5286SOL    HW116757   2.266   5.106   2.228
 5286SOL    HW216758   2.401   5.091   2.137
 5287SOL     OW16759   0.787   2.013   1.767
 5287SOL    HW116760   0.843   2.019   1.685
 5287SOL    HW216761   0.750   2.104   1.789
 5288SOL     OW16762   4.589   1.329   0.717
 5288SOL    HW116763   4.588   1.424   0.748
 5288SOL    HW216764   4.594   1.326   0.617
 5289SOL     OW16765   2.140   6.063   0.897
 5289SOL    HW116766   2.157   6.156   0.864
 5289SOL    HW216767   2.207   6.039   0.967
 5290SOL     OW16768   4.663   5.902   0.916
 5290SOL    HW116769   4.736   5.943   0.970
 5290SOL    HW216770   4.598   5.973   0.889
 5291SOL     OW16771   2.073   4.864   6.520
 5291SOL    HW116772   2.013   4.853   6.599
 5291SOL    HW216773   2.131   4.783   6.510
 5292SOL     OW16774   5.073   2.221   6.261
 5292SOL    HW116775   5.130   2.196   6.339
 5292SOL    HW216776   5.048   2.138   6.209
 5293SOL     OW16777   1.059   1.162   4.311
 5293SOL    HW116778   0.992   1.236   4.315
 5293SOL    HW216779   1.027   1.085   4.367
 5294SOL     OW16780   5.051   2.164   5.226
 5294SOL    HW116781   5.126   2.102   5.247
 5294SOL    HW216782   4.993   2.174   5.307
 5295SOL     OW16783   6.048   1.044   1.594
 5295SOL    HW116784   6.095   1.076   1.676
 5295SOL    HW216785   6.115   1.020   1.524
 5296SOL     OW16786   0.804   3.863   0.354
 5296SOL    HW116787   0.875   3.823   0.297
 5296SOL    HW216788   0.842   3.889   0.443
 5297SOL     OW16789   1.788   3.249   1.697
 5297SOL    HW116790   1.852   3.246   1.773
 5297SOL    HW216791   1.701   3.288   1.728
 5298SOL     OW16792   1.233   5.534   1.535
 5298SOL    HW116793   1.315   5.495   1.577
 5298SOL    HW216794   1.252   5.560   1.440
 5299SOL     OW16795   3.151   0.245   1.496
 5299SOL    HW116796   3.113   0.278   1.409
 5299SOL    HW216797   3.133   0.147   1.505
 5300SOL     OW16798   6.823   5.438   3.558
 5300SOL    HW116799   6.776   5.426   3.470
 5300SOL    HW216800   6.759   5.420   3.632
 5301SOL     OW16801   4.640   0.303   0.140
 5301SOL    HW116802   4.649   0.402   0.152
 5301SOL    HW216803   4.721   0.257   0.177
 5302SOL     OW16804   6.768   4.301   3.287
 5302SOL    HW116805   6.834   4.245   3.338
 5302SOL    HW216806   6.701   4.242   3.243
 5303SOL     OW16807   0.689   5.483   3.472
 5303SOL    HW116808   0.645   5.494   3.383
 5303SOL    HW216809   0.709   5.573   3.511
 5304SOL     OW16810   4.825   2.192   5.410
 5304SOL    HW116811   4.771   2.274   5.433
 5304SOL    HW216812   4.803   2.119   5.475
 5305SOL     OW16813   2.749   0.921   2.646
 5305SOL    HW116814   2.690   0.999   2.669
 5305SOL    HW216815   2.843   0.941   2.673
 5306SOL     OW16816   2.492   0.039   4.617
 5306SOL    HW116817   2.437   0.104   4.670
 5306SOL    HW216818   2.431   7.006   4.564
 5307SOL     OW16819   4.300   7.004   6.893
 5307SOL    HW116820   4.247   0.024   6.820
 5307SOL    HW216821   4.390   0.021   6.901
 5308SOL     OW16822   0.172   1.235   2.391
 5308SOL    HW116823   0.090   1.274   2.435
 5308SOL    HW216824   0.173   1.260   2.295
 5309SOL     OW16825   4.146   3.618   3.970
 5309SOL    HW116826   4.205   3.665   3.904
 5309SOL    HW216827   4.125   3.526   3.936
 5310SOL     OW16828   5.983   1.931   0.793
 5310SOL    HW116829   6.020   1.933   0.886
 5310SOL    HW216830   5.927   1.849   0.782
 5311SOL     OW16831   1.867   5.806   0.094
 5311SOL    HW116832   1.944   5.743   0.102
 5311SOL    HW216833   1.895   5.888   0.043
 5312SOL     OW16834   0.159   2.848   1.827
 5312SOL    HW116835   0.163   2.891   1.736
 5312SOL    HW216836   0.228   2.776   1.832
 5313SOL     OW16837   1.298   5.672   0.068
 5313SOL    HW116838   1.301   5.696   6.997
 5313SOL    HW216839   1.344   5.743   0.121
 5314SOL     OW16840   3.443   4.545   0.897
 5314SOL    HW116841   3.484   4.471   0.951
 5314SOL    HW216842   3.407   4.508   0.812
 5315SOL     OW16843   5.061   3.175   2.359
 5315SOL    HW116844   5.018   3.265   2.344
 5315SOL    HW216845   5.139   3.186   2.420
 5316SOL     OW16846   6.000   5.647   4.947
 5316SOL    HW116847   6.019   5.740   4.916
 5316SOL    HW216848   5.949   5.650   5.033
 5317SOL     OW16849   5.933   5.606   2.917
 5317SOL    HW116850   6.024   5.610   2.958
 5317SOL    HW216851   5.888   5.694   2.928
 5318SOL     OW16852   0.672   2.284   4.750
 5318SOL    HW116853   0.586   2.312   4.793
 5318SOL    HW216854   0.685   2.186   4.764
 5319SOL     OW16855   3.728   0.432   1.518
 5319SOL    HW116856   3.721   0.530   1.501
 5319SOL    HW216857   3.824   0.404   1.510
 5320SOL     OW16858   6.094   3.712   5.686
 5320SOL    HW116859   6.078   3.780   5.758
 5320SOL    HW216860   6.160   3.748   5.620
 5321SOL     OW16861   1.613   5.669   6.139
 5321SOL    HW116862   1.615   5.571   6.156
 5321SOL    HW216863   1.704   5.707   6.153
 5322SOL     OW16864   3.168   6.438   0.663
 5322SOL    HW116865   3.193   6.469   0.754
 5322SOL    HW216866   3.224   6.360   0.637
 5323SOL     OW16867   6.061   3.296   0.252
 5323SOL    HW116868   6.009   3.359   0.195
 5323SOL    HW216869   6.108   3.347   0.325
 5324SOL     OW16870   3.868   3.295   1.775
 5324SOL    HW116871   3.951   3.239   1.767
 5324SOL    HW216872   3.797   3.258   1.716
 5325SOL     OW16873   4.496   5.957   4.367
 5325SOL    HW116874   4.572   5.953   4.302
 5325SOL    HW216875   4.505   6.038   4.424
 5326SOL     OW16876   0.442   0.249   2.200
 5326SOL    HW116877   0.537   0.220   2.210
 5326SOL    HW216878   0.427   0.331   2.255
 5327SOL     OW16879   6.487   0.831   4.113
 5327SOL    HW116880   6.473   0.744   4.161
 5327SOL    HW216881   6.440   0.904   4.162
 5328SOL     OW16882   3.763   4.959   1.240
 5328SOL    HW116883   3.732   4.885   1.299
 5328SOL    HW216884   3.787   5.038   1.296
 5329SOL     OW16885   6.708   5.626   0.489
 5329SOL    HW116886   6.652   5.656   0.566
 5329SOL    HW216887   6.777   5.560   0.521
 5330SOL     OW16888   3.837   5.283   0.267
 5330SOL    HW116889   3.889   5.337   0.334
 5330SOL    HW216890   3.876   5.192   0.260
 5331SOL     OW16891   4.889   2.667   6.657
 5331SOL    HW116892   4.958   2.685   6.726
 5331SOL    HW216893   4.934   2.650   6.569
 5332SOL     OW16894   5.957   3.097   0.059
 5332SOL    HW116895   6.001   3.007   0.056
 5332SOL    HW216896   6.002   3.154   0.128
 5333SOL     OW16897   1.167   1.885   4.219
 5333SOL    HW116898   1.245   1.888   4.156
 5333SOL    HW216899   1.103   1.958   4.197
 5334SOL     OW16900   3.660   5.879   1.430
 5334SOL    HW116901   3.683   5.808   1.496
 5334SOL    HW216902   3.565   5.869   1.402
 5335SOL     OW16903   0.386   4.594   1.237
 5335SOL    HW116904   0.348   4.514   1.191
 5335SOL    HW216905   0.326   4.673   1.225
 5336SOL     OW16906   1.724   2.926   4.927
 5336SOL    HW116907   1.820   2.926   4.952
 5336SOL    HW216908   1.679   3.008   4.962
 5337SOL     OW16909   6.564   4.709   0.714
 5337SOL    HW116910   6.476   4.676   0.680
 5337SOL    HW216911   6.635   4.693   0.645
 5338SOL     OW16912   6.154   3.389   0.481
 5338SOL    HW116913   6.084   3.416   0.547
 5338SOL    HW216914   6.216   3.322   0.524
 5339SOL     OW16915   5.307   3.452   2.647
 5339SOL    HW116916   5.291   3.425   2.552
 5339SOL    HW216917   5.362   3.383   2.693
 5340SOL     OW16918   5.035   3.491   2.032
 5340SOL    HW116919   4.975   3.567   2.058
 5340SOL    HW216920   4.986   3.404   2.044
 5341SOL     OW16921   4.554   4.596   3.740
 5341SOL    HW116922   4.628   4.638   3.687
 5341SOL    HW216923   4.562   4.623   3.836
 5342SOL     OW16924   6.399   5.538   5.039
 5342SOL    HW116925   6.379   5.591   5.122
 5342SOL    HW216926   6.407   5.600   4.961
 5343SOL     OW16927   3.502   2.966   6.225
 5343SOL    HW116928   3.526   3.051   6.178
 5343SOL    HW216929   3.585   2.918   6.252
 5344SOL     OW16930   0.249   1.522   6.321
 5344SOL    HW116931   0.225   1.496   6.227
 5344SOL    HW216932   0.237   1.444   6.382
 5345SOL     OW16933   5.455   1.300   6.200
 5345SOL    HW116934   5.428   1.313   6.296
 5345SOL    HW216935   5.544   1.255   6.196
 5346SOL     OW16936   3.243   5.532   3.337
 5346SOL    HW116937   3.209   5.593   3.265
 5346SOL    HW216938   3.186   5.449   3.339
 5347SOL     OW16939   5.726   1.775   4.101
 5347SOL    HW116940   5.800   1.814   4.155
 5347SOL    HW216941   5.711   1.831   4.020
 5348SOL     OW16942   4.862   2.439   4.660
 5348SOL    HW116943   4.936   2.408   4.720
 5348SOL    HW216944   4.774   2.414   4.700
 5349SOL     OW16945   1.155   3.600   1.610
 5349SOL    HW116946   1.076   3.651   1.577
 5349SOL    HW216947   1.218   3.582   1.535
 5350SOL     OW16948   1.309   6.276   6.920
 5350SOL    HW116949   1.372   6.248   6.848
 5350SOL    HW216950   1.360   6.323   6.993
 5351SOL     OW16951   6.577   6.122   3.723
 5351SOL    HW116952   6.627   6.102   3.639
 5351SOL    HW216953   6.598   6.215   3.754
 5352SOL     OW16954   0.990   3.103   5.983
 5352SOL    HW116955   1.045   3.148   6.053
 5352SOL    HW216956   1.020   3.132   5.892
 5353SOL     OW16957   3.997   4.878   3.810
 5353SOL    HW116958   4.074   4.831   3.768
 5353SOL    HW216959   3.967   4.827   3.891
 5354SOL     OW16960   3.777   5.413   1.433
 5354SOL    HW116961   3.790   5.512   1.419
 5354SOL    HW216962   3.763   5.394   1.530
 5355SOL     OW16963   5.626   5.192   5.254
 5355SOL    HW116964   5.617   5.255   5.177
 5355SOL    HW216965   5.723   5.172   5.270
 5356SOL     OW16966   0.597   6.285   0.866
 5356SOL    HW116967   0.587   6.209   0.801
 5356SOL    HW216968   0.682   6.333   0.849
 5357SOL     OW16969   6.065   3.565   2.780
 5357SOL    HW116970   5.992   3.628   2.755
 5357SOL    HW216971   6.137   3.567   2.710
 5358SOL     OW16972   4.484   1.102   6.712
 5358SOL    HW116973   4.546   1.037   6.668
 5358SOL    HW216974   4.488   1.090   6.812
 5359SOL     OW16975   3.427   2.449   6.897
 5359SOL    HW116976   3.418   2.526   6.834
 5359SOL    HW216977   3.508   2.396   6.872
 5360SOL     OW16978   5.938   4.935   4.091
 5360SOL    HW116979   6.031   4.910   4.119
 5360SOL    HW216980   5.930   5.034   4.088
 5361SOL     OW16981   1.348   5.437   2.735
 5361SOL    HW116982   1.302   5.476   2.655
 5361SOL    HW216983   1.409   5.364   2.706
 5362SOL     OW16984   6.096   1.516   2.424
 5362SOL    HW116985   6.018   1.542   2.481
 5362SOL    HW216986   6.181   1.548   2.467
 5363SOL     OW16987   5.286   4.872   3.363
 5363SOL    HW116988   5.260   4.963   3.331
 5363SOL    HW216989   5.284   4.871   3.463
 5364SOL     OW16990   4.526   1.961   2.546
 5364SOL    HW116991   4.620   1.928   2.556
 5364SOL    HW216992   4.472   1.931   2.624
 5365SOL     OW16993   2.900   3.547   4.609
 5365SOL    HW116994   2.922   3.449   4.606
 5365SOL    HW216995   2.851   3.567   4.694
 5366SOL     OW16996   6.527   5.812   3.583
 5366SOL    HW116997   6.611   5.865   3.596
 5366SOL    HW216998   6.476   5.848   3.504
 5367SOL     OW16999   6.035   5.895   1.288
 5367SOL    HW117000   5.990   5.908   1.199
 5367SOL    HW217001   6.133   5.906   1.278
 5368SOL     OW17002   0.143   6.180   4.466
 5368SOL    HW117003   0.173   6.227   4.383
 5368SOL    HW217004   0.213   6.113   4.493
 5369SOL     OW17005   4.300   5.722   2.938
 5369SOL    HW117006   4.217   5.677   2.906
 5369SOL    HW217007   4.309   5.812   2.896
 5370SOL     OW17008   1.707   2.955   0.361
 5370SOL    HW117009   1.645   2.894   0.410
 5370SOL    HW217010   1.696   2.941   0.263
 5371SOL     OW17011   6.520   5.774   4.541
 5371SOL    HW117012   6.589   5.847   4.541
 5371SOL    HW217013   6.556   5.695   4.591
 5372SOL     OW17014   1.710   6.975   3.070
 5372SOL    HW117015   1.738   0.005   2.991
 5372SOL    HW217016   1.790   6.956   3.127
 5373SOL     OW17017   2.559   1.210   6.561
 5373SOL    HW117018   2.462   1.183   6.569
 5373SOL    HW217019   2.600   1.213   6.652
 5374SOL     OW17020   2.054   4.113   1.759
 5374SOL    HW117021   2.096   4.199   1.789
 5374SOL    HW217022   1.955   4.119   1.768
 5375SOL     OW17023   2.321   4.622   4.949
 5375SOL    HW117024   2.223   4.642   4.945
 5375SOL    HW217025   2.368   4.697   4.996
 5376SOL     OW17026   0.469   0.098   6.075
 5376SOL    HW117027   0.379   0.083   6.034
 5376SOL    HW217028   0.461   0.162   6.152
 5377SOL     OW17029   1.301   1.497   3.090
 5377SOL    HW117030   1.361   1.418   3.106
 5377SOL    HW217031   1.284   1.544   3.177
 5378SOL     OW17032   4.400   0.199   2.625
 5378SOL    HW117033   4.470   0.267   2.607
 5378SOL    HW217034   4.315   0.224   2.579
 5379SOL     OW17035   2.147   2.169   4.071
 5379SOL    HW117036   2.176   2.094   4.012
 5379SOL    HW217037   2.095   2.133   4.149
 5380SOL     OW17038   4.638   5.815   1.920
 5380SOL    HW117039   4.576   5.752   1.872
 5380SOL    HW217040   4.720   5.765   1.948
 5381SOL     OW17041   2.817   0.245   3.284
 5381SOL    HW117042   2.844   0.159   3.327
 5381SOL    HW217043   2.840   0.243   3.187
 5382SOL     OW17044   4.703   0.787   2.673
 5382SOL    HW117045   4.751   0.865   2.714
 5382SOL    HW217046   4.604   0.798   2.689
 5383SOL     OW17047   2.205   2.968   4.548
 5383SOL    HW117048   2.196   2.969   4.647
 5383SOL    HW217049   2.263   2.891   4.520
 5384SOL     OW17050   5.482   5.677   5.525
 5384SOL    HW117051   5.531   5.762   5.545
 5384SOL    HW217052   5.445   5.640   5.610
 5385SOL     OW17053   3.911   3.335   6.281
 5385SOL    HW117054   3.927   3.434   6.272
 5385SOL    HW217055   3.999   3.289   6.295
 5386SOL     OW17056   4.982   4.577   3.993
 5386SOL    HW117057   4.949   4.667   4.023
 5386SOL    HW217058   4.921   4.540   3.923
 5387SOL     OW17059   1.212   1.516   4.055
 5387SOL    HW117060   1.261   1.576   3.991
 5387SOL    HW217061   1.154   1.453   4.003
 5388SOL     OW17062   6.784   6.835   3.585
 5388SOL    HW117063   6.870   6.825   3.635
 5388SOL    HW217064   6.710   6.791   3.636
 5389SOL     OW17065   5.283   0.991   3.643
 5389SOL    HW117066   5.283   1.018   3.547
 5389SOL    HW217067   5.370   0.947   3.666
 5390SOL     OW17068   7.003   3.914   3.447
 5390SOL    HW117069   0.067   3.870   3.444
 5390SOL    HW217070   6.938   3.860   3.393
 5391SOL     OW17071   2.999   2.545   1.079
 5391SOL    HW117072   3.020   2.466   1.135
 5391SOL    HW217073   3.069   2.554   1.007
 5392SOL     OW17074   5.971   0.799   4.215
 5392SOL    HW117075   5.896   0.829   4.156
 5392SOL    HW217076   5.956   0.704   4.242
 5393SOL     OW17077   4.566   2.416   4.224
 5393SOL    HW117078   4.585   2.511   4.200
 5393SOL    HW217079   4.574   2.404   4.323
 5394SOL     OW17080   0.703   2.370   1.511
 5394SOL    HW117081   0.751   2.334   1.431
 5394SOL    HW217082   0.698   2.470   1.505
 5395SOL     OW17083   6.738   1.392   0.897
 5395SOL    HW117084   6.672   1.401   0.972
 5395SOL    HW217085   6.704   1.441   0.817
 5396SOL     OW17086   4.320   3.557   0.511
 5396SOL    HW117087   4.392   3.487   0.515
 5396SOL    HW217088   4.234   3.519   0.543
 5397SOL     OW17089   6.908   0.675   2.770
 5397SOL    HW117090   6.853   0.638   2.845
 5397SOL    HW217091   6.983   0.612   2.749
 5398SOL     OW17092   6.864   3.184   2.457
 5398SOL    HW117093   6.838   3.278   2.475
 5398SOL    HW217094   6.856   3.130   2.542
 5399SOL     OW17095   1.820   2.607   0.428
 5399SOL    HW117096   1.916   2.635   0.436
 5399SOL    HW217097   1.803   2.574   0.336
 5400SOL     OW17098   4.881   2.979   1.485
 5400SOL    HW117099   4.849   3.004   1.577
 5400SOL    HW217100   4.961   2.919   1.493
 5401SOL     OW17101   5.559   2.420   1.375
 5401SOL    HW117102   5.460   2.436   1.366
 5401SOL    HW217103   5.599   2.495   1.427
 5402SOL     OW17104   1.388   6.175   3.026
 5402SOL    HW117105   1.310   6.189   3.087
 5402SOL    HW217106   1.365   6.206   2.934
 5403SOL     OW17107   5.120   2.445   6.985
 5403SOL    HW117108   5.118   2.382   6.908
 5403SOL    HW217109   5.032   2.443   0.006
 5404SOL     OW17110   4.769   6.935   7.013
 5404SOL    HW117111   4.709   6.894   0.054
 5404SOL    HW217112   4.862   6.900   7.025
 5405SOL     OW17113   0.333   4.923   0.422
 5405SOL    HW117114   0.340   5.023   0.425
 5405SOL    HW217115   0.334   4.892   0.327
 5406SOL     OW17116   2.158   1.199   6.240
 5406SOL    HW117117   2.180   1.252   6.322
 5406SOL    HW217118   2.114   1.259   6.173
 5407SOL     OW17119   1.485   6.913   3.196
 5407SOL    HW117120   1.576   6.916   3.155
 5407SOL    HW217121   1.489   6.865   3.284
 5408SOL     OW17122   2.169   1.697   4.317
 5408SOL    HW117123   2.238   1.690   4.388
 5408SOL    HW217124   2.193   1.638   4.240
 5409SOL     OW17125   1.220   2.574   2.218
 5409SOL    HW117126   1.195   2.497   2.159
 5409SOL    HW217127   1.178   2.658   2.184
 5410SOL     OW17128   6.096   2.454   0.684
 5410SOL    HW117129   6.069   2.358   0.684
 5410SOL    HW217130   6.143   2.476   0.599
 5411SOL     OW17131   3.729   5.459   6.737
 5411SOL    HW117132   3.825   5.466   6.709
 5411SOL    HW217133   3.694   5.367   6.717
 5412SOL     OW17134   0.500   2.168   5.591
 5412SOL    HW117135   0.526   2.202   5.500
 5412SOL    HW217136   0.548   2.083   5.610
 5413SOL     OW17137   0.880   4.854   4.887
 5413SOL    HW117138   0.830   4.768   4.894
 5413SOL    HW217139   0.868   4.907   4.970
 5414SOL     OW17140   5.583   4.633   5.677
 5414SOL    HW117141   5.626   4.574   5.608
 5414SOL    HW217142   5.562   4.722   5.636
 5415SOL     OW17143   3.308   1.278   0.293
 5415SOL    HW117144   3.304   1.197   0.351
 5415SOL    HW217145   3.402   1.290   0.259
 5416SOL     OW17146   3.627   5.593   0.078
 5416SOL    HW117147   3.698   5.661   0.095
 5416SOL    HW217148   3.639   5.515   0.140
 5417SOL     OW17149   4.848   6.663   3.981
 5417SOL    HW117150   4.776   6.684   4.048
 5417SOL    HW217151   4.934   6.706   4.010
 5418SOL     OW17152   6.811   3.014   5.705
 5418SOL    HW117153   6.902   3.056   5.706
 5418SOL    HW217154   6.783   2.993   5.799
 5419SOL     OW17155   4.021   1.558   6.227
 5419SOL    HW117156   4.061   1.467   6.241
 5419SOL    HW217157   4.030   1.612   6.310
 5420SOL     OW17158   1.485   2.180   1.853
 5420SOL    HW117159   1.534   2.236   1.786
 5420SOL    HW217160   1.403   2.142   1.811
 5421SOL     OW17161   3.670   4.885   2.300
 5421SOL    HW117162   3.696   4.799   2.256
 5421SOL    HW217163   3.605   4.934   2.242
 5422SOL     OW17164   2.991   5.042   3.575
 5422SOL    HW117165   2.980   5.137   3.603
 5422SOL    HW217166   2.924   5.021   3.504
 5423SOL     OW17167   4.972   6.942   1.748
 5423SOL    HW117168   4.914   6.888   1.687
 5423SOL    HW217169   5.017   6.881   1.814
 5424SOL     OW17170   4.236   3.837   5.278
 5424SOL    HW117171   4.159   3.797   5.229
 5424SOL    HW217172   4.306   3.766   5.293
 5425SOL     OW17173   1.399   4.226   6.165
 5425SOL    HW117174   1.466   4.289   6.126
 5425SOL    HW217175   1.392   4.144   6.108
 5426SOL     OW17176   0.009   4.951   1.496
 5426SOL    HW117177   0.037   5.004   1.416
 5426SOL    HW217178   0.088   4.904   1.534
 5427SOL     OW17179   4.455   3.333   0.532
 5427SOL    HW117180   4.523   3.260   0.525
 5427SOL    HW217181   4.366   3.294   0.558
 5428SOL     OW17182   5.111   5.049   3.240
 5428SOL    HW117183   5.145   5.140   3.217
 5428SOL    HW217184   5.089   4.999   3.155
 5429SOL     OW17185   2.679   6.954   4.143
 5429SOL    HW117186   2.771   6.944   4.178
 5429SOL    HW217187   2.637   0.011   4.181
 5430SOL     OW17188   2.550   3.804   5.660
 5430SOL    HW117189   2.498   3.886   5.637
 5430SOL    HW217190   2.506   3.724   5.619
 5431SOL     OW17191   4.582   4.667   0.409
 5431SOL    HW117192   4.557   4.570   0.407
 5431SOL    HW217193   4.536   4.713   0.485
 5432SOL     OW17194   0.450   5.284   6.486
 5432SOL    HW117195   0.366   5.280   6.540
 5432SOL    HW217196   0.443   5.357   6.418
 5433SOL     OW17197   3.622   6.882   1.359
 5433SOL    HW117198   3.610   6.783   1.358
 5433SOL    HW217199   3.705   6.906   1.308
 5434SOL     OW17200   4.897   0.428   4.294
 5434SOL    HW117201   4.969   0.361   4.315
 5434SOL    HW217202   4.920   0.515   4.336
 5435SOL     OW17203   6.491   5.106   0.230
 5435SOL    HW117204   6.559   5.058   0.286
 5435SOL    HW217205   6.513   5.093   0.133
 5436SOL     OW17206   1.831   4.617   2.290
 5436SOL    HW117207   1.837   4.541   2.354
 5436SOL    HW217208   1.746   4.667   2.305
 5437SOL     OW17209   3.324   6.294   0.918
 5437SOL    HW117210   3.318   6.393   0.907
 5437SOL    HW217211   3.236   6.259   0.951
 5438SOL     OW17212   4.463   6.526   1.950
 5438SOL    HW117213   4.429   6.432   1.951
 5438SOL    HW217214   4.387   6.589   1.945
 5439SOL     OW17215   0.957   4.198   1.070
 5439SOL    HW117216   1.033   4.133   1.076
 5439SOL    HW217217   0.929   4.208   0.975
 5440SOL     OW17218   5.573   6.204   3.711
 5440SOL    HW117219   5.664   6.243   3.695
 5440SOL    HW217220   5.530   6.184   3.623
 5441SOL     OW17221   5.506   2.357   4.880
 5441SOL    HW117222   5.538   2.397   4.794
 5441SOL    HW217223   5.514   2.257   4.875
 5442SOL     OW17224   3.018   0.681   6.350
 5442SOL    HW117225   2.976   0.772   6.353
 5442SOL    HW217226   2.976   0.627   6.277
 5443SOL     OW17227   5.272   0.942   2.654
 5443SOL    HW117228   5.226   0.857   2.629
 5443SOL    HW217229   5.370   0.933   2.640
 5444SOL     OW17230   6.780   1.174   6.426
 5444SOL    HW117231   6.840   1.119   6.367
 5444SOL    HW217232   6.836   1.232   6.485
 5445SOL     OW17233   5.977   6.385   5.915
 5445SOL    HW117234   5.912   6.310   5.930
 5445SOL    HW217235   5.948   6.466   5.967
 5446SOL     OW17236   0.058   4.544   6.003
 5446SOL    HW117237   0.144   4.499   5.979
 5446SOL    HW217238   7.012   4.514   5.940
 5447SOL     OW17239   6.942   1.351   1.573
 5447SOL    HW117240   7.016   1.318   1.630
 5447SOL    HW217241   6.965   1.337   1.477
 5448SOL     OW17242   5.490   4.854   2.745
 5448SOL    HW117243   5.437   4.778   2.707
 5448SOL    HW217244   5.443   4.889   2.827
 5449SOL     OW17245   2.984   0.847   1.972
 5449SOL    HW117246   2.991   0.947   1.966
 5449SOL    HW217247   2.897   0.818   1.933
 5450SOL     OW17248   4.531   5.802   2.184
 5450SOL    HW117249   4.504   5.882   2.238
 5450SOL    HW217250   4.565   5.832   2.094
 5451SOL     OW17251   6.291   6.537   3.751
 5451SOL    HW117252   6.365   6.529   3.684
 5451SOL    HW217253   6.220   6.598   3.715
 5452SOL     OW17254   2.119   3.766   2.666
 5452SOL    HW117255   2.040   3.751   2.606
 5452SOL    HW217256   2.165   3.851   2.640
 5453SOL     OW17257   6.895   4.793   3.998
 5453SOL    HW117258   6.820   4.840   4.045
 5453SOL    HW217259   6.921   4.712   4.049
 5454SOL     OW17260   6.037   4.135   3.256
 5454SOL    HW117261   6.081   4.084   3.182
 5454SOL    HW217262   5.945   4.099   3.271
 5455SOL     OW17263   2.601   2.020   3.572
 5455SOL    HW117264   2.635   1.927   3.579
 5455SOL    HW217265   2.676   2.084   3.589
 5456SOL     OW17266   5.542   2.435   0.618
 5456SOL    HW117267   5.555   2.521   0.668
 5456SOL    HW217268   5.618   2.373   0.637
 5457SOL     OW17269   5.744   0.999   6.468
 5457SOL    HW117270   5.707   0.926   6.525
 5457SOL    HW217271   5.827   0.968   6.423
 5458SOL     OW17272   5.912   3.788   6.931
 5458SOL    HW117273   5.867   3.727   6.996
 5458SOL    HW217274   5.907   3.882   6.964
 5459SOL     OW17275   2.058   3.474   4.663
 5459SOL    HW117276   1.983   3.458   4.728
 5459SOL    HW217277   2.116   3.393   4.659
 5460SOL     OW17278   0.659   0.592   1.614
 5460SOL    HW117279   0.568   0.558   1.592
 5460SOL    HW217280   0.666   0.688   1.586
 5461SOL     OW17281   6.406   1.173   6.135
 5461SOL    HW117282   6.403   1.125   6.048
 5461SOL    HW217283   6.390   1.108   6.210
 5462SOL     OW17284   4.947   4.555   6.548
 5462SOL    HW117285   5.021   4.555   6.480
 5462SOL    HW217286   4.947   4.643   6.596
 5463SOL     OW17287   0.681   3.383   6.131
 5463SOL    HW117288   0.698   3.292   6.092
 5463SOL    HW217289   0.699   3.381   6.229
 5464SOL     OW17290   1.755   5.575   5.808
 5464SOL    HW117291   1.786   5.556   5.715
 5464SOL    HW217292   1.798   5.511   5.871
 5465SOL     OW17293   0.413   6.972   4.464
 5465SOL    HW117294   0.355   0.008   4.412
 5465SOL    HW217295   0.369   6.882   4.469
 5466SOL     OW17296   5.951   1.835   4.247
 5466SOL    HW117297   5.949   1.933   4.226
 5466SOL    HW217298   5.949   1.822   4.346
 5467SOL     OW17299   4.901   3.320   4.216
 5467SOL    HW117300   4.922   3.417   4.222
 5467SOL    HW217301   4.984   3.267   4.232
 5468SOL     OW17302   0.168   1.318   1.009
 5468SOL    HW117303   0.091   1.287   0.953
 5468SOL    HW217304   0.190   1.248   1.078
 5469SOL     OW17305   3.400   0.583   4.230
 5469SOL    HW117306   3.367   0.653   4.168
 5469SOL    HW217307   3.331   0.564   4.299
 5470SOL     OW17308   4.512   5.127   4.254
 5470SOL    HW117309   4.447   5.072   4.202
 5470SOL    HW217310   4.570   5.067   4.310
 5471SOL     OW17311   4.751   0.503   3.170
 5471SOL    HW117312   4.808   0.464   3.243
 5471SOL    HW217313   4.727   0.431   3.105
 5472SOL     OW17314   3.301   3.589   6.724
 5472SOL    HW117315   3.378   3.593   6.660
 5472SOL    HW217316   3.217   3.618   6.677
 5473SOL     OW17317   2.983   4.946   1.849
 5473SOL    HW117318   2.885   4.926   1.840
 5473SOL    HW217319   3.018   4.906   1.934
 5474SOL     OW17320   1.184   4.851   2.621
 5474SOL    HW117321   1.187   4.870   2.719
 5474SOL    HW217322   1.132   4.767   2.604
 5475SOL     OW17323   0.797   1.214   5.422
 5475SOL    HW117324   0.801   1.280   5.497
 5475SOL    HW217325   0.890   1.193   5.391
 5476SOL     OW17326   2.164   6.968   5.234
 5476SOL    HW117327   2.236   0.002   5.268
 5476SOL    HW217328   2.091   7.023   5.192
 5477SOL     OW17329   1.930   3.727   3.888
 5477SOL    HW117330   1.854   3.762   3.834
 5477SOL    HW217331   1.974   3.652   3.839
 5478SOL     OW17332   5.048   4.768   5.904
 5478SOL    HW117333   5.099   4.770   5.818
 5478SOL    HW217334   5.106   4.730   5.976
 5479SOL     OW17335   4.799   1.995   4.120
 5479SOL    HW117336   4.821   2.037   4.032
 5479SOL    HW217337   4.840   1.904   4.125
 5480SOL     OW17338   0.977   3.525   4.403
 5480SOL    HW117339   0.924   3.596   4.356
 5480SOL    HW217340   0.936   3.436   4.385
 5481SOL     OW17341   4.352   1.746   6.468
 5481SOL    HW117342   4.411   1.675   6.430
 5481SOL    HW217343   4.327   1.811   6.396
 5482SOL     OW17344   5.265   3.242   1.913
 5482SOL    HW117345   5.250   3.178   1.988
 5482SOL    HW217346   5.336   3.307   1.938
 5483SOL     OW17347   6.755   2.960   6.900
 5483SOL    HW117348   6.814   2.879   6.901
 5483SOL    HW217349   6.730   2.984   6.993
 5484SOL     OW17350   6.554   6.706   4.912
 5484SOL    HW117351   6.539   6.804   4.924
 5484SOL    HW217352   6.594   6.668   4.995
 5485SOL     OW17353   3.588   0.397   5.387
 5485SOL    HW117354   3.511   0.412   5.325
 5485SOL    HW217355   3.651   0.475   5.380
 5486SOL     OW17356   1.149   0.905   3.844
 5486SOL    HW117357   1.200   0.896   3.930
 5486SOL    HW217358   1.051   0.909   3.864
 5487SOL     OW17359   4.539   5.174   0.602
 5487SOL    HW117360   4.486   5.256   0.623
 5487SOL    HW217361   4.481   5.109   0.552
 5488SOL     OW17362   4.808   0.854   5.970
 5488SOL    HW117363   4.714   0.830   5.946
 5488SOL    HW217364   4.818   0.953   5.970
 5489SOL     OW17365   0.720   3.946   3.430
 5489SOL    HW117366   0.694   3.971   3.523
 5489SOL    HW217367   0.794   3.879   3.432
 5490SOL     OW17368   2.219   2.294   0.083
 5490SOL    HW117369   2.315   2.293   0.055
 5490SOL    HW217370   2.212   2.323   0.178
 5491SOL     OW17371   0.354   5.457   1.377
 5491SOL    HW117372   0.414   5.377   1.376
 5491SOL    HW217373   0.408   5.539   1.358
 5492SOL     OW17374   1.483   1.288   5.166
 5492SOL    HW117375   1.463   1.313   5.260
 5492SOL    HW217376   1.420   1.216   5.136
 5493SOL     OW17377   3.118   2.678   0.499
 5493SOL    HW117378   3.038   2.735   0.518
 5493SOL    HW217379   3.105   2.629   0.413
 5494SOL     OW17380   5.763   2.840   2.350
 5494SOL    HW117381   5.790   2.751   2.315
 5494SOL    HW217382   5.667   2.857   2.330
 5495SOL     OW17383   3.460   2.935   2.814
 5495SOL    HW117384   3.481   2.866   2.745
 5495SOL    HW217385   3.391   2.998   2.779
 5496SOL     OW17386   3.736   5.269   1.199
 5496SOL    HW117387   3.708   5.313   1.113
 5496SOL    HW217388   3.739   5.337   1.271
 5497SOL     OW17389   6.551   6.696   2.144
 5497SOL    HW117390   6.524   6.700   2.240
 5497SOL    HW217391   6.475   6.724   2.087
 5498SOL     OW17392   4.081   0.529   5.307
 5498SOL    HW117393   4.097   0.572   5.396
 5498SOL    HW217394   4.107   0.433   5.310
 5499SOL     OW17395   7.023   2.000   4.231
 5499SOL    HW117396   6.965   1.919   4.232
 5499SOL    HW217397   0.063   1.995   4.307
 5500SOL     OW17398   1.824   5.942   1.658
 5500SOL    HW117399   1.923   5.941   1.676
 5500SOL    HW217400   1.793   5.850   1.637
 5501SOL     OW17401   2.213   0.143   2.632
 5501SOL    HW117402   2.130   0.091   2.611
 5501SOL    HW217403   2.277   0.083   2.681
 5502SOL     OW17404   4.454   3.779   0.232
 5502SOL    HW117405   4.490   3.692   0.266
 5502SOL    HW217406   4.483   3.792   0.137
 5503SOL     OW17407   1.130   5.665   4.376
 5503SOL    HW117408   1.129   5.737   4.446
 5503SOL    HW217409   1.208   5.605   4.391
 5504SOL     OW17410   3.361   1.958   4.866
 5504SOL    HW117411   3.317   1.983   4.780
 5504SOL    HW217412   3.353   1.860   4.881
 5505SOL     OW17413   2.891   5.016   5.984
 5505SOL    HW117414   2.856   4.928   6.017
 5505SOL    HW217415   2.872   5.087   6.052
 5506SOL     OW17416   6.484   0.028   5.596
 5506SOL    HW117417   6.504   7.005   5.511
 5506SOL    HW217418   6.462   0.123   5.575
 5507SOL     OW17419   2.809   5.545   4.437
 5507SOL    HW117420   2.783   5.600   4.516
 5507SOL    HW217421   2.909   5.532   4.437
 5508SOL     OW17422   2.320   0.805   6.045
 5508SOL    HW117423   2.417   0.807   6.067
 5508SOL    HW217424   2.307   0.772   5.952
 5509SOL     OW17425   5.922   6.240   6.685
 5509SOL    HW117426   5.879   6.245   6.775
 5509SOL    HW217427   5.997   6.174   6.687
 5510SOL     OW17428   4.464   0.538   5.478
 5510SOL    HW117429   4.519   0.600   5.533
 5510SOL    HW217430   4.369   0.540   5.510
 5511SOL     OW17431   0.618   1.728   2.288
 5511SOL    HW117432   0.602   1.689   2.198
 5511SOL    HW217433   0.578   1.670   2.358
 5512SOL     OW17434   1.587   0.099   1.041
 5512SOL    HW117435   1.582   0.120   1.138
 5512SOL    HW217436   1.596   0.000   1.028
 5513SOL     OW17437   3.562   4.928   4.451
 5513SOL    HW117438   3.590   4.910   4.546
 5513SOL    HW217439   3.633   4.982   4.405
 5514SOL     OW17440   6.090   5.229   3.455
 5514SOL    HW117441   6.105   5.130   3.462
 5514SOL    HW217442   6.178   5.274   3.436
 5515SOL     OW17443   7.016   3.198   2.014
 5515SOL    HW117444   6.948   3.226   1.947
 5515SOL    HW217445   6.971   3.184   2.103
 5516SOL     OW17446   1.439   3.309   5.975
 5516SOL    HW117447   1.520   3.366   5.988
 5516SOL    HW217448   1.468   3.214   5.962
 5517SOL     OW17449   2.604   1.175   2.682
 5517SOL    HW117450   2.635   1.254   2.735
 5517SOL    HW217451   2.553   1.207   2.602
 5518SOL     OW17452   5.883   4.805   5.339
 5518SOL    HW117453   5.854   4.776   5.430
 5518SOL    HW217454   5.812   4.782   5.273
 5519SOL     OW17455   5.280   3.460   3.901
 5519SOL    HW117456   5.285   3.528   3.828
 5519SOL    HW217457   5.251   3.504   3.986
 5520SOL     OW17458   1.472   3.747   1.414
 5520SOL    HW117459   1.472   3.773   1.511
 5520SOL    HW217460   1.429   3.657   1.404
 5521SOL     OW17461   5.452   5.360   1.856
 5521SOL    HW117462   5.478   5.395   1.946
 5521SOL    HW217463   5.486   5.266   1.846
 5522SOL     OW17464   2.109   3.726   2.096
 5522SOL    HW117465   2.137   3.630   2.090
 5522SOL    HW217466   2.132   3.773   2.011
 5523SOL     OW17467   2.940   0.853   1.513
 5523SOL    HW117468   3.007   0.813   1.575
 5523SOL    HW217469   2.985   0.881   1.428
 5524SOL     OW17470   6.702   5.663   5.986
 5524SOL    HW117471   6.707   5.762   5.970
 5524SOL    HW217472   6.646   5.646   6.068
 5525SOL     OW17473   0.084   5.498   4.887
 5525SOL    HW117474   0.001   5.480   4.940
 5525SOL    HW217475   0.132   5.412   4.870
 5526SOL     OW17476   5.972   2.576   4.636
 5526SOL    HW117477   5.976   2.646   4.707
 5526SOL    HW217478   5.925   2.613   4.555
 5527SOL     OW17479   2.082   3.549   1.183
 5527SOL    HW117480   2.032   3.474   1.226
 5527SOL    HW217481   2.142   3.512   1.112
 5528SOL     OW17482   0.513   3.500   3.489
 5528SOL    HW117483   0.542   3.435   3.560
 5528SOL    HW217484   0.557   3.476   3.402
 5529SOL     OW17485   1.557   1.358   4.911
 5529SOL    HW117486   1.533   1.357   5.008
 5529SOL    HW217487   1.486   1.312   4.858
 5530SOL     OW17488   1.358   2.550   0.627
 5530SOL    HW117489   1.325   2.641   0.654
 5530SOL    HW217490   1.457   2.549   0.631
 5531SOL     OW17491   3.149   2.690   5.979
 5531SOL    HW117492   3.207   2.617   5.943
 5531SOL    HW217493   3.088   2.723   5.907
 5532SOL     OW17494   2.650   1.363   1.124
 5532SOL    HW117495   2.641   1.454   1.164
 5532SOL    HW217496   2.571   1.307   1.150
 5533SOL     OW17497   4.264   0.677   1.261
 5533SOL    HW117498   4.171   0.674   1.296
 5533SOL    HW217499   4.265   0.654   1.164
 5534SOL     OW17500   7.000   4.196   5.797
 5534SOL    HW117501   6.995   4.295   5.796
 5534SOL    HW217502   0.029   4.164   5.719
 5535SOL     OW17503   6.088   3.402   3.410
 5535SOL    HW117504   6.129   3.412   3.501
 5535SOL    HW217505   6.027   3.323   3.409
 5536SOL     OW17506   1.696   0.527   3.354
 5536SOL    HW117507   1.690   0.545   3.256
 5536SOL    HW217508   1.708   0.429   3.370
 5537SOL     OW17509   4.256   0.967   4.385
 5537SOL    HW117510   4.232   1.056   4.345
 5537SOL    HW217511   4.328   0.925   4.330
 5538SOL     OW17512   5.593   1.794   0.795
 5538SOL    HW117513   5.515   1.764   0.741
 5538SOL    HW217514   5.628   1.881   0.758
 5539SOL     OW17515   3.444   6.821   6.972
 5539SOL    HW117516   3.373   6.861   6.914
 5539SOL    HW217517   3.416   6.829   0.042
 5540SOL     OW17518   5.319   0.897   6.840
 5540SOL    HW117519   5.221   0.916   6.838
 5540SOL    HW217520   5.351   0.899   6.935
 5541SOL     OW17521   4.973   3.516   5.799
 5541SOL    HW117522   5.020   3.431   5.778
 5541SOL    HW217523   4.960   3.524   5.897
 5542SOL     OW17524   4.079   4.558   6.952
 5542SOL    HW117525   4.042   4.513   0.007
 5542SOL    HW217526   4.021   4.635   6.927
 5543SOL     OW17527   1.473   0.437   0.483
 5543SOL    HW117528   1.518   0.474   0.401
 5543SOL    HW217529   1.445   0.513   0.542
 5544SOL     OW17530   4.028   5.607   5.876
 5544SOL    HW117531   4.065   5.694   5.908
 5544SOL    HW217532   3.953   5.623   5.813
 5545SOL     OW17533   3.987   0.186   3.071
 5545SOL    HW117534   3.973   0.147   2.980
 5545SOL    HW217535   4.037   0.272   3.063
 5546SOL     OW17536   0.887   5.178   4.848
 5546SOL    HW117537   0.898   5.120   4.928
 5546SOL    HW217538   0.792   5.210   4.842
 5547SOL     OW17539   5.408   1.396   4.353
 5547SOL    HW117540   5.446   1.484   4.324
 5547SOL    HW217541   5.483   1.330   4.365
 5548SOL     OW17542   6.861   4.299   5.137
 5548SOL    HW117543   6.807   4.252   5.068
 5548SOL    HW217544   6.824   4.280   5.228
 5549SOL     OW17545   4.418   2.956   0.703
 5549SOL    HW117546   4.344   2.893   0.726
 5549SOL    HW217547   4.449   3.002   0.785
 5550SOL     OW17548   1.833   4.126   2.038
 5550SOL    HW117549   1.825   4.105   2.136
 5550SOL    HW217550   1.791   4.053   1.985
 5551SOL     OW17551   1.974   5.635   4.010
 5551SOL    HW117552   1.974   5.568   3.936
 5551SOL    HW217553   2.038   5.606   4.081
 5552SOL     OW17554   0.332   6.326   6.774
 5552SOL    HW117555   0.423   6.361   6.795
 5552SOL    HW217556   0.271   6.343   6.851
 5553SOL     OW17557   4.269   0.377   6.869
 5553SOL    HW117558   4.282   0.450   6.801
 5553SOL    HW217559   4.221   0.414   6.949
 5554SOL     OW17560   5.313   2.336   2.112
 5554SOL    HW117561   5.358   2.411   2.063
 5554SOL    HW217562   5.382   2.281   2.159
 5555SOL     OW17563   1.632   4.363   2.194
 5555SOL    HW117564   1.680   4.411   2.267
 5555SOL    HW217565   1.696   4.343   2.119
 5556SOL     OW17566   7.004   0.703   4.794
 5556SOL    HW117567   0.038   0.625   4.807
 5556SOL    HW217568   0.024   0.787   4.825
 5557SOL     OW17569   3.153   5.963   2.074
 5557SOL    HW117570   3.241   5.937   2.034
 5557SOL    HW217571   3.159   5.962   2.173
 5558SOL     OW17572   3.925   4.787   6.892
 5558SOL    HW117573   3.870   4.804   6.974
 5558SOL    HW217574   3.880   4.828   6.813
 5559SOL     OW17575   1.958   0.102   2.525
 5559SOL    HW117576   1.903   0.026   2.491
 5559SOL    HW217577   1.916   0.188   2.496
 5560SOL     OW17578   0.957   6.144   2.828
 5560SOL    HW117579   0.931   6.095   2.744
 5560SOL    HW217580   0.988   6.236   2.804
 5561SOL     OW17581   3.269   0.090   3.698
 5561SOL    HW117582   3.246   7.025   3.732
 5561SOL    HW217583   3.186   0.147   3.696
 5562SOL     OW17584   4.105   3.548   1.378
 5562SOL    HW117585   4.012   3.546   1.412
 5562SOL    HW217586   4.147   3.637   1.399
 5563SOL     OW17587   2.621   4.611   3.102
 5563SOL    HW117588   2.609   4.618   3.201
 5563SOL    HW217589   2.682   4.683   3.070
 5564SOL     OW17590   5.278   0.764   5.884
 5564SOL    HW117591   5.339   0.704   5.832
 5564SOL    HW217592   5.319   0.784   5.973
 5565SOL     OW17593   3.137   2.258   6.901
 5565SOL    HW117594   3.088   2.280   6.985
 5565SOL    HW217595   3.211   2.324   6.887
 5566SOL     OW17596   1.344   3.470   6.653
 5566SOL    HW117597   1.333   3.378   6.614
 5566SOL    HW217598   1.274   3.484   6.723
 5567SOL     OW17599   6.725   4.397   1.656
 5567SOL    HW117600   6.783   4.366   1.581
 5567SOL    HW217601   6.679   4.318   1.697
 5568SOL     OW17602   4.479   6.241   1.896
 5568SOL    HW117603   4.558   6.183   1.913
 5568SOL    HW217604   4.396   6.185   1.897
 5569SOL     OW17605   2.121   3.199   4.212
 5569SOL    HW117606   2.127   3.115   4.266
 5569SOL    HW217607   2.167   3.273   4.262
 5570SOL     OW17608   0.364   3.895   2.839
 5570SOL    HW117609   0.431   3.869   2.908
 5570SOL    HW217610   0.357   3.995   2.836
 5571SOL     OW17611   6.332   4.898   1.745
 5571SOL    HW117612   6.276   4.971   1.786
 5571SOL    HW217613   6.383   4.935   1.667
 5572SOL     OW17614   1.115   2.992   5.145
 5572SOL    HW117615   1.208   3.020   5.168
 5572SOL    HW217616   1.099   3.006   5.047
 5573SOL     OW17617   2.910   5.216   4.242
 5573SOL    HW117618   2.833   5.252   4.295
 5573SOL    HW217619   2.906   5.116   4.242
 5574SOL     OW17620   6.682   2.247   6.391
 5574SOL    HW117621   6.714   2.259   6.484
 5574SOL    HW217622   6.761   2.246   6.328
 5575SOL     OW17623   0.632   6.973   1.580
 5575SOL    HW117624   0.646   0.033   1.628
 5575SOL    HW217625   0.538   6.968   1.547
 5576SOL     OW17626   2.153   4.086   3.571
 5576SOL    HW117627   2.179   4.011   3.632
 5576SOL    HW217628   2.111   4.160   3.625
 5577SOL     OW17629   1.623   3.194   6.325
 5577SOL    HW117630   1.550   3.246   6.281
 5577SOL    HW217631   1.582   3.122   6.382
 5578SOL     OW17632   4.158   3.474   3.013
 5578SOL    HW117633   4.148   3.529   2.929
 5578SOL    HW217634   4.244   3.498   3.058
 5579SOL     OW17635   0.685   2.992   1.616
 5579SOL    HW117636   0.707   3.016   1.710
 5579SOL    HW217637   0.617   2.919   1.615
 5580SOL     OW17638   5.056   1.881   5.427
 5580SOL    HW117639   4.987   1.849   5.364
 5580SOL    HW217640   5.130   1.926   5.377
 5581SOL     OW17641   0.935   1.808   6.974
 5581SOL    HW117642   0.997   1.876   7.013
 5581SOL    HW217643   0.875   1.772   0.020
 5582SOL     OW17644   2.454   2.834   6.576
 5582SOL    HW117645   2.553   2.825   6.564
 5582SOL    HW217646   2.408   2.800   6.494
 5583SOL     OW17647   5.701   0.972   2.120
 5583SOL    HW117648   5.633   1.013   2.180
 5583SOL    HW217649   5.782   1.031   2.115
 5584SOL     OW17650   0.402   4.279   5.257
 5584SOL    HW117651   0.312   4.300   5.219
 5584SOL    HW217652   0.470   4.340   5.217
 5585SOL     OW17653   5.049   4.933   1.961
 5585SOL    HW117654   5.051   4.839   1.926
 5585SOL    HW217655   5.096   4.937   2.049
 5586SOL     OW17656   6.749   2.808   6.579
 5586SOL    HW117657   6.773   2.779   6.672
 5586SOL    HW217658   6.821   2.866   6.542
 5587SOL     OW17659   5.008   0.448   6.397
 5587SOL    HW117660   5.010   0.361   6.447
 5587SOL    HW217661   5.014   0.430   6.299
 5588SOL     OW17662   3.195   6.600   1.486
 5588SOL    HW117663   3.165   6.620   1.392
 5588SOL    HW217664   3.121   6.554   1.535
 5589SOL     OW17665   5.863   4.719   6.392
 5589SOL    HW117666   5.791   4.786   6.375
 5589SOL    HW217667   5.951   4.757   6.361
 5590SOL     OW17668   5.837   5.737   4.322
 5590SOL    HW117669   5.841   5.756   4.224
 5590SOL    HW217670   5.768   5.795   4.364
 5591SOL     OW17671   6.115   1.662   1.528
 5591SOL    HW117672   6.049   1.737   1.521
 5591SOL    HW217673   6.184   1.672   1.457
 5592SOL     OW17674   0.782   4.519   3.352
 5592SOL    HW117675   0.788   4.609   3.395
 5592SOL    HW217676   0.769   4.449   3.422
 5593SOL     OW17677   6.434   1.894   0.164
 5593SOL    HW117678   6.478   1.976   0.128
 5593SOL    HW217679   6.337   1.895   0.140
 5594SOL     OW17680   5.444   2.444   5.224
 5594SOL    HW117681   5.529   2.435   5.171
 5594SOL    HW217682   5.367   2.414   5.168
 5595SOL     OW17683   0.797   2.518   5.557
 5595SOL    HW117684   0.701   2.529   5.531
 5595SOL    HW217685   0.855   2.566   5.492
 5596SOL     OW17686   4.240   6.293   2.428
 5596SOL    HW117687   4.338   6.292   2.406
 5596SOL    HW217688   4.211   6.202   2.456
 5597SOL     OW17689   5.253   3.492   3.324
 5597SOL    HW117690   5.172   3.534   3.363
 5597SOL    HW217691   5.296   3.432   3.391
 5598SOL     OW17692   5.274   1.971   4.786
 5598SOL    HW117693   5.276   2.071   4.786
 5598SOL    HW217694   5.313   1.936   4.701
 5599SOL     OW17695   0.631   1.800   3.853
 5599SOL    HW117696   0.550   1.857   3.858
 5599SOL    HW217697   0.712   1.855   3.869
 5600SOL     OW17698   1.603   2.655   4.254
 5600SOL    HW117699   1.540   2.732   4.248
 5600SOL    HW217700   1.623   2.636   4.350
 5601SOL     OW17701   2.257   1.184   5.461
 5601SOL    HW117702   2.271   1.089   5.491
 5601SOL    HW217703   2.327   1.242   5.503
 5602SOL     OW17704   1.081   1.976   0.718
 5602SOL    HW117705   0.998   1.930   0.748
 5602SOL    HW217706   1.159   1.914   0.728
 5603SOL     OW17707   5.394   2.325   6.749
 5603SOL    HW117708   5.413   2.361   6.841
 5603SOL    HW217709   5.412   2.227   6.748
 5604SOL     OW17710   6.016   1.935   5.429
 5604SOL    HW117711   6.101   1.884   5.441
 5604SOL    HW217712   5.938   1.877   5.452
 5605SOL     OW17713   0.512   1.868   4.678
 5605SOL    HW117714   0.554   1.801   4.617
 5605SOL    HW217715   0.453   1.929   4.626
 5606SOL     OW17716   4.377   0.153   1.929
 5606SOL    HW117717   4.392   0.249   1.907
 5606SOL    HW217718   4.448   0.098   1.885
 5607SOL     OW17719   5.766   2.075   1.712
 5607SOL    HW117720   5.760   2.047   1.808
 5607SOL    HW217721   5.685   2.129   1.689
 5608SOL     OW17722   4.083   6.923   4.925
 5608SOL    HW117723   4.178   6.897   4.905
 5608SOL    HW217724   4.038   6.954   4.842
 5609SOL     OW17725   2.908   6.491   6.405
 5609SOL    HW117726   2.915   6.451   6.313
 5609SOL    HW217727   2.821   6.465   6.446
 5610SOL     OW17728   4.968   0.758   0.425
 5610SOL    HW117729   4.991   0.852   0.398
 5610SOL    HW217730   4.894   0.759   0.492
 5611SOL     OW17731   1.394   4.494   3.400
 5611SOL    HW117732   1.461   4.541   3.457
 5611SOL    HW217733   1.311   4.477   3.453
 5612SOL     OW17734   2.688   0.332   5.510
 5612SOL    HW117735   2.595   0.344   5.476
 5612SOL    HW217736   2.726   0.421   5.535
 5613SOL     OW17737   4.368   4.528   1.808
 5613SOL    HW117738   4.357   4.484   1.720
 5613SOL    HW217739   4.362   4.460   1.881
 5614SOL     OW17740   4.736   2.358   3.106
 5614SOL    HW117741   4.783   2.346   3.019
 5614SOL    HW217742   4.767   2.288   3.170
 5615SOL     OW17743   1.703   0.763   0.405
 5615SOL    HW117744   1.752   0.694   0.459
 5615SOL    HW217745   1.648   0.718   0.336
 5616SOL     OW17746   1.903   0.971   4.334
 5616SOL    HW117747   1.896   1.064   4.368
 5616SOL    HW217748   1.819   0.946   4.286
 5617SOL     OW17749   1.813   0.501   4.778
 5617SOL    HW117750   1.822   0.578   4.842
 5617SOL    HW217751   1.876   0.428   4.806
 5618SOL     OW17752   7.025   4.064   3.803
 5618SOL    HW117753   6.942   4.102   3.762
 5618SOL    HW217754   0.078   4.118   3.773
 5619SOL     OW17755   2.383   4.011   5.587
 5619SOL    HW117756   2.370   4.099   5.632
 5619SOL    HW217757   2.370   4.022   5.488
 5620SOL     OW17758   3.687   2.045   6.948
 5620SOL    HW117759   3.707   1.957   6.992
 5620SOL    HW217760   3.754   2.113   6.978
 5621SOL     OW17761   1.533   2.171   5.394
 5621SOL    HW117762   1.459   2.206   5.451
 5621SOL    HW217763   1.515   2.193   5.298
 5622SOL     OW17764   5.431   0.627   6.267
 5622SOL    HW117765   5.359   0.591   6.326
 5622SOL    HW217766   5.496   0.555   6.245
 5623SOL     OW17767   1.499   5.988   6.767
 5623SOL    HW117768   1.566   5.982   6.841
 5623SOL    HW217769   1.505   6.078   6.724
 5624SOL     OW17770   1.138   4.495   3.542
 5624SOL    HW117771   1.102   4.575   3.495
 5624SOL    HW217772   1.135   4.416   3.480
 5625SOL     OW17773   6.756   2.937   4.846
 5625SOL    HW117774   6.819   3.001   4.803
 5625SOL    HW217775   6.765   2.944   4.946
 5626SOL     OW17776   3.767   0.316   4.893
 5626SOL    HW117777   3.858   0.333   4.931
 5626SOL    HW217778   3.747   0.218   4.898
 5627SOL     OW17779   1.539   6.168   1.665
 5627SOL    HW117780   1.523   6.090   1.605
 5627SOL    HW217781   1.481   6.160   1.746
 5628SOL     OW17782   2.083   1.803   4.741
 5628SOL    HW117783   2.029   1.780   4.661
 5628SOL    HW217784   2.129   1.721   4.776
 5629SOL     OW17785   3.493   3.661   2.538
 5629SOL    HW117786   3.563   3.618   2.481
 5629SOL    HW217787   3.510   3.759   2.545
 5630SOL     OW17788   0.870   4.616   1.518
 5630SOL    HW117789   0.807   4.662   1.456
 5630SOL    HW217790   0.873   4.664   1.605
 5631SOL     OW17791   4.565   0.783   0.332
 5631SOL    HW117792   4.572   0.860   0.269
 5631SOL    HW217793   4.472   0.776   0.366
 5632SOL     OW17794   4.348   3.585   0.016
 5632SOL    HW117795   4.444   3.578   0.044
 5632SOL    HW217796   4.338   3.654   6.971
 5633SOL     OW17797   6.644   2.526   4.393
 5633SOL    HW117798   6.595   2.487   4.315
 5633SOL    HW217799   6.654   2.625   4.380
 5634SOL     OW17800   3.912   5.618   4.156
 5634SOL    HW117801   3.908   5.605   4.057
 5634SOL    HW217802   3.933   5.714   4.176
 5635SOL     OW17803   2.665   2.434   4.847
 5635SOL    HW117804   2.712   2.428   4.759
 5635SOL    HW217805   2.618   2.348   4.867
 5636SOL     OW17806   4.438   5.485   2.944
 5636SOL    HW117807   4.401   5.577   2.953
 5636SOL    HW217808   4.424   5.434   3.030
 5637SOL     OW17809   5.680   6.678   3.420
 5637SOL    HW117810   5.707   6.772   3.399
 5637SOL    HW217811   5.749   6.615   3.387
 5638SOL     OW17812   5.025   2.601   6.437
 5638SOL    HW117813   5.103   2.541   6.456
 5638SOL    HW217814   5.040   2.649   6.351
 5639SOL     OW17815   1.787   1.697   6.087
 5639SOL    HW117816   1.859   1.758   6.119
 5639SOL    HW217817   1.700   1.746   6.087
 5640SOL     OW17818   2.518   0.333   3.271
 5640SOL    HW117819   2.451   0.314   3.199
 5640SOL    HW217820   2.601   0.280   3.254
 5641SOL     OW17821   6.417   5.273   5.325
 5641SOL    HW117822   6.491   5.206   5.328
 5641SOL    HW217823   6.339   5.233   5.277
 5642SOL     OW17824   1.301   1.930   6.150
 5642SOL    HW117825   1.280   2.027   6.135
 5642SOL    HW217826   1.384   1.906   6.099
 5643SOL     OW17827   6.059   2.417   4.371
 5643SOL    HW117828   5.972   2.370   4.385
 5643SOL    HW217829   6.124   2.387   4.440
 5644SOL     OW17830   3.417   0.297   6.761
 5644SOL    HW117831   3.429   0.219   6.699
 5644SOL    HW217832   3.505   0.323   6.799
 5645SOL     OW17833   5.672   2.860   4.242
 5645SOL    HW117834   5.744   2.856   4.173
 5645SOL    HW217835   5.584   2.836   4.200
 5646SOL     OW17836   1.696   4.389   2.858
 5646SOL    HW117837   1.650   4.451   2.795
 5646SOL    HW217838   1.790   4.421   2.874
 5647SOL     OW17839   6.989   5.866   2.867
 5647SOL    HW117840   0.048   5.917   2.852
 5647SOL    HW217841   6.991   5.781   2.816
 5648SOL     OW17842   4.284   6.386   2.954
 5648SOL    HW117843   4.197   6.435   2.944
 5648SOL    HW217844   4.348   6.416   2.884
 5649SOL     OW17845   0.464   6.436   4.151
 5649SOL    HW117846   0.501   6.496   4.223
 5649SOL    HW217847   0.501   6.464   4.062
 5650SOL     OW17848   6.819   4.056   0.271
 5650SOL    HW117849   6.850   4.145   0.305
 5650SOL    HW217850   6.897   3.994   0.260
 5651SOL     OW17851   1.550   0.539   1.703
 5651SOL    HW117852   1.576   0.521   1.798
 5651SOL    HW217853   1.453   0.563   1.699
 5652SOL     OW17854   1.358   5.806   1.904
 5652SOL    HW117855   1.320   5.775   1.817
 5652SOL    HW217856   1.380   5.904   1.898
 5653SOL     OW17857   0.174   6.900   1.124
 5653SOL    HW117858   0.200   6.839   1.050
 5653SOL    HW217859   0.253   6.917   1.183
 5654SOL     OW17860   2.406   6.060   5.201
 5654SOL    HW117861   2.314   6.093   5.177
 5654SOL    HW217862   2.404   5.960   5.207
 5655SOL     OW17863   6.489   3.006   4.304
 5655SOL    HW117864   6.498   3.094   4.352
 5655SOL    HW217865   6.401   2.965   4.327
 5656SOL     OW17866   0.276   3.284   0.033
 5656SOL    HW117867   0.335   3.204   0.020
 5656SOL    HW217868   0.180   3.255   0.032
 5657SOL     OW17869   4.430   5.566   5.231
 5657SOL    HW117870   4.349   5.525   5.190
 5657SOL    HW217871   4.480   5.496   5.283
 5658SOL     OW17872   1.911   2.040   5.625
 5658SOL    HW117873   1.989   2.021   5.684
 5658SOL    HW217874   1.900   2.139   5.615
 5659SOL     OW17875   3.969   4.239   6.237
 5659SOL    HW117876   3.876   4.270   6.216
 5659SOL    HW217877   4.012   4.303   6.300
 5660SOL     OW17878   4.192   0.704   6.490
 5660SOL    HW117879   4.159   0.645   6.416
 5660SOL    HW217880   4.181   0.800   6.463
 5661SOL     OW17881   1.413   5.244   5.615
 5661SOL    HW117882   1.327   5.212   5.574
 5661SOL    HW217883   1.395   5.324   5.673
 5662SOL     OW17884   2.485   6.149   2.478
 5662SOL    HW117885   2.541   6.137   2.396
 5662SOL    HW217886   2.405   6.205   2.456
 5663SOL     OW17887   0.836   2.738   0.180
 5663SOL    HW117888   0.886   2.726   0.265
 5663SOL    HW217889   0.792   2.652   0.155
 5664SOL     OW17890   5.079   3.937   4.100
 5664SOL    HW117891   5.133   3.902   4.176
 5664SOL    HW217892   4.992   3.888   4.095
 5665SOL     OW17893   2.325   1.217   1.072
 5665SOL    HW117894   2.332   1.296   1.134
 5665SOL    HW217895   2.229   1.192   1.060
 5666SOL     OW17896   5.336   1.185   4.811
 5666SOL    HW117897   5.259   1.161   4.870
 5666SOL    HW217898   5.332   1.130   4.728
 5667SOL     OW17899   2.420   4.964   5.061
 5667SOL    HW117900   2.490   4.969   5.132
 5667SOL    HW217901   2.461   4.989   4.973
 5668SOL     OW17902   5.439   3.174   3.553
 5668SOL    HW117903   5.478   3.112   3.621
 5668SOL    HW217904   5.342   3.187   3.572
 5669SOL     OW17905   6.601   4.491   6.478
 5669SOL    HW117906   6.540   4.518   6.552
 5669SOL    HW217907   6.552   4.433   6.413
 5670SOL     OW17908   0.739   2.177   2.465
 5670SOL    HW117909   0.672   2.103   2.460
 5670SOL    HW217910   0.750   2.207   2.559
 5671SOL     OW17911   0.323   6.829   3.610
 5671SOL    HW117912   0.274   6.746   3.635
 5671SOL    HW217913   0.268   6.909   3.633
 5672SOL     OW17914   5.341   3.175   5.589
 5672SOL    HW117915   5.410   3.121   5.541
 5672SOL    HW217916   5.347   3.157   5.687
 5673SOL     OW17917   0.705   0.638   1.205
 5673SOL    HW117918   0.731   0.571   1.135
 5673SOL    HW217919   0.782   0.700   1.222
 5674SOL     OW17920   1.892   5.400   5.960
 5674SOL    HW117921   1.983   5.437   5.937
 5674SOL    HW217922   1.868   5.426   6.053
 5675SOL     OW17923   2.183   1.718   0.498
 5675SOL    HW117924   2.228   1.802   0.469
 5675SOL    HW217925   2.123   1.685   0.425
 5676SOL     OW17926   2.745   2.166   1.575
 5676SOL    HW117927   2.783   2.116   1.497
 5676SOL    HW217928   2.715   2.101   1.644
 5677SOL     OW17929   6.917   0.981   1.292
 5677SOL    HW117930   6.829   0.949   1.329
 5677SOL    HW217931   6.914   0.979   1.192
 5678SOL     OW17932   3.324   2.065   2.172
 5678SOL    HW117933   3.343   2.012   2.089
 5678SOL    HW217934   3.229   2.095   2.171
 5679SOL     OW17935   6.221   3.308   5.094
 5679SOL    HW117936   6.232   3.394   5.046
 5679SOL    HW217937   6.263   3.315   5.185
 5680SOL     OW17938   1.527   6.075   5.417
 5680SOL    HW117939   1.541   5.995   5.359
 5680SOL    HW217940   1.589   6.069   5.496
 5681SOL     OW17941   1.168   3.867   3.433
 5681SOL    HW117942   1.225   3.925   3.492
 5681SOL    HW217943   1.100   3.820   3.488
 5682SOL     OW17944   2.217   4.411   1.756
 5682SOL    HW117945   2.203   4.488   1.819
 5682SOL    HW217946   2.308   4.418   1.716
 5683SOL     OW17947   6.249   1.333   6.414
 5683SOL    HW117948   6.223   1.429   6.404
 5683SOL    HW217949   6.308   1.307   6.338
 5684SOL     OW17950   1.907   2.885   5.292
 5684SOL    HW117951   1.838   2.816   5.273
 5684SOL    HW217952   1.865   2.964   5.336
 5685SOL     OW17953   2.668   1.758   3.277
 5685SOL    HW117954   2.603   1.830   3.251
 5685SOL    HW217955   2.755   1.800   3.302
 5686SOL     OW17956   3.699   6.090   6.099
 5686SOL    HW117957   3.736   6.037   6.175
 5686SOL    HW217958   3.610   6.054   6.072
 5687SOL     OW17959   2.191   6.343   6.400
 5687SOL    HW117960   2.195   6.433   6.358
 5687SOL    HW217961   2.262   6.284   6.361
 5688SOL     OW17962   2.299   2.508   3.147
 5688SOL    HW117963   2.222   2.448   3.127
 5688SOL    HW217964   2.335   2.545   3.061
 5689SOL     OW17965   0.310   2.242   1.555
 5689SOL    HW117966   0.398   2.230   1.600
 5689SOL    HW217967   0.324   2.275   1.462
 5690SOL     OW17968   1.545   5.537   0.446
 5690SOL    HW117969   1.577   5.606   0.380
 5690SOL    HW217970   1.536   5.580   0.537
 5691SOL     OW17971   3.030   1.057   2.696
 5691SOL    HW117972   3.024   1.110   2.612
 5691SOL    HW217973   3.003   1.114   2.774
 5692SOL     OW17974   4.562   4.999   1.664
 5692SOL    HW117975   4.502   4.935   1.712
 5692SOL    HW217976   4.645   4.951   1.636
 5693SOL     OW17977   3.810   0.864   1.297
 5693SOL    HW117978   3.777   0.827   1.210
 5693SOL    HW217979   3.867   0.944   1.280
 5694SOL     OW17980   1.052   6.567   1.864
 5694SOL    HW117981   1.091   6.582   1.955
 5694SOL    HW217982   0.968   6.514   1.872
 5695SOL     OW17983   1.560   0.412   1.038
 5695SOL    HW117984   1.472   0.448   1.008
 5695SOL    HW217985   1.568   0.316   1.012
 5696SOL     OW17986   1.632   0.407   3.723
 5696SOL    HW117987   1.599   0.320   3.686
 5696SOL    HW217988   1.699   0.390   3.794
 5697SOL     OW17989   6.286   2.845   0.665
 5697SOL    HW117990   6.216   2.827   0.596
 5697SOL    HW217991   6.375   2.856   0.621
 5698SOL     OW17992   2.590   2.535   3.942
 5698SOL    HW117993   2.573   2.634   3.937
 5698SOL    HW217994   2.625   2.503   3.854
 5699SOL     OW17995   2.152   2.422   2.756
 5699SOL    HW117996   2.087   2.494   2.777
 5699SOL    HW217997   2.103   2.341   2.724
 5700SOL     OW17998   6.301   0.976   3.483
 5700SOL    HW117999   6.354   0.923   3.549
 5700SOL    HW218000   6.214   1.003   3.525
 5701SOL     OW18001   0.351   0.818   1.392
 5701SOL    HW118002   0.388   0.751   1.328
 5701SOL    HW218003   0.374   0.791   1.485
 5702SOL     OW18004   2.627   6.657   4.196
 5702SOL    HW118005   2.579   6.742   4.175
 5702SOL    HW218006   2.657   6.613   4.112
 5703SOL     OW18007   0.029   2.956   6.668
 5703SOL    HW118008   0.092   3.012   6.721
 5703SOL    HW218009   6.998   2.902   6.729
 5704SOL     OW18010   5.306   4.354   3.898
 5704SOL    HW118011   5.236   4.285   3.882
 5704SOL    HW218012   5.388   4.310   3.936
 5705SOL     OW18013   6.179   6.752   5.447
 5705SOL    HW118014   6.219   6.820   5.385
 5705SOL    HW218015   6.081   6.746   5.432
 5706SOL     OW18016   4.766   2.202   0.037
 5706SOL    HW118017   4.676   2.177   0.072
 5706SOL    HW218018   4.789   2.295   0.069
 5707SOL     OW18019   6.027   5.861   2.231
 5707SOL    HW118020   5.966   5.794   2.273
 5707SOL    HW218021   6.065   5.921   2.301
 5708SOL     OW18022   4.411   5.918   2.810
 5708SOL    HW118023   4.481   5.922   2.881
 5708SOL    HW218024   4.454   5.904   2.721
 5709SOL     OW18025   0.601   1.605   2.689
 5709SOL    HW118026   0.635   1.565   2.604
 5709SOL    HW218027   0.503   1.624   2.679
 5710SOL     OW18028   2.888   2.162   1.021
 5710SOL    HW118029   2.861   2.252   0.990
 5710SOL    HW218030   2.940   2.170   1.107
 5711SOL     OW18031   5.632   2.172   2.179
 5711SOL    HW118032   5.585   2.176   2.267
 5711SOL    HW218033   5.722   2.214   2.187
 5712SOL     OW18034   6.142   6.233   1.440
 5712SOL    HW118035   6.168   6.313   1.494
 5712SOL    HW218036   6.211   6.162   1.451
 5713SOL     OW18037   2.561   6.542   0.341
 5713SOL    HW118038   2.526   6.630   0.309
 5713SOL    HW218039   2.623   6.557   0.418
 5714SOL     OW18040   6.134   0.183   1.131
 5714SOL    HW118041   6.080   0.130   1.197
 5714SOL    HW218042   6.175   0.261   1.178
 5715SOL     OW18043   0.657   0.319   1.254
 5715SOL    HW118044   0.617   0.338   1.164
 5715SOL    HW218045   0.603   0.364   1.324
 5716SOL     OW18046   6.805   4.682   5.595
 5716SOL    HW118047   6.760   4.678   5.506
 5716SOL    HW218048   6.889   4.735   5.587
 5717SOL     OW18049   1.166   4.948   3.128
 5717SOL    HW118050   1.133   5.015   3.194
 5717SOL    HW218051   1.216   4.876   3.175
 5718SOL     OW18052   0.743   3.402   0.202
 5718SOL    HW118053   0.740   3.372   0.107
 5718SOL    HW218054   0.829   3.449   0.220
 5719SOL     OW18055   2.498   3.861   0.865
 5719SOL    HW118056   2.502   3.767   0.897
 5719SOL    HW218057   2.591   3.900   0.864
 5720SOL     OW18058   2.606   4.479   6.299
 5720SOL    HW118059   2.540   4.423   6.249
 5720SOL    HW218060   2.681   4.504   6.238
 5721SOL     OW18061   3.665   4.144   0.708
 5721SOL    HW118062   3.659   4.240   0.678
 5721SOL    HW218063   3.632   4.084   0.634
 5722SOL     OW18064   0.916   1.181   5.863
 5722SOL    HW118065   0.820   1.207   5.852
 5722SOL    HW218066   0.952   1.223   5.946
 5723SOL     OW18067   4.666   3.385   6.899
 5723SOL    HW118068   4.640   3.387   6.802
 5723SOL    HW218069   4.672   3.290   6.929
 5724SOL     OW18070   6.321   2.613   3.947
 5724SOL    HW118071   6.248   2.605   4.015
 5724SOL    HW218072   6.366   2.701   3.959
 5725SOL     OW18073   6.753   4.201   4.219
 5725SOL    HW118074   6.851   4.220   4.224
 5725SOL    HW218075   6.735   4.139   4.143
 5726SOL     OW18076   5.392   4.628   2.612
 5726SOL    HW118077   5.303   4.626   2.566
 5726SOL    HW218078   5.396   4.554   2.680
 5727SOL     OW18079   0.539   2.143   5.041
 5727SOL    HW118080   0.605   2.102   4.978
 5727SOL    HW218081   0.567   2.236   5.063
 5728SOL     OW18082   4.765   6.534   5.044
 5728SOL    HW118083   4.739   6.530   5.140
 5728SOL    HW218084   4.748   6.625   5.008
 5729SOL     OW18085   1.913   2.090   5.182
 5729SOL    HW118086   1.931   2.055   5.090
 5729SOL    HW218087   1.970   2.040   5.249
 5730SOL     OW18088   6.672   4.224   4.956
 5730SOL    HW118089   6.674   4.124   4.964
 5730SOL    HW218090   6.609   4.249   4.882
 5731SOL     OW18091   0.307   6.280   2.196
 5731SOL    HW118092   0.393   6.328   2.208
 5731SOL    HW218093   0.325   6.183   2.175
 5732SOL     OW18094   0.760   0.270   3.696
 5732SOL    HW118095   0.772   0.205   3.621
 5732SOL    HW218096   0.846   0.278   3.747
 5733SOL     OW18097   3.517   0.811   5.584
 5733SOL    HW118098   3.513   0.723   5.631
 5733SOL    HW218099   3.430   0.828   5.538
 5734SOL     OW18100   2.271   6.380   2.933
 5734SOL    HW118101   2.364   6.405   2.906
 5734SOL    HW218102   2.208   6.405   2.859
 5735SOL     OW18103   2.736   1.469   1.786
 5735SOL    HW118104   2.818   1.507   1.826
 5735SOL    HW218105   2.750   1.372   1.765
 5736SOL     OW18106   1.705   5.253   0.262
 5736SOL    HW118107   1.690   5.229   0.358
 5736SOL    HW218108   1.723   5.351   0.255
 5737SOL     OW18109   5.281   4.616   0.906
 5737SOL    HW118110   5.347   4.630   0.832
 5737SOL    HW218111   5.258   4.704   0.947
 5738SOL     OW18112   1.370   3.677   6.071
 5738SOL    HW118113   1.285   3.685   6.122
 5738SOL    HW218114   1.446   3.668   6.135
 5739SOL     OW18115   0.608   1.000   0.949
 5739SOL    HW118116   0.702   1.006   0.982
 5739SOL    HW218117   0.546   0.989   1.026
 5740SOL     OW18118   4.119   5.706   6.335
 5740SOL    HW118119   4.055   5.690   6.259
 5740SOL    HW218120   4.070   5.698   6.422
 5741SOL     OW18121   0.565   4.836   3.426
 5741SOL    HW118122   0.478   4.873   3.394
 5741SOL    HW218123   0.556   4.737   3.440
 5742SOL     OW18124   6.451   6.630   4.373
 5742SOL    HW118125   6.512   6.639   4.451
 5742SOL    HW218126   6.476   6.549   4.319
 5743SOL     OW18127   1.759   6.633   5.339
 5743SOL    HW118128   1.776   6.545   5.383
 5743SOL    HW218129   1.810   6.705   5.387
 5744SOL     OW18130   5.757   6.633   2.298
 5744SOL    HW118131   5.857   6.638   2.300
 5744SOL    HW218132   5.727   6.617   2.204
 5745SOL     OW18133   1.149   1.968   3.910
 5745SOL    HW118134   1.216   1.976   3.837
 5745SOL    HW218135   1.076   1.905   3.883
 5746SOL     OW18136   5.747   3.675   0.114
 5746SOL    HW118137   5.672   3.613   0.092
 5746SOL    HW218138   5.728   3.721   0.200
 5747SOL     OW18139   1.240   6.130   3.254
 5747SOL    HW118140   1.142   6.113   3.269
 5747SOL    HW218141   1.289   6.121   3.341
 5748SOL     OW18142   2.641   6.184   2.971
 5748SOL    HW118143   2.581   6.154   3.045
 5748SOL    HW218144   2.588   6.195   2.887
 5749SOL     OW18145   2.348   1.657   3.514
 5749SOL    HW118146   2.321   1.618   3.602
 5749SOL    HW218147   2.441   1.627   3.492
 5750SOL     OW18148   6.695   5.585   2.719
 5750SOL    HW118149   6.689   5.615   2.624
 5750SOL    HW218150   6.659   5.492   2.727
 5751SOL     OW18151   2.688   3.987   6.259
 5751SOL    HW118152   2.776   3.993   6.211
 5751SOL    HW218153   2.705   3.966   6.356
 5752SOL     OW18154   6.334   0.262   6.930
 5752SOL    HW118155   6.319   0.300   7.021
 5752SOL    HW218156   6.301   0.326   6.861
 5753SOL     OW18157   3.757   2.202   0.458
 5753SOL    HW118158   3.777   2.234   0.551
 5753SOL    HW218159   3.838   2.214   0.401
 5754SOL     OW18160   6.118   4.617   0.967
 5754SOL    HW118161   6.112   4.641   0.871
 5754SOL    HW218162   6.159   4.692   1.019
 5755SOL     OW18163   3.516   3.893   1.725
 5755SOL    HW118164   3.578   3.950   1.673
 5755SOL    HW218165   3.560   3.805   1.746
 5756SOL     OW18166   0.183   6.398   4.269
 5756SOL    HW118167   0.144   6.342   4.196
 5756SOL    HW218168   0.259   6.452   4.234
 5757SOL     OW18169   0.540   5.264   1.326
 5757SOL    HW118170   0.603   5.266   1.248
 5757SOL    HW218171   0.592   5.245   1.410
 5758SOL     OW18172   0.917   1.752   5.566
 5758SOL    HW118173   1.008   1.719   5.542
 5758SOL    HW218174   0.848   1.694   5.523
 5759SOL     OW18175   4.926   1.990   5.026
 5759SOL    HW118176   4.859   1.967   5.096
 5759SOL    HW218177   4.999   2.045   5.067
 5760SOL     OW18178   1.657   5.734   1.910
 5760SOL    HW118179   1.735   5.766   1.964
 5760SOL    HW218180   1.572   5.767   1.952
 5761SOL     OW18181   4.690   0.366   4.870
 5761SOL    HW118182   4.686   0.433   4.796
 5761SOL    HW218183   4.780   0.371   4.915
 5762SOL     OW18184   5.398   6.096   1.350
 5762SOL    HW118185   5.428   6.005   1.320
 5762SOL    HW218186   5.453   6.166   1.304
 5763SOL     OW18187   1.037   1.373   1.136
 5763SOL    HW118188   1.061   1.442   1.203
 5763SOL    HW218189   1.109   1.367   1.067
 5764SOL     OW18190   4.464   3.682   5.566
 5764SOL    HW118191   4.438   3.750   5.635
 5764SOL    HW218192   4.561   3.659   5.578
 5765SOL     OW18193   5.577   4.821   0.690
 5765SOL    HW118194   5.675   4.819   0.669
 5765SOL    HW218195   5.537   4.905   0.652
 5766SOL     OW18196   3.101   1.204   3.799
 5766SOL    HW118197   3.064   1.194   3.891
 5766SOL    HW218198   3.089   1.299   3.768
 5767SOL     OW18199   0.145   6.465   1.227
 5767SOL    HW118200   0.233   6.482   1.182
 5767SOL    HW218201   0.161   6.443   1.323
 5768SOL     OW18202   6.466   0.694   2.825
 5768SOL    HW118203   6.525   0.758   2.775
 5768SOL    HW218204   6.503   0.601   2.817
 5769SOL     OW18205   2.393   5.641   3.728
 5769SOL    HW118206   2.327   5.608   3.661
 5769SOL    HW218207   2.486   5.623   3.694
 5770SOL     OW18208   6.167   0.301   1.446
 5770SOL    HW118209   6.132   0.210   1.426
 5770SOL    HW218210   6.227   0.331   1.372
 5771SOL     OW18211   0.909   1.673   2.298
 5771SOL    HW118212   0.821   1.722   2.302
 5771SOL    HW218213   0.940   1.667   2.203
 5772SOL     OW18214   6.611   4.344   0.001
 5772SOL    HW118215   6.583   4.431   6.987
 5772SOL    HW218216   6.606   4.350   0.101
 5773SOL     OW18217   5.899   5.824   4.077
 5773SOL    HW118218   5.945   5.896   4.024
 5773SOL    HW218219   5.825   5.785   4.022
 5774SOL     OW18220   2.522   5.322   2.692
 5774SOL    HW118221   2.609   5.369   2.709
 5774SOL    HW218222   2.530   5.226   2.719
 5775SOL     OW18223   0.025   0.440   0.611
 5775SOL    HW118224   0.020   0.349   0.652
 5775SOL    HW218225   0.065   0.504   0.678
 5776SOL     OW18226   5.052   0.963   5.743
 5776SOL    HW118227   5.013   1.020   5.815
 5776SOL    HW218228   5.127   0.908   5.780
 5777SOL     OW18229   6.107   0.666   5.494
 5777SOL    HW118230   6.149   0.598   5.554
 5777SOL    HW218231   6.177   0.726   5.455
 5778SOL     OW18232   2.575   0.083   3.803
 5778SOL    HW118233   2.554   0.108   3.709
 5778SOL    HW218234   2.652   0.138   3.836
 5779SOL     OW18235   4.304   0.995   2.534
 5779SOL    HW118236   4.222   1.034   2.576
 5779SOL    HW218237   4.289   0.980   2.437
 5780SOL     OW18238   6.145   3.616   1.287
 5780SOL    HW118239   6.213   3.656   1.226
 5780SOL    HW218240   6.069   3.680   1.300
 5781SOL     OW18241   2.155   4.944   5.077
 5781SOL    HW118242   2.253   4.961   5.072
 5781SOL    HW218243   2.108   5.025   5.112
 5782SOL     OW18244   2.682   1.051   3.123
 5782SOL    HW118245   2.591   1.092   3.114
 5782SOL    HW218246   2.707   1.049   3.220
 5783SOL     OW18247   2.523   6.513   0.816
 5783SOL    HW118248   2.435   6.554   0.792
 5783SOL    HW218249   2.510   6.417   0.842
 5784SOL     OW18250   2.052   5.593   0.159
 5784SOL    HW118251   2.026   5.614   0.253
 5784SOL    HW218252   2.019   5.502   0.134
 5785SOL     OW18253   2.485   1.592   0.446
 5785SOL    HW118254   2.494   1.670   0.508
 5785SOL    HW218255   2.458   1.511   0.498
 5786SOL     OW18256   1.140   3.425   0.666
 5786SOL    HW118257   1.077   3.478   0.610
 5786SOL    HW218258   1.223   3.479   0.682
 5787SOL     OW18259   0.045   3.177   5.648
 5787SOL    HW118260   0.094   3.125   5.577
 5787SOL    HW218261   0.078   3.149   5.738
 5788SOL     OW18262   1.744   2.340   1.879
 5788SOL    HW118263   1.662   2.385   1.913
 5788SOL    HW218264   1.744   2.244   1.908
 5789SOL     OW18265   3.096   5.385   6.889
 5789SOL    HW118266   3.112   5.483   6.902
 5789SOL    HW218267   3.012   5.372   6.837
 5790SOL     OW18268   6.263   5.741   3.666
 5790SOL    HW118269   6.345   5.742   3.609
 5790SOL    HW218270   6.288   5.712   3.759
 5791SOL     OW18271   4.302   1.375   1.934
 5791SOL    HW118272   4.308   1.454   1.995
 5791SOL    HW218273   4.315   1.405   1.839
 5792SOL     OW18274   4.532   2.559   2.562
 5792SOL    HW118275   4.468   2.611   2.619
 5792SOL    HW218276   4.481   2.501   2.499
 5793SOL     OW18277   3.941   2.599   6.571
 5793SOL    HW118278   3.971   2.635   6.482
 5793SOL    HW218279   3.859   2.648   6.600
 5794SOL     OW18280   3.589   6.201   0.010
 5794SOL    HW118281   3.644   6.266   6.985
 5794SOL    HW218282   3.519   6.250   0.063
 5795SOL     OW18283   2.079   5.932   1.756
 5795SOL    HW118284   2.085   5.955   1.853
 5795SOL    HW218285   2.152   5.979   1.706
 5796SOL     OW18286   5.267   0.799   6.517
 5796SOL    HW118287   5.328   0.864   6.562
 5796SOL    HW218288   5.174   0.809   6.553
 5797SOL     OW18289   6.683   2.743   0.807
 5797SOL    HW118290   6.753   2.807   0.839
 5797SOL    HW218291   6.613   2.732   0.877
 5798SOL     OW18292   1.731   3.534   4.494
 5798SOL    HW118293   1.641   3.535   4.451
 5798SOL    HW218294   1.730   3.473   4.573
 5799SOL     OW18295   2.970   6.994   3.362
 5799SOL    HW118296   2.890   6.937   3.381
 5799SOL    HW218297   3.048   6.960   3.414
 5800SOL     OW18298   1.723   0.069   1.384
 5800SOL    HW118299   1.652   0.135   1.361
 5800SOL    HW218300   1.701   0.023   1.470
 5801SOL     OW18301   1.957   1.618   2.133
 5801SOL    HW118302   1.884   1.576   2.079
 5801SOL    HW218303   1.929   1.711   2.160
 5802SOL     OW18304   0.930   0.144   2.143
 5802SOL    HW118305   1.017   0.188   2.164
 5802SOL    HW218306   0.855   0.200   2.177
 5803SOL     OW18307   0.739   5.740   4.202
 5803SOL    HW118308   0.747   5.799   4.283
 5803SOL    HW218309   0.767   5.647   4.226
 5804SOL     OW18310   6.135   1.942   2.983
 5804SOL    HW118311   6.163   2.007   2.913
 5804SOL    HW218312   6.121   1.990   3.069
 5805SOL     OW18313   1.704   2.862   2.220
 5805SOL    HW118314   1.688   2.953   2.182
 5805SOL    HW218315   1.705   2.795   2.146
 5806SOL     OW18316   6.591   3.888   1.880
 5806SOL    HW118317   6.662   3.874   1.949
 5806SOL    HW218318   6.615   3.967   1.824
 5807SOL     OW18319   1.655   0.920   1.794
 5807SOL    HW118320   1.703   1.007   1.801
 5807SOL    HW218321   1.665   0.869   1.879
 5808SOL     OW18322   6.651   0.462   5.806
 5808SOL    HW118323   6.698   0.527   5.747
 5808SOL    HW218324   6.604   0.511   5.880
 5809SOL     OW18325   0.269   2.780   5.152
 5809SOL    HW118326   0.183   2.831   5.140
 5809SOL    HW218327   0.333   2.836   5.205
 5810SOL     OW18328   3.450   6.686   5.028
 5810SOL    HW118329   3.397   6.699   5.112
 5810SOL    HW218330   3.521   6.757   5.023
 5811SOL     OW18331   4.001   4.423   6.456
 5811SOL    HW118332   3.933   4.413   6.529
 5811SOL    HW218333   4.093   4.425   6.497
 5812SOL     OW18334   5.369   2.669   6.407
 5812SOL    HW118335   5.293   2.673   6.342
 5812SOL    HW218336   5.397   2.762   6.431
 5813SOL     OW18337   4.955   5.648   0.636
 5813SOL    HW118338   4.919   5.555   0.633
 5813SOL    HW218339   4.891   5.708   0.684
 5814SOL     OW18340   5.933   1.140   2.061
 5814SOL    HW118341   5.948   1.122   1.964
 5814SOL    HW218342   6.015   1.114   2.112
 5815SOL     OW18343   6.304   3.135   3.892
 5815SOL    HW118344   6.206   3.138   3.873
 5815SOL    HW218345   6.350   3.080   3.822
 5816SOL     OW18346   0.250   3.850   2.589
 5816SOL    HW118347   0.288   3.772   2.539
 5816SOL    HW218348   0.301   3.864   2.673
 5817SOL     OW18349   5.952   3.839   3.136
 5817SOL    HW118350   6.021   3.878   3.076
 5817SOL    HW218351   5.875   3.807   3.081
 5818SOL     OW18352   2.883   0.508   4.409
 5818SOL    HW118353   2.885   0.553   4.319
 5818SOL    HW218354   2.949   0.551   4.470
 5819SOL     OW18355   4.045   4.207   0.423
 5819SOL    HW118356   3.953   4.198   0.385
 5819SOL    HW218357   4.059   4.138   0.494
 5820SOL     OW18358   6.349   6.222   2.774
 5820SOL    HW118359   6.290   6.160   2.825
 5820SOL    HW218360   6.301   6.308   2.757
 5821SOL     OW18361   6.997   0.158   1.795
 5821SOL    HW118362   6.923   0.139   1.859
 5821SOL    HW218363   6.999   0.256   1.773
 5822SOL     OW18364   1.431   4.072   2.989
 5822SOL    HW118365   1.339   4.096   3.022
 5822SOL    HW218366   1.449   3.976   3.010
 5823SOL     OW18367   1.682   6.377   3.838
 5823SOL    HW118368   1.780   6.396   3.842
 5823SOL    HW218369   1.635   6.454   3.795
 5824SOL     OW18370   1.538   6.843   2.540
 5824SOL    HW118371   1.633   6.872   2.552
 5824SOL    HW218372   1.510   6.856   2.445
 5825SOL     OW18373   4.978   1.622   3.879
 5825SOL    HW118374   4.976   1.522   3.880
 5825SOL    HW218375   4.912   1.656   3.812
 5826SOL     OW18376   1.340   6.592   5.527
 5826SOL    HW118377   1.291   6.675   5.553
 5826SOL    HW218378   1.275   6.524   5.493
 5827SOL     OW18379   2.088   4.319   3.725
 5827SOL    HW118380   2.039   4.303   3.811
 5827SOL    HW218381   2.060   4.408   3.688
 5828SOL     OW18382   3.982   0.829   5.622
 5828SOL    HW118383   3.922   0.883   5.562
 5828SOL    HW218384   3.929   0.756   5.665
 5829SOL     OW18385   2.374   0.345   3.063
 5829SOL    HW118386   2.451   0.294   3.024
 5829SOL    HW218387   2.290   0.323   3.013
 5830SOL     OW18388   4.140   5.470   4.234
 5830SOL    HW118389   4.053   5.517   4.218
 5830SOL    HW218390   4.125   5.371   4.231
 5831SOL     OW18391   1.679   2.029   5.024
 5831SOL    HW118392   1.697   2.057   4.929
 5831SOL    HW218393   1.758   2.051   5.080
 5832SOL     OW18394   2.998   5.312   2.104
 5832SOL    HW118395   2.909   5.299   2.062
 5832SOL    HW218396   3.020   5.232   2.160
 5833SOL     OW18397   3.598   5.373   0.235
 5833SOL    HW118398   3.558   5.329   0.154
 5833SOL    HW218399   3.694   5.348   0.242
 5834SOL     OW18400   6.109   2.725   6.675
 5834SOL    HW118401   6.184   2.790   6.691
 5834SOL    HW218402   6.028   2.754   6.726
 5835SOL     OW18403   4.979   2.030   2.683
 5835SOL    HW118404   4.917   2.104   2.655
 5835SOL    HW218405   4.987   2.029   2.782
 5836SOL     OW18406   5.332   5.962   2.372
 5836SOL    HW118407   5.361   5.970   2.276
 5836SOL    HW218408   5.350   5.869   2.404
 5837SOL     OW18409   2.835   5.182   6.207
 5837SOL    HW118410   2.806   5.146   6.296
 5837SOL    HW218411   2.776   5.258   6.182
 5838SOL     OW18412   3.903   2.678   0.460
 5838SOL    HW118413   3.903   2.599   0.521
 5838SOL    HW218414   3.998   2.705   0.442
 5839SOL     OW18415   1.585   2.110   0.669
 5839SOL    HW118416   1.646   2.186   0.688
 5839SOL    HW218417   1.490   2.137   0.685
 5840SOL     OW18418   0.229   3.561   3.611
 5840SOL    HW118419   0.290   3.582   3.687
 5840SOL    HW218420   0.249   3.470   3.576
 5841SOL     OW18421   5.285   1.151   0.487
 5841SOL    HW118422   5.188   1.131   0.473
 5841SOL    HW218423   5.306   1.143   0.584
 5842SOL     OW18424   2.754   1.848   0.972
 5842SOL    HW118425   2.655   1.855   0.980
 5842SOL    HW218426   2.778   1.804   0.885
 5843SOL     OW18427   3.010   3.303   0.870
 5843SOL    HW118428   3.076   3.282   0.798
 5843SOL    HW218429   3.044   3.268   0.957
 5844SOL     OW18430   0.348   5.950   4.743
 5844SOL    HW118431   0.258   5.907   4.750
 5844SOL    HW218432   0.368   5.971   4.647
 5845SOL     OW18433   1.510   0.012   2.727
 5845SOL    HW118434   1.482   0.092   2.673
 5845SOL    HW218435   1.518   6.959   2.667
 5846SOL     OW18436   0.571   3.748   5.699
 5846SOL    HW118437   0.543   3.665   5.746
 5846SOL    HW218438   0.595   3.819   5.766
 5847SOL     OW18439   1.473   3.950   6.276
 5847SOL    HW118440   1.478   4.020   6.204
 5847SOL    HW218441   1.552   3.889   6.269
 5848SOL     OW18442   1.833   5.598   2.288
 5848SOL    HW118443   1.906   5.583   2.222
 5848SOL    HW218444   1.756   5.538   2.268
 5849SOL     OW18445   3.202   5.942   6.229
 5849SOL    HW118446   3.185   5.938   6.327
 5849SOL    HW218447   3.117   5.964   6.181
 5850SOL     OW18448   0.859   1.391   2.162
 5850SOL    HW118449   0.948   1.374   2.119
 5850SOL    HW218450   0.831   1.485   2.146
 5851SOL     OW18451   6.091   3.641   4.438
 5851SOL    HW118452   6.118   3.737   4.443
 5851SOL    HW218453   5.992   3.634   4.430
 5852SOL     OW18454   5.046   4.298   2.512
 5852SOL    HW118455   5.007   4.359   2.442
 5852SOL    HW218456   5.146   4.297   2.502
 5853SOL     OW18457   4.661   4.761   6.538
 5853SOL    HW118458   4.708   4.686   6.492
 5853SOL    HW218459   4.631   4.828   6.470
 5854SOL     OW18460   3.622   4.972   5.379
 5854SOL    HW118461   3.555   4.914   5.333
 5854SOL    HW218462   3.665   5.032   5.311
 5855SOL     OW18463   2.408   2.690   2.903
 5855SOL    HW118464   2.374   2.771   2.854
 5855SOL    HW218465   2.507   2.700   2.918
 5856SOL     OW18466   1.116   6.013   3.013
 5856SOL    HW118467   1.142   6.035   3.106
 5856SOL    HW218468   1.047   6.079   2.981
 5857SOL     OW18469   5.584   4.850   6.734
 5857SOL    HW118470   5.663   4.842   6.673
 5857SOL    HW218471   5.551   4.945   6.735
 5858SOL     OW18472   1.596   0.892   2.715
 5858SOL    HW118473   1.687   0.864   2.746
 5858SOL    HW218474   1.535   0.902   2.793
 5859SOL     OW18475   5.456   5.706   1.484
 5859SOL    HW118476   5.473   5.687   1.388
 5859SOL    HW218477   5.433   5.621   1.532
 5860SOL     OW18478   0.651   4.215   3.032
 5860SOL    HW118479   0.626   4.292   2.973
 5860SOL    HW218480   0.602   4.222   3.119
 5861SOL     OW18481   4.673   1.166   5.225
 5861SOL    HW118482   4.740   1.231   5.262
 5861SOL    HW218483   4.705   1.132   5.136
 5862SOL     OW18484   6.278   5.560   2.805
 5862SOL    HW118485   6.282   5.572   2.705
 5862SOL    HW218486   6.367   5.526   2.838
 5863SOL     OW18487   4.009   6.811   6.975
 5863SOL    HW118488   4.017   6.753   6.894
 5863SOL    HW218489   4.014   6.907   6.948
 5864SOL     OW18490   3.304   4.128   2.398
 5864SOL    HW118491   3.376   4.165   2.339
 5864SOL    HW218492   3.230   4.093   2.341
 5865SOL     OW18493   6.557   0.365   6.465
 5865SOL    HW118494   6.483   0.369   6.531
 5865SOL    HW218495   6.606   0.453   6.464
 5866SOL     OW18496   3.129   3.007   2.987
 5866SOL    HW118497   3.221   3.008   3.025
 5866SOL    HW218498   3.098   2.913   2.977
 5867SOL     OW18499   2.721   1.640   1.360
 5867SOL    HW118500   2.808   1.650   1.311
 5867SOL    HW218501   2.647   1.676   1.304
 5868SOL     OW18502   0.600   1.248   6.620
 5868SOL    HW118503   0.667   1.293   6.679
 5868SOL    HW218504   0.609   1.149   6.629
 5869SOL     OW18505   1.586   5.965   3.449
 5869SOL    HW118506   1.647   5.978   3.371
 5869SOL    HW218507   1.628   6.002   3.532
 5870SOL     OW18508   3.558   6.235   4.544
 5870SOL    HW118509   3.600   6.150   4.512
 5870SOL    HW218510   3.583   6.310   4.482
 5871SOL     OW18511   3.201   3.009   4.058
 5871SOL    HW118512   3.178   3.073   4.131
 5871SOL    HW218513   3.280   2.954   4.085
 5872SOL     OW18514   4.742   5.760   0.711
 5872SOL    HW118515   4.664   5.702   0.688
 5872SOL    HW218516   4.727   5.802   0.801
 5873SOL     OW18517   4.421   6.053   2.268
 5873SOL    HW118518   4.484   6.114   2.219
 5873SOL    HW218519   4.382   6.102   2.346
 5874SOL     OW18520   1.026   4.172   5.685
 5874SOL    HW118521   0.983   4.083   5.667
 5874SOL    HW218522   1.073   4.170   5.773
 5875SOL     OW18523   3.754   2.078   1.593
 5875SOL    HW118524   3.807   2.034   1.664
 5875SOL    HW218525   3.668   2.028   1.578
 5876SOL     OW18526   3.436   3.142   1.628
 5876SOL    HW118527   3.403   3.067   1.571
 5876SOL    HW218528   3.389   3.141   1.715
 5877SOL     OW18529   5.673   4.491   1.259
 5877SOL    HW118530   5.677   4.535   1.169
 5877SOL    HW218531   5.620   4.547   1.322
 5878SOL     OW18532   2.234   4.505   2.448
 5878SOL    HW118533   2.232   4.503   2.548
 5878SOL    HW218534   2.185   4.587   2.415
 5879SOL     OW18535   0.499   4.076   4.032
 5879SOL    HW118536   0.509   4.058   3.934
 5879SOL    HW218537   0.412   4.038   4.063
 5880SOL     OW18538   3.315   5.553   0.283
 5880SOL    HW118539   3.345   5.632   0.229
 5880SOL    HW218540   3.294   5.477   0.223
 5881SOL     OW18541   1.443   5.822   4.393
 5881SOL    HW118542   1.506   5.848   4.465
 5881SOL    HW218543   1.426   5.723   4.397
 5882SOL     OW18544   5.027   0.726   2.745
 5882SOL    HW118545   4.988   0.693   2.831
 5882SOL    HW218546   5.123   0.697   2.739
 5883SOL     OW18547   0.413   3.328   5.566
 5883SOL    HW118548   0.456   3.417   5.555
 5883SOL    HW218549   0.446   3.266   5.494
 5884SOL     OW18550   0.517   1.271   3.652
 5884SOL    HW118551   0.560   1.356   3.620
 5884SOL    HW218552   0.540   1.196   3.590
 5885SOL     OW18553   5.903   6.877   0.929
 5885SOL    HW118554   5.992   6.922   0.939
 5885SOL    HW218555   5.837   6.942   0.893
 5886SOL     OW18556   0.215   0.852   6.811
 5886SOL    HW118557   0.252   0.904   6.734
 5886SOL    HW218558   0.271   0.770   6.825
 5887SOL     OW18559   4.655   6.391   3.030
 5887SOL    HW118560   4.685   6.358   3.119
 5887SOL    HW218561   4.602   6.475   3.042
 5888SOL     OW18562   1.083   0.358   3.021
 5888SOL    HW118563   1.045   0.445   2.988
 5888SOL    HW218564   1.035   0.329   3.103
 5889SOL     OW18565   2.745   0.381   0.291
 5889SOL    HW118566   2.705   0.295   0.323
 5889SOL    HW218567   2.843   0.370   0.279
 5890SOL     OW18568   3.505   4.904   5.945
 5890SOL    HW118569   3.453   4.903   5.860
 5890SOL    HW218570   3.477   4.982   6.000
 5891SOL     OW18571   2.106   3.652   6.692
 5891SOL    HW118572   2.078   3.604   6.775
 5891SOL    HW218573   2.206   3.650   6.686
 5892SOL     OW18574   1.480   0.187   2.476
 5892SOL    HW118575   1.521   0.150   2.393
 5892SOL    HW218576   1.531   0.268   2.505
 5893SOL     OW18577   1.985   0.864   3.047
 5893SOL    HW118578   2.077   0.891   3.018
 5893SOL    HW218579   1.943   0.939   3.098
 5894SOL     OW18580   0.825   3.407   3.735
 5894SOL    HW118581   0.810   3.367   3.645
 5894SOL    HW218582   0.768   3.359   3.802
 5895SOL     OW18583   5.275   3.878   3.898
 5895SOL    HW118584   5.203   3.872   3.968
 5895SOL    HW218585   5.248   3.946   3.829
 5896SOL     OW18586   4.356   2.205   5.638
 5896SOL    HW118587   4.338   2.280   5.575
 5896SOL    HW218588   4.452   2.209   5.667
 5897SOL     OW18589   4.115   0.123   1.779
 5897SOL    HW118590   4.201   0.096   1.823
 5897SOL    HW218591   4.059   0.175   1.843
 5898SOL     OW18592   1.819   6.892   2.521
 5898SOL    HW118593   1.856   6.811   2.565
 5898SOL    HW218594   1.810   6.875   2.423
 5899SOL     OW18595   5.281   0.132   4.024
 5899SOL    HW118596   5.259   0.088   3.937
 5899SOL    HW218597   5.365   0.093   4.060
 5900SOL     OW18598   4.240   5.045   2.215
 5900SOL    HW118599   4.183   4.963   2.213
 5900SOL    HW218600   4.182   5.126   2.227
 5901SOL     OW18601   3.404   0.054   5.506
 5901SOL    HW118602   3.353   6.997   5.526
 5901SOL    HW218603   3.493   0.031   5.467
 5902SOL     OW18604   6.273   1.277   0.069
 5902SOL    HW118605   6.269   1.358   0.011
 5902SOL    HW218606   6.368   1.261   0.098
 5903SOL     OW18607   0.048   3.225   6.536
 5903SOL    HW118608   6.981   3.261   6.540
 5903SOL    HW218609   0.045   3.126   6.528
 5904SOL     OW18610   0.424   4.091   2.387
 5904SOL    HW118611   0.331   4.059   2.368
 5904SOL    HW218612   0.441   4.175   2.334
 5905SOL     OW18613   6.483   4.859   1.988
 5905SOL    HW118614   6.537   4.940   1.965
 5905SOL    HW218615   6.422   4.837   1.912
 5906SOL     OW18616   6.850   1.356   4.008
 5906SOL    HW118617   6.837   1.276   4.067
 5906SOL    HW218618   6.779   1.358   3.938
 5907SOL     OW18619   1.779   6.895   2.247
 5907SOL    HW118620   1.862   6.854   2.208
 5907SOL    HW218621   1.706   6.894   2.178
 5908SOL     OW18622   0.242   2.407   6.074
 5908SOL    HW118623   0.205   2.488   6.028
 5908SOL    HW218624   0.235   2.328   6.013
 5909SOL     OW18625   6.711   4.092   0.852
 5909SOL    HW118626   6.762   4.146   0.919
 5909SOL    HW218627   6.773   4.064   0.779
 5910SOL     OW18628   2.228   1.720   3.779
 5910SOL    HW118629   2.290   1.755   3.849
 5910SOL    HW218630   2.148   1.780   3.771
 5911SOL     OW18631   0.077   5.711   6.179
 5911SOL    HW118632   0.015   5.772   6.130
 5911SOL    HW218633   0.030   5.669   6.256
 5912SOL     OW18634   0.861   0.924   3.890
 5912SOL    HW118635   0.854   1.013   3.934
 5912SOL    HW218636   0.776   0.873   3.903
 5913SOL     OW18637   6.006   1.301   7.024
 5913SOL    HW118638   6.098   1.278   0.029
 5913SOL    HW218639   5.973   1.382   0.047
 5914SOL     OW18640   0.378   6.444   0.415
 5914SOL    HW118641   0.305   6.422   0.350
 5914SOL    HW218642   0.347   6.423   0.508
 5915SOL     OW18643   4.024   1.768   6.066
 5915SOL    HW118644   3.990   1.845   6.121
 5915SOL    HW218645   4.010   1.682   6.116
 5916SOL     OW18646   0.704   6.571   2.060
 5916SOL    HW118647   0.648   6.652   2.078
 5916SOL    HW218648   0.658   6.512   1.994
 5917SOL     OW18649   3.202   4.855   0.737
 5917SOL    HW118650   3.199   4.954   0.730
 5917SOL    HW218651   3.119   4.822   0.781
 5918SOL     OW18652   2.827   6.403   5.376
 5918SOL    HW118653   2.824   6.309   5.412
 5918SOL    HW218654   2.763   6.411   5.300
 5919SOL     OW18655   3.265   3.348   4.636
 5919SOL    HW118656   3.173   3.321   4.607
 5919SOL    HW218657   3.298   3.422   4.577
 5920SOL     OW18658   5.807   0.543   5.530
 5920SOL    HW118659   5.816   0.533   5.629
 5920SOL    HW218660   5.787   0.638   5.507
 5921SOL     OW18661   2.954   4.370   6.389
 5921SOL    HW118662   2.946   4.438   6.316
 5921SOL    HW218663   2.927   4.280   6.355
 5922SOL     OW18664   4.951   3.426   2.669
 5922SOL    HW118665   4.859   3.425   2.630
 5922SOL    HW218666   4.985   3.332   2.677
 5923SOL     OW18667   6.412   0.473   3.508
 5923SOL    HW118668   6.363   0.418   3.576
 5923SOL    HW218669   6.506   0.441   3.501
 5924SOL     OW18670   5.402   6.687   3.309
 5924SOL    HW118671   5.492   6.707   3.349
 5924SOL    HW218672   5.342   6.767   3.319
 5925SOL     OW18673   4.667   0.564   1.270
 5925SOL    HW118674   4.755   0.515   1.269
 5925SOL    HW218675   4.592   0.498   1.262
 5926SOL     OW18676   4.948   4.869   3.993
 5926SOL    HW118677   4.981   4.843   3.903
 5926SOL    HW218678   4.886   4.947   3.985
 5927SOL     OW18679   0.653   4.750   1.937
 5927SOL    HW118680   0.609   4.730   2.025
 5927SOL    HW218681   0.583   4.770   1.869
 5928SOL     OW18682   2.900   0.746   0.130
 5928SOL    HW118683   2.995   0.721   0.118
 5928SOL    HW218684   2.850   0.734   0.044
 5929SOL     OW18685   1.713   0.973   6.760
 5929SOL    HW118686   1.644   0.954   6.831
 5929SOL    HW218687   1.700   1.065   6.725
 5930SOL     OW18688   1.716   3.506   2.250
 5930SOL    HW118689   1.653   3.534   2.323
 5930SOL    HW218690   1.690   3.553   2.165
 5931SOL     OW18691   5.179   6.705   2.733
 5931SOL    HW118692   5.211   6.640   2.802
 5931SOL    HW218693   5.080   6.703   2.727
 5932SOL     OW18694   2.876   0.949   6.015
 5932SOL    HW118695   2.806   1.009   6.055
 5932SOL    HW218696   2.832   0.874   5.966
 5933SOL     OW18697   6.102   6.390   4.373
 5933SOL    HW118698   6.155   6.336   4.308
 5933SOL    HW218699   6.067   6.330   4.445
 5934SOL     OW18700   3.580   3.622   6.671
 5934SOL    HW118701   3.578   3.531   6.630
 5934SOL    HW218702   3.623   3.616   6.762
 5935SOL     OW18703   1.095   5.886   5.891
 5935SOL    HW118704   1.164   5.897   5.819
 5935SOL    HW218705   1.061   5.792   5.891
 5936SOL     OW18706   3.194   2.961   2.069
 5936SOL    HW118707   3.166   3.045   2.116
 5936SOL    HW218708   3.127   2.938   1.999
 5937SOL     OW18709   0.246   3.424   1.344
 5937SOL    HW118710   0.336   3.412   1.302
 5937SOL    HW218711   0.186   3.473   1.280
 5938SOL     OW18712   0.475   4.430   4.107
 5938SOL    HW118713   0.446   4.341   4.144
 5938SOL    HW218714   0.571   4.446   4.129
 5939SOL     OW18715   3.518   1.295   4.786
 5939SOL    HW118716   3.457   1.277   4.709
 5939SOL    HW218717   3.497   1.233   4.862
 5940SOL     OW18718   5.350   5.743   2.070
 5940SOL    HW118719   5.382   5.821   2.018
 5940SOL    HW218720   5.250   5.740   2.068
 5941SOL     OW18721   0.179   2.509   2.819
 5941SOL    HW118722   0.219   2.503   2.911
 5941SOL    HW218723   0.248   2.542   2.755
 5942SOL     OW18724   5.033   3.012   6.057
 5942SOL    HW118725   4.939   2.980   6.048
 5942SOL    HW218726   5.087   2.980   5.980
 5943SOL     OW18727   2.978   4.157   1.764
 5943SOL    HW118728   2.943   4.247   1.788
 5943SOL    HW218729   2.925   4.121   1.686
 5944SOL     OW18730   0.003   3.675   6.704
 5944SOL    HW118731   7.004   3.608   6.774
 5944SOL    HW218732   0.012   3.765   6.747
 5945SOL     OW18733   6.826   6.102   4.845
 5945SOL    HW118734   6.859   6.033   4.781
 5945SOL    HW218735   6.833   6.193   4.804
 5946SOL     OW18736   3.232   4.206   0.537
 5946SOL    HW118737   3.276   4.143   0.474
 5946SOL    HW218738   3.132   4.201   0.525
 5947SOL     OW18739   3.887   3.503   4.721
 5947SOL    HW118740   3.966   3.514   4.661
 5947SOL    HW218741   3.806   3.484   4.667
 5948SOL     OW18742   5.067   3.476   1.745
 5948SOL    HW118743   5.083   3.407   1.815
 5948SOL    HW218744   5.097   3.565   1.778
 5949SOL     OW18745   0.076   4.281   2.764
 5949SOL    HW118746   0.003   4.214   2.760
 5949SOL    HW218747   0.089   4.323   2.674
 5950SOL     OW18748   4.070   0.276   4.979
 5950SOL    HW118749   4.117   0.359   5.007
 5950SOL    HW218750   3.989   0.262   5.036
 5951SOL     OW18751   0.418   3.681   6.450
 5951SOL    HW118752   0.361   3.678   6.368
 5951SOL    HW218753   0.514   3.671   6.424
 5952SOL     OW18754   4.039   4.739   0.941
 5952SOL    HW118755   3.999   4.831   0.944
 5952SOL    HW218756   4.138   4.746   0.952
 5953SOL     OW18757   6.808   3.006   5.109
 5953SOL    HW118758   6.743   2.952   5.162
 5953SOL    HW218759   6.829   3.090   5.158
 5954SOL     OW18760   1.595   5.970   4.239
 5954SOL    HW118761   1.525   6.029   4.197
 5954SOL    HW218762   1.550   5.899   4.293
 5955SOL     OW18763   5.280   3.484   0.741
 5955SOL    HW118764   5.305   3.392   0.714
 5955SOL    HW218765   5.320   3.505   0.831
 5956SOL     OW18766   5.405   2.662   5.369
 5956SOL    HW118767   5.423   2.572   5.331
 5956SOL    HW218768   5.312   2.665   5.404
 5957SOL     OW18769   0.284   1.854   3.027
 5957SOL    HW118770   0.192   1.890   3.009
 5957SOL    HW218771   0.341   1.867   2.946
 5958SOL     OW18772   3.437   0.056   2.287
 5958SOL    HW118773   3.442   0.136   2.227
 5958SOL    HW218774   3.469   0.082   2.379
 5959SOL     OW18775   5.054   2.611   4.316
 5959SOL    HW118776   4.998   2.530   4.300
 5959SOL    HW218777   5.016   2.662   4.394
 5960SOL     OW18778   3.857   0.282   6.171
 5960SOL    HW118779   3.806   0.359   6.134
 5960SOL    HW218780   3.955   0.295   6.154
 5961SOL     OW18781   2.721   2.296   3.378
 5961SOL    HW118782   2.628   2.312   3.343
 5961SOL    HW218783   2.745   2.368   3.442
 5962SOL     OW18784   5.167   6.157   0.975
 5962SOL    HW118785   5.140   6.188   0.884
 5962SOL    HW218786   5.266   6.141   0.978
 5963SOL     OW18787   3.190   4.545   0.093
 5963SOL    HW118788   3.165   4.549   7.023
 5963SOL    HW218789   3.131   4.607   0.145
 5964SOL     OW18790   2.609   6.712   2.596
 5964SOL    HW118791   2.542   6.649   2.558
 5964SOL    HW218792   2.685   6.723   2.532
 5965SOL     OW18793   1.844   0.643   0.136
 5965SOL    HW118794   1.838   0.617   0.039
 5965SOL    HW218795   1.796   0.730   0.150
 5966SOL     OW18796   2.412   0.968   4.556
 5966SOL    HW118797   2.458   1.029   4.620
 5966SOL    HW218798   2.454   0.976   4.465
 5967SOL     OW18799   3.473   1.825   4.424
 5967SOL    HW118800   3.418   1.803   4.344
 5967SOL    HW218801   3.570   1.817   4.402
 5968SOL     OW18802   5.811   2.464   1.735
 5968SOL    HW118803   5.824   2.507   1.646
 5968SOL    HW218804   5.730   2.404   1.732
 5969SOL     OW18805   5.403   0.521   0.240
 5969SOL    HW118806   5.310   0.509   0.277
 5969SOL    HW218807   5.430   0.616   0.248
 5970SOL     OW18808   0.163   3.312   1.027
 5970SOL    HW118809   0.191   3.242   1.092
 5970SOL    HW218810   0.063   3.311   1.017
 5971SOL     OW18811   7.011   6.638   3.732
 5971SOL    HW118812   0.076   6.611   3.704
 5971SOL    HW218813   7.014   6.671   3.827
 5972SOL     OW18814   4.791   4.949   1.004
 5972SOL    HW118815   4.693   4.934   1.000
 5972SOL    HW218816   4.839   4.863   0.987
 5973SOL     OW18817   2.914   1.908   2.596
 5973SOL    HW118818   2.960   1.982   2.645
 5973SOL    HW218819   2.815   1.918   2.605
 5974SOL     OW18820   5.406   2.103   5.643
 5974SOL    HW118821   5.409   2.193   5.599
 5974SOL    HW218822   5.432   2.112   5.739
 5975SOL     OW18823   4.754   4.979   0.624
 5975SOL    HW118824   4.834   4.995   0.565
 5975SOL    HW218825   4.691   5.056   0.616
 5976SOL     OW18826   2.327   3.348   5.818
 5976SOL    HW118827   2.366   3.259   5.796
 5976SOL    HW218828   2.292   3.347   5.911
 5977SOL     OW18829   6.281   4.119   0.573
 5977SOL    HW118830   6.304   4.182   0.500
 5977SOL    HW218831   6.262   4.028   0.534
 5978SOL     OW18832   2.575   3.823   0.329
 5978SOL    HW118833   2.652   3.886   0.331
 5978SOL    HW218834   2.577   3.770   0.244
 5979SOL     OW18835   5.727   0.583   1.582
 5979SOL    HW118836   5.827   0.572   1.584
 5979SOL    HW218837   5.698   0.607   1.490
 5980SOL     OW18838   3.057   3.067   1.088
 5980SOL    HW118839   3.066   3.166   1.105
 5980SOL    HW218840   3.076   3.017   1.172
 5981SOL     OW18841   3.245   2.595   0.934
 5981SOL    HW118842   3.316   2.550   0.881
 5981SOL    HW218843   3.205   2.669   0.879
 5982SOL     OW18844   5.670   2.890   0.834
 5982SOL    HW118845   5.570   2.888   0.825
 5982SOL    HW218846   5.706   2.965   0.779
 5983SOL     OW18847   6.945   0.971   3.136
 5983SOL    HW118848   6.853   0.987   3.170
 5983SOL    HW218849   6.954   0.875   3.107
 5984SOL     OW18850   6.121   0.040   3.932
 5984SOL    HW118851   6.095   0.116   3.993
 5984SOL    HW218852   6.108   6.979   3.979
 5985SOL     OW18853   6.271   3.083   2.953
 5985SOL    HW118854   6.198   3.149   2.937
 5985SOL    HW218855   6.340   3.124   3.014
 5986SOL     OW18856   4.126   3.658   4.917
 5986SOL    HW118857   4.080   3.571   4.898
 5986SOL    HW218858   4.225   3.645   4.914
 5987SOL     OW18859   6.831   6.946   5.298
 5987SOL    HW118860   6.845   6.957   5.396
 5987SOL    HW218861   6.845   6.850   5.273
 5988SOL     OW18862   1.189   2.404   6.235
 5988SOL    HW118863   1.265   2.436   6.292
 5988SOL    HW218864   1.124   2.353   6.292
 5989SOL     OW18865   0.759   5.996   6.250
 5989SOL    HW118866   0.834   5.949   6.296
 5989SOL    HW218867   0.690   6.024   6.317
 5990SOL     OW18868   3.572   4.959   1.817
 5990SOL    HW118869   3.572   4.866   1.854
 5990SOL    HW218870   3.620   4.959   1.729
 5991SOL     OW18871   4.938   6.722   0.936
 5991SOL    HW118872   4.847   6.732   0.975
 5991SOL    HW218873   4.945   6.776   0.852
 5992SOL     OW18874   3.907   6.122   2.290
 5992SOL    HW118875   3.952   6.036   2.314
 5992SOL    HW218876   3.908   6.183   2.369
 5993SOL     OW18877   6.154   1.785   0.465
 5993SOL    HW118878   6.059   1.805   0.490
 5993SOL    HW218879   6.215   1.844   0.517
 5994SOL     OW18880   0.578   3.710   0.312
 5994SOL    HW118881   0.554   3.646   0.239
 5994SOL    HW218882   0.657   3.765   0.284
 5995SOL     OW18883   4.886   3.849   1.600
 5995SOL    HW118884   4.812   3.877   1.539
 5995SOL    HW218885   4.881   3.750   1.616
 5996SOL     OW18886   2.577   5.609   1.339
 5996SOL    HW118887   2.637   5.541   1.297
 5996SOL    HW218888   2.628   5.693   1.357
 5997SOL     OW18889   6.115   0.271   4.101
 5997SOL    HW118890   6.180   0.329   4.053
 5997SOL    HW218891   6.163   0.215   4.169
 5998SOL     OW18892   6.064   6.387   1.044
 5998SOL    HW118893   6.149   6.348   1.009
 5998SOL    HW218894   5.999   6.313   1.065
 5999SOL     OW18895   5.124   2.595   1.485
 5999SOL    HW118896   5.052   2.578   1.553
 5999SOL    HW218897   5.156   2.689   1.494
 6000SOL     OW18898   0.691   3.946   1.317
 6000SOL    HW118899   0.630   3.964   1.395
 6000SOL    HW218900   0.644   3.888   1.251
 6001SOL     OW18901   6.787   5.329   5.492
 6001SOL    HW118902   6.824   5.374   5.411
 6001SOL    HW218903   6.767   5.398   5.562
 6002SOL     OW18904   6.173   4.872   5.006
 6002SOL    HW118905   6.084   4.866   4.962
 6002SOL    HW218906   6.245   4.865   4.937
 6003SOL     OW18907   0.991   2.879   4.824
 6003SOL    HW118908   1.034   2.941   4.758
 6003SOL    HW218909   0.908   2.840   4.785
 6004SOL     OW18910   4.638   2.454   4.464
 6004SOL    HW118911   4.726   2.422   4.427
 6004SOL    HW218912   4.625   2.414   4.555
 6005SOL     OW18913   3.888   5.140   6.552
 6005SOL    HW118914   3.876   5.135   6.453
 6005SOL    HW218915   3.978   5.180   6.573
 6006SOL     OW18916   2.996   5.957   6.056
 6006SOL    HW118917   2.948   5.908   5.982
 6006SOL    HW218918   2.937   5.960   6.137
 6007SOL     OW18919   2.609   5.773   6.310
 6007SOL    HW118920   2.656   5.787   6.222
 6007SOL    HW218921   2.523   5.823   6.310
 6008SOL     OW18922   3.416   3.948   6.272
 6008SOL    HW118923   3.415   3.849   6.262
 6008SOL    HW218924   3.351   3.990   6.209
 6009SOL     OW18925   3.620   4.938   3.092
 6009SOL    HW118926   3.632   5.036   3.075
 6009SOL    HW218927   3.676   4.910   3.169
 6010SOL     OW18928   0.529   5.732   4.684
 6010SOL    HW118929   0.536   5.670   4.762
 6010SOL    HW218930   0.434   5.735   4.652
 6011SOL     OW18931   6.406   1.998   1.444
 6011SOL    HW118932   6.359   1.991   1.532
 6011SOL    HW218933   6.504   2.002   1.459
 6012SOL     OW18934   6.946   0.293   6.018
 6012SOL    HW118935   6.907   0.337   6.099
 6012SOL    HW218936   6.879   0.229   5.980
 6013SOL     OW18937   6.156   1.546   2.172
 6013SOL    HW118938   6.133   1.564   2.268
 6013SOL    HW218939   6.243   1.497   2.168
 6014SOL     OW18940   3.711   3.554   3.916
 6014SOL    HW118941   3.754   3.567   4.005
 6014SOL    HW218942   3.781   3.560   3.844
 6015SOL     OW18943   5.657   1.416   4.145
 6015SOL    HW118944   5.592   1.341   4.153
 6015SOL    HW218945   5.651   1.455   4.054
 6016SOL     OW18946   4.710   1.115   4.328
 6016SOL    HW118947   4.656   1.171   4.390
 6016SOL    HW218948   4.650   1.061   4.270
 6017SOL     OW18949   7.024   2.193   5.120
 6017SOL    HW118950   0.003   2.293   5.126
 6017SOL    HW218951   0.017   2.153   5.209
 6018SOL     OW18952   2.235   1.074   5.097
 6018SOL    HW118953   2.299   1.005   5.063
 6018SOL    HW218954   2.187   1.038   5.177
 6019SOL     OW18955   6.678   3.727   6.908
 6019SOL    HW118956   6.620   3.666   6.963
 6019SOL    HW218957   6.768   3.685   6.895
 6020SOL     OW18958   0.801   5.092   6.691
 6020SOL    HW118959   0.761   5.021   6.750
 6020SOL    HW218960   0.861   5.049   6.624
 6021SOL     OW18961   5.248   6.937   3.821
 6021SOL    HW118962   5.222   6.871   3.891
 6021SOL    HW218963   5.346   6.930   3.802
 6022SOL     OW18964   6.353   1.862   1.694
 6022SOL    HW118965   6.397   1.781   1.657
 6022SOL    HW218966   6.283   1.834   1.760
 6023SOL     OW18967   3.943   0.567   2.134
 6023SOL    HW118968   3.928   0.473   2.104
 6023SOL    HW218969   4.037   0.594   2.114
 6024SOL     OW18970   1.008   5.785   0.392
 6024SOL    HW118971   0.968   5.752   0.306
 6024SOL    HW218972   1.043   5.708   0.444
 6025SOL     OW18973   3.462   0.591   4.511
 6025SOL    HW118974   3.483   0.528   4.586
 6025SOL    HW218975   3.466   0.542   4.424
 6026SOL     OW18976   5.900   4.698   4.932
 6026SOL    HW118977   5.959   4.632   4.978
 6026SOL    HW218978   5.809   4.695   4.972
 6027SOL     OW18979   5.733   4.113   6.669
 6027SOL    HW118980   5.768   4.142   6.580
 6027SOL    HW218981   5.724   4.014   6.670
 6028SOL     OW18982   5.732   5.625   6.370
 6028SOL    HW118983   5.789   5.572   6.433
 6028SOL    HW218984   5.660   5.566   6.333
 6029SOL     OW18985   2.250   0.897   3.013
 6029SOL    HW118986   2.329   0.951   2.985
 6029SOL    HW218987   2.264   0.801   2.987
 6030SOL     OW18988   5.490   3.677   4.365
 6030SOL    HW118989   5.492   3.617   4.285
 6030SOL    HW218990   5.583   3.694   4.396
 6031SOL     OW18991   0.508   5.959   4.953
 6031SOL    HW118992   0.557   5.873   4.963
 6031SOL    HW218993   0.462   5.961   4.864
 6032SOL     OW18994   3.310   6.045   3.238
 6032SOL    HW118995   3.232   6.100   3.268
 6032SOL    HW218996   3.293   5.949   3.259
 6033SOL     OW18997   1.814   1.937   2.648
 6033SOL    HW118998   1.716   1.930   2.670
 6033SOL    HW218999   1.833   2.026   2.606
 6034SOL     OW19000   0.653   0.243   0.334
 6034SOL    HW119001   0.603   0.231   0.248
 6034SOL    HW219002   0.595   0.291   0.400
 6035SOL     OW19003   2.277   0.636   2.808
 6035SOL    HW119004   2.349   0.633   2.877
 6035SOL    HW219005   2.281   0.554   2.751
 6036SOL     OW19006   0.075   2.932   1.070
 6036SOL    HW119007   7.021   2.978   1.106
 6036SOL    HW219008   0.157   2.971   1.111
 6037SOL     OW19009   5.094   1.825   6.977
 6037SOL    HW119010   5.047   1.913   6.984
 6037SOL    HW219011   5.097   1.797   6.881
 6038SOL     OW19012   0.332   1.811   5.770
 6038SOL    HW119013   0.312   1.906   5.792
 6038SOL    HW219014   0.416   1.782   5.816
 6039SOL     OW19015   3.675   3.397   3.225
 6039SOL    HW119016   3.741   3.323   3.237
 6039SOL    HW219017   3.666   3.417   3.128
 6040SOL     OW19018   0.711   1.435   0.336
 6040SOL    HW119019   0.706   1.385   0.422
 6040SOL    HW219020   0.662   1.384   0.265
 6041SOL     OW19021   2.416   3.101   5.758
 6041SOL    HW119022   2.461   3.064   5.839
 6041SOL    HW219023   2.451   3.055   5.676
 6042SOL     OW19024   3.537   5.992   3.597
 6042SOL    HW119025   3.461   5.958   3.542
 6042SOL    HW219026   3.520   6.087   3.623
 6043SOL     OW19027   2.502   0.158   3.508
 6043SOL    HW119028   2.513   0.096   3.430
 6043SOL    HW219029   2.448   0.238   3.479
 6044SOL     OW19030   0.935   3.317   1.548
 6044SOL    HW119031   0.838   3.303   1.526
 6044SOL    HW219032   0.977   3.229   1.570
 6045SOL     OW19033   4.846   1.616   3.110
 6045SOL    HW119034   4.807   1.696   3.064
 6045SOL    HW219035   4.845   1.631   3.209
 6046SOL     OW19036   3.620   2.837   2.332
 6046SOL    HW119037   3.647   2.746   2.364
 6046SOL    HW219038   3.699   2.883   2.292
 6047SOL     OW19039   6.079   1.791   1.186
 6047SOL    HW119040   6.156   1.782   1.250
 6047SOL    HW219041   6.098   1.736   1.105
 6048SOL     OW19042   6.082   5.972   4.570
 6048SOL    HW119043   6.047   5.961   4.477
 6048SOL    HW219044   6.147   5.900   4.590
 6049SOL     OW19045   4.543   4.990   5.368
 6049SOL    HW119046   4.603   5.070   5.361
 6049SOL    HW219047   4.573   4.932   5.444
 6050SOL     OW19048   3.698   6.079   1.638
 6050SOL    HW119049   3.648   6.054   1.555
 6050SOL    HW219050   3.793   6.050   1.630
 6051SOL     OW19051   0.763   1.324   3.340
 6051SOL    HW119052   0.720   1.328   3.250
 6051SOL    HW219053   0.862   1.329   3.330
 6052SOL     OW19054   4.917   6.369   0.327
 6052SOL    HW119055   4.971   6.288   0.348
 6052SOL    HW219056   4.928   6.437   0.399
 6053SOL     OW19057   4.197   2.823   6.348
 6053SOL    HW119058   4.213   2.886   6.272
 6053SOL    HW219059   4.282   2.775   6.369
 6054SOL     OW19060   4.011   4.359   0.897
 6054SOL    HW119061   4.059   4.411   0.826
 6054SOL    HW219062   3.990   4.420   0.973
 6055SOL     OW19063   3.339   4.448   0.484
 6055SOL    HW119064   3.377   4.415   0.398
 6055SOL    HW219065   3.269   4.384   0.516
 6056SOL     OW19066   5.250   5.922   4.499
 6056SOL    HW119067   5.300   5.871   4.429
 6056SOL    HW219068   5.313   5.983   4.547
 6057SOL     OW19069   4.528   7.008   4.357
 6057SOL    HW119070   4.570   0.038   4.286
 6057SOL    HW219071   4.442   6.970   4.324
 6058SOL     OW19072   5.496   2.494   6.024
 6058SOL    HW119073   5.438   2.535   5.954
 6058SOL    HW219074   5.447   2.491   6.111
 6059SOL     OW19075   4.056   2.941   0.106
 6059SOL    HW119076   4.082   2.940   0.203
 6059SOL    HW219077   4.114   3.005   0.056
 6060SOL     OW19078   2.529   3.112   6.973
 6060SOL    HW119079   2.516   3.195   6.918
 6060SOL    HW219080   2.539   3.033   6.912
 6061SOL     OW19081   3.509   5.269   7.005
 6061SOL    HW119082   3.588   5.207   7.003
 6061SOL    HW219083   3.506   5.323   6.921
 6062SOL     OW19084   1.986   2.242   6.969
 6062SOL    HW119085   2.066   2.250   0.002
 6062SOL    HW219086   1.937   2.157   6.991
 6063SOL     OW19087   4.700   4.070   6.388
 6063SOL    HW119088   4.661   4.162   6.376
 6063SOL    HW219089   4.791   4.067   6.346
 6064SOL     OW19090   0.325   5.507   1.013
 6064SOL    HW119091   0.320   5.556   0.926
 6064SOL    HW219092   0.267   5.552   1.081
 6065SOL     OW19093   0.971   6.797   2.430
 6065SOL    HW119094   0.967   6.884   2.479
 6065SOL    HW219095   1.064   6.761   2.433
 6066SOL     OW19096   5.383   5.614   3.190
 6066SOL    HW119097   5.400   5.549   3.264
 6066SOL    HW219098   5.289   5.603   3.157
 6067SOL     OW19099   5.608   6.708   6.341
 6067SOL    HW119100   5.703   6.695   6.312
 6067SOL    HW219101   5.547   6.684   6.265
 6068SOL     OW19102   4.560   1.740   4.896
 6068SOL    HW119103   4.514   1.769   4.980
 6068SOL    HW219104   4.497   1.750   4.818
 6069SOL     OW19105   0.182   3.796   6.197
 6069SOL    HW119106   0.150   3.797   6.291
 6069SOL    HW219107   0.222   3.884   6.174
 6070SOL     OW19108   2.765   1.292   0.626
 6070SOL    HW119109   2.729   1.346   0.702
 6070SOL    HW219110   2.692   1.238   0.587
 6071SOL     OW19111   6.109   0.654   5.878
 6071SOL    HW119112   6.129   0.652   5.976
 6071SOL    HW219113   6.010   0.657   5.864
 6072SOL     OW19114   0.018   2.747   0.608
 6072SOL    HW119115   0.030   2.693   0.692
 6072SOL    HW219116   0.089   2.818   0.604
 6073SOL     OW19117   4.622   2.403   0.549
 6073SOL    HW119118   4.590   2.424   0.457
 6073SOL    HW219119   4.715   2.438   0.561
 6074SOL     OW19120   0.525   6.455   2.298
 6074SOL    HW119121   0.602   6.461   2.235
 6074SOL    HW219122   0.555   6.414   2.384
 6075SOL     OW19123   5.037   6.786   6.678
 6075SOL    HW119124   5.128   6.800   6.718
 6075SOL    HW219125   5.047   6.761   6.582
 6076SOL     OW19126   1.477   5.078   3.553
 6076SOL    HW119127   1.389   5.042   3.585
 6076SOL    HW219128   1.508   5.150   3.616
 6077SOL     OW19129   5.014   6.726   1.897
 6077SOL    HW119130   4.985   6.634   1.871
 6077SOL    HW219131   4.940   6.771   1.947
 6078SOL     OW19132   4.131   3.640   0.858
 6078SOL    HW119133   4.101   3.576   0.787
 6078SOL    HW219134   4.231   3.636   0.866
 6079SOL     OW19135   3.477   3.625   6.958
 6079SOL    HW119136   3.472   3.706   7.017
 6079SOL    HW219137   3.387   3.605   6.920
 6080SOL     OW19138   6.981   4.985   6.855
 6080SOL    HW119139   6.994   5.078   6.820
 6080SOL    HW219140   6.899   4.946   6.815
 6081SOL     OW19141   1.611   3.660   4.039
 6081SOL    HW119142   1.703   3.662   4.079
 6081SOL    HW219143   1.609   3.592   3.965
 6082SOL     OW19144   4.557   0.963   0.902
 6082SOL    HW119145   4.534   1.039   0.841
 6082SOL    HW219146   4.499   0.968   0.984
 6083SOL     OW19147   4.573   0.320   6.441
 6083SOL    HW119148   4.596   0.417   6.430
 6083SOL    HW219149   4.653   0.271   6.473
 6084SOL     OW19150   0.222   6.595   2.792
 6084SOL    HW119151   0.179   6.515   2.752
 6084SOL    HW219152   0.205   6.596   2.891
 6085SOL     OW19153   0.922   6.630   0.795
 6085SOL    HW119154   0.940   6.700   0.864
 6085SOL    HW219155   0.933   6.669   0.704
 6086SOL     OW19156   3.591   4.101   6.416
 6086SOL    HW119157   3.500   4.075   6.384
 6086SOL    HW219158   3.622   4.035   6.485
 6087SOL     OW19159   5.087   6.502   0.834
 6087SOL    HW119160   5.017   6.555   0.882
 6087SOL    HW219161   5.148   6.564   0.784
 6088SOL     OW19162   5.335   5.885   3.097
 6088SOL    HW119163   5.338   5.847   3.004
 6088SOL    HW219164   5.343   5.811   3.163
 6089SOL     OW19165   6.487   3.941   3.650
 6089SOL    HW119166   6.411   3.904   3.597
 6089SOL    HW219167   6.471   4.038   3.668
 6090SOL     OW19168   3.873   6.019   4.492
 6090SOL    HW119169   3.881   5.987   4.398
 6090SOL    HW219170   3.905   6.114   4.497
 6091SOL     OW19171   1.575   1.408   2.165
 6091SOL    HW119172   1.597   1.328   2.220
 6091SOL    HW219173   1.579   1.490   2.222
 6092SOL     OW19174   3.322   6.084   1.432
 6092SOL    HW119175   3.344   6.084   1.529
 6092SOL    HW219176   3.227   6.113   1.419
 6093SOL     OW19177   2.354   1.935   1.922
 6093SOL    HW119178   2.294   1.932   2.002
 6093SOL    HW219179   2.344   2.024   1.876
 6094SOL     OW19180   0.400   6.305   4.761
 6094SOL    HW119181   0.440   6.230   4.708
 6094SOL    HW219182   0.350   6.366   4.700
 6095SOL     OW19183   4.877   5.090   1.426
 6095SOL    HW119184   4.866   5.009   1.484
 6095SOL    HW219185   4.827   5.167   1.466
 6096SOL     OW19186   5.686   6.285   3.158
 6096SOL    HW119187   5.736   6.308   3.075
 6096SOL    HW219188   5.587   6.288   3.140
 6097SOL     OW19189   1.726   5.488   1.898
 6097SOL    HW119190   1.822   5.492   1.869
 6097SOL    HW219191   1.692   5.580   1.916
 6098SOL     OW19192   6.566   1.223   4.960
 6098SOL    HW119193   6.550   1.311   4.915
 6098SOL    HW219194   6.498   1.157   4.928
 6099SOL     OW19195   3.812   0.609   6.281
 6099SOL    HW119196   3.718   0.606   6.317
 6099SOL    HW219197   3.824   0.692   6.226
 6100SOL     OW19198   0.457   6.119   5.148
 6100SOL    HW119199   0.446   6.055   5.072
 6100SOL    HW219200   0.455   6.213   5.113
 6101SOL     OW19201   6.802   3.078   1.404
 6101SOL    HW119202   6.852   2.991   1.401
 6101SOL    HW219203   6.771   3.101   1.311
 6102SOL     OW19204   4.423   6.497   2.751
 6102SOL    HW119205   4.454   6.456   2.665
 6102SOL    HW219206   4.468   6.586   2.763
 6103SOL     OW19207   0.244   1.684   1.856
 6103SOL    HW119208   0.285   1.683   1.765
 6103SOL    HW219209   0.306   1.730   1.920
 6104SOL     OW19210   6.660   0.519   4.101
 6104SOL    HW119211   6.720   0.585   4.145
 6104SOL    HW219212   6.670   0.527   4.001
 6105SOL     OW19213   3.089   4.645   5.332
 6105SOL    HW119214   3.033   4.585   5.274
 6105SOL    HW219215   3.109   4.599   5.418
 6106SOL     OW19216   6.243   5.297   6.075
 6106SOL    HW119217   6.190   5.272   6.156
 6106SOL    HW219218   6.181   5.303   5.996
 6107SOL     OW19219   5.771   4.923   5.686
 6107SOL    HW119220   5.679   4.930   5.648
 6107SOL    HW219221   5.765   4.913   5.785
 6108SOL     OW19222   2.416   1.595   0.876
 6108SOL    HW119223   2.385   1.682   0.838
 6108SOL    HW219224   2.337   1.537   0.895
 6109SOL     OW19225   6.376   0.016   3.405
 6109SOL    HW119226   6.333   0.042   3.491
 6109SOL    HW219227   6.471   0.048   3.404
 6110SOL     OW19228   1.977   1.786   4.488
 6110SOL    HW119229   1.923   1.705   4.465
 6110SOL    HW219230   2.060   1.788   4.433
 6111SOL     OW19231   1.992   4.641   0.615
 6111SOL    HW119232   2.042   4.608   0.695
 6111SOL    HW219233   1.981   4.567   0.549
 6112SOL     OW19234   5.281   0.204   2.562
 6112SOL    HW119235   5.360   0.145   2.577
 6112SOL    HW219236   5.200   0.147   2.548
 6113SOL     OW19237   2.325   5.588   0.173
 6113SOL    HW119238   2.232   5.595   0.138
 6113SOL    HW219239   2.388   5.568   0.097
 6114SOL     OW19240   5.116   1.595   1.056
 6114SOL    HW119241   5.197   1.646   1.026
 6114SOL    HW219242   5.055   1.580   0.978
 6115SOL     OW19243   1.025   0.528   5.398
 6115SOL    HW119244   1.117   0.565   5.385
 6115SOL    HW219245   0.974   0.587   5.460
 6116SOL     OW19246   5.143   2.004   5.667
 6116SOL    HW119247   5.225   2.053   5.639
 6116SOL    HW219248   5.090   1.978   5.587
 6117SOL     OW19249   1.703   2.262   1.136
 6117SOL    HW119250   1.723   2.301   1.226
 6117SOL    HW219251   1.779   2.284   1.074
 6118SOL     OW19252   6.275   0.281   0.509
 6118SOL    HW119253   6.274   0.282   0.609
 6118SOL    HW219254   6.333   0.355   0.476
 6119SOL     OW19255   6.918   1.815   1.010
 6119SOL    HW119256   6.911   1.716   1.023
 6119SOL    HW219257   7.011   1.839   0.984
 6120SOL     OW19258   2.333   0.519   5.202
 6120SOL    HW119259   2.243   0.499   5.242
 6120SOL    HW219260   2.365   0.439   5.152
 6121SOL     OW19261   0.531   2.976   4.512
 6121SOL    HW119262   0.577   3.044   4.456
 6121SOL    HW219263   0.528   3.008   4.607
 6122SOL     OW19264   5.267   5.390   6.100
 6122SOL    HW119265   5.239   5.436   6.184
 6122SOL    HW219266   5.186   5.358   6.051
 6123SOL     OW19267   5.472   1.648   4.836
 6123SOL    HW119268   5.379   1.610   4.836
 6123SOL    HW219269   5.480   1.717   4.764
 6124SOL     OW19270   2.667   6.520   3.955
 6124SOL    HW119271   2.707   6.587   3.893
 6124SOL    HW219272   2.700   6.429   3.930
 6125SOL     OW19273   2.196   2.256   6.782
 6125SOL    HW119274   2.261   2.245   6.857
 6125SOL    HW219275   2.103   2.254   6.817
 6126SOL     OW19276   6.343   2.738   5.575
 6126SOL    HW119277   6.255   2.786   5.568
 6126SOL    HW219278   6.399   2.781   5.645
 6127SOL     OW19279   3.963   2.254   1.874
 6127SOL    HW119280   3.871   2.259   1.914
 6127SOL    HW219281   4.031   2.246   1.947
 6128SOL     OW19282   6.011   5.744   0.673
 6128SOL    HW119283   6.091   5.695   0.638
 6128SOL    HW219284   5.963   5.685   0.738
 6129SOL     OW19285   1.519   5.476   2.496
 6129SOL    HW119286   1.511   5.572   2.523
 6129SOL    HW219287   1.607   5.440   2.526
 6130SOL     OW19288   6.000   2.171   0.432
 6130SOL    HW119289   5.986   2.075   0.457
 6130SOL    HW219290   6.011   2.225   0.515
 6131SOL     OW19291   6.569   1.688   2.489
 6131SOL    HW119292   6.599   1.707   2.395
 6131SOL    HW219293   6.640   1.718   2.553
 6132SOL     OW19294   3.598   1.317   6.563
 6132SOL    HW119295   3.572   1.412   6.580
 6132SOL    HW219296   3.651   1.312   6.479
 6133SOL     OW19297   1.808   1.543   3.814
 6133SOL    HW119298   1.805   1.457   3.864
 6133SOL    HW219299   1.871   1.535   3.738
 6134SOL     OW19300   5.747   6.739   6.652
 6134SOL    HW119301   5.716   6.832   6.670
 6134SOL    HW219302   5.847   6.739   6.642
 6135SOL     OW19303   6.377   0.040   0.043
 6135SOL    HW119304   6.311   0.025   0.116
 6135SOL    HW219305   6.349   0.117   7.013
 6136SOL     OW19306   1.926   2.912   2.707
 6136SOL    HW119307   2.011   2.933   2.754
 6136SOL    HW219308   1.925   2.957   2.618
 6137SOL     OW19309   6.769   4.314   1.938
 6137SOL    HW119310   6.807   4.304   1.847
 6137SOL    HW219311   6.714   4.397   1.943
 6138SOL     OW19312   3.663   0.168   1.934
 6138SOL    HW119313   3.620   0.258   1.948
 6138SOL    HW219314   3.693   0.132   2.022
 6139SOL     OW19315   1.660   0.562   5.791
 6139SOL    HW119316   1.593   0.608   5.733
 6139SOL    HW219317   1.733   0.626   5.814
 6140SOL     OW19318   1.480   0.092   3.388
 6140SOL    HW119319   1.529   0.012   3.352
 6140SOL    HW219320   1.416   0.125   3.319
 6141SOL     OW19321   0.312   0.911   5.753
 6141SOL    HW119322   0.318   0.813   5.769
 6141SOL    HW219323   0.257   0.928   5.670
 6142SOL     OW19324   0.455   0.419   1.436
 6142SOL    HW119325   0.381   0.449   1.376
 6142SOL    HW219326   0.417   0.368   1.513
 6143SOL     OW19327   0.116   4.214   5.549
 6143SOL    HW119328   0.098   4.297   5.497
 6143SOL    HW219329   0.066   4.137   5.509
 6144SOL     OW19330   4.090   5.194   3.166
 6144SOL    HW119331   4.029   5.273   3.167
 6144SOL    HW219332   4.136   5.188   3.078
 6145SOL     OW19333   5.083   2.914   4.411
 6145SOL    HW119334   5.081   2.824   4.369
 6145SOL    HW219335   5.118   2.981   4.345
 6146SOL     OW19336   5.179   6.972   5.118
 6146SOL    HW119337   5.261   6.980   5.061
 6146SOL    HW219338   5.173   6.880   5.155
 6147SOL     OW19339   1.704   2.453   3.700
 6147SOL    HW119340   1.765   2.427   3.625
 6147SOL    HW219341   1.722   2.395   3.779
 6148SOL     OW19342   3.379   5.736   0.048
 6148SOL    HW119343   3.457   5.676   0.031
 6148SOL    HW219344   3.410   5.821   0.089
 6149SOL     OW19345   2.831   0.194   1.635
 6149SOL    HW119346   2.777   0.161   1.557
 6149SOL    HW219347   2.890   0.120   1.668
 6150SOL     OW19348   6.481   4.169   6.003
 6150SOL    HW119349   6.514   4.081   5.969
 6150SOL    HW219350   6.553   4.238   5.992
 6151SOL     OW19351   4.393   4.674   4.332
 6151SOL    HW119352   4.350   4.652   4.244
 6151SOL    HW219353   4.379   4.771   4.352
 6152SOL     OW19354   1.056   5.131   4.157
 6152SOL    HW119355   1.106   5.062   4.209
 6152SOL    HW219356   0.959   5.127   4.182
 6153SOL     OW19357   5.223   5.238   1.036
 6153SOL    HW119358   5.235   5.187   0.952
 6153SOL    HW219359   5.295   5.308   1.044
 6154SOL     OW19360   5.976   3.107   2.131
 6154SOL    HW119361   5.920   3.122   2.049
 6154SOL    HW219362   5.933   3.152   2.209
 6155SOL     OW19363   1.652   1.752   3.037
 6155SOL    HW119364   1.553   1.751   3.021
 6155SOL    HW219365   1.678   1.838   3.081
 6156SOL     OW19366   5.069   4.691   1.444
 6156SOL    HW119367   5.002   4.626   1.480
 6156SOL    HW219368   5.161   4.655   1.457
 6157SOL     OW19369   1.353   2.457   2.410
 6157SOL    HW119370   1.269   2.430   2.456
 6157SOL    HW219371   1.333   2.527   2.342
 6158SOL     OW19372   2.924   3.076   5.696
 6158SOL    HW119373   3.006   3.076   5.754
 6158SOL    HW219374   2.848   3.036   5.747
 6159SOL     OW19375   6.079   2.820   0.462
 6159SOL    HW119376   6.018   2.746   0.489
 6159SOL    HW219377   6.110   2.804   0.368
 6160SOL     OW19378   0.747   0.334   7.017
 6160SOL    HW119379   0.799   0.268   6.961
 6160SOL    HW219380   0.663   0.290   0.024
 6161SOL     OW19381   4.612   3.000   6.413
 6161SOL    HW119382   4.573   2.975   6.501
 6161SOL    HW219383   4.712   2.999   6.419
 6162SOL     OW19384   6.181   5.684   3.036
 6162SOL    HW119385   6.216   5.644   2.951
 6162SOL    HW219386   6.210   5.628   3.113
 6163SOL     OW19387   5.307   5.613   3.660
 6163SOL    HW119388   5.302   5.693   3.719
 6163SOL    HW219389   5.328   5.532   3.715
 6164SOL     OW19390   3.784   4.188   4.841
 6164SOL    HW119391   3.832   4.241   4.911
 6164SOL    HW219392   3.695   4.160   4.877
 6165SOL     OW19393   4.014   1.608   0.561
 6165SOL    HW119394   3.926   1.647   0.535
 6165SOL    HW219395   4.039   1.535   0.496
 6166SOL     OW19396   1.551   2.025   6.612
 6166SOL    HW119397   1.575   2.086   6.536
 6166SOL    HW219398   1.519   2.079   6.689
 6167SOL     OW19399   1.142   3.909   3.142
 6167SOL    HW119400   1.170   3.900   3.237
 6167SOL    HW219401   1.155   4.004   3.112
 6168SOL     OW19402   0.280   3.992   4.244
 6168SOL    HW119403   0.187   4.012   4.211
 6168SOL    HW219404   0.279   3.906   4.294
 6169SOL     OW19405   2.536   6.836   0.280
 6169SOL    HW119406   2.485   6.874   0.202
 6169SOL    HW219407   2.634   6.850   0.264
 6170SOL     OW19408   3.600   4.621   6.971
 6170SOL    HW119409   3.667   4.670   6.916
 6170SOL    HW219410   3.645   4.545   7.019
 6171SOL     OW19411   2.036   4.361   2.288
 6171SOL    HW119412   2.027   4.369   2.188
 6171SOL    HW219413   2.128   4.388   2.315
 6172SOL     OW19414   1.295   6.214   2.752
 6172SOL    HW119415   1.221   6.241   2.690
 6172SOL    HW219416   1.338   6.130   2.717
 6173SOL     OW19417   1.235   5.847   2.822
 6173SOL    HW119418   1.293   5.797   2.887
 6173SOL    HW219419   1.194   5.925   2.867
 6174SOL     OW19420   5.594   5.215   3.121
 6174SOL    HW119421   5.609   5.303   3.075
 6174SOL    HW219422   5.536   5.157   3.063
 6175SOL     OW19423   5.057   0.209   3.168
 6175SOL    HW119424   5.106   0.243   3.247
 6175SOL    HW219425   5.085   0.258   3.086
 6176SOL     OW19426   6.282   3.501   5.800
 6176SOL    HW119427   6.243   3.577   5.749
 6176SOL    HW219428   6.361   3.464   5.750
 6177SOL     OW19429   5.921   2.463   0.133
 6177SOL    HW119430   5.862   2.532   0.090
 6177SOL    HW219431   5.937   2.389   0.069
 6178SOL     OW19432   5.891   3.487   1.040
 6178SOL    HW119433   5.953   3.418   1.076
 6178SOL    HW219434   5.921   3.578   1.069
 6179SOL     OW19435   6.907   2.388   5.968
 6179SOL    HW119436   6.993   2.374   5.919
 6179SOL    HW219437   6.908   2.479   6.010
 6180SOL     OW19438   4.256   6.800   0.958
 6180SOL    HW119439   4.184   6.731   0.950
 6180SOL    HW219440   4.258   6.834   1.052
 6181SOL     OW19441   5.002   6.487   6.801
 6181SOL    HW119442   4.966   6.403   6.762
 6181SOL    HW219443   5.092   6.506   6.762
 6182SOL     OW19444   4.847   6.544   6.489
 6182SOL    HW119445   4.892   6.456   6.503
 6182SOL    HW219446   4.790   6.540   6.407
 6183SOL     OW19447   3.750   0.585   3.339
 6183SOL    HW119448   3.724   0.640   3.259
 6183SOL    HW219449   3.715   0.492   3.328
 6184SOL     OW19450   0.288   0.023   6.511
 6184SOL    HW119451   0.256   6.954   6.506
 6184SOL    HW219452   0.259   0.073   6.430
 6185SOL     OW19453   7.013   3.611   6.069
 6185SOL    HW119454   0.024   3.518   6.070
 6185SOL    HW219455   0.054   3.673   6.109
 6186SOL     OW19456   5.290   0.357   4.888
 6186SOL    HW119457   5.244   0.373   4.975
 6186SOL    HW219458   5.313   0.445   4.846
 6187SOL     OW19459   4.586   4.645   3.996
 6187SOL    HW119460   4.589   4.611   4.090
 6187SOL    HW219461   4.557   4.741   3.997
 6188SOL     OW19462   2.548   6.481   1.267
 6188SOL    HW119463   2.478   6.498   1.336
 6188SOL    HW219464   2.569   6.566   1.219
 6189SOL     OW19465   5.310   4.901   3.636
 6189SOL    HW119466   5.360   4.815   3.644
 6189SOL    HW219467   5.281   4.932   3.727
 6190SOL     OW19468   5.469   2.438   6.997
 6190SOL    HW119469   5.423   2.510   6.945
 6190SOL    HW219470   5.563   2.466   7.017
 6191SOL     OW19471   6.193   1.532   6.793
 6191SOL    HW119472   6.148   1.616   6.762
 6191SOL    HW219473   6.273   1.514   6.736
 6192SOL     OW19474   2.724   2.810   6.579
 6192SOL    HW119475   2.784   2.850   6.510
 6192SOL    HW219476   2.722   2.710   6.566
 6193SOL     OW19477   4.822   0.350   1.588
 6193SOL    HW119478   4.901   0.350   1.651
 6193SOL    HW219479   4.846   0.302   1.504
 6194SOL     OW19480   2.359   0.645   0.297
 6194SOL    HW119481   2.267   0.669   0.269
 6194SOL    HW219482   2.415   0.728   0.305
 6195SOL     OW19483   3.285   0.605   6.378
 6195SOL    HW119484   3.287   0.506   6.369
 6195SOL    HW219485   3.191   0.635   6.397
 6196SOL     OW19486   0.539   1.318   6.370
 6196SOL    HW119487   0.564   1.287   6.462
 6196SOL    HW219488   0.619   1.314   6.310
 6197SOL     OW19489   2.197   3.472   0.460
 6197SOL    HW119490   2.209   3.481   0.559
 6197SOL    HW219491   2.285   3.451   0.418
 6198SOL     OW19492   3.850   5.023   2.453
 6198SOL    HW119493   3.779   4.971   2.405
 6198SOL    HW219494   3.811   5.064   2.535
 6199SOL     OW19495   1.580   6.608   6.961
 6199SOL    HW119496   1.627   6.637   0.019
 6199SOL    HW219497   1.596   6.676   6.890
 6200SOL     OW19498   4.105   0.963   6.418
 6200SOL    HW119499   4.016   1.009   6.428
 6200SOL    HW219500   4.141   0.981   6.326
 6201SOL     OW19501   2.080   4.187   5.694
 6201SOL    HW119502   2.093   4.110   5.756
 6201SOL    HW219503   2.056   4.268   5.746
 6202SOL     OW19504   3.570   1.752   0.772
 6202SOL    HW119505   3.517   1.830   0.805
 6202SOL    HW219506   3.509   1.676   0.752
 6203SOL     OW19507   5.099   1.095   4.067
 6203SOL    HW119508   5.052   1.103   4.156
 6203SOL    HW219509   5.134   1.002   4.056
 6204SOL     OW19510   2.051   6.375   5.575
 6204SOL    HW119511   2.125   6.313   5.549
 6204SOL    HW219512   2.047   6.383   5.675
 6205SOL     OW19513   5.114   5.742   0.016
 6205SOL    HW119514   5.089   5.813   6.975
 6205SOL    HW219515   5.033   5.716   0.068
 6206SOL     OW19516   5.612   6.989   2.536
 6206SOL    HW119517   5.711   6.973   2.535
 6206SOL    HW219518   5.591   0.044   2.481
 6207SOL     OW19519   1.581   4.056   4.967
 6207SOL    HW119520   1.639   4.013   4.897
 6207SOL    HW219521   1.498   4.092   4.924
 6208SOL     OW19522   5.853   6.604   6.057
 6208SOL    HW119523   5.755   6.583   6.049
 6208SOL    HW219524   5.873   6.636   6.149
 6209SOL     OW19525   3.911   6.619   0.575
 6209SOL    HW119526   3.912   6.715   0.604
 6209SOL    HW219527   3.979   6.567   0.626
 6210SOL     OW19528   5.696   4.415   3.560
 6210SOL    HW119529   5.603   4.389   3.536
 6210SOL    HW219530   5.747   4.438   3.477
 6211SOL     OW19531   2.836   6.967   4.400
 6211SOL    HW119532   2.897   0.017   4.379
 6211SOL    HW219533   2.747   7.002   4.429
 6212SOL     OW19534   6.794   6.801   3.913
 6212SOL    HW119535   6.723   6.742   3.876
 6212SOL    HW219536   6.850   6.749   3.978
 6213SOL     OW19537   6.360   0.506   6.639
 6213SOL    HW119538   6.282   0.445   6.657
 6213SOL    HW219539   6.326   0.595   6.610
 6214SOL     OW19540   6.708   4.441   2.767
 6214SOL    HW119541   6.768   4.365   2.790
 6214SOL    HW219542   6.614   4.410   2.763
 6215SOL     OW19543   3.239   2.948   0.923
 6215SOL    HW119544   3.175   2.978   0.994
 6215SOL    HW219545   3.316   2.901   0.966
 6216SOL     OW19546   5.711   1.755   2.169
 6216SOL    HW119547   5.787   1.730   2.110
 6216SOL    HW219548   5.708   1.693   2.248
 6217SOL     OW19549   5.044   2.675   1.186
 6217SOL    HW119550   5.126   2.665   1.243
 6217SOL    HW219551   4.963   2.650   1.239
 6218SOL     OW19552   2.652   5.122   4.582
 6218SOL    HW119553   2.751   5.114   4.571
 6218SOL    HW219554   2.609   5.117   4.492
 6219SOL     OW19555   0.859   2.430   5.238
 6219SOL    HW119556   0.916   2.365   5.187
 6219SOL    HW219557   0.836   2.392   5.327
 6220SOL     OW19558   1.916   4.623   5.166
 6220SOL    HW119559   1.874   4.534   5.184
 6220SOL    HW219560   1.856   4.695   5.200
 6221SOL     OW19561   3.904   5.047   4.279
 6221SOL    HW119562   3.913   5.110   4.356
 6221SOL    HW219563   3.960   4.966   4.295
 6222SOL     OW19564   6.818   7.023   1.387
 6222SOL    HW119565   6.897   6.968   1.413
 6222SOL    HW219566   6.759   0.011   1.467
 6223SOL     OW19567   5.204   2.770   4.767
 6223SOL    HW119568   5.239   2.688   4.813
 6223SOL    HW219569   5.126   2.745   4.710
 6224SOL     OW19570   2.836   1.568   5.213
 6224SOL    HW119571   2.801   1.589   5.121
 6224SOL    HW219572   2.898   1.640   5.243
 6225SOL     OW19573   3.878   3.056   0.526
 6225SOL    HW119574   3.799   3.009   0.487
 6225SOL    HW219575   3.884   3.038   0.624
 6226SOL     OW19576   5.521   0.652   4.576
 6226SOL    HW119577   5.562   0.614   4.494
 6226SOL    HW219578   5.587   0.712   4.622
 6227SOL     OW19579   3.605   4.511   5.964
 6227SOL    HW119580   3.670   4.580   5.995
 6227SOL    HW219581   3.547   4.550   5.892
 6228SOL     OW19582   0.053   1.100   2.914
 6228SOL    HW119583   0.120   1.167   2.944
 6228SOL    HW219584   0.015   1.053   2.994
 6229SOL     OW19585   2.429   2.628   2.303
 6229SOL    HW119586   2.462   2.621   2.397
 6229SOL    HW219587   2.502   2.602   2.240
 6230SOL     OW19588   2.276   2.411   4.112
 6230SOL    HW119589   2.254   2.321   4.151
 6230SOL    HW219590   2.325   2.398   4.026
 6231SOL     OW19591   0.153   5.345   1.516
 6231SOL    HW119592   0.219   5.364   1.444
 6231SOL    HW219593   0.186   5.269   1.572
 6232SOL     OW19594   0.440   0.622   0.745
 6232SOL    HW119595   0.401   0.599   0.656
 6232SOL    HW219596   0.493   0.707   0.737
 6233SOL     OW19597   4.452   2.197   6.803
 6233SOL    HW119598   4.404   2.281   6.830
 6233SOL    HW219599   4.385   2.128   6.775
 6234SOL     OW19600   2.187   1.853   4.086
 6234SOL    HW119601   2.180   1.820   4.180
 6234SOL    HW219602   2.111   1.817   4.032
 6235SOL     OW19603   2.516   0.404   2.631
 6235SOL    HW119604   2.531   0.489   2.581
 6235SOL    HW219605   2.423   0.403   2.668
 6236SOL     OW19606   0.068   4.022   0.484
 6236SOL    HW119607   0.085   4.119   0.499
 6236SOL    HW219608   7.012   3.994   0.534
 6237SOL     OW19609   4.248   6.939   1.189
 6237SOL    HW119610   4.240   0.011   1.170
 6237SOL    HW219611   4.218   6.922   1.283
 6238SOL     OW19612   4.715   5.469   1.082
 6238SOL    HW119613   4.735   5.371   1.081
 6238SOL    HW219614   4.788   5.517   1.129
 6239SOL     OW19615   2.154   6.978   3.072
 6239SOL    HW119616   2.254   6.976   3.075
 6239SOL    HW219617   2.122   6.934   2.988
 6240SOL     OW19618   1.741   3.410   0.502
 6240SOL    HW119619   1.735   3.418   0.602
 6240SOL    HW219620   1.832   3.440   0.472
 6241SOL     OW19621   3.512   6.760   1.584
 6241SOL    HW119622   3.462   6.822   1.645
 6241SOL    HW219623   3.573   6.814   1.526
 6242SOL     OW19624   4.809   2.404   4.012
 6242SOL    HW119625   4.738   2.438   4.074
 6242SOL    HW219626   4.829   2.474   3.943
 6243SOL     OW19627   5.487   6.141   4.416
 6243SOL    HW119628   5.471   6.165   4.512
 6243SOL    HW219629   5.442   6.207   4.357
 6244SOL     OW19630   2.549   1.978   1.659
 6244SOL    HW119631   2.597   1.915   1.720
 6244SOL    HW219632   2.482   2.031   1.711
 6245SOL     OW19633   2.978   4.942   1.166
 6245SOL    HW119634   2.914   5.005   1.121
 6245SOL    HW219635   2.927   4.863   1.201
 6246SOL     OW19636   2.957   2.522   5.596
 6246SOL    HW119637   2.876   2.510   5.539
 6246SOL    HW219638   3.038   2.533   5.538
 6247SOL     OW19639   0.218   6.350   3.085
 6247SOL    HW119640   0.134   6.377   3.037
 6247SOL    HW219641   0.202   6.354   3.184
 6248SOL     OW19642   0.575   4.957   1.185
 6248SOL    HW119643   0.481   4.937   1.157
 6248SOL    HW219644   0.615   5.024   1.122
 6249SOL     OW19645   6.747   3.948   6.711
 6249SOL    HW119646   6.680   3.875   6.723
 6249SOL    HW219647   6.723   4.025   6.771
 6250SOL     OW19648   6.343   6.148   0.003
 6250SOL    HW119649   6.356   6.159   0.101
 6250SOL    HW219650   6.377   6.229   6.981
 6251SOL     OW19651   4.644   1.613   0.474
 6251SOL    HW119652   4.568   1.609   0.539
 6251SOL    HW219653   4.679   1.706   0.470
 6252SOL     OW19654   3.055   6.304   5.112
 6252SOL    HW119655   3.001   6.227   5.146
 6252SOL    HW219656   3.058   6.301   5.012
 6253SOL     OW19657   2.183   3.873   1.882
 6253SOL    HW119658   2.112   3.940   1.857
 6253SOL    HW219659   2.264   3.921   1.913
 6254SOL     OW19660   5.425   7.002   0.362
 6254SOL    HW119661   5.348   6.980   0.423
 6254SOL    HW219662   5.506   6.953   0.393
 6255SOL     OW19663   0.509   1.404   2.376
 6255SOL    HW119664   0.460   1.345   2.441
 6255SOL    HW219665   0.607   1.397   2.392
 6256SOL     OW19666   4.064   4.974   2.623
 6256SOL    HW119667   4.036   4.940   2.712
 6256SOL    HW219668   3.983   4.989   2.566
 6257SOL     OW19669   5.467   2.857   0.251
 6257SOL    HW119670   5.486   2.917   0.328
 6257SOL    HW219671   5.369   2.859   0.230
 6258SOL     OW19672   4.636   2.162   2.115
 6258SOL    HW119673   4.710   2.098   2.096
 6258SOL    HW219674   4.643   2.193   2.210
 6259SOL     OW19675   3.028   2.134   1.829
 6259SOL    HW119676   2.967   2.056   1.810
 6259SOL    HW219677   2.973   2.213   1.856
 6260SOL     OW19678   3.957   3.850   6.995
 6260SOL    HW119679   3.910   3.887   6.915
 6260SOL    HW219680   4.009   3.922   0.013
 6261SOL     OW19681   4.071   1.395   0.381
 6261SOL    HW119682   4.149   1.411   0.321
 6261SOL    HW219683   4.055   1.297   0.390
 6262SOL     OW19684   1.144   4.673   6.654
 6262SOL    HW119685   1.235   4.639   6.629
 6262SOL    HW219686   1.137   4.770   6.631
 6263SOL     OW19687   6.880   6.809   0.436
 6263SOL    HW119688   6.916   6.899   0.413
 6263SOL    HW219689   6.801   6.820   0.497
 6264SOL     OW19690   2.517   1.808   0.598
 6264SOL    HW119691   2.447   1.836   0.663
 6264SOL    HW219692   2.540   1.884   0.538
 6265SOL     OW19693   4.182   3.340   1.573
 6265SOL    HW119694   4.157   3.264   1.632
 6265SOL    HW219695   4.128   3.337   1.489
 6266SOL     OW19696   2.954   0.236   3.030
 6266SOL    HW119697   3.041   0.281   3.008
 6266SOL    HW219698   2.879   0.285   2.985
 6267SOL     OW19699   3.327   0.094   6.264
 6267SOL    HW119700   3.241   0.056   6.299
 6267SOL    HW219701   3.397   0.088   6.335
 6268SOL     OW19702   3.943   4.944   2.867
 6268SOL    HW119703   3.982   4.877   2.930
 6268SOL    HW219704   3.971   5.036   2.895
 6269SOL     OW19705   5.940   5.435   1.356
 6269SOL    HW119706   5.985   5.520   1.326
 6269SOL    HW219707   5.921   5.441   1.454
 6270SOL     OW19708   0.953   0.595   4.664
 6270SOL    HW119709   0.878   0.574   4.602
 6270SOL    HW219710   0.917   0.619   4.754
 6271SOL     OW19711   7.002   1.274   0.591
 6271SOL    HW119712   6.912   1.257   0.551
 6271SOL    HW219713   0.038   1.309   0.520
 6272SOL     OW19714   2.240   2.405   3.488
 6272SOL    HW119715   2.225   2.318   3.442
 6272SOL    HW219716   2.206   2.399   3.582
 6273SOL     OW19717   3.708   1.430   1.489
 6273SOL    HW119718   3.633   1.381   1.445
 6273SOL    HW219719   3.793   1.412   1.440
 6274SOL     OW19720   3.900   6.797   5.946
 6274SOL    HW119721   3.860   6.724   5.890
 6274SOL    HW219722   3.959   6.758   6.016
 6275SOL     OW19723   1.525   0.009   4.856
 6275SOL    HW119724   1.470   7.006   4.777
 6275SOL    HW219725   1.596   6.968   4.873
 6276SOL     OW19726   1.555   5.523   3.786
 6276SOL    HW119727   1.605   5.539   3.871
 6276SOL    HW219728   1.609   5.557   3.708
 6277SOL     OW19729   5.236   2.969   3.228
 6277SOL    HW119730   5.255   3.051   3.172
 6277SOL    HW219731   5.315   2.952   3.288
 6278SOL     OW19732   5.482   0.336   4.210
 6278SOL    HW119733   5.442   0.302   4.295
 6278SOL    HW219734   5.531   0.262   4.163
 6279SOL     OW19735   4.078   1.873   0.609
 6279SOL    HW119736   4.063   1.776   0.591
 6279SOL    HW219737   4.001   1.909   0.662
 6280SOL     OW19738   0.695   4.981   5.771
 6280SOL    HW119739   0.658   4.892   5.797
 6280SOL    HW219740   0.758   5.014   5.842
 6281SOL     OW19741   2.093   0.149   5.027
 6281SOL    HW119742   2.106   0.094   4.945
 6281SOL    HW219743   2.004   0.128   5.067
 6282SOL     OW19744   2.258   6.617   4.177
 6282SOL    HW119745   2.161   6.622   4.155
 6282SOL    HW219746   2.311   6.606   4.092
 6283SOL     OW19747   6.694   2.649   5.073
 6283SOL    HW119748   6.794   2.651   5.063
 6283SOL    HW219749   6.652   2.676   4.986
 6284SOL     OW19750   1.422   4.254   5.539
 6284SOL    HW119751   1.490   4.283   5.471
 6284SOL    HW219752   1.332   4.249   5.495
 6285SOL     OW19753   1.455   3.776   3.141
 6285SOL    HW119754   1.384   3.732   3.196
 6285SOL    HW219755   1.545   3.741   3.168
 6286SOL     OW19756   5.361   0.619   3.195
 6286SOL    HW119757   5.382   0.585   3.287
 6286SOL    HW219758   5.263   0.635   3.187
 6287SOL     OW19759   4.699   4.168   1.730
 6287SOL    HW119760   4.749   4.144   1.813
 6287SOL    HW219761   4.603   4.185   1.753
 6288SOL     OW19762   5.569   3.760   0.627
 6288SOL    HW119763   5.469   3.750   0.623
 6288SOL    HW219764   5.604   3.705   0.703
 6289SOL     OW19765   1.517   1.484   3.822
 6289SOL    HW119766   1.613   1.512   3.823
 6289SOL    HW219767   1.462   1.549   3.873
 6290SOL     OW19768   4.865   3.848   3.533
 6290SOL    HW119769   4.826   3.936   3.559
 6290SOL    HW219770   4.861   3.837   3.434
 6291SOL     OW19771   3.328   4.129   3.559
 6291SOL    HW119772   3.353   4.102   3.652
 6291SOL    HW219773   3.310   4.227   3.556
 6292SOL     OW19774   1.247   1.613   2.249
 6292SOL    HW119775   1.261   1.638   2.345
 6292SOL    HW219776   1.259   1.514   2.239
 6293SOL     OW19777   4.608   0.040   0.411
 6293SOL    HW119778   4.662   0.090   0.343
 6293SOL    HW219779   4.516   0.078   0.416
 6294SOL     OW19780   4.457   5.130   3.080
 6294SOL    HW119781   4.468   5.070   3.159
 6294SOL    HW219782   4.423   5.220   3.110
 6295SOL     OW19783   5.834   6.249   6.339
 6295SOL    HW119784   5.835   6.179   6.410
 6295SOL    HW219785   5.744   6.250   6.294
 6296SOL     OW19786   6.279   1.019   3.094
 6296SOL    HW119787   6.220   0.944   3.123
 6296SOL    HW219788   6.370   0.982   3.071
 6297SOL     OW19789   5.891   6.521   5.632
 6297SOL    HW119790   5.896   6.423   5.611
 6297SOL    HW219791   5.848   6.570   5.557
 6298SOL     OW19792   0.657   2.812   5.067
 6298SOL    HW119793   0.707   2.836   4.984
 6298SOL    HW219794   0.568   2.774   5.042
 6299SOL     OW19795   6.410   2.847   6.647
 6299SOL    HW119796   6.465   2.776   6.689
 6299SOL    HW219797   6.457   2.935   6.656
 6300SOL     OW19798   4.948   0.689   3.648
 6300SOL    HW119799   4.879   0.741   3.597
 6300SOL    HW219800   4.999   0.631   3.584
 6301SOL     OW19801   3.196   6.810   0.890
 6301SOL    HW119802   3.107   6.775   0.917
 6301SOL    HW219803   3.236   6.862   0.966
 6302SOL     OW19804   1.454   1.233   3.146
 6302SOL    HW119805   1.439   1.211   3.050
 6302SOL    HW219806   1.403   1.170   3.203
 6303SOL     OW19807   1.802   6.256   5.119
 6303SOL    HW119808   1.877   6.302   5.070
 6303SOL    HW219809   1.731   6.322   5.142
 6304SOL     OW19810   2.667   1.233   6.824
 6304SOL    HW119811   2.600   1.162   6.847
 6304SOL    HW219812   2.732   1.243   6.899
 6305SOL     OW19813   6.647   0.036   1.186
 6305SOL    HW119814   6.699   0.095   1.124
 6305SOL    HW219815   6.706   0.007   1.261
 6306SOL     OW19816   6.411   3.056   3.655
 6306SOL    HW119817   6.492   3.049   3.597
 6306SOL    HW219818   6.356   2.973   3.645
 6307SOL     OW19819   2.131   5.262   0.296
 6307SOL    HW119820   2.146   5.163   0.300
 6307SOL    HW219821   2.141   5.293   0.202
 6308SOL     OW19822   3.226   2.048   5.132
 6308SOL    HW119823   3.293   2.009   5.068
 6308SOL    HW219824   3.180   2.125   5.089
 6309SOL     OW19825   5.596   1.996   3.952
 6309SOL    HW119826   5.615   2.090   3.981
 6309SOL    HW219827   5.536   1.998   3.872
 6310SOL     OW19828   1.748   4.928   4.530
 6310SOL    HW119829   1.816   4.891   4.467
 6310SOL    HW219830   1.656   4.898   4.501
 6311SOL     OW19831   5.727   0.669   4.927
 6311SOL    HW119832   5.682   0.740   4.981
 6311SOL    HW219833   5.680   0.582   4.940
 6312SOL     OW19834   3.941   4.990   5.440
 6312SOL    HW119835   3.893   5.075   5.419
 6312SOL    HW219836   3.878   4.913   5.435
 6313SOL     OW19837   2.549   5.681   3.169
 6313SOL    HW119838   2.586   5.713   3.082
 6313SOL    HW219839   2.533   5.583   3.164
 6314SOL     OW19840   2.873   6.347   3.021
 6314SOL    HW119841   2.795   6.285   3.011
 6314SOL    HW219842   2.887   6.396   2.934
 6315SOL     OW19843   3.230   3.665   0.199
 6315SOL    HW119844   3.197   3.753   0.232
 6315SOL    HW219845   3.163   3.627   0.134
 6316SOL     OW19846   4.350   2.661   5.618
 6316SOL    HW119847   4.329   2.709   5.532
 6316SOL    HW219848   4.269   2.662   5.677
 6317SOL     OW19849   5.092   6.801   4.034
 6317SOL    HW119850   5.168   6.739   4.057
 6317SOL    HW219851   5.099   6.883   4.091
 6318SOL     OW19852   2.392   2.059   5.002
 6318SOL    HW119853   2.375   1.987   5.070
 6318SOL    HW219854   2.315   2.122   5.001
 6319SOL     OW19855   0.487   1.631   3.714
 6319SOL    HW119856   0.535   1.606   3.630
 6319SOL    HW219857   0.552   1.673   3.777
 6320SOL     OW19858   5.754   3.796   2.930
 6320SOL    HW119859   5.727   3.700   2.930
 6320SOL    HW219860   5.672   3.853   2.933
 6321SOL     OW19861   2.712   4.522   0.210
 6321SOL    HW119862   2.627   4.513   0.157
 6321SOL    HW219863   2.693   4.572   0.295
 6322SOL     OW19864   0.618   0.961   6.608
 6322SOL    HW119865   0.714   0.989   6.604
 6322SOL    HW219866   0.603   0.882   6.549
 6323SOL     OW19867   3.621   3.005   0.775
 6323SOL    HW119868   3.604   2.959   0.688
 6323SOL    HW219869   3.719   2.999   0.797
 6324SOL     OW19870   4.153   1.326   6.200
 6324SOL    HW119871   4.238   1.371   6.228
 6324SOL    HW219872   4.167   1.227   6.198
 6325SOL     OW19873   0.905   2.326   2.769
 6325SOL    HW119874   0.861   2.412   2.740
 6325SOL    HW219875   0.840   2.251   2.758
 6326SOL     OW19876   5.138   5.692   1.409
 6326SOL    HW119877   5.234   5.703   1.434
 6326SOL    HW219878   5.095   5.623   1.468
 6327SOL     OW19879   5.796   5.681   5.510
 6327SOL    HW119880   5.754   5.748   5.571
 6327SOL    HW219881   5.735   5.663   5.433
 6328SOL     OW19882   3.102   3.892   6.558
 6328SOL    HW119883   3.198   3.917   6.572
 6328SOL    HW219884   3.049   3.975   6.538
 6329SOL     OW19885   0.962   1.502   3.261
 6329SOL    HW119886   1.053   1.504   3.303
 6329SOL    HW219887   0.928   1.595   3.252
 6330SOL     OW19888   3.800   1.211   0.123
 6330SOL    HW119889   3.883   1.235   0.074
 6330SOL    HW219890   3.748   1.144   0.069
 6331SOL     OW19891   6.445   2.415   1.623
 6331SOL    HW119892   6.472   2.388   1.530
 6331SOL    HW219893   6.526   2.417   1.682
 6332SOL     OW19894   5.960   5.913   1.580
 6332SOL    HW119895   6.018   5.844   1.623
 6332SOL    HW219896   5.965   5.903   1.480
 6333SOL     OW19897   3.858   5.021   3.310
 6333SOL    HW119898   3.901   4.951   3.367
 6333SOL    HW219899   3.928   5.079   3.268
 6334SOL     OW19900   1.707   1.017   2.488
 6334SOL    HW119901   1.672   0.986   2.576
 6334SOL    HW219902   1.777   0.953   2.456
 6335SOL     OW19903   6.776   1.378   6.737
 6335SOL    HW119904   6.855   1.375   6.675
 6335SOL    HW219905   6.803   1.423   6.822
 6336SOL     OW19906   6.911   2.711   4.662
 6336SOL    HW119907   6.914   2.803   4.621
 6336SOL    HW219908   6.950   2.645   4.599
 6337SOL     OW19909   6.332   4.808   5.768
 6337SOL    HW119910   6.364   4.773   5.856
 6337SOL    HW219911   6.297   4.901   5.780
 6338SOL     OW19912   3.969   1.066   3.431
 6338SOL    HW119913   3.949   1.139   3.365
 6338SOL    HW219914   3.921   0.983   3.404
 6339SOL     OW19915   0.118   1.779   3.917
 6339SOL    HW119916   0.038   1.734   3.956
 6339SOL    HW219917   0.184   1.709   3.888
 6340SOL     OW19918   2.359   5.357   4.278
 6340SOL    HW119919   2.313   5.338   4.191
 6340SOL    HW219920   2.401   5.447   4.274
 6341SOL     OW19921   0.271   4.463   3.586
 6341SOL    HW119922   0.256   4.543   3.644
 6341SOL    HW219923   0.316   4.492   3.501
 6342SOL     OW19924   1.045   2.582   1.015
 6342SOL    HW119925   1.031   2.634   0.930
 6342SOL    HW219926   1.048   2.645   1.092
 6343SOL     OW19927   3.672   1.253   6.818
 6343SOL    HW119928   3.641   1.262   6.723
 6343SOL    HW219929   3.599   1.212   6.873
 6344SOL     OW19930   0.774   4.499   4.159
 6344SOL    HW119931   0.803   4.569   4.225
 6344SOL    HW219932   0.783   4.535   4.066
 6345SOL     OW19933   3.698   1.332   2.068
 6345SOL    HW119934   3.746   1.405   2.116
 6345SOL    HW219935   3.697   1.352   1.970
 6346SOL     OW19936   0.493   4.179   3.596
 6346SOL    HW119937   0.534   4.104   3.647
 6346SOL    HW219938   0.400   4.153   3.569
 6347SOL     OW19939   3.048   0.141   1.087
 6347SOL    HW119940   2.969   0.117   1.030
 6347SOL    HW219941   3.099   0.216   1.046
 6348SOL     OW19942   0.794   3.291   4.381
 6348SOL    HW119943   0.726   3.219   4.370
 6348SOL    HW219944   0.762   3.374   4.335
 6349SOL     OW19945   2.843   0.631   0.381
 6349SOL    HW119946   2.846   0.697   0.307
 6349SOL    HW219947   2.789   0.551   0.352
 6350SOL     OW19948   1.619   5.782   2.270
 6350SOL    HW119949   1.621   5.824   2.179
 6350SOL    HW219950   1.710   5.744   2.290
 6351SOL     OW19951   6.928   1.825   2.507
 6351SOL    HW119952   6.897   1.807   2.414
 6351SOL    HW219953   6.850   1.824   2.569
 6352SOL     OW19954   0.427   5.525   2.067
 6352SOL    HW119955   0.482   5.449   2.031
 6352SOL    HW219956   0.331   5.498   2.069
 6353SOL     OW19957   0.403   0.084   0.886
 6353SOL    HW119958   0.391   7.011   0.886
 6353SOL    HW219959   0.336   0.126   0.824
 6354SOL     OW19960   0.532   6.579   3.332
 6354SOL    HW119961   0.604   6.648   3.340
 6354SOL    HW219962   0.554   6.517   3.256
 6355SOL     OW19963   2.028   2.562   3.330
 6355SOL    HW119964   1.948   2.608   3.291
 6355SOL    HW219965   2.066   2.498   3.262
 6356SOL     OW19966   3.693   4.009   1.517
 6356SOL    HW119967   3.639   4.016   1.433
 6356SOL    HW219968   3.766   3.941   1.504
 6357SOL     OW19969   4.325   1.955   0.542
 6357SOL    HW119970   4.324   2.025   0.471
 6357SOL    HW219971   4.231   1.929   0.565
 6358SOL     OW19972   6.941   2.253   3.327
 6358SOL    HW119973   6.938   2.223   3.422
 6358SOL    HW219974   7.009   2.326   3.317
 6359SOL     OW19975   6.865   0.579   6.705
 6359SOL    HW119976   6.801   0.586   6.628
 6359SOL    HW219977   6.876   0.668   6.748
 6360SOL     OW19978   3.104   5.487   4.272
 6360SOL    HW119979   3.124   5.393   4.300
 6360SOL    HW219980   3.087   5.490   4.173
 6361SOL     OW19981   4.390   5.908   6.009
 6361SOL    HW119982   4.490   5.908   6.018
 6361SOL    HW219983   4.354   5.997   6.037
 6362SOL     OW19984   5.944   5.409   6.149
 6362SOL    HW119985   5.976   5.320   6.117
 6362SOL    HW219986   5.960   5.417   6.247
 6363SOL     OW19987   1.231   5.979   4.310
 6363SOL    HW119988   1.187   5.937   4.231
 6363SOL    HW219989   1.318   5.932   4.328
 6364SOL     OW19990   2.569   2.815   5.750
 6364SOL    HW119991   2.561   2.881   5.675
 6364SOL    HW219992   2.493   2.751   5.747
 6365SOL     OW19993   4.872   6.471   2.908
 6365SOL    HW119994   4.821   6.527   2.844
 6365SOL    HW219995   4.815   6.395   2.939
 6366SOL     OW19996   0.418   5.388   5.092
 6366SOL    HW119997   0.426   5.484   5.117
 6366SOL    HW219998   0.323   5.358   5.103
 6367SOL     OW19999   5.468   6.632   4.263
 6367SOL    HW120000   5.555   6.677   4.243
 6367SOL    HW220001   5.423   6.679   4.339
 6368SOL     OW20002   3.172   6.945   4.452
 6368SOL    HW120003   3.121   0.002   4.428
 6368SOL    HW220004   3.121   6.894   4.521
 6369SOL     OW20005   2.486   4.880   4.122
 6369SOL    HW120006   2.407   4.830   4.159
 6369SOL    HW220007   2.564   4.818   4.112
 6370SOL     OW20008   6.071   2.597   1.534
 6370SOL    HW120009   5.981   2.607   1.493
 6370SOL    HW220010   6.129   2.674   1.509
 6371SOL     OW20011   4.859   2.469   2.479
 6371SOL    HW120012   4.800   2.519   2.415
 6371SOL    HW220013   4.920   2.408   2.428
 6372SOL     OW20014   2.853   5.937   2.055
 6372SOL    HW120015   2.930   5.987   2.094
 6372SOL    HW220016   2.809   5.884   2.127
 6373SOL     OW20017   4.436   4.086   6.668
 6373SOL    HW120018   4.436   3.996   6.625
 6373SOL    HW220019   4.529   4.112   6.691
 6374SOL     OW20020   2.963   3.212   2.901
 6374SOL    HW120021   3.036   3.155   2.939
 6374SOL    HW220022   2.918   3.263   2.974
 6375SOL     OW20023   1.490   6.417   2.811
 6375SOL    HW120024   1.402   6.368   2.811
 6375SOL    HW220025   1.477   6.507   2.771
 6376SOL     OW20026   6.680   2.372   5.229
 6376SOL    HW120027   6.713   2.400   5.320
 6376SOL    HW220028   6.681   2.450   5.168
 6377SOL     OW20029   0.546   1.350   4.564
 6377SOL    HW120030   0.572   1.315   4.654
 6377SOL    HW220031   0.587   1.441   4.551
 6378SOL     OW20032   4.735   4.341   3.996
 6378SOL    HW120033   4.787   4.388   3.925
 6378SOL    HW220034   4.660   4.289   3.954
 6379SOL     OW20035   2.273   4.266   3.375
 6379SOL    HW120036   2.219   4.198   3.426
 6379SOL    HW220037   2.258   4.253   3.277
 6380SOL     OW20038   0.052   0.728   6.033
 6380SOL    HW120039   0.144   0.766   6.040
 6380SOL    HW220040   0.019   0.706   6.125
 6381SOL     OW20041   3.244   4.044   3.073
 6381SOL    HW120042   3.234   4.040   3.172
 6381SOL    HW220043   3.286   4.130   3.047
 6382SOL     OW20044   1.318   3.428   5.720
 6382SOL    HW120045   1.356   3.417   5.812
 6382SOL    HW220046   1.262   3.511   5.717
 6383SOL     OW20047   2.538   0.979   4.320
 6383SOL    HW120048   2.528   1.054   4.255
 6383SOL    HW220049   2.520   0.892   4.274
 6384SOL     OW20050   6.957   4.672   3.102
 6384SOL    HW120051   6.998   4.687   3.192
 6384SOL    HW220052   7.004   4.597   3.056
 6385SOL     OW20053   0.299   5.292   4.582
 6385SOL    HW120054   0.231   5.341   4.528
 6385SOL    HW220055   0.367   5.251   4.521
 6386SOL     OW20056   2.963   4.812   1.430
 6386SOL    HW120057   2.899   4.750   1.476
 6386SOL    HW220058   3.042   4.760   1.398
 6387SOL     OW20059   6.396   0.768   5.421
 6387SOL    HW120060   6.489   0.742   5.395
 6387SOL    HW220061   6.377   0.736   5.514
 6388SOL     OW20062   3.115   4.996   2.463
 6388SOL    HW120063   3.091   4.981   2.559
 6388SOL    HW220064   3.211   4.976   2.448
 6389SOL     OW20065   1.118   5.434   3.384
 6389SOL    HW120066   1.135   5.531   3.370
 6389SOL    HW220067   1.179   5.381   3.324
 6390SOL     OW20068   0.686   3.211   3.898
 6390SOL    HW120069   0.719   3.125   3.861
 6390SOL    HW220070   0.651   3.197   3.991
 6391SOL     OW20071   2.852   1.858   0.271
 6391SOL    HW120072   2.882   1.766   0.243
 6391SOL    HW220073   2.808   1.903   0.193
 6392SOL     OW20074   1.738   6.636   4.122
 6392SOL    HW120075   1.670   6.564   4.133
 6392SOL    HW220076   1.693   6.720   4.091
 6393SOL     OW20077   6.140   5.751   0.228
 6393SOL    HW120078   6.235   5.737   0.199
 6393SOL    HW220079   6.139   5.810   0.310
 6394SOL     OW20080   2.565   4.971   0.372
 6394SOL    HW120081   2.576   5.022   0.287
 6394SOL    HW220082   2.522   5.030   0.441
 6395SOL     OW20083   6.523   1.747   0.891
 6395SOL    HW120084   6.610   1.738   0.842
 6395SOL    HW220085   6.447   1.747   0.826
 6396SOL     OW20086   5.087   4.443   5.594
 6396SOL    HW120087   5.104   4.474   5.500
 6396SOL    HW220088   5.166   4.391   5.626
 6397SOL     OW20089   6.973   1.275   0.869
 6397SOL    HW120090   6.986   1.269   0.770
 6397SOL    HW220091   6.879   1.301   0.889
 6398SOL     OW20092   3.370   1.528   1.525
 6398SOL    HW120093   3.394   1.493   1.615
 6398SOL    HW220094   3.436   1.493   1.458
 6399SOL     OW20095   2.438   5.510   6.907
 6399SOL    HW120096   2.501   5.569   6.857
 6399SOL    HW220097   2.354   5.499   6.856
 6400SOL     OW20098   2.653   5.609   3.626
 6400SOL    HW120099   2.710   5.580   3.703
 6400SOL    HW220100   2.701   5.681   3.575
 6401SOL     OW20101   0.516   4.877   4.096
 6401SOL    HW120102   0.471   4.903   4.182
 6401SOL    HW220103   0.530   4.957   4.039
 6402SOL     OW20104   2.461   0.990   2.868
 6402SOL    HW120105   2.474   0.893   2.847
 6402SOL    HW220106   2.473   1.044   2.785
 6403SOL     OW20107   0.893   5.380   6.781
 6403SOL    HW120108   0.861   5.306   6.721
 6403SOL    HW220109   0.854   5.368   6.872
 6404SOL     OW20110   5.483   1.289   3.474
 6404SOL    HW120111   5.424   1.241   3.409
 6404SOL    HW220112   5.528   1.365   3.428
 6405SOL     OW20113   2.713   1.654   2.449
 6405SOL    HW120114   2.732   1.633   2.353
 6405SOL    HW220115   2.771   1.598   2.508
 6406SOL     OW20116   2.562   1.612   4.038
 6406SOL    HW120117   2.582   1.604   3.940
 6406SOL    HW220118   2.647   1.622   4.089
 6407SOL     OW20119   3.810   5.152   5.923
 6407SOL    HW120120   3.778   5.067   5.881
 6407SOL    HW220121   3.772   5.231   5.874
 6408SOL     OW20122   5.989   1.264   6.752
 6408SOL    HW120123   5.903   1.213   6.756
 6408SOL    HW220124   6.024   1.278   6.844
 6409SOL     OW20125   0.760   4.097   1.933
 6409SOL    HW120126   0.817   4.041   1.873
 6409SOL    HW220127   0.707   4.038   1.994
 6410SOL     OW20128   1.447   1.220   1.012
 6410SOL    HW120129   1.489   1.139   0.970
 6410SOL    HW220130   1.517   1.289   1.030
 6411SOL     OW20131   0.644   1.095   3.491
 6411SOL    HW120132   0.701   1.033   3.544
 6411SOL    HW220133   0.700   1.144   3.425
 6412SOL     OW20134   0.238   2.416   5.234
 6412SOL    HW120135   0.174   2.447   5.164
 6412SOL    HW220136   0.251   2.317   5.226
 6413SOL     OW20137   6.928   4.322   0.348
 6413SOL    HW120138   6.985   4.320   0.430
 6413SOL    HW220139   6.866   4.400   0.352
 6414SOL     OW20140   5.918   6.395   2.522
 6414SOL    HW120141   5.864   6.326   2.474
 6414SOL    HW220142   5.865   6.480   2.528
 6415SOL     OW20143   1.653   1.359   1.777
 6415SOL    HW120144   1.563   1.325   1.806
 6415SOL    HW220145   1.642   1.449   1.734
 6416SOL     OW20146   1.232   0.843   6.302
 6416SOL    HW120147   1.294   0.853   6.224
 6416SOL    HW220148   1.165   0.772   6.282
 6417SOL     OW20149   0.741   6.778   3.256
 6417SOL    HW120150   0.727   6.872   3.288
 6417SOL    HW220151   0.694   6.765   3.169
 6418SOL     OW20152   6.431   6.123   2.167
 6418SOL    HW120153   6.435   6.057   2.242
 6418SOL    HW220154   6.512   6.181   2.168
 6419SOL     OW20155   3.432   4.858   1.428
 6419SOL    HW120156   3.431   4.955   1.452
 6419SOL    HW220157   3.431   4.803   1.512
 6420SOL     OW20158   2.319   4.327   6.589
 6420SOL    HW120159   2.408   4.346   6.547
 6420SOL    HW220160   2.247   4.341   6.521
 6421SOL     OW20161   5.751   1.410   1.286
 6421SOL    HW120162   5.729   1.324   1.239
 6421SOL    HW220163   5.750   1.395   1.385
 6422SOL     OW20164   5.801   1.376   3.482
 6422SOL    HW120165   5.713   1.377   3.436
 6422SOL    HW220166   5.855   1.298   3.448
 6423SOL     OW20167   5.020   3.611   0.419
 6423SOL    HW120168   5.026   3.685   0.486
 6423SOL    HW220169   5.060   3.528   0.458
 6424SOL     OW20170   6.990   4.453   5.675
 6424SOL    HW120171   0.043   4.450   5.615
 6424SOL    HW220172   6.925   4.521   5.641
 6425SOL     OW20173   0.884   4.874   2.220
 6425SOL    HW120174   0.944   4.879   2.300
 6425SOL    HW220175   0.825   4.954   2.217
 6426SOL     OW20176   0.933   2.705   3.489
 6426SOL    HW120177   1.033   2.698   3.487
 6426SOL    HW220178   0.894   2.614   3.503
 6427SOL     OW20179   1.864   3.674   5.008
 6427SOL    HW120180   1.869   3.648   5.104
 6427SOL    HW220181   1.879   3.773   5.000
 6428SOL     OW20182   6.950   3.717   2.315
 6428SOL    HW120183   6.901   3.681   2.394
 6428SOL    HW220184   6.915   3.674   2.232
 6429SOL     OW20185   1.283   0.228   3.631
 6429SOL    HW120186   1.370   0.182   3.647
 6429SOL    HW220187   1.289   0.323   3.661
 6430SOL     OW20188   5.967   2.644   0.872
 6430SOL    HW120189   6.031   2.591   0.817
 6430SOL    HW220190   5.993   2.741   0.869
 6431SOL     OW20191   5.531   6.767   2.403
 6431SOL    HW120192   5.571   6.850   2.441
 6431SOL    HW220193   5.600   6.716   2.352
 6432SOL     OW20194   5.061   3.258   0.911
 6432SOL    HW120195   5.146   3.225   0.951
 6432SOL    HW220196   5.065   3.357   0.900
 6433SOL     OW20197   2.824   4.010   1.579
 6433SOL    HW120198   2.797   4.067   1.501
 6433SOL    HW220199   2.859   3.923   1.546
 6434SOL     OW20200   1.415   4.170   0.677
 6434SOL    HW120201   1.409   4.266   0.649
 6434SOL    HW220202   1.505   4.154   0.719
 6435SOL     OW20203   4.436   3.838   6.562
 6435SOL    HW120204   4.533   3.814   6.558
 6435SOL    HW220205   4.380   3.755   6.550
 6436SOL     OW20206   1.771   2.892   3.592
 6436SOL    HW120207   1.733   2.807   3.627
 6436SOL    HW220208   1.816   2.876   3.504
 6437SOL     OW20209   1.364   0.281   6.645
 6437SOL    HW120210   1.389   0.377   6.635
 6437SOL    HW220211   1.359   0.238   6.555
 6438SOL     OW20212   1.011   3.842   3.929
 6438SOL    HW120213   1.098   3.888   3.909
 6438SOL    HW220214   1.015   3.749   3.893
 6439SOL     OW20215   1.250   6.863   1.253
 6439SOL    HW120216   1.220   6.956   1.275
 6439SOL    HW220217   1.344   6.851   1.282
 6440SOL     OW20218   1.378   1.717   2.936
 6440SOL    HW120219   1.328   1.788   2.885
 6440SOL    HW220220   1.312   1.655   2.979
 6441SOL     OW20221   2.189   1.133   3.416
 6441SOL    HW120222   2.112   1.136   3.479
 6441SOL    HW220223   2.195   1.043   3.373
 6442SOL     OW20224   2.724   1.507   4.269
 6442SOL    HW120225   2.633   1.474   4.291
 6442SOL    HW220226   2.792   1.454   4.319
 6443SOL     OW20227   2.738   2.081   0.608
 6443SOL    HW120228   2.779   2.169   0.632
 6443SOL    HW220229   2.810   2.015   0.588
 6444SOL     OW20230   0.510   1.280   3.130
 6444SOL    HW120231   0.494   1.375   3.103
 6444SOL    HW220232   0.556   1.231   3.055
 6445SOL     OW20233   3.955   3.205   5.501
 6445SOL    HW120234   4.002   3.239   5.583
 6445SOL    HW220235   3.864   3.174   5.526
 6446SOL     OW20236   6.574   1.241   0.113
 6446SOL    HW120237   6.581   1.142   0.101
 6446SOL    HW220238   6.662   1.277   0.145
 6447SOL     OW20239   1.610   0.419   2.554
 6447SOL    HW120240   1.663   0.437   2.637
 6447SOL    HW220241   1.595   0.505   2.505
 6448SOL     OW20242   5.480   2.353   3.316
 6448SOL    HW120243   5.436   2.292   3.250
 6448SOL    HW220244   5.554   2.305   3.362
 6449SOL     OW20245   3.245   3.320   0.656
 6449SOL    HW120246   3.202   3.233   0.633
 6449SOL    HW220247   3.328   3.304   0.709
 6450SOL     OW20248   6.182   3.321   0.832
 6450SOL    HW120249   6.178   3.380   0.913
 6450SOL    HW220250   6.207   3.376   0.752
 6451SOL     OW20251   2.871   6.059   5.170
 6451SOL    HW120252   2.913   5.971   5.189
 6451SOL    HW220253   2.792   6.046   5.110
 6452SOL     OW20254   3.440   6.497   3.916
 6452SOL    HW120255   3.428   6.588   3.956
 6452SOL    HW220256   3.515   6.499   3.850
 6453SOL     OW20257   1.745   5.917   6.258
 6453SOL    HW120258   1.803   5.841   6.230
 6453SOL    HW220259   1.783   5.960   6.340
 6454SOL     OW20260   3.328   1.353   4.437
 6454SOL    HW120261   3.356   1.429   4.496
 6454SOL    HW220262   3.253   1.304   4.480
 6455SOL     OW20263   5.797   2.668   5.197
 6455SOL    HW120264   5.730   2.597   5.174
 6455SOL    HW220265   5.889   2.632   5.184
 6456SOL     OW20266   0.190   0.250   3.342
 6456SOL    HW120267   0.231   0.331   3.383
 6456SOL    HW220268   0.233   0.232   3.253
 6457SOL     OW20269   6.501   2.573   0.597
 6457SOL    HW120270   6.600   2.569   0.581
 6457SOL    HW220271   6.484   2.596   0.693
 6458SOL     OW20272   1.542   5.725   3.034
 6458SOL    HW120273   1.471   5.658   3.014
 6458SOL    HW220274   1.628   5.678   3.053
 6459SOL     OW20275   5.266   4.512   6.657
 6459SOL    HW120276   5.257   4.610   6.671
 6459SOL    HW220277   5.178   4.467   6.676
 6460SOL     OW20278   3.499   4.913   6.436
 6460SOL    HW120279   3.435   4.841   6.408
 6460SOL    HW220280   3.465   5.001   6.403
 6461SOL     OW20281   3.697   4.916   4.705
 6461SOL    HW120282   3.660   5.008   4.696
 6461SOL    HW220283   3.688   4.886   4.800
 6462SOL     OW20284   2.105   3.743   4.623
 6462SOL    HW120285   2.106   3.648   4.655
 6462SOL    HW220286   2.125   3.804   4.700
 6463SOL     OW20287   1.727   3.950   6.159
 6463SOL    HW120288   1.733   3.956   6.059
 6463SOL    HW220289   1.806   3.902   6.194
 6464SOL     OW20290   0.503   5.719   2.779
 6464SOL    HW120291   0.546   5.647   2.726
 6464SOL    HW220292   0.409   5.732   2.749
 6465SOL     OW20293   6.641   1.392   3.348
 6465SOL    HW120294   6.710   1.320   3.349
 6465SOL    HW220295   6.554   1.355   3.316
 6466SOL     OW20296   0.028   2.449   5.037
 6466SOL    HW120297   7.019   2.398   4.958
 6466SOL    HW220298   0.033   2.546   5.013
 6467SOL     OW20299   2.549   1.002   6.363
 6467SOL    HW120300   2.570   1.087   6.411
 6467SOL    HW220301   2.485   1.022   6.288
 6468SOL     OW20302   5.139   5.602   0.879
 6468SOL    HW120303   5.062   5.633   0.823
 6468SOL    HW220304   5.104   5.567   0.966
 6469SOL     OW20305   6.816   1.028   5.420
 6469SOL    HW120306   6.804   0.999   5.325
 6469SOL    HW220307   6.856   1.120   5.422
 6470SOL     OW20308   6.304   6.898   5.999
 6470SOL    HW120309   6.239   6.880   5.925
 6470SOL    HW220310   6.254   6.927   6.081
 6471SOL     OW20311   5.922   4.985   6.139
 6471SOL    HW120312   6.011   4.942   6.152
 6471SOL    HW220313   5.924   5.038   6.054
 6472SOL     OW20314   0.873   6.048   1.942
 6472SOL    HW120315   0.925   6.110   2.001
 6472SOL    HW220316   0.785   6.027   1.985
 6473SOL     OW20317   2.015   1.977   6.574
 6473SOL    HW120318   2.021   1.881   6.600
 6473SOL    HW220319   1.954   1.987   6.496
 6474SOL     OW20320   1.653   3.146   5.063
 6474SOL    HW120321   1.588   3.216   5.093
 6474SOL    HW220322   1.720   3.129   5.136
 6475SOL     OW20323   3.973   6.247   4.144
 6475SOL    HW120324   3.912   6.261   4.066
 6475SOL    HW220325   3.949   6.311   4.217
 6476SOL     OW20326   4.426   4.873   2.496
 6476SOL    HW120327   4.405   4.969   2.517
 6476SOL    HW220328   4.520   4.867   2.462
 6477SOL     OW20329   6.904   5.658   0.286
 6477SOL    HW120330   6.833   5.652   0.356
 6477SOL    HW220331   6.992   5.676   0.329
 6478SOL     OW20332   5.108   6.632   1.320
 6478SOL    HW120333   5.196   6.678   1.329
 6478SOL    HW220334   5.116   6.559   1.251
 6479SOL     OW20335   4.049   5.212   2.255
 6479SOL    HW120336   4.006   5.171   2.335
 6479SOL    HW220337   3.987   5.278   2.213
 6480SOL     OW20338   2.889   2.438   0.393
 6480SOL    HW120339   2.984   2.409   0.393
 6480SOL    HW220340   2.882   2.532   0.429
 6481SOL     OW20341   4.397   0.808   1.437
 6481SOL    HW120342   4.364   0.746   1.366
 6481SOL    HW220343   4.369   0.901   1.415
 6482SOL     OW20344   6.829   0.091   6.606
 6482SOL    HW120345   6.884   0.008   6.596
 6482SOL    HW220346   6.881   0.170   6.577
 6483SOL     OW20347   1.187   6.779   2.759
 6483SOL    HW120348   1.110   6.842   2.769
 6483SOL    HW220349   1.170   6.697   2.814
 6484SOL     OW20350   4.758   6.748   3.569
 6484SOL    HW120351   4.674   6.705   3.602
 6484SOL    HW220352   4.736   6.833   3.521
 6485SOL     OW20353   1.879   2.266   3.228
 6485SOL    HW120354   1.947   2.315   3.174
 6485SOL    HW220355   1.902   2.168   3.230
 6486SOL     OW20356   1.651   3.347   3.540
 6486SOL    HW120357   1.714   3.405   3.488
 6486SOL    HW220358   1.690   3.326   3.629
 6487SOL     OW20359   5.693   6.438   4.007
 6487SOL    HW120360   5.616   6.376   4.017
 6487SOL    HW220361   5.765   6.393   3.954
 6488SOL     OW20362   3.289   5.398   5.715
 6488SOL    HW120363   3.257   5.455   5.640
 6488SOL    HW220364   3.266   5.441   5.802
 6489SOL     OW20365   2.039   1.958   5.358
 6489SOL    HW120366   2.114   1.901   5.392
 6489SOL    HW220367   2.003   2.014   5.433
 6490SOL     OW20368   3.599   1.485   0.480
 6490SOL    HW120369   3.647   1.570   0.502
 6490SOL    HW220370   3.613   1.419   0.553
 6491SOL     OW20371   4.037   1.997   6.938
 6491SOL    HW120372   4.020   2.017   6.841
 6491SOL    HW220373   3.971   1.928   6.969
 6492SOL     OW20374   6.133   6.033   0.146
 6492SOL    HW120375   6.162   5.939   0.161
 6492SOL    HW220376   6.181   6.070   0.066
 6493SOL     OW20377   1.227   6.546   6.147
 6493SOL    HW120378   1.131   6.528   6.124
 6493SOL    HW220379   1.232   6.622   6.212
 6494SOL     OW20380   1.026   0.561   3.494
 6494SOL    HW120381   1.100   0.548   3.559
 6494SOL    HW220382   1.003   0.658   3.488
 6495SOL     OW20383   5.663   4.979   2.926
 6495SOL    HW120384   5.587   4.979   2.991
 6495SOL    HW220385   5.633   4.939   2.840
 6496SOL     OW20386   0.784   0.170   2.535
 6496SOL    HW120387   0.724   0.093   2.556
 6496SOL    HW220388   0.879   0.139   2.534
 6497SOL     OW20389   1.599   4.166   0.249
 6497SOL    HW120390   1.529   4.152   0.179
 6497SOL    HW220391   1.606   4.264   0.269
 6498SOL     OW20392   2.366   4.536   3.835
 6498SOL    HW120393   2.375   4.469   3.761
 6498SOL    HW220394   2.298   4.605   3.810
 6499SOL     OW20395   5.549   1.204   3.724
 6499SOL    HW120396   5.533   1.237   3.631
 6499SOL    HW220397   5.609   1.268   3.772
 6500SOL     OW20398   4.813   4.704   3.722
 6500SOL    HW120399   4.832   4.607   3.737
 6500SOL    HW220400   4.893   4.749   3.683
 6501SOL     OW20401   6.527   4.042   1.246
 6501SOL    HW120402   6.538   4.122   1.186
 6501SOL    HW220403   6.439   3.998   1.225
 6502SOL     OW20404   0.989   5.281   2.953
 6502SOL    HW120405   0.953   5.188   2.952
 6502SOL    HW220406   0.979   5.320   3.045
 6503SOL     OW20407   4.585   6.713   4.525
 6503SOL    HW120408   4.602   6.811   4.526
 6503SOL    HW220409   4.519   6.689   4.596
 6504SOL     OW20410   2.998   1.013   0.593
 6504SOL    HW120411   3.085   1.008   0.642
 6504SOL    HW220412   2.940   0.936   0.620
 6505SOL     OW20413   6.100   4.914   1.249
 6505SOL    HW120414   6.117   4.841   1.316
 6505SOL    HW220415   6.132   5.001   1.287
 6506SOL     OW20416   2.304   2.788   1.112
 6506SOL    HW120417   2.379   2.726   1.088
 6506SOL    HW220418   2.283   2.779   1.209
 6507SOL     OW20419   2.075   6.978   1.714
 6507SOL    HW120420   1.985   6.953   1.748
 6507SOL    HW220421   2.074   0.046   1.681
 6508SOL     OW20422   2.642   2.102   3.015
 6508SOL    HW120423   2.577   2.130   2.944
 6508SOL    HW220424   2.591   2.072   3.096
 6509SOL     OW20425   0.641   2.815   4.319
 6509SOL    HW120426   0.587   2.872   4.381
 6509SOL    HW220427   0.735   2.809   4.352
 6510SOL     OW20428   6.189   4.629   6.297
 6510SOL    HW120429   6.164   4.576   6.379
 6510SOL    HW220430   6.272   4.591   6.258
 6511SOL     OW20431   6.446   6.267   6.583
 6511SOL    HW120432   6.417   6.180   6.544
 6511SOL    HW220433   6.529   6.254   6.637
 6512SOL     OW20434   4.792   6.457   3.806
 6512SOL    HW120435   4.829   6.527   3.867
 6512SOL    HW220436   4.700   6.483   3.777
 6513SOL     OW20437   3.710   6.471   2.482
 6513SOL    HW120438   3.652   6.498   2.405
 6513SOL    HW220439   3.752   6.552   2.523
 6514SOL     OW20440   3.919   0.073   4.177
 6514SOL    HW120441   4.015   0.053   4.155
 6514SOL    HW220442   3.891   0.156   4.128
 6515SOL     OW20443   0.589   0.248   5.067
 6515SOL    HW120444   0.642   0.332   5.053
 6515SOL    HW220445   0.560   0.212   4.978
 6516SOL     OW20446   0.768   1.561   5.426
 6516SOL    HW120447   0.828   1.501   5.373
 6516SOL    HW220448   0.722   1.507   5.497
 6517SOL     OW20449   1.075   1.433   0.051
 6517SOL    HW120450   1.060   1.520   0.004
 6517SOL    HW220451   1.127   1.372   7.019
 6518SOL     OW20452   6.479   6.574   1.424
 6518SOL    HW120453   6.431   6.541   1.506
 6518SOL    HW220454   6.413   6.581   1.349
 6519SOL     OW20455   1.969   2.154   4.278
 6519SOL    HW120456   1.925   2.072   4.242
 6519SOL    HW220457   1.932   2.234   4.232
 6520SOL     OW20458   5.708   5.635   1.626
 6520SOL    HW120459   5.715   5.640   1.726
 6520SOL    HW220460   5.612   5.632   1.600
 6521SOL     OW20461   0.089   1.576   5.317
 6521SOL    HW120462   0.189   1.579   5.323
 6521SOL    HW220463   0.057   1.650   5.258
 6522SOL     OW20464   2.447   5.455   6.152
 6522SOL    HW120465   2.541   5.425   6.166
 6522SOL    HW220466   2.428   5.457   6.054
 6523SOL     OW20467   2.202   2.068   6.181
 6523SOL    HW120468   2.248   2.091   6.267
 6523SOL    HW220469   2.262   2.009   6.126
 6524SOL     OW20470   3.971   3.416   3.468
 6524SOL    HW120471   3.969   3.450   3.374
 6524SOL    HW220472   4.016   3.327   3.471
 6525SOL     OW20473   0.604   2.742   3.732
 6525SOL    HW120474   0.559   2.724   3.644
 6525SOL    HW220475   0.633   2.838   3.735
 6526SOL     OW20476   1.200   6.284   5.174
 6526SOL    HW120477   1.163   6.337   5.098
 6526SOL    HW220478   1.282   6.235   5.143
 6527SOL     OW20479   1.271   0.105   4.690
 6527SOL    HW120480   1.219   0.188   4.669
 6527SOL    HW220481   1.220   0.050   4.756
 6528SOL     OW20482   0.032   1.333   4.522
 6528SOL    HW120483   6.998   1.303   4.596
 6528SOL    HW220484   0.060   1.254   4.468
 6529SOL     OW20485   7.016   1.643   1.736
 6529SOL    HW120486   0.000   1.564   1.676
 6529SOL    HW220487   0.080   1.675   1.764
 6530SOL     OW20488   0.178   1.599   0.542
 6530SOL    HW120489   0.154   1.535   0.615
 6530SOL    HW220490   0.277   1.610   0.539
 6531SOL     OW20491   4.731   2.806   4.332
 6531SOL    HW120492   4.691   2.790   4.422
 6531SOL    HW220493   4.766   2.900   4.327
 6532SOL     OW20494   6.926   1.682   6.299
 6532SOL    HW120495   6.892   1.616   6.365
 6532SOL    HW220496   7.004   1.731   6.338
 6533SOL     OW20497   4.670   0.130   1.281
 6533SOL    HW120498   4.663   0.178   1.194
 6533SOL    HW220499   4.757   0.153   1.325
 6534SOL     OW20500   2.066   3.861   1.169
 6534SOL    HW120501   2.044   3.958   1.178
 6534SOL    HW220502   2.122   3.847   1.088
 6535SOL     OW20503   0.704   3.747   5.433
 6535SOL    HW120504   0.715   3.724   5.530
 6535SOL    HW220505   0.626   3.808   5.422
 6536SOL     OW20506   6.030   1.972   0.197
 6536SOL    HW120507   6.102   2.026   0.242
 6536SOL    HW220508   6.053   1.875   0.204
 6537SOL     OW20509   0.772   0.020   0.151
 6537SOL    HW120510   0.763   0.017   0.052
 6537SOL    HW220511   0.751   0.113   0.183
 6538SOL     OW20512   2.994   2.870   6.966
 6538SOL    HW120513   3.092   2.872   6.946
 6538SOL    HW220514   2.954   2.959   6.948
 6539SOL     OW20515   2.381   1.719   6.975
 6539SOL    HW120516   2.364   1.622   6.957
 6539SOL    HW220517   2.428   1.760   6.896
 6540SOL     OW20518   2.687   1.608   4.948
 6540SOL    HW120519   2.682   1.707   4.932
 6540SOL    HW220520   2.599   1.566   4.924
 6541SOL     OW20521   2.370   2.602   6.085
 6541SOL    HW120522   2.286   2.642   6.049
 6541SOL    HW220523   2.414   2.547   6.014
 6542SOL     OW20524   5.988   4.051   3.932
 6542SOL    HW120525   5.895   4.054   3.969
 6542SOL    HW220526   5.993   3.983   3.859
 6543SOL     OW20527   6.595   5.930   6.729
 6543SOL    HW120528   6.508   5.963   6.766
 6543SOL    HW220529   6.644   6.006   6.686
 6544SOL     OW20530   6.201   6.658   4.314
 6544SOL    HW120531   6.298   6.637   4.308
 6544SOL    HW220532   6.150   6.574   4.336
 6545SOL     OW20533   5.009   1.657   5.566
 6545SOL    HW120534   4.963   1.671   5.654
 6545SOL    HW220535   5.028   1.745   5.523
 6546SOL     OW20536   3.150   4.624   6.102
 6546SOL    HW120537   3.099   4.666   6.177
 6546SOL    HW220538   3.248   4.633   6.118
 6547SOL     OW20539   4.989   2.096   6.921
 6547SOL    HW120540   4.981   2.169   6.853
 6547SOL    HW220541   4.928   2.115   6.998
 6548SOL     OW20542   7.021   4.855   5.647
 6548SOL    HW120543   0.092   4.837   5.664
 6548SOL    HW220544   7.010   4.948   5.611
 6549SOL     OW20545   3.370   1.962   0.841
 6549SOL    HW120546   3.404   1.979   0.933
 6549SOL    HW220547   3.367   2.048   0.790
 6550SOL     OW20548   0.631   5.840   3.317
 6550SOL    HW120549   0.718   5.827   3.364
 6550SOL    HW220550   0.647   5.890   3.231
 6551SOL     OW20551   2.096   4.927   1.910
 6551SOL    HW120552   2.052   4.914   1.999
 6551SOL    HW220553   2.172   4.991   1.920
 6552SOL     OW20554   3.337   5.234   5.461
 6552SOL    HW120555   3.364   5.325   5.430
 6552SOL    HW220556   3.309   5.240   5.557
 6553SOL     OW20557   0.958   3.265   2.652
 6553SOL    HW120558   0.949   3.174   2.612
 6553SOL    HW220559   0.972   3.257   2.750
 6554SOL     OW20560   6.820   2.473   5.454
 6554SOL    HW120561   6.917   2.495   5.443
 6554SOL    HW220562   6.773   2.550   5.496
 6555SOL     OW20563   0.656   1.122   1.915
 6555SOL    HW120564   0.706   1.192   1.865
 6555SOL    HW220565   0.671   1.133   2.013
 6556SOL     OW20566   3.908   5.968   4.800
 6556SOL    HW120567   3.893   6.018   4.714
 6556SOL    HW220568   3.874   6.022   4.876
 6557SOL     OW20569   6.729   5.051   0.938
 6557SOL    HW120570   6.702   5.144   0.963
 6557SOL    HW220571   6.797   5.017   1.003
 6558SOL     OW20572   6.438   5.617   6.723
 6558SOL    HW120573   6.408   5.705   6.761
 6558SOL    HW220574   6.513   5.581   6.778
 6559SOL     OW20575   3.991   3.736   0.630
 6559SOL    HW120576   4.058   3.683   0.682
 6559SOL    HW220577   3.918   3.768   0.690
 6560SOL     OW20578   3.981   2.287   0.327
 6560SOL    HW120579   4.007   2.221   0.256
 6560SOL    HW220580   4.061   2.310   0.382
 6561SOL     OW20581   3.898   3.159   3.260
 6561SOL    HW120582   3.959   3.200   3.192
 6561SOL    HW220583   3.942   3.163   3.350
 6562SOL     OW20584   6.441   3.842   6.352
 6562SOL    HW120585   6.488   3.823   6.265
 6562SOL    HW220586   6.351   3.881   6.333
 6563SOL     OW20587   1.093   5.386   2.105
 6563SOL    HW120588   1.059   5.374   2.198
 6563SOL    HW220589   1.027   5.438   2.052
 6564SOL     OW20590   1.014   5.089   2.046
 6564SOL    HW120591   1.057   5.178   2.063
 6564SOL    HW220592   0.983   5.050   2.132
 6565SOL     OW20593   6.612   2.767   6.087
 6565SOL    HW120594   6.628   2.799   6.181
 6565SOL    HW220595   6.603   2.667   6.087
 6566SOL     OW20596   3.486   6.710   1.073
 6566SOL    HW120597   3.443   6.631   1.031
 6566SOL    HW220598   3.466   6.711   1.172
 6567SOL     OW20599   5.468   2.673   1.747
 6567SOL    HW120600   5.474   2.682   1.648
 6567SOL    HW220601   5.517   2.590   1.776
 6568SOL     OW20602   4.028   4.136   1.380
 6568SOL    HW120603   3.950   4.152   1.320
 6568SOL    HW220604   4.111   4.129   1.325
 6569SOL     OW20605   1.023   4.514   6.827
 6569SOL    HW120606   1.100   4.451   6.839
 6569SOL    HW220607   1.046   4.581   6.756
 6570SOL     OW20608   5.843   2.293   1.483
 6570SOL    HW120609   5.860   2.288   1.581
 6570SOL    HW220610   5.819   2.387   1.458
 6571SOL     OW20611   2.701   5.751   3.390
 6571SOL    HW120612   2.654   5.734   3.303
 6571SOL    HW220613   2.777   5.814   3.375
 6572SOL     OW20614   0.783   4.394   5.789
 6572SOL    HW120615   0.864   4.397   5.730
 6572SOL    HW220616   0.703   4.420   5.736
 6573SOL     OW20617   2.131   1.276   2.406
 6573SOL    HW120618   2.062   1.295   2.336
 6573SOL    HW220619   2.123   1.344   2.479
 6574SOL     OW20620   3.040   4.856   3.084
 6574SOL    HW120621   3.139   4.842   3.080
 6574SOL    HW220622   3.005   4.819   3.170
 6575SOL     OW20623   0.753   1.848   2.777
 6575SOL    HW120624   0.676   1.797   2.815
 6575SOL    HW220625   0.758   1.834   2.678
 6576SOL     OW20626   1.102   5.972   6.508
 6576SOL    HW120627   1.022   5.928   6.467
 6576SOL    HW220628   1.127   6.052   6.454
 6577SOL     OW20629   6.602   2.387   3.531
 6577SOL    HW120630   6.599   2.310   3.594
 6577SOL    HW220631   6.641   2.358   3.444
 6578SOL     OW20632   6.378   4.894   3.902
 6578SOL    HW120633   6.282   4.866   3.896
 6578SOL    HW220634   6.423   4.878   3.815
 6579SOL     OW20635   6.943   4.024   3.138
 6579SOL    HW120636   6.967   4.121   3.141
 6579SOL    HW220637   6.877   4.003   3.209
 6580SOL     OW20638   6.156   2.240   2.079
 6580SOL    HW120639   6.165   2.257   1.981
 6580SOL    HW220640   6.178   2.144   2.099
 6581SOL     OW20641   2.922   1.697   6.657
 6581SOL    HW120642   3.020   1.715   6.650
 6581SOL    HW220643   2.876   1.777   6.694
 6582SOL     OW20644   6.264   0.298   2.909
 6582SOL    HW120645   6.270   0.253   2.820
 6582SOL    HW220646   6.194   0.370   2.906
 6583SOL     OW20647   5.354   1.347   5.871
 6583SOL    HW120648   5.391   1.300   5.791
 6583SOL    HW220649   5.419   1.340   5.947
 6584SOL     OW20650   6.029   1.679   6.438
 6584SOL    HW120651   5.976   1.642   6.514
 6584SOL    HW220652   6.123   1.695   6.468
 6585SOL     OW20653   1.242   1.375   6.848
 6585SOL    HW120654   1.190   1.458   6.828
 6585SOL    HW220655   1.336   1.398   6.870
 6586SOL     OW20656   6.507   2.208   5.997
 6586SOL    HW120657   6.432   2.150   5.965
 6586SOL    HW220658   6.491   2.235   6.091
 6587SOL     OW20659   2.268   6.635   3.235
 6587SOL    HW120660   2.176   6.596   3.235
 6587SOL    HW220661   2.335   6.562   3.227
 6588SOL     OW20662   1.217   3.049   0.364
 6588SOL    HW120663   1.246   2.953   0.356
 6588SOL    HW220664   1.148   3.069   0.296
 6589SOL     OW20665   4.187   1.577   5.697
 6589SOL    HW120666   4.148   1.539   5.613
 6589SOL    HW220667   4.120   1.639   5.739
 6590SOL     OW20668   6.988   1.289   5.273
 6590SOL    HW120669   6.937   1.334   5.199
 6590SOL    HW220670   6.988   1.349   5.353
 6591SOL     OW20671   5.880   0.965   3.073
 6591SOL    HW120672   5.853   0.869   3.058
 6591SOL    HW220673   5.978   0.970   3.090
 6592SOL     OW20674   4.828   5.556   4.866
 6592SOL    HW120675   4.780   5.473   4.838
 6592SOL    HW220676   4.767   5.613   4.922
 6593SOL     OW20677   3.362   1.541   2.219
 6593SOL    HW120678   3.372   1.627   2.269
 6593SOL    HW220679   3.342   1.560   2.123
 6594SOL     OW20680   5.542   7.022   6.747
 6594SOL    HW120681   5.568   0.008   6.651
 6594SOL    HW220682   5.546   0.084   6.794
 6595SOL     OW20683   1.666   3.554   1.274
 6595SOL    HW120684   1.587   3.594   1.319
 6595SOL    HW220685   1.700   3.617   1.204
 6596SOL     OW20686   4.156   6.897   5.373
 6596SOL    HW120687   4.226   6.831   5.346
 6596SOL    HW220688   4.132   6.954   5.295
 6597SOL     OW20689   0.586   5.194   5.093
 6597SOL    HW120690   0.524   5.136   5.039
 6597SOL    HW220691   0.555   5.289   5.087
 6598SOL     OW20692   1.761   5.756   5.442
 6598SOL    HW120693   1.841   5.814   5.426
 6598SOL    HW220694   1.791   5.663   5.465
 6599SOL     OW20695   4.214   4.469   5.593
 6599SOL    HW120696   4.220   4.432   5.685
 6599SOL    HW220697   4.140   4.537   5.589
 6600SOL     OW20698   4.679   5.858   3.929
 6600SOL    HW120699   4.619   5.895   3.858
 6600SOL    HW220700   4.767   5.907   3.927
 6601SOL     OW20701   0.534   0.176   0.079
 6601SOL    HW120702   0.542   0.127   7.018
 6601SOL    HW220703   0.438   0.182   0.105
 6602SOL     OW20704   6.561   1.655   1.609
 6602SOL    HW120705   6.612   1.741   1.617
 6602SOL    HW220706   6.622   1.578   1.626
 6603SOL     OW20707   2.188   3.697   3.196
 6603SOL    HW120708   2.226   3.753   3.269
 6603SOL    HW220709   2.182   3.750   3.112
 6604SOL     OW20710   3.325   5.649   2.316
 6604SOL    HW120711   3.385   5.615   2.244
 6604SOL    HW220712   3.349   5.606   2.403
 6605SOL     OW20713   5.875   5.776   0.116
 6605SOL    HW120714   5.969   5.769   0.149
 6605SOL    HW220715   5.825   5.840   0.174
 6606SOL     OW20716   5.111   1.140   2.544
 6606SOL    HW120717   5.131   1.167   2.450
 6606SOL    HW220718   5.160   1.055   2.565
 6607SOL     OW20719   1.451   1.875   2.328
 6607SOL    HW120720   1.400   1.831   2.402
 6607SOL    HW220721   1.387   1.907   2.258
 6608SOL     OW20722   5.992   3.442   3.982
 6608SOL    HW120723   5.949   3.474   4.066
 6608SOL    HW220724   5.991   3.515   3.914
 6609SOL     OW20725   5.724   1.550   6.143
 6609SOL    HW120726   5.661   1.502   6.205
 6609SOL    HW220727   5.685   1.638   6.119
 6610SOL     OW20728   1.964   0.638   6.801
 6610SOL    HW120729   1.907   0.562   6.830
 6610SOL    HW220730   1.956   0.713   6.867
 6611SOL     OW20731   5.876   2.373   2.567
 6611SOL    HW120732   5.859   2.333   2.657
 6611SOL    HW220733   5.796   2.357   2.508
 6612SOL     OW20734   1.834   6.350   6.776
 6612SOL    HW120735   1.904   6.420   6.787
 6612SOL    HW220736   1.799   6.351   6.682
 6613SOL     OW20737   5.224   4.832   1.673
 6613SOL    HW120738   5.202   4.827   1.771
 6613SOL    HW220739   5.139   4.830   1.620
 6614SOL     OW20740   4.807   5.741   6.437
 6614SOL    HW120741   4.738   5.734   6.508
 6614SOL    HW220742   4.781   5.683   6.360
 6615SOL     OW20743   0.885   3.918   5.313
 6615SOL    HW120744   0.854   4.013   5.319
 6615SOL    HW220745   0.826   3.860   5.369
 6616SOL     OW20746   4.959   0.399   4.704
 6616SOL    HW120747   5.050   0.385   4.665
 6616SOL    HW220748   4.953   0.350   4.791
 6617SOL     OW20749   4.035   0.220   5.540
 6617SOL    HW120750   4.082   0.250   5.623
 6617SOL    HW220751   4.091   0.243   5.460
 6618SOL     OW20752   0.925   4.412   1.308
 6618SOL    HW120753   0.853   4.343   1.305
 6618SOL    HW220754   0.892   4.494   1.355
 6619SOL     OW20755   5.028   5.692   2.389
 6619SOL    HW120756   4.994   5.632   2.316
 6619SOL    HW220757   4.955   5.708   2.455
 6620SOL     OW20758   1.717   2.723   5.398
 6620SOL    HW120759   1.671   2.663   5.463
 6620SOL    HW220760   1.675   2.814   5.401
 6621SOL     OW20761   2.738   4.099   0.307
 6621SOL    HW120762   2.650   4.131   0.341
 6621SOL    HW220763   2.764   4.153   0.227
 6622SOL     OW20764   6.801   6.156   0.388
 6622SOL    HW120765   6.817   6.071   0.338
 6622SOL    HW220766   6.730   6.209   0.341
 6623SOL     OW20767   3.269   3.382   2.412
 6623SOL    HW120768   3.245   3.475   2.383
 6623SOL    HW220769   3.278   3.379   2.512
 6624SOL     OW20770   4.205   4.912   4.359
 6624SOL    HW120771   4.155   4.835   4.398
 6624SOL    HW220772   4.236   4.973   4.432
 6625SOL     OW20773   6.122   0.545   0.263
 6625SOL    HW120774   6.148   0.611   0.191
 6625SOL    HW220775   6.028   0.565   0.293
 6626SOL     OW20776   3.855   5.342   3.796
 6626SOL    HW120777   3.869   5.420   3.856
 6626SOL    HW220778   3.801   5.369   3.717
 6627SOL     OW20779   2.055   6.689   1.172
 6627SOL    HW120780   2.066   6.744   1.254
 6627SOL    HW220781   1.970   6.637   1.178
 6628SOL     OW20782   4.175   5.662   3.295
 6628SOL    HW120783   4.164   5.759   3.314
 6628SOL    HW220784   4.260   5.629   3.337
 6629SOL     OW20785   3.144   5.124   0.704
 6629SOL    HW120786   3.048   5.152   0.697
 6629SOL    HW220787   3.192   5.152   0.621
 6630SOL     OW20788   3.300   1.780   0.265
 6630SOL    HW120789   3.301   1.682   0.284
 6630SOL    HW220790   3.289   1.830   0.351
 6631SOL     OW20791   5.371   0.876   1.962
 6631SOL    HW120792   5.371   0.780   1.934
 6631SOL    HW220793   5.347   0.883   2.058
 6632SOL     OW20794   0.146   1.389   1.394
 6632SOL    HW120795   0.209   1.332   1.446
 6632SOL    HW220796   0.191   1.423   1.311
 6633SOL     OW20797   1.086   6.730   1.054
 6633SOL    HW120798   1.018   6.658   1.069
 6633SOL    HW220799   1.130   6.753   1.140
 6634SOL     OW20800   7.010   2.861   6.298
 6634SOL    HW120801   6.964   2.940   6.258
 6634SOL    HW220802   6.945   2.786   6.309
 6635SOL     OW20803   4.532   4.587   3.297
 6635SOL    HW120804   4.487   4.587   3.208
 6635SOL    HW220805   4.602   4.658   3.300
 6636SOL     OW20806   2.135   2.646   4.137
 6636SOL    HW120807   2.202   2.572   4.122
 6636SOL    HW220808   2.176   2.733   4.111
 6637SOL     OW20809   6.993   0.342   1.009
 6637SOL    HW120810   0.045   0.404   1.005
 6637SOL    HW220811   7.009   0.274   1.080
 6638SOL     OW20812   2.463   5.866   5.703
 6638SOL    HW120813   2.390   5.909   5.648
 6638SOL    HW220814   2.466   5.768   5.683
 6639SOL     OW20815   5.638   5.431   6.846
 6639SOL    HW120816   5.728   5.455   6.883
 6639SOL    HW220817   5.567   5.463   6.909
 6640SOL     OW20818   5.964   2.626   3.155
 6640SOL    HW120819   5.927   2.535   3.133
 6640SOL    HW220820   6.008   2.623   3.244
 6641SOL     OW20821   2.167   4.595   6.064
 6641SOL    HW120822   2.090   4.575   6.124
 6641SOL    HW220823   2.245   4.624   6.119
 6642SOL     OW20824   0.566   5.840   0.039
 6642SOL    HW120825   0.593   5.894   6.985
 6642SOL    HW220826   0.643   5.784   0.069
 6643SOL     OW20827   5.036   4.850   6.535
 6643SOL    HW120828   5.101   4.856   6.611
 6643SOL    HW220829   4.959   4.912   6.552
 6644SOL     OW20830   3.058   4.786   2.136
 6644SOL    HW120831   3.155   4.768   2.120
 6644SOL    HW220832   3.003   4.735   2.070
 6645SOL     OW20833   0.543   5.162   5.636
 6645SOL    HW120834   0.588   5.251   5.645
 6645SOL    HW220835   0.580   5.099   5.704
 6646SOL     OW20836   2.526   5.570   4.322
 6646SOL    HW120837   2.625   5.585   4.323
 6646SOL    HW220838   2.485   5.613   4.402
 6647SOL     OW20839   3.225   1.967   1.869
 6647SOL    HW120840   3.152   2.033   1.883
 6647SOL    HW220841   3.295   2.007   1.810
 6648SOL     OW20842   5.089   5.736   1.991
 6648SOL    HW120843   5.093   5.836   1.997
 6648SOL    HW220844   4.994   5.707   1.984
 6649SOL     OW20845   3.762   2.340   6.556
 6649SOL    HW120846   3.710   2.348   6.470
 6649SOL    HW220847   3.842   2.400   6.551
 6650SOL     OW20848   4.006   1.976   3.038
 6650SOL    HW120849   3.949   2.031   2.976
 6650SOL    HW220850   4.088   2.028   3.063
 6651SOL     OW20851   0.561   2.562   6.815
 6651SOL    HW120852   0.607   2.642   6.853
 6651SOL    HW220853   0.593   2.480   6.862
 6652SOL     OW20854   6.926   5.575   2.358
 6652SOL    HW120855   6.882   5.659   2.392
 6652SOL    HW220856   6.858   5.503   2.350
 6653SOL     OW20857   3.495   3.884   4.067
 6653SOL    HW120858   3.399   3.876   4.093
 6653SOL    HW220859   3.502   3.937   3.982
 6654SOL     OW20860   2.290   3.249   1.698
 6654SOL    HW120861   2.297   3.318   1.770
 6654SOL    HW220862   2.361   3.180   1.713
 6655SOL     OW20863   2.663   6.464   2.268
 6655SOL    HW120864   2.587   6.462   2.202
 6655SOL    HW220865   2.745   6.426   2.225
 6656SOL     OW20866   6.645   2.574   1.290
 6656SOL    HW120867   6.552   2.608   1.277
 6656SOL    HW220868   6.682   2.611   1.375
 6657SOL     OW20869   3.194   6.232   6.384
 6657SOL    HW120870   3.170   6.242   6.287
 6657SOL    HW220871   3.293   6.229   6.394
 6658SOL     OW20872   5.288   1.095   5.167
 6658SOL    HW120873   5.263   1.061   5.258
 6658SOL    HW220874   5.288   1.195   5.167
 6659SOL     OW20875   2.077   2.818   6.907
 6659SOL    HW120876   2.116   2.902   6.869
 6659SOL    HW220877   2.102   2.812   7.004
 6660SOL     OW20878   6.949   6.764   2.992
 6660SOL    HW120879   0.013   6.792   3.025
 6660SOL    HW220880   6.883   6.837   3.011
 6661SOL     OW20881   0.556   6.178   3.562
 6661SOL    HW120882   0.521   6.085   3.553
 6661SOL    HW220883   0.656   6.178   3.551
 6662SOL     OW20884   1.679   1.923   0.032
 6662SOL    HW120885   1.625   2.004   0.055
 6662SOL    HW220886   1.733   1.941   6.976
 6663SOL     OW20887   0.234   5.832   2.474
 6663SOL    HW120888   0.252   5.929   2.493
 6663SOL    HW220889   0.166   5.826   2.401
 6664SOL     OW20890   1.489   1.108   2.898
 6664SOL    HW120891   1.539   1.166   2.834
 6664SOL    HW220892   1.554   1.049   2.947
 6665SOL     OW20893   2.401   6.845   2.987
 6665SOL    HW120894   2.483   6.796   2.957
 6665SOL    HW220895   2.349   6.788   3.049
 6666SOL     OW20896   6.095   0.405   6.726
 6666SOL    HW120897   6.038   0.350   6.665
 6666SOL    HW220898   6.040   0.476   6.769
 6667SOL     OW20899   6.765   4.529   5.015
 6667SOL    HW120900   6.762   4.516   4.916
 6667SOL    HW220901   6.807   4.449   5.058
 6668SOL     OW20902   0.830   4.776   1.738
 6668SOL    HW120903   0.896   4.848   1.758
 6668SOL    HW220904   0.758   4.777   1.808
 6669SOL     OW20905   1.915   5.856   2.842
 6669SOL    HW120906   2.008   5.838   2.810
 6669SOL    HW220907   1.915   5.861   2.942
 6670SOL     OW20908   3.356   5.000   0.096
 6670SOL    HW120909   3.378   5.043   0.184
 6670SOL    HW220910   3.439   4.960   0.058
 6671SOL     OW20911   6.566   3.224   4.514
 6671SOL    HW120912   6.649   3.240   4.461
 6671SOL    HW220913   6.556   3.294   4.584
 6672SOL     OW20914   1.222   1.270   5.828
 6672SOL    HW120915   1.142   1.280   5.886
 6672SOL    HW220916   1.304   1.292   5.881
 6673SOL     OW20917   4.657   4.600   1.660
 6673SOL    HW120918   4.603   4.567   1.737
 6673SOL    HW220919   4.597   4.622   1.584
 6674SOL     OW20920   0.692   7.020   4.001
 6674SOL    HW120921   0.739   6.933   4.017
 6674SOL    HW220922   0.698   0.050   4.084
 6675SOL     OW20923   6.012   4.794   0.448
 6675SOL    HW120924   5.943   4.787   0.520
 6675SOL    HW220925   5.996   4.723   0.379
 6676SOL     OW20926   0.905   2.335   6.220
 6676SOL    HW120927   0.825   2.386   6.187
 6676SOL    HW220928   0.943   2.281   6.144
 6677SOL     OW20929   0.765   3.157   0.726
 6677SOL    HW120930   0.679   3.205   0.741
 6677SOL    HW220931   0.788   3.103   0.807
 6678SOL     OW20932   0.462   2.799   5.704
 6678SOL    HW120933   0.556   2.816   5.674
 6678SOL    HW220934   0.413   2.750   5.632
 6679SOL     OW20935   2.097   2.172   4.535
 6679SOL    HW120936   2.150   2.257   4.531
 6679SOL    HW220937   2.042   2.163   4.452
 6680SOL     OW20938   3.300   6.667   6.247
 6680SOL    HW120939   3.335   6.577   6.222
 6680SOL    HW220940   3.355   6.705   6.322
 6681SOL     OW20941   5.469   5.063   0.630
 6681SOL    HW120942   5.505   5.153   0.603
 6681SOL    HW220943   5.432   5.069   0.723
 6682SOL     OW20944   0.153   5.624   1.705
 6682SOL    HW120945   0.241   5.576   1.703
 6682SOL    HW220946   0.098   5.592   1.782
 6683SOL     OW20947   5.255   1.756   4.104
 6683SOL    HW120948   5.266   1.737   4.007
 6683SOL    HW220949   5.216   1.676   4.150
 6684SOL     OW20950   2.232   6.732   2.800
 6684SOL    HW120951   2.244   6.633   2.802
 6684SOL    HW220952   2.294   6.774   2.867
 6685SOL     OW20953   5.103   3.512   6.508
 6685SOL    HW120954   5.012   3.482   6.482
 6685SOL    HW220955   5.125   3.476   6.599
 6686SOL     OW20956   6.465   4.009   3.025
 6686SOL    HW120957   6.515   4.021   2.939
 6686SOL    HW220958   6.418   3.921   3.024
 6687SOL     OW20959   1.445   2.319   0.474
 6687SOL    HW120960   1.375   2.253   0.448
 6687SOL    HW220961   1.450   2.325   0.574
 6688SOL     OW20962   0.715   4.600   2.606
 6688SOL    HW120963   0.701   4.618   2.704
 6688SOL    HW220964   0.709   4.501   2.590
 6689SOL     OW20965   4.780   4.854   0.279
 6689SOL    HW120966   4.751   4.780   0.339
 6689SOL    HW220967   4.706   4.921   0.269
 6690SOL     OW20968   1.984   2.480   0.728
 6690SOL    HW120969   2.078   2.453   0.707
 6690SOL    HW220970   1.977   2.580   0.727
 6691SOL     OW20971   2.417   4.610   1.424
 6691SOL    HW120972   2.400   4.666   1.343
 6691SOL    HW220973   2.374   4.653   1.503
 6692SOL     OW20974   3.310   3.812   5.530
 6692SOL    HW120975   3.296   3.850   5.438
 6692SOL    HW220976   3.273   3.875   5.598
 6693SOL     OW20977   4.137   3.488   5.214
 6693SOL    HW120978   4.171   3.447   5.130
 6693SOL    HW220979   4.213   3.529   5.264
 6694SOL     OW20980   3.650   5.846   0.820
 6694SOL    HW120981   3.582   5.825   0.890
 6694SOL    HW220982   3.714   5.770   0.811
 6695SOL     OW20983   1.708   1.656   6.882
 6695SOL    HW120984   1.632   1.643   6.945
 6695SOL    HW220985   1.778   1.713   6.924
 6696SOL     OW20986   1.902   2.964   1.955
 6696SOL    HW120987   1.967   2.926   2.020
 6696SOL    HW220988   1.950   3.020   1.888
 6697SOL     OW20989   4.966   0.948   3.285
 6697SOL    HW120990   4.907   0.938   3.205
 6697SOL    HW220991   4.922   0.907   3.365
 6698SOL     OW20992   3.765   3.438   0.143
 6698SOL    HW120993   3.749   3.507   0.073
 6698SOL    HW220994   3.829   3.474   0.211
 6699SOL     OW20995   1.801   4.397   0.070
 6699SOL    HW120996   1.899   4.391   0.054
 6699SOL    HW220997   1.758   4.309   0.052
 6700SOL     OW20998   0.208   5.480   0.716
 6700SOL    HW120999   0.165   5.394   0.742
 6700SOL    HW221000   0.204   5.491   0.617
 6701SOL     OW21001   0.575   2.222   0.551
 6701SOL    HW121002   0.641   2.292   0.522
 6701SOL    HW221003   0.579   2.213   0.650
 6702SOL     OW21004   2.923   1.842   1.181
 6702SOL    HW121005   2.994   1.891   1.130
 6702SOL    HW221006   2.839   1.839   1.126
 6703SOL     OW21007   0.286   1.746   6.795
 6703SOL    HW121008   0.339   1.665   6.821
 6703SOL    HW221009   0.189   1.722   6.791
 6704SOL     OW21010   5.416   1.582   2.271
 6704SOL    HW121011   5.374   1.566   2.181
 6704SOL    HW221012   5.513   1.560   2.267
 6705SOL     OW21013   5.550   1.625   0.069
 6705SOL    HW121014   5.490   1.695   0.109
 6705SOL    HW221015   5.618   1.669   0.011
 6706SOL     OW21016   0.331   4.367   6.266
 6706SOL    HW121017   0.264   4.296   6.285
 6706SOL    HW221018   0.296   4.455   6.298
 6707SOL     OW21019   1.404   5.944   2.621
 6707SOL    HW121020   1.448   5.864   2.582
 6707SOL    HW221021   1.347   5.917   2.699
 6708SOL     OW21022   1.776   6.104   1.458
 6708SOL    HW121023   1.768   6.042   1.536
 6708SOL    HW221024   1.731   6.191   1.479
 6709SOL     OW21025   4.526   1.185   2.875
 6709SOL    HW121026   4.432   1.215   2.862
 6709SOL    HW221027   4.556   1.134   2.794
 6710SOL     OW21028   3.362   2.402   0.627
 6710SOL    HW121029   3.364   2.494   0.667
 6710SOL    HW221030   3.431   2.394   0.556
 6711SOL     OW21031   4.010   4.495   0.455
 6711SOL    HW121032   4.009   4.395   0.453
 6711SOL    HW221033   4.060   4.526   0.536
 6712SOL     OW21034   3.868   5.765   0.089
 6712SOL    HW121035   3.832   5.776   0.182
 6712SOL    HW221036   3.846   5.845   0.034
 6713SOL     OW21037   1.935   1.956   1.536
 6713SOL    HW121038   2.009   1.919   1.591
 6713SOL    HW221039   1.962   2.044   1.498
 6714SOL     OW21040   5.999   0.874   4.481
 6714SOL    HW121041   5.933   0.831   4.544
 6714SOL    HW221042   5.970   0.858   4.387
 6715SOL     OW21043   0.491   1.259   0.896
 6715SOL    HW121044   0.520   1.163   0.896
 6715SOL    HW221045   0.394   1.265   0.872
 6716SOL     OW21046   2.103   6.347   0.837
 6716SOL    HW121047   2.138   6.391   0.754
 6716SOL    HW221048   2.149   6.386   0.917
 6717SOL     OW21049   3.668   1.585   6.974
 6717SOL    HW121050   3.622   1.636   0.021
 6717SOL    HW221051   3.616   1.595   6.889
 6718SOL     OW21052   3.007   0.263   0.563
 6718SOL    HW121053   3.020   0.317   0.480
 6718SOL    HW221054   3.086   0.274   0.623
 6719SOL     OW21055   6.993   0.131   5.235
 6719SOL    HW121056   6.927   0.057   5.221
 6719SOL    HW221057   0.057   0.101   5.203
 6720SOL     OW21058   2.252   4.669   1.622
 6720SOL    HW121059   2.185   4.605   1.584
 6720SOL    HW221060   2.240   4.674   1.721
 6721SOL     OW21061   5.571   5.908   3.791
 6721SOL    HW121062   5.556   5.998   3.750
 6721SOL    HW221063   5.482   5.868   3.815
 6722SOL     OW21064   4.436   3.417   6.654
 6722SOL    HW121065   4.401   3.389   6.744
 6722SOL    HW221066   4.433   3.339   6.592
 6723SOL     OW21067   4.196   6.013   2.463
 6723SOL    HW121068   4.139   6.001   2.545
 6723SOL    HW221069   4.245   5.928   2.444
 6724SOL     OW21070   3.202   5.253   5.019
 6724SOL    HW121071   3.192   5.229   4.922
 6724SOL    HW221072   3.282   5.206   5.057
 6725SOL     OW21073   0.507   4.323   2.272
 6725SOL    HW121074   0.456   4.408   2.283
 6725SOL    HW221075   0.582   4.338   2.208
 6726SOL     OW21076   2.573   2.020   3.287
 6726SOL    HW121077   2.549   2.115   3.266
 6726SOL    HW221078   2.593   2.011   3.384
 6727SOL     OW21079   4.065   3.623   6.745
 6727SOL    HW121080   4.148   3.665   6.782
 6727SOL    HW221081   4.042   3.667   6.658
 6728SOL     OW21082   4.269   1.453   3.503
 6728SOL    HW121083   4.323   1.511   3.564
 6728SOL    HW221084   4.182   1.497   3.484
 6729SOL     OW21085   5.712   0.441   2.401
 6729SOL    HW121086   5.717   0.480   2.309
 6729SOL    HW221087   5.690   0.514   2.467
 6730SOL     OW21088   2.399   0.797   0.783
 6730SOL    HW121089   2.382   0.731   0.709
 6730SOL    HW221090   2.464   0.866   0.751
 6731SOL     OW21091   2.742   4.772   1.854
 6731SOL    HW121092   2.818   4.719   1.891
 6731SOL    HW221093   2.693   4.816   1.929
 6732SOL     OW21094   2.370   4.843   1.264
 6732SOL    HW121095   2.303   4.851   1.338
 6732SOL    HW221096   2.348   4.908   1.192
 6733SOL     OW21097   5.317   6.016   5.503
 6733SOL    HW121098   5.319   5.948   5.577
 6733SOL    HW221099   5.237   5.999   5.446
 6734SOL     OW21100   2.404   3.568   5.622
 6734SOL    HW121101   2.428   3.518   5.539
 6734SOL    HW221102   2.399   3.505   5.699
 6735SOL     OW21103   0.036   5.354   6.004
 6735SOL    HW121104   0.132   5.351   6.032
 6735SOL    HW221105   7.004   5.324   6.079
 6736SOL     OW21106   2.087   3.924   2.306
 6736SOL    HW121107   2.012   3.986   2.331
 6736SOL    HW221108   2.061   3.873   2.223
 6737SOL     OW21109   2.256   0.847   1.487
 6737SOL    HW121110   2.187   0.777   1.466
 6737SOL    HW221111   2.303   0.874   1.403
 6738SOL     OW21112   3.044   1.513   2.378
 6738SOL    HW121113   3.086   1.424   2.400
 6738SOL    HW221114   3.042   1.570   2.460
 6739SOL     OW21115   3.502   6.297   4.803
 6739SOL    HW121116   3.526   6.278   4.708
 6739SOL    HW221117   3.427   6.237   4.832
 6740SOL     OW21118   0.187   2.196   4.019
 6740SOL    HW121119   0.097   2.223   4.052
 6740SOL    HW221120   0.233   2.139   4.087
 6741SOL     OW21121   6.121   0.156   6.412
 6741SOL    HW121122   6.035   0.191   6.448
 6741SOL    HW221123   6.181   0.131   6.488
 6742SOL     OW21124   6.047   6.207   6.182
 6742SOL    HW121125   5.975   6.212   6.251
 6742SOL    HW221126   6.091   6.297   6.173
 6743SOL     OW21127   4.841   2.851   0.852
 6743SOL    HW121128   4.766   2.806   0.899
 6743SOL    HW221129   4.815   2.945   0.829
 6744SOL     OW21130   4.804   5.103   5.622
 6744SOL    HW121131   4.838   5.022   5.574
 6744SOL    HW221132   4.708   5.117   5.599
 6745SOL     OW21133   6.993   4.455   3.542
 6745SOL    HW121134   6.945   4.517   3.480
 6745SOL    HW221135   0.064   4.478   3.543
 6746SOL     OW21136   0.570   1.500   1.002
 6746SOL    HW121137   0.562   1.400   1.000
 6746SOL    HW221138   0.648   1.526   1.058
 6747SOL     OW21139   5.591   6.556   6.062
 6747SOL    HW121140   5.531   6.582   5.987
 6747SOL    HW221141   5.570   6.462   6.090
 6748SOL     OW21142   0.223   0.401   2.088
 6748SOL    HW121143   0.135   0.374   2.129
 6748SOL    HW221144   0.294   0.337   2.117
 6749SOL     OW21145   3.510   6.149   1.046
 6749SOL    HW121146   3.428   6.192   1.009
 6749SOL    HW221147   3.503   6.050   1.036
 6750SOL     OW21148   2.716   3.289   5.306
 6750SOL    HW121149   2.773   3.250   5.378
 6750SOL    HW221150   2.675   3.216   5.252
 6751SOL     OW21151   3.447   1.893   5.573
 6751SOL    HW121152   3.374   1.902   5.506
 6751SOL    HW221153   3.446   1.972   5.635
 6752SOL     OW21154   6.492   1.585   0.310
 6752SOL    HW121155   6.429   1.611   0.237
 6752SOL    HW221156   6.538   1.666   0.345
 6753SOL     OW21157   5.044   1.981   6.667
 6753SOL    HW121158   5.033   2.020   6.758
 6753SOL    HW221159   5.126   1.923   6.664
 6754SOL     OW21160   5.820   0.642   0.302
 6754SOL    HW121161   5.778   0.556   0.275
 6754SOL    HW221162   5.751   0.714   0.306
 6755SOL     OW21163   4.789   2.213   3.315
 6755SOL    HW121164   4.811   2.244   3.407
 6755SOL    HW221165   4.844   2.133   3.292
 6756SOL     OW21166   5.344   4.533   4.533
 6756SOL    HW121167   5.303   4.471   4.466
 6756SOL    HW221168   5.444   4.533   4.521
 6757SOL     OW21169   5.616   5.241   1.528
 6757SOL    HW121170   5.565   5.156   1.538
 6757SOL    HW221171   5.639   5.256   1.432
 6758SOL     OW21172   5.460   2.570   2.753
 6758SOL    HW121173   5.515   2.643   2.792
 6758SOL    HW221174   5.420   2.516   2.827
 6759SOL     OW21175   0.056   4.759   3.575
 6759SOL    HW121176   0.119   4.718   3.640
 6759SOL    HW221177   7.001   4.793   3.623
 6760SOL     OW21178   0.300   4.083   4.969
 6760SOL    HW121179   0.258   4.155   4.912
 6760SOL    HW221180   0.229   4.019   4.999
 6761SOL     OW21181   5.449   3.406   6.551
 6761SOL    HW121182   5.446   3.466   6.471
 6761SOL    HW221183   5.443   3.461   6.634
 6762SOL     OW21184   5.801   4.843   4.302
 6762SOL    HW121185   5.872   4.860   4.234
 6762SOL    HW221186   5.729   4.912   4.294
 6763SOL     OW21187   5.054   6.592   5.546
 6763SOL    HW121188   5.105   6.670   5.584
 6763SOL    HW221189   5.105   6.508   5.564
 6764SOL     OW21190   2.240   3.811   7.010
 6764SOL    HW121191   2.274   3.832   6.919
 6764SOL    HW221192   2.278   3.875   0.050
 6765SOL     OW21193   5.525   5.266   2.512
 6765SOL    HW121194   5.488   5.306   2.596
 6765SOL    HW221195   5.608   5.315   2.486
 6766SOL     OW21196   1.238   1.293   5.546
 6766SOL    HW121197   1.254   1.276   5.643
 6766SOL    HW221198   1.317   1.262   5.493
 6767SOL     OW21199   0.506   2.132   6.039
 6767SOL    HW121200   0.510   2.214   5.982
 6767SOL    HW221201   0.501   2.159   6.135
 6768SOL     OW21202   0.202   0.313   5.629
 6768SOL    HW121203   0.114   0.269   5.610
 6768SOL    HW221204   0.201   0.349   5.723
 6769SOL     OW21205   2.000   3.365   6.537
 6769SOL    HW121206   1.975   3.329   6.627
 6769SOL    HW221207   1.954   3.311   6.466
 6770SOL     OW21208   0.020   1.792   3.434
 6770SOL    HW121209   0.030   1.758   3.340
 6770SOL    HW221210   0.091   1.752   3.492
 6771SOL     OW21211   4.065   1.093   2.622
 6771SOL    HW121212   4.004   1.172   2.622
 6771SOL    HW221213   4.046   1.036   2.702
 6772SOL     OW21214   0.916   0.883   2.154
 6772SOL    HW121215   0.862   0.967   2.153
 6772SOL    HW221216   0.891   0.828   2.233
 6773SOL     OW21217   1.045   0.018   1.038
 6773SOL    HW121218   1.066   6.949   1.058
 6773SOL    HW221219   1.112   0.054   0.972
 6774SOL     OW21220   2.616   2.032   5.856
 6774SOL    HW121221   2.613   1.965   5.782
 6774SOL    HW221222   2.686   2.101   5.836
 6775SOL     OW21223   0.387   2.916   4.908
 6775SOL    HW121224   0.359   2.821   4.922
 6775SOL    HW221225   0.307   2.975   4.917
 6776SOL     OW21226   3.696   3.774   3.198
 6776SOL    HW121227   3.699   3.873   3.210
 6776SOL    HW221228   3.675   3.731   3.286
 6777SOL     OW21229   0.242   6.355   6.422
 6777SOL    HW121230   0.165   6.413   6.397
 6777SOL    HW221231   0.212   6.286   6.489
 6778SOL     OW21232   5.784   6.271   1.869
 6778SOL    HW121233   5.809   6.276   1.773
 6778SOL    HW221234   5.718   6.343   1.890
 6779SOL     OW21235   5.033   4.369   6.257
 6779SOL    HW121236   5.015   4.274   6.284
 6779SOL    HW221237   5.109   4.406   6.311
 6780SOL     OW21238   3.620   1.679   2.467
 6780SOL    HW121239   3.685   1.694   2.543
 6780SOL    HW221240   3.614   1.763   2.413
 6781SOL     OW21241   6.159   2.012   3.244
 6781SOL    HW121242   6.135   2.107   3.262
 6781SOL    HW221243   6.112   1.953   3.309
 6782SOL     OW21244   6.966   2.095   3.079
 6782SOL    HW121245   6.955   1.998   3.101
 6782SOL    HW221246   6.976   2.147   3.164
 6783SOL     OW21247   0.339   5.777   6.238
 6783SOL    HW121248   0.243   5.763   6.214
 6783SOL    HW221249   0.346   5.820   6.327
 6784SOL     OW21250   1.530   4.146   1.128
 6784SOL    HW121251   1.615   4.188   1.095
 6784SOL    HW221252   1.551   4.057   1.169
 6785SOL     OW21253   5.589   5.186   3.994
 6785SOL    HW121254   5.641   5.256   3.945
 6785SOL    HW221255   5.516   5.230   4.047
 6786SOL     OW21256   5.684   2.167   5.892
 6786SOL    HW121257   5.690   2.191   5.795
 6786SOL    HW221258   5.596   2.123   5.910
 6787SOL     OW21259   3.123   1.983   0.575
 6787SOL    HW121260   3.167   1.922   0.640
 6787SOL    HW221261   3.029   1.951   0.557
 6788SOL     OW21262   0.406   4.485   1.470
 6788SOL    HW121263   0.415   4.550   1.395
 6788SOL    HW221264   0.493   4.477   1.518
 6789SOL     OW21265   5.514   4.731   3.332
 6789SOL    HW121266   5.563   4.803   3.382
 6789SOL    HW221267   5.418   4.757   3.321
 6790SOL     OW21268   0.511   5.082   6.897
 6790SOL    HW121269   0.418   5.112   6.876
 6790SOL    HW221270   0.507   4.993   6.943
 6791SOL     OW21271   2.867   6.526   2.807
 6791SOL    HW121272   2.859   6.459   2.733
 6791SOL    HW221273   2.917   6.606   2.775
 6792SOL     OW21274   4.213   0.041   6.114
 6792SOL    HW121275   4.280   0.104   6.153
 6792SOL    HW221276   4.158   0.001   6.187
 6793SOL     OW21277   2.101   3.654   6.139
 6793SOL    HW121278   2.145   3.739   6.166
 6793SOL    HW221279   2.075   3.659   6.043
 6794SOL     OW21280   6.053   2.368   5.384
 6794SOL    HW121281   6.126   2.416   5.337
 6794SOL    HW221282   6.022   2.422   5.463
 6795SOL     OW21283   1.000   0.934   1.590
 6795SOL    HW121284   1.020   0.999   1.663
 6795SOL    HW221285   1.052   0.960   1.508
 6796SOL     OW21286   6.746   1.750   2.705
 6796SOL    HW121287   6.694   1.800   2.774
 6796SOL    HW221288   6.782   1.665   2.744
 6797SOL     OW21289   1.088   3.128   1.000
 6797SOL    HW121290   1.176   3.144   0.956
 6797SOL    HW221291   1.027   3.081   0.935
 6798SOL     OW21292   5.236   1.096   1.802
 6798SOL    HW121293   5.290   1.032   1.856
 6798SOL    HW221294   5.235   1.186   1.847
 6799SOL     OW21295   6.004   6.770   3.353
 6799SOL    HW121296   6.023   6.672   3.365
 6799SOL    HW221297   5.977   6.786   3.258
 6800SOL     OW21298   6.371   3.350   1.202
 6800SOL    HW121299   6.336   3.275   1.256
 6800SOL    HW221300   6.463   3.374   1.234
 6801SOL     OW21301   0.853   6.525   6.908
 6801SOL    HW121302   0.831   6.429   6.919
 6801SOL    HW221303   0.804   6.579   6.976
 6802SOL     OW21304   3.129   4.682   1.741
 6802SOL    HW121305   3.094   4.772   1.715
 6802SOL    HW221306   3.071   4.643   1.813
 6803SOL     OW21307   4.997   5.447   6.315
 6803SOL    HW121308   5.067   5.508   6.353
 6803SOL    HW221309   4.982   5.470   6.219
 6804SOL     OW21310   3.618   5.274   2.624
 6804SOL    HW121311   3.529   5.318   2.630
 6804SOL    HW221312   3.614   5.182   2.662
 6805SOL     OW21313   0.330   4.240   4.608
 6805SOL    HW121314   0.321   4.336   4.635
 6805SOL    HW221315   0.391   4.232   4.530
 6806SOL     OW21316   6.022   3.293   1.573
 6806SOL    HW121317   6.006   3.196   1.589
 6806SOL    HW221318   6.053   3.307   1.479
 6807SOL     OW21319   3.122   3.974   2.276
 6807SOL    HW121320   3.147   3.877   2.281
 6807SOL    HW221321   3.119   4.003   2.180
 6808SOL     OW21322   3.353   0.762   4.011
 6808SOL    HW121323   3.359   0.761   3.911
 6808SOL    HW221324   3.383   0.851   4.044
 6809SOL     OW21325   5.827   2.842   6.725
 6809SOL    HW121326   5.834   2.818   6.628
 6809SOL    HW221327   5.847   2.940   6.736
 6810SOL     OW21328   3.114   0.607   4.602
 6810SOL    HW121329   3.204   0.611   4.646
 6810SOL    HW221330   3.049   0.563   4.665
 6811SOL     OW21331   6.291   0.728   0.813
 6811SOL    HW121332   6.268   0.719   0.716
 6811SOL    HW221333   6.390   0.718   0.825
 6812SOL     OW21334   3.471   4.793   5.207
 6812SOL    HW121335   3.378   4.782   5.174
 6812SOL    HW221336   3.506   4.704   5.238
 6813SOL     OW21337   0.174   3.568   2.382
 6813SOL    HW121338   0.139   3.500   2.446
 6813SOL    HW221339   0.097   3.618   2.342
 6814SOL     OW21340   6.046   1.067   0.675
 6814SOL    HW121341   5.962   1.053   0.728
 6814SOL    HW221342   6.125   1.065   0.737
 6815SOL     OW21343   0.845   5.709   6.620
 6815SOL    HW121344   0.759   5.665   6.595
 6815SOL    HW221345   0.873   5.676   6.711
 6816SOL     OW21346   6.777   0.186   4.021
 6816SOL    HW121347   6.680   0.202   4.040
 6816SOL    HW221348   6.830   0.265   4.052
 6817SOL     OW21349   4.294   1.808   1.158
 6817SOL    HW121350   4.231   1.852   1.094
 6817SOL    HW221351   4.363   1.874   1.188
 6818SOL     OW21352   1.162   6.976   4.877
 6818SOL    HW121353   1.191   6.947   4.968
 6818SOL    HW221354   1.067   7.007   4.880
 6819SOL     OW21355   4.624   4.542   1.959
 6819SOL    HW121356   4.708   4.491   1.940
 6819SOL    HW221357   4.547   4.478   1.963
 6820SOL     OW21358   2.709   5.047   1.727
 6820SOL    HW121359   2.745   5.011   1.641
 6820SOL    HW221360   2.628   4.995   1.754
 6821SOL     OW21361   3.664   2.901   5.353
 6821SOL    HW121362   3.639   2.987   5.307
 6821SOL    HW221363   3.741   2.859   5.305
 6822SOL     OW21364   5.995   3.347   5.285
 6822SOL    HW121365   6.001   3.264   5.230
 6822SOL    HW221366   5.987   3.323   5.382
 6823SOL     OW21367   0.355   3.101   5.144
 6823SOL    HW121368   0.401   3.045   5.213
 6823SOL    HW221369   0.420   3.128   5.074
 6824SOL     OW21370   0.612   6.929   5.460
 6824SOL    HW121371   0.552   6.850   5.443
 6824SOL    HW221372   0.564   7.013   5.434
 6825SOL     OW21373   4.268   4.202   1.251
 6825SOL    HW121374   4.248   4.199   1.153
 6825SOL    HW221375   4.365   4.221   1.266
 6826SOL     OW21376   5.885   6.951   3.785
 6826SOL    HW121377   5.809   7.011   3.813
 6826SOL    HW221378   5.972   6.993   3.811
 6827SOL     OW21379   4.732   5.785   4.985
 6827SOL    HW121380   4.750   5.806   5.081
 6827SOL    HW221381   4.653   5.839   4.953
 6828SOL     OW21382   3.407   2.005   2.782
 6828SOL    HW121383   3.379   2.053   2.699
 6828SOL    HW221384   3.394   1.907   2.769
 6829SOL     OW21385   4.013   6.961   2.690
 6829SOL    HW121386   4.076   6.989   2.763
 6829SOL    HW221387   3.921   6.990   2.713
 6830SOL     OW21388   4.048   4.850   2.292
 6830SOL    HW121389   3.988   4.923   2.326
 6830SOL    HW221390   4.097   4.810   2.369
 6831SOL     OW21391   1.561   1.858   6.258
 6831SOL    HW121392   1.605   1.917   6.189
 6831SOL    HW221393   1.462   1.863   6.247
 6832SOL     OW21394   2.657   2.537   6.576
 6832SOL    HW121395   2.638   2.496   6.666
 6832SOL    HW221396   2.589   2.504   6.510
 6833SOL     OW21397   3.697   5.278   6.164
 6833SOL    HW121398   3.605   5.300   6.131
 6833SOL    HW221399   3.745   5.223   6.095
 6834SOL     OW21400   6.219   6.787   6.666
 6834SOL    HW121401   6.191   6.701   6.707
 6834SOL    HW221402   6.299   6.772   6.609
 6835SOL     OW21403   2.367   0.839   4.079
 6835SOL    HW121404   2.289   0.891   4.116
 6835SOL    HW221405   2.414   0.894   4.010
 6836SOL     OW21406   1.520   5.220   6.566
 6836SOL    HW121407   1.559   5.297   6.615
 6836SOL    HW221408   1.446   5.180   6.619
 6837SOL     OW21409   6.012   0.649   2.289
 6837SOL    HW121410   5.951   0.670   2.212
 6837SOL    HW221411   6.030   0.550   2.291
 6838SOL     OW21412   2.799   3.963   5.503
 6838SOL    HW121413   2.707   3.947   5.467
 6838SOL    HW221414   2.833   3.881   5.548
 6839SOL     OW21415   6.093   3.302   4.628
 6839SOL    HW121416   6.088   3.374   4.698
 6839SOL    HW221417   6.174   3.317   4.571
 6840SOL     OW21418   3.015   6.553   4.487
 6840SOL    HW121419   3.007   6.645   4.525
 6840SOL    HW221420   3.059   6.493   4.554
 6841SOL     OW21421   5.051   6.866   1.170
 6841SOL    HW121422   5.030   6.831   1.079
 6841SOL    HW221423   5.082   6.790   1.228
 6842SOL     OW21424   0.434   3.699   4.894
 6842SOL    HW121425   0.363   3.733   4.955
 6842SOL    HW221426   0.514   3.759   4.897
 6843SOL     OW21427   4.398   2.032   1.320
 6843SOL    HW121428   4.403   1.957   1.386
 6843SOL    HW221429   4.459   2.106   1.348
 6844SOL     OW21430   3.588   5.513   4.411
 6844SOL    HW121431   3.515   5.581   4.422
 6844SOL    HW221432   3.560   5.428   4.456
 6845SOL     OW21433   3.902   4.532   1.056
 6845SOL    HW121434   3.827   4.581   1.099
 6845SOL    HW221435   3.962   4.597   1.009
 6846SOL     OW21436   3.453   2.849   2.548
 6846SOL    HW121437   3.377   2.909   2.522
 6846SOL    HW221438   3.521   2.848   2.475
 6847SOL     OW21439   6.254   3.707   1.614
 6847SOL    HW121440   6.262   3.623   1.560
 6847SOL    HW221441   6.332   3.714   1.675
 6848SOL     OW21442   6.546   6.730   3.712
 6848SOL    HW121443   6.482   6.727   3.789
 6848SOL    HW221444   6.495   6.737   3.626
 6849SOL     OW21445   3.385   6.532   4.371
 6849SOL    HW121446   3.414   6.465   4.303
 6849SOL    HW221447   3.318   6.595   4.329
 6850SOL     OW21448   5.248   3.246   1.157
 6850SOL    HW121449   5.218   3.313   1.225
 6850SOL    HW221450   5.254   3.155   1.199
 6851SOL     OW21451   1.569   5.771   5.237
 6851SOL    HW121452   1.592   5.762   5.140
 6851SOL    HW221453   1.652   5.765   5.292
 6852SOL     OW21454   0.446   4.809   1.730
 6852SOL    HW121455   0.360   4.824   1.780
 6852SOL    HW221456   0.431   4.821   1.632
 6853SOL     OW21457   6.498   3.864   5.288
 6853SOL    HW121458   6.505   3.932   5.361
 6853SOL    HW221459   6.452   3.782   5.323
 6854SOL     OW21460   0.571   1.815   6.767
 6854SOL    HW121461   0.556   1.914   6.767
 6854SOL    HW221462   0.484   1.769   6.787
 6855SOL     OW21463   3.077   6.194   1.944
 6855SOL    HW121464   2.980   6.217   1.949
 6855SOL    HW221465   3.089   6.096   1.958
 6856SOL     OW21466   0.282   4.544   4.980
 6856SOL    HW121467   0.339   4.626   4.972
 6856SOL    HW221468   0.244   4.539   5.072
 6857SOL     OW21469   4.574   1.463   5.772
 6857SOL    HW121470   4.489   1.427   5.811
 6857SOL    HW221471   4.578   1.439   5.675
 6858SOL     OW21472   3.920   2.902   5.179
 6858SOL    HW121473   3.973   2.920   5.262
 6858SOL    HW221474   3.930   2.806   5.153
 6859SOL     OW21475   3.557   0.437   0.379
 6859SOL    HW121476   3.560   0.377   0.299
 6859SOL    HW221477   3.475   0.416   0.433
 6860SOL     OW21478   4.914   4.612   0.129
 6860SOL    HW121479   5.009   4.584   0.133
 6860SOL    HW221480   4.901   4.695   0.185
 6861SOL     OW21481   5.655   4.412   0.537
 6861SOL    HW121482   5.676   4.433   0.441
 6861SOL    HW221483   5.569   4.361   0.542
 6862SOL     OW21484   3.799   5.825   3.551
 6862SOL    HW121485   3.724   5.805   3.614
 6862SOL    HW221486   3.834   5.739   3.513
 6863SOL     OW21487   0.422   2.874   4.157
 6863SOL    HW121488   0.519   2.856   4.172
 6863SOL    HW221489   0.372   2.787   4.158
 6864SOL     OW21490   4.366   5.709   5.663
 6864SOL    HW121491   4.316   5.795   5.675
 6864SOL    HW221492   4.351   5.674   5.571
 6865SOL     OW21493   5.634   3.226   4.493
 6865SOL    HW121494   5.575   3.304   4.472
 6865SOL    HW221495   5.583   3.141   4.478
 6866SOL     OW21496   0.384   3.770   1.824
 6866SOL    HW121497   0.375   3.717   1.739
 6866SOL    HW221498   0.432   3.716   1.892
 6867SOL     OW21499   2.254   4.733   2.160
 6867SOL    HW121500   2.310   4.757   2.239
 6867SOL    HW221501   2.165   4.778   2.167
 6868SOL     OW21502   1.900   5.346   5.022
 6868SOL    HW121503   1.950   5.317   5.104
 6868SOL    HW221504   1.836   5.274   4.996
 6869SOL     OW21505   6.286   3.575   5.056
 6869SOL    HW121506   6.230   3.603   5.135
 6869SOL    HW221507   6.267   3.636   4.979
 6870SOL     OW21508   5.201   3.824   2.874
 6870SOL    HW121509   5.153   3.737   2.860
 6870SOL    HW221510   5.156   3.894   2.819
 6871SOL     OW21511   5.053   0.542   1.881
 6871SOL    HW121512   5.040   0.453   1.837
 6871SOL    HW221513   5.057   0.613   1.811
 6872SOL     OW21514   2.837   3.650   7.014
 6872SOL    HW121515   2.774   3.717   6.975
 6872SOL    HW221516   2.822   3.560   6.972
 6873SOL     OW21517   5.138   4.507   5.927
 6873SOL    HW121518   5.101   4.566   5.856
 6873SOL    HW221519   5.226   4.543   5.959
 6874SOL     OW21520   0.606   2.702   5.324
 6874SOL    HW121521   0.583   2.605   5.323
 6874SOL    HW221522   0.648   2.728   5.237
 6875SOL     OW21523   2.654   1.739   4.460
 6875SOL    HW121524   2.674   1.665   4.396
 6875SOL    HW221525   2.557   1.736   4.485
 6876SOL     OW21526   3.642   6.339   5.996
 6876SOL    HW121527   3.547   6.335   5.966
 6876SOL    HW221528   3.670   6.250   6.030
 6877SOL     OW21529   2.522   4.425   6.801
 6877SOL    HW121530   2.475   4.376   6.728
 6877SOL    HW221531   2.546   4.517   6.770
 6878SOL     OW21532   1.476   1.857   4.698
 6878SOL    HW121533   1.526   1.810   4.771
 6878SOL    HW221534   1.500   1.955   4.700
 6879SOL     OW21535   1.060   1.324   6.041
 6879SOL    HW121536   1.142   1.294   6.091
 6879SOL    HW221537   1.044   1.421   6.059
 6880SOL     OW21538   1.858   4.519   4.847
 6880SOL    HW121539   1.915   4.439   4.863
 6880SOL    HW221540   1.889   4.595   4.905
 6881SOL     OW21541   6.695   4.771   1.555
 6881SOL    HW121542   6.718   4.854   1.505
 6881SOL    HW221543   6.654   4.704   1.493
 6882SOL     OW21544   1.901   0.123   5.258
 6882SOL    HW121545   1.956   0.141   5.340
 6882SOL    HW221546   1.840   0.201   5.241
 6883SOL     OW21547   3.344   5.569   1.330
 6883SOL    HW121548   3.275   5.549   1.260
 6883SOL    HW221549   3.317   5.651   1.380
 6884SOL     OW21550   2.748   4.875   3.023
 6884SOL    HW121551   2.833   4.828   3.047
 6884SOL    HW221552   2.760   4.973   3.038
 6885SOL     OW21553   3.403   5.481   4.969
 6885SOL    HW121554   3.445   5.390   4.972
 6885SOL    HW221555   3.377   5.510   5.061
 6886SOL     OW21556   5.512   2.171   2.708
 6886SOL    HW121557   5.563   2.252   2.736
 6886SOL    HW221558   5.551   2.134   2.624
 6887SOL     OW21559   5.185   0.346   4.586
 6887SOL    HW121560   5.258   0.414   4.599
 6887SOL    HW221561   5.218   0.256   4.614
 6888SOL     OW21562   5.413   6.101   4.689
 6888SOL    HW121563   5.436   6.194   4.716
 6888SOL    HW221564   5.420   6.041   4.769
 6889SOL     OW21565   1.671   4.125   5.783
 6889SOL    HW121566   1.616   4.076   5.716
 6889SOL    HW221567   1.706   4.060   5.852
 6890SOL     OW21568   2.242   0.645   6.991
 6890SOL    HW121569   2.213   0.648   6.895
 6890SOL    HW221570   2.337   0.676   6.998
 6891SOL     OW21571   3.325   4.998   4.369
 6891SOL    HW121572   3.411   4.977   4.416
 6891SOL    HW221573   3.330   4.968   4.274
 6892SOL     OW21574   3.986   1.107   3.685
 6892SOL    HW121575   3.984   1.087   3.587
 6892SOL    HW221576   3.978   1.022   3.737
 6893SOL     OW21577   5.996   6.941   2.184
 6893SOL    HW121578   6.086   6.980   2.171
 6893SOL    HW221579   5.945   6.943   2.098
 6894SOL     OW21580   6.326   4.092   6.198
 6894SOL    HW121581   6.400   4.112   6.133
 6894SOL    HW221582   6.240   4.131   6.163
 6895SOL     OW21583   4.137   5.252   6.263
 6895SOL    HW121584   4.055   5.310   6.269
 6895SOL    HW221585   4.147   5.218   6.169
 6896SOL     OW21586   4.632   6.557   3.342
 6896SOL    HW121587   4.534   6.554   3.322
 6896SOL    HW221588   4.670   6.643   3.307
 6897SOL     OW21589   3.612   1.969   0.448
 6897SOL    HW121590   3.662   2.056   0.457
 6897SOL    HW221591   3.522   1.979   0.491
 6898SOL     OW21592   4.105   1.463   2.620
 6898SOL    HW121593   4.128   1.532   2.688
 6898SOL    HW221594   4.007   1.446   2.620
 6899SOL     OW21595   5.268   6.347   0.218
 6899SOL    HW121596   5.217   6.369   0.135
 6899SOL    HW221597   5.343   6.412   0.230
 6900SOL     OW21598   4.017   1.703   4.953
 6900SOL    HW121599   3.953   1.627   4.941
 6900SOL    HW221600   4.015   1.762   4.872
 6901SOL     OW21601   1.360   0.653   6.921
 6901SOL    HW121602   1.362   0.632   7.019
 6901SOL    HW221603   1.270   0.686   6.896
 6902SOL     OW21604   6.675   5.238   1.300
 6902SOL    HW121605   6.668   5.269   1.205
 6902SOL    HW221606   6.585   5.236   1.341
 6903SOL     OW21607   4.381   3.638   0.952
 6903SOL    HW121608   4.480   3.639   0.936
 6903SOL    HW221609   4.357   3.710   1.017
 6904SOL     OW21610   0.061   1.646   2.909
 6904SOL    HW121611   0.107   1.630   2.997
 6904SOL    HW221612   0.071   1.565   2.851
 6905SOL     OW21613   4.337   5.175   1.053
 6905SOL    HW121614   4.417   5.133   1.098
 6905SOL    HW221615   4.254   5.132   1.088
 6906SOL     OW21616   4.241   6.120   3.621
 6906SOL    HW121617   4.175   6.048   3.598
 6906SOL    HW221618   4.325   6.105   3.570
 6907SOL     OW21619   3.706   1.691   1.623
 6907SOL    HW121620   3.662   1.615   1.574
 6907SOL    HW221621   3.791   1.716   1.576
 6908SOL     OW21622   0.547   6.953   6.475
 6908SOL    HW121623   0.460   6.998   6.454
 6908SOL    HW221624   0.584   6.910   6.392
 6909SOL     OW21625   4.922   3.301   6.760
 6909SOL    HW121626   4.990   3.370   6.737
 6909SOL    HW221627   4.837   3.346   6.789
 6910SOL     OW21628   6.712   1.733   2.239
 6910SOL    HW121629   6.756   1.713   2.151
 6910SOL    HW221630   6.638   1.799   2.225
 6911SOL     OW21631   3.844   0.913   4.874
 6911SOL    HW121632   3.942   0.909   4.857
 6911SOL    HW221633   3.810   0.821   4.896
 6912SOL     OW21634   4.947   5.168   0.845
 6912SOL    HW121635   4.903   5.080   0.832
 6912SOL    HW221636   4.936   5.197   0.940
 6913SOL     OW21637   5.315   5.528   5.344
 6913SOL    HW121638   5.255   5.604   5.320
 6913SOL    HW221639   5.366   5.550   5.427
 6914SOL     OW21640   6.203   5.186   0.756
 6914SOL    HW121641   6.225   5.096   0.719
 6914SOL    HW221642   6.139   5.233   0.696
 6915SOL     OW21643   0.871   5.779   1.142
 6915SOL    HW121644   0.833   5.687   1.133
 6915SOL    HW221645   0.915   5.805   1.056
 6916SOL     OW21646   0.067   1.137   6.836
 6916SOL    HW121647   7.008   1.111   6.880
 6916SOL    HW221648   0.144   1.094   6.884
 6917SOL     OW21649   4.657   0.022   6.784
 6917SOL    HW121650   4.595   0.090   6.823
 6917SOL    HW221651   4.706   7.002   6.857
 6918SOL     OW21652   2.284   2.917   3.516
 6918SOL    HW121653   2.223   2.992   3.489
 6918SOL    HW221654   2.321   2.873   3.434
 6919SOL     OW21655   1.782   6.432   3.494
 6919SOL    HW121656   1.821   6.365   3.431
 6919SOL    HW221657   1.794   6.399   3.588
 6920SOL     OW21658   4.804   6.250   5.034
 6920SOL    HW121659   4.772   6.225   4.943
 6920SOL    HW221660   4.784   6.346   5.051
 6921SOL     OW21661   0.104   7.016   3.025
 6921SOL    HW121662   0.140   6.976   3.110
 6921SOL    HW221663   0.123   6.955   2.948
 6922SOL     OW21664   1.394   5.345   0.312
 6922SOL    HW121665   1.461   5.382   0.375
 6922SOL    HW221666   1.425   5.359   0.218
 6923SOL     OW21667   4.762   6.657   4.339
 6923SOL    HW121668   4.749   6.719   4.262
 6923SOL    HW221669   4.717   6.694   4.420
 6924SOL     OW21670   0.046   6.176   1.252
 6924SOL    HW121671   0.042   6.124   1.338
 6924SOL    HW221672   0.081   6.268   1.271
 6925SOL     OW21673   5.963   5.875   2.643
 6925SOL    HW121674   5.955   5.867   2.742
 6925SOL    HW221675   6.035   5.941   2.620
 6926SOL     OW21676   2.904   3.683   4.872
 6926SOL    HW121677   2.805   3.689   4.859
 6926SOL    HW221678   2.942   3.775   4.881
 6927SOL     OW21679   4.624   3.706   6.018
 6927SOL    HW121680   4.654   3.756   5.937
 6927SOL    HW221681   4.609   3.771   6.093
 6928SOL     OW21682   5.985   6.860   6.550
 6928SOL    HW121683   5.950   6.932   6.610
 6928SOL    HW221684   6.073   6.828   6.585
 6929SOL     OW21685   3.273   5.350   0.088
 6929SOL    HW121686   3.214   5.329   0.010
 6929SOL    HW221687   3.367   5.322   0.067
 6930SOL     OW21688   1.373   6.117   3.526
 6930SOL    HW121689   1.435   6.053   3.482
 6930SOL    HW221690   1.419   6.161   3.603
 6931SOL     OW21691   1.278   1.181   1.443
 6931SOL    HW121692   1.318   1.253   1.499
 6931SOL    HW221693   1.305   1.092   1.478
 6932SOL     OW21694   2.587   2.848   0.823
 6932SOL    HW121695   2.671   2.798   0.842
 6932SOL    HW221696   2.601   2.908   0.745
 6933SOL     OW21697   3.892   6.828   6.480
 6933SOL    HW121698   3.808   6.783   6.452
 6933SOL    HW221699   3.886   6.854   6.576
 6934SOL     OW21700   6.046   3.598   6.184
 6934SOL    HW121701   6.133   3.620   6.140
 6934SOL    HW221702   5.984   3.676   6.176
 6935SOL     OW21703   4.639   5.670   3.315
 6935SOL    HW121704   4.649   5.617   3.400
 6935SOL    HW221705   4.541   5.684   3.297
 6936SOL     OW21706   1.830   4.350   1.524
 6936SOL    HW121707   1.819   4.251   1.534
 6936SOL    HW221708   1.751   4.396   1.564
 6937SOL     OW21709   4.619   6.613   5.889
 6937SOL    HW121710   4.540   6.672   5.908
 6937SOL    HW221711   4.596   6.519   5.911
 6938SOL     OW21712   5.004   1.855   4.778
 6938SOL    HW121713   5.089   1.888   4.735
 6938SOL    HW221714   4.997   1.892   4.870
 6939SOL     OW21715   0.943   4.395   2.750
 6939SOL    HW121716   0.934   4.349   2.838
 6939SOL    HW221717   0.861   4.380   2.695
 6940SOL     OW21718   4.025   0.926   5.154
 6940SOL    HW121719   4.073   0.910   5.068
 6940SOL    HW221720   3.927   0.923   5.139
 6941SOL     OW21721   3.724   3.086   3.058
 6941SOL    HW121722   3.758   3.049   2.972
 6941SOL    HW221723   3.802   3.114   3.115
 6942SOL     OW21724   6.739   1.716   0.101
 6942SOL    HW121725   6.832   1.747   0.123
 6942SOL    HW221726   6.679   1.730   0.180
 6943SOL     OW21727   4.962   6.294   6.536
 6943SOL    HW121728   5.046   6.332   6.498
 6943SOL    HW221729   4.948   6.202   6.500
 6944SOL     OW21730   1.509   6.498   6.291
 6944SOL    HW121731   1.475   6.424   6.233
 6944SOL    HW221732   1.494   6.586   6.246
 6945SOL     OW21733   5.108   2.474   6.131
 6945SOL    HW121734   5.206   2.458   6.145
 6945SOL    HW221735   5.056   2.394   6.162
 6946SOL     OW21736   6.353   4.294   3.309
 6946SOL    HW121737   6.273   4.346   3.279
 6946SOL    HW221738   6.348   4.279   3.407
 6947SOL     OW21739   3.709   6.933   2.836
 6947SOL    HW121740   3.769   6.855   2.854
 6947SOL    HW221741   3.680   6.973   2.923
 6948SOL     OW21742   3.954   1.817   4.707
 6948SOL    HW121743   4.013   1.880   4.656
 6948SOL    HW221744   3.943   1.733   4.654
 6949SOL     OW21745   5.241   0.444   2.480
 6949SOL    HW121746   5.170   0.435   2.409
 6949SOL    HW221747   5.254   0.355   2.524
 6950SOL     OW21748   1.905   0.728   3.334
 6950SOL    HW121749   1.904   0.784   3.417
 6950SOL    HW221750   1.834   0.658   3.340
 6951SOL     OW21751   5.993   5.168   5.957
 6951SOL    HW121752   6.058   5.135   5.889
 6951SOL    HW221753   5.919   5.217   5.911
 6952SOL     OW21754   0.817   4.752   4.621
 6952SOL    HW121755   0.724   4.776   4.651
 6952SOL    HW221756   0.868   4.715   4.698
 6953SOL     OW21757   5.254   1.478   4.798
 6953SOL    HW121758   5.192   1.519   4.731
 6953SOL    HW221759   5.275   1.384   4.770
 6954SOL     OW21760   0.880   4.218   3.231
 6954SOL    HW121761   0.811   4.265   3.286
 6954SOL    HW221762   0.854   4.123   3.220
 6955SOL     OW21763   6.469   5.555   2.283
 6955SOL    HW121764   6.404   5.507   2.342
 6955SOL    HW221765   6.426   5.638   2.247
 6956SOL     OW21766   3.420   4.719   1.649
 6956SOL    HW121767   3.485   4.729   1.725
 6956SOL    HW221768   3.328   4.707   1.686
 6957SOL     OW21769   0.990   4.196   0.428
 6957SOL    HW121770   0.946   4.221   0.514
 6957SOL    HW221771   0.924   4.151   0.368
 6958SOL     OW21772   2.450   3.780   6.367
 6958SOL    HW121773   2.385   3.801   6.293
 6958SOL    HW221774   2.529   3.842   6.360
 6959SOL     OW21775   3.136   0.987   4.222
 6959SOL    HW121776   3.078   1.014   4.299
 6959SOL    HW221777   3.222   1.039   4.225
 6960SOL     OW21778   7.003   5.041   0.076
 6960SOL    HW121779   6.972   5.032   7.008
 6960SOL    HW221780   0.031   4.961   0.101
 6961SOL     OW21781   6.849   1.509   2.779
 6961SOL    HW121782   6.941   1.501   2.740
 6961SOL    HW221783   6.798   1.425   2.762
 6962SOL     OW21784   4.664   3.625   0.478
 6962SOL    HW121785   4.689   3.557   0.409
 6962SOL    HW221786   4.569   3.609   0.507
 6963SOL     OW21787   6.268   5.763   1.921
 6963SOL    HW121788   6.306   5.855   1.917
 6963SOL    HW221789   6.264   5.732   2.015
 6964SOL     OW21790   3.942   6.697   5.319
 6964SOL    HW121791   4.021   6.653   5.362
 6964SOL    HW221792   3.962   6.794   5.303
 6965SOL     OW21793   6.626   2.863   6.337
 6965SOL    HW121794   6.534   2.901   6.336
 6965SOL    HW221795   6.649   2.832   6.429
 6966SOL     OW21796   4.729   2.781   3.900
 6966SOL    HW121797   4.692   2.697   3.860
 6966SOL    HW221798   4.739   2.850   3.829
 6967SOL     OW21799   2.083   0.901   6.283
 6967SOL    HW121800   2.045   0.887   6.375
 6967SOL    HW221801   2.089   0.999   6.264
 6968SOL     OW21802   4.994   0.026   2.208
 6968SOL    HW121803   4.921   0.044   2.142
 6968SOL    HW221804   4.957   0.028   2.300
 6969SOL     OW21805   3.528   1.924   1.568
 6969SOL    HW121806   3.571   1.839   1.599
 6969SOL    HW221807   3.443   1.903   1.520
 6970SOL     OW21808   4.893   3.650   0.676
 6970SOL    HW121809   4.844   3.626   0.593
 6970SOL    HW221810   4.849   3.729   0.720
 6971SOL     OW21811   5.597   0.683   2.246
 6971SOL    HW121812   5.653   0.721   2.173
 6971SOL    HW221813   5.544   0.756   2.288
 6972SOL     OW21814   5.752   4.325   4.574
 6972SOL    HW121815   5.707   4.284   4.654
 6972SOL    HW221816   5.712   4.415   4.557
 6973SOL     OW21817   2.105   4.734   3.579
 6973SOL    HW121818   2.194   4.780   3.582
 6973SOL    HW221819   2.070   4.735   3.486
 6974SOL     OW21820   3.664   3.885   5.041
 6974SOL    HW121821   3.716   3.850   4.963
 6974SOL    HW221822   3.677   3.824   5.119
 6975SOL     OW21823   3.909   1.497   5.895
 6975SOL    HW121824   3.817   1.472   5.926
 6975SOL    HW221825   3.921   1.596   5.906
 6976SOL     OW21826   2.193   5.120   6.577
 6976SOL    HW121827   2.153   5.038   6.535
 6976SOL    HW221828   2.201   5.106   6.676
 6977SOL     OW21829   3.878   2.179   2.903
 6977SOL    HW121830   3.800   2.152   2.845
 6977SOL    HW221831   3.956   2.202   2.845
 6978SOL     OW21832   6.226   0.480   3.246
 6978SOL    HW121833   6.272   0.434   3.322
 6978SOL    HW221834   6.153   0.538   3.281
 6979SOL     OW21835   0.658   4.682   2.876
 6979SOL    HW121836   0.594   4.759   2.871
 6979SOL    HW221837   0.735   4.707   2.935
 6980SOL     OW21838   3.385   0.849   4.566
 6980SOL    HW121839   3.407   0.752   4.551
 6980SOL    HW221840   3.452   0.906   4.520
 6981SOL     OW21841   2.952   4.869   6.522
 6981SOL    HW121842   2.938   4.873   6.621
 6981SOL    HW221843   2.877   4.819   6.479
 6982SOL     OW21844   0.228   6.842   4.719
 6982SOL    HW121845   0.201   6.925   4.670
 6982SOL    HW221846   0.324   6.822   4.699
 6983SOL     OW21847   6.202   0.730   4.099
 6983SOL    HW121848   6.118   0.765   4.141
 6983SOL    HW221849   6.263   0.697   4.170
 6984SOL     OW21850   1.831   1.452   6.277
 6984SOL    HW121851   1.846   1.528   6.213
 6984SOL    HW221852   1.759   1.393   6.242
 6985SOL     OW21853   5.152   5.986   1.641
 6985SOL    HW121854   5.231   6.000   1.580
 6985SOL    HW221855   5.173   5.913   1.706
 6986SOL     OW21856   2.044   0.002   4.753
 6986SOL    HW121857   2.127   6.976   4.771
 6986SOL    HW221858   1.969   6.966   4.731
 6987SOL     OW21859   0.540   3.204   6.368
 6987SOL    HW121860   0.478   3.281   6.374
 6987SOL    HW221861   0.631   3.232   6.398
 6988SOL     OW21862   5.173   0.852   4.321
 6988SOL    HW121863   5.188   0.876   4.225
 6988SOL    HW221864   5.194   0.932   4.378
 6989SOL     OW21865   1.740   2.779   4.023
 6989SOL    HW121866   1.706   2.714   4.091
 6989SOL    HW221867   1.804   2.842   4.066
 6990SOL     OW21868   4.129   3.071   0.387
 6990SOL    HW121869   4.054   3.040   0.445
 6990SOL    HW221870   4.099   3.149   0.333
 6991SOL     OW21871   3.800   4.332   5.269
 6991SOL    HW121872   3.878   4.307   5.211
 6991SOL    HW221873   3.822   4.310   5.364
 6992SOL     OW21874   5.120   6.730   5.252
 6992SOL    HW121875   5.068   6.762   5.330
 6992SOL    HW221876   5.065   6.665   5.200
 6993SOL     OW21877   0.296   0.185   3.090
 6993SOL    HW121878   0.239   0.139   3.023
 6993SOL    HW221879   0.391   0.153   3.082
 6994SOL     OW21880   1.398   2.588   7.015
 6994SOL    HW121881   1.393   2.683   0.017
 6994SOL    HW221882   1.440   2.534   0.062
 6995SOL     OW21883   0.461   5.874   3.013
 6995SOL    HW121884   0.472   5.802   2.945
 6995SOL    HW221885   0.550   5.898   3.052
 6996SOL     OW21886   2.372   6.827   6.045
 6996SOL    HW121887   2.466   6.842   6.076
 6996SOL    HW221888   2.364   6.736   6.004
 6997SOL     OW21889   4.527   0.372   4.523
 6997SOL    HW121890   4.596   0.429   4.568
 6997SOL    HW221891   4.538   0.379   4.424
 6998SOL     OW21892   1.528   2.900   3.242
 6998SOL    HW121893   1.526   2.802   3.224
 6998SOL    HW221894   1.532   2.950   3.155
 6999SOL     OW21895   3.351   2.008   6.568
 6999SOL    HW121896   3.332   2.106   6.559
 6999SOL    HW221897   3.450   1.994   6.572
 7000SOL     OW21898   0.220   6.257   1.876
 7000SOL    HW121899   0.201   6.349   1.841
 7000SOL    HW221900   0.315   6.234   1.856
 7001SOL     OW21901   2.793   2.256   5.877
 7001SOL    HW121902   2.832   2.307   5.800
 7001SOL    HW221903   2.867   2.225   5.937
 7002SOL     OW21904   1.481   4.737   3.094
 7002SOL    HW121905   1.555   4.678   3.126
 7002SOL    HW221906   1.429   4.690   3.022
 7003SOL     OW21907   3.040   6.091   0.317
 7003SOL    HW121908   3.006   6.168   0.263
 7003SOL    HW221909   2.967   6.024   0.329
 7004SOL     OW21910   1.270   4.771   1.119
 7004SOL    HW121911   1.195   4.722   1.075
 7004SOL    HW221912   1.236   4.812   1.204
 7005SOL     OW21913   5.582   6.913   5.466
 7005SOL    HW121914   5.521   6.990   5.485
 7005SOL    HW221915   5.528   6.830   5.455
 7006SOL     OW21916   4.395   4.767   4.855
 7006SOL    HW121917   4.386   4.691   4.919
 7006SOL    HW221918   4.425   4.733   4.766
 7007SOL     OW21919   4.892   5.075   2.654
 7007SOL    HW121920   4.832   5.145   2.614
 7007SOL    HW221921   4.974   5.119   2.691
 7008SOL     OW21922   0.432   4.698   4.446
 7008SOL    HW121923   0.357   4.633   4.439
 7008SOL    HW221924   0.511   4.654   4.489
 7009SOL     OW21925   0.197   4.859   2.603
 7009SOL    HW121926   0.199   4.805   2.687
 7009SOL    HW221927   0.145   4.810   2.533
 7010SOL     OW21928   4.108   4.723   6.564
 7010SOL    HW121929   4.177   4.762   6.502
 7010SOL    HW221930   4.023   4.708   6.513
 7011SOL     OW21931   2.534   1.395   5.082
 7011SOL    HW121932   2.542   1.320   5.016
 7011SOL    HW221933   2.440   1.428   5.083
 7012SOL     OW21934   1.255   1.024   2.374
 7012SOL    HW121935   1.307   1.076   2.442
 7012SOL    HW221936   1.160   1.052   2.377
 7013SOL     OW21937   1.186   0.747   2.365
 7013SOL    HW121938   1.092   0.735   2.333
 7013SOL    HW221939   1.215   0.842   2.350
 7014SOL     OW21940   2.810   5.032   1.477
 7014SOL    HW121941   2.856   4.943   1.479
 7014SOL    HW221942   2.718   5.021   1.438
 7015SOL     OW21943   4.729   2.706   2.396
 7015SOL    HW121944   4.650   2.675   2.450
 7015SOL    HW221945   4.786   2.766   2.452
 7016SOL     OW21946   3.387   5.333   1.030
 7016SOL    HW121947   3.436   5.331   1.117
 7016SOL    HW221948   3.365   5.240   1.002
 7017SOL     OW21949   3.947   1.582   4.121
 7017SOL    HW121950   4.025   1.587   4.058
 7017SOL    HW221951   3.963   1.508   4.187
 7018SOL     OW21952   0.498   5.453   4.250
 7018SOL    HW121953   0.539   5.423   4.163
 7018SOL    HW221954   0.497   5.377   4.315
 7019SOL     OW21955   2.190   6.122   6.963
 7019SOL    HW121956   2.281   6.092   6.993
 7019SOL    HW221957   2.200   6.187   6.888
 7020SOL     OW21958   6.248   6.390   6.131
 7020SOL    HW121959   6.220   6.429   6.043
 7020SOL    HW221960   6.242   6.460   6.202
 7021SOL     OW21961   2.914   1.402   5.745
 7021SOL    HW121962   2.950   1.349   5.669
 7021SOL    HW221963   2.945   1.497   5.737
 7022SOL     OW21964   5.361   5.291   6.868
 7022SOL    HW121965   5.390   5.342   6.949
 7022SOL    HW221966   5.283   5.337   6.826
 7023SOL     OW21967   6.462   4.285   2.720
 7023SOL    HW121968   6.371   4.325   2.732
 7023SOL    HW221969   6.474   4.258   2.625
 7024SOL     OW21970   0.264   6.281   0.130
 7024SOL    HW121971   0.177   6.286   0.180
 7024SOL    HW221972   0.302   6.189   0.138
 7025SOL     OW21973   2.299   0.806   5.764
 7025SOL    HW121974   2.292   0.888   5.708
 7025SOL    HW221975   2.372   0.747   5.727
 7026SOL     OW21976   4.074   2.491   0.967
 7026SOL    HW121977   4.016   2.444   1.033
 7026SOL    HW221978   4.166   2.502   1.006
 7027SOL     OW21979   4.535   7.016   4.662
 7027SOL    HW121980   4.609   0.048   4.697
 7027SOL    HW221981   4.501   0.027   4.576
 7028SOL     OW21982   3.707   0.077   4.635
 7028SOL    HW121983   3.718   0.094   4.537
 7028SOL    HW221984   3.668   7.012   4.649
 7029SOL     OW21985   3.029   0.820   5.411
 7029SOL    HW121986   3.059   0.746   5.472
 7029SOL    HW221987   2.965   0.783   5.344
 7030SOL     OW21988   1.742   4.187   4.593
 7030SOL    HW121989   1.732   4.122   4.669
 7030SOL    HW221990   1.663   4.179   4.532
 7031SOL     OW21991   2.432   6.373   4.769
 7031SOL    HW121992   2.378   6.302   4.725
 7031SOL    HW221993   2.498   6.409   4.703
 7032SOL     OW21994   6.189   1.260   2.440
 7032SOL    HW121995   6.166   1.215   2.354
 7032SOL    HW221996   6.126   1.337   2.455
 7033SOL     OW21997   6.650   0.561   3.817
 7033SOL    HW121998   6.620   0.499   3.745
 7033SOL    HW221999   6.578   0.628   3.836
 7034SOL     OW22000   6.116   6.145   3.218
 7034SOL    HW122001   6.017   6.138   3.224
 7034SOL    HW222002   6.152   6.187   3.301
 7035SOL     OW22003   6.638   5.416   1.595
 7035SOL    HW122004   6.733   5.392   1.575
 7035SOL    HW222005   6.587   5.422   1.509
 7036SOL     OW22006   6.378   4.388   1.365
 7036SOL    HW122007   6.296   4.335   1.341
 7036SOL    HW222008   6.415   4.354   1.451
 7037SOL     OW22009   1.460   6.906   6.348
 7037SOL    HW122010   1.422   6.998   6.338
 7037SOL    HW222011   1.494   6.874   6.260
 7038SOL     OW22012   1.569   4.566   4.075
 7038SOL    HW122013   1.481   4.596   4.112
 7038SOL    HW222014   1.554   4.522   3.987
 7039SOL     OW22015   4.237   1.454   7.007
 7039SOL    HW122016   4.223   1.376   6.947
 7039SOL    HW222017   4.152   1.478   0.027
 7040SOL     OW22018   4.603   2.514   6.203
 7040SOL    HW122019   4.512   2.473   6.213
 7040SOL    HW222020   4.596   2.613   6.214
 7041SOL     OW22021   2.559   1.862   2.350
 7041SOL    HW122022   2.611   1.787   2.390
 7041SOL    HW222023   2.601   1.890   2.264
 7042SOL     OW22024   2.306   0.385   6.403
 7042SOL    HW122025   2.317   0.411   6.499
 7042SOL    HW222026   2.290   0.286   6.397
 7043SOL     OW22027   1.891   2.028   2.879
 7043SOL    HW122028   1.824   2.098   2.902
 7043SOL    HW222029   1.858   1.975   2.801
 7044SOL     OW22030   4.931   6.105   2.147
 7044SOL    HW122031   4.994   6.087   2.222
 7044SOL    HW222032   4.960   6.054   2.065
 7045SOL     OW22033   5.638   5.743   0.746
 7045SOL    HW122034   5.675   5.775   0.659
 7045SOL    HW222035   5.697   5.672   0.785
 7046SOL     OW22036   2.425   0.645   4.972
 7046SOL    HW122037   2.407   0.578   4.900
 7046SOL    HW222038   2.380   0.615   5.057
 7047SOL     OW22039   1.883   1.271   3.945
 7047SOL    HW122040   1.970   1.307   3.978
 7047SOL    HW222041   1.883   1.171   3.953
 7048SOL     OW22042   6.417   6.423   0.327
 7048SOL    HW122043   6.441   6.468   0.241
 7048SOL    HW222044   6.470   6.463   0.402
 7049SOL     OW22045   2.396   1.180   0.813
 7049SOL    HW122046   2.392   1.201   0.911
 7049SOL    HW222047   2.477   1.124   0.794
 7050SOL     OW22048   3.872   4.048   5.125
 7050SOL    HW122049   3.873   4.067   5.223
 7050SOL    HW222050   3.781   4.018   5.097
 7051SOL     OW22051   6.297   6.781   2.537
 7051SOL    HW122052   6.322   6.758   2.631
 7051SOL    HW222053   6.373   6.758   2.476
 7052SOL     OW22054   6.344   2.301   3.391
 7052SOL    HW122055   6.423   2.240   3.391
 7052SOL    HW222056   6.352   2.366   3.315
 7053SOL     OW22057   0.154   4.881   6.698
 7053SOL    HW122058   0.111   4.868   6.609
 7053SOL    HW222059   0.088   4.922   6.761
 7054SOL     OW22060   6.875   6.893   1.745
 7054SOL    HW122061   6.881   6.912   1.843
 7054SOL    HW222062   6.955   6.931   1.699
 7055SOL     OW22063   3.674   7.022   5.457
 7055SOL    HW122064   3.688   0.073   5.395
 7055SOL    HW222065   3.762   6.993   5.495
 7056SOL     OW22066   4.686   5.019   3.699
 7056SOL    HW122067   4.715   5.029   3.794
 7056SOL    HW222068   4.763   5.037   3.639
 7057SOL     OW22069   0.938   6.062   3.245
 7057SOL    HW122070   0.900   6.152   3.269
 7057SOL    HW222071   0.869   6.009   3.195
 7058SOL     OW22072   0.752   5.238   5.323
 7058SOL    HW122073   0.706   5.243   5.234
 7058SOL    HW222074   0.794   5.327   5.343
 7059SOL     OW22075   1.813   0.535   2.730
 7059SOL    HW122076   1.788   0.617   2.780
 7059SOL    HW222077   1.882   0.484   2.782
 7060SOL     OW22078   2.960   6.716   1.360
 7060SOL    HW122079   2.942   6.618   1.353
 7060SOL    HW222080   3.048   6.737   1.318
 7061SOL     OW22081   0.409   1.154   2.507
 7061SOL    HW122082   0.324   1.173   2.458
 7061SOL    HW222083   0.388   1.112   2.595
 7062SOL     OW22084   5.616   2.027   4.976
 7062SOL    HW122085   5.584   2.021   4.882
 7062SOL    HW222086   5.716   2.018   4.978
 7063SOL     OW22087   3.076   6.189   1.559
 7063SOL    HW122088   2.981   6.159   1.563
 7063SOL    HW222089   3.087   6.273   1.614
 7064SOL     OW22090   4.205   2.380   0.410
 7064SOL    HW122091   4.194   2.403   0.507
 7064SOL    HW222092   4.272   2.442   0.369
 7065SOL     OW22093   4.389   4.012   1.426
 7065SOL    HW122094   4.348   4.096   1.388
 7065SOL    HW222095   4.415   4.028   1.521
 7066SOL     OW22096   3.653   6.319   0.447
 7066SOL    HW122097   3.606   6.231   0.449
 7066SOL    HW222098   3.732   6.317   0.508
 7067SOL     OW22099   0.378   4.098   5.478
 7067SOL    HW122100   0.318   4.146   5.543
 7067SOL    HW222101   0.395   4.157   5.399
 7068SOL     OW22102   1.327   0.525   3.189
 7068SOL    HW122103   1.358   0.483   3.274
 7068SOL    HW222104   1.298   0.454   3.124
 7069SOL     OW22105   1.478   4.453   5.070
 7069SOL    HW122106   1.508   4.421   5.160
 7069SOL    HW222107   1.386   4.418   5.052
 7070SOL     OW22108   6.676   5.399   4.742
 7070SOL    HW122109   6.735   5.480   4.746
 7070SOL    HW222110   6.708   5.338   4.670
 7071SOL     OW22111   1.113   6.327   5.812
 7071SOL    HW122112   1.186   6.309   5.746
 7071SOL    HW222113   1.056   6.245   5.823
 7072SOL     OW22114   0.232   6.343   6.130
 7072SOL    HW122115   0.296   6.274   6.164
 7072SOL    HW222116   0.221   6.415   6.198
 7073SOL     OW22117   0.620   0.745   5.679
 7073SOL    HW122118   0.631   0.835   5.722
 7073SOL    HW222119   0.526   0.714   5.692
 7074SOL     OW22120   3.579   2.310   1.601
 7074SOL    HW122121   3.591   2.316   1.700
 7074SOL    HW222122   3.629   2.231   1.566
 7075SOL     OW22123   1.334   5.548   3.021
 7075SOL    HW122124   1.308   5.525   2.927
 7075SOL    HW222125   1.292   5.482   3.084
 7076SOL     OW22126   2.649   2.412   6.837
 7076SOL    HW122127   2.667   2.348   6.911
 7076SOL    HW222128   2.557   2.450   6.847
 7077SOL     OW22129   2.172   5.413   5.847
 7077SOL    HW122130   2.180   5.421   5.747
 7077SOL    HW222131   2.238   5.346   5.880
 7078SOL     OW22132   5.731   0.604   3.258
 7078SOL    HW122133   5.755   0.647   3.171
 7078SOL    HW222134   5.660   0.535   3.242
 7079SOL     OW22135   6.085   5.980   5.604
 7079SOL    HW122136   6.108   5.993   5.507
 7079SOL    HW222137   6.087   6.068   5.651
 7080SOL     OW22138   4.643   0.083   4.130
 7080SOL    HW122139   4.743   0.082   4.128
 7080SOL    HW222140   4.609   0.098   4.037
 7081SOL     OW22141   3.635   0.992   4.439
 7081SOL    HW122142   3.689   1.046   4.503
 7081SOL    HW222143   3.673   0.900   4.433
 7082SOL     OW22144   5.275   0.522   6.506
 7082SOL    HW122145   5.181   0.488   6.508
 7082SOL    HW222146   5.273   0.622   6.501
 7083SOL     OW22147   3.262   0.373   6.012
 7083SOL    HW122148   3.216   0.371   6.101
 7083SOL    HW222149   3.194   0.379   5.939
 7084SOL     OW22150   6.754   6.376   6.242
 7084SOL    HW122151   6.682   6.356   6.176
 7084SOL    HW222152   6.735   6.465   6.285
 7085SOL     OW22153   2.440   2.162   1.157
 7085SOL    HW122154   2.504   2.151   1.081
 7085SOL    HW222155   2.491   2.169   1.243
 7086SOL     OW22156   6.210   0.719   6.516
 7086SOL    HW122157   6.248   0.811   6.524
 7086SOL    HW222158   6.141   0.704   6.587
 7087SOL     OW22159   1.412   3.373   4.098
 7087SOL    HW122160   1.423   3.283   4.058
 7087SOL    HW222161   1.408   3.365   4.198
 7088SOL     OW22162   6.466   2.256   5.632
 7088SOL    HW122163   6.516   2.292   5.711
 7088SOL    HW222164   6.472   2.321   5.556
 7089SOL     OW22165   2.662   1.526   0.231
 7089SOL    HW122166   2.652   1.426   0.228
 7089SOL    HW222167   2.608   1.562   0.307
 7090SOL     OW22168   2.509   2.196   4.800
 7090SOL    HW122169   2.482   2.175   4.706
 7090SOL    HW222170   2.458   2.137   4.863
 7091SOL     OW22171   6.983   5.892   6.727
 7091SOL    HW122172   0.022   5.840   6.671
 7091SOL    HW222173   6.991   5.989   6.706
 7092SOL     OW22174   3.590   3.980   0.516
 7092SOL    HW122175   3.504   4.026   0.492
 7092SOL    HW222176   3.601   3.897   0.461
 7093SOL     OW22177   3.236   3.378   4.909
 7093SOL    HW122178   3.251   3.469   4.947
 7093SOL    HW222179   3.273   3.374   4.816
 7094SOL     OW22180   0.536   0.434   5.710
 7094SOL    HW122181   0.555   0.420   5.613
 7094SOL    HW222182   0.527   0.346   5.756
 7095SOL     OW22183   0.905   2.943   6.853
 7095SOL    HW122184   0.916   3.003   6.932
 7095SOL    HW222185   0.846   2.987   6.786
 7096SOL     OW22186   4.756   1.593   2.665
 7096SOL    HW122187   4.831   1.585   2.730
 7096SOL    HW222188   4.789   1.571   2.573
 7097SOL     OW22189   0.308   0.657   2.008
 7097SOL    HW122190   0.261   0.571   2.029
 7097SOL    HW222191   0.325   0.662   1.910
 7098SOL     OW22192   1.454   6.554   5.763
 7098SOL    HW122193   1.415   6.568   5.672
 7098SOL    HW222194   1.446   6.639   5.816
 7099SOL     OW22195   0.025   0.686   6.316
 7099SOL    HW122196   6.963   0.729   6.338
 7099SOL    HW222197   0.090   0.705   6.390
 7100SOL     OW22198   5.649   3.007   1.322
 7100SOL    HW122199   5.640   3.055   1.234
 7100SOL    HW222200   5.643   3.072   1.397
 7101SOL     OW22201   2.611   0.023   4.992
 7101SOL    HW122202   2.625   0.122   4.992
 7101SOL    HW222203   2.636   7.012   4.902
 7102SOL     OW22204   4.640   2.165   1.017
 7102SOL    HW122205   4.573   2.203   0.953
 7102SOL    HW222206   4.627   2.208   1.107
 7103SOL     OW22207   3.688   6.770   6.844
 7103SOL    HW122208   3.612   6.820   6.884
 7103SOL    HW222209   3.766   6.832   6.833
 7104SOL     OW22210   1.151   2.291   2.869
 7104SOL    HW122211   1.053   2.282   2.852
 7104SOL    HW222212   1.172   2.387   2.890
 7105SOL     OW22213   3.266   3.651   4.882
 7105SOL    HW122214   3.224   3.720   4.941
 7105SOL    HW222215   3.325   3.697   4.815
 7106SOL     OW22216   3.199   2.795   5.181
 7106SOL    HW122217   3.152   2.772   5.096
 7106SOL    HW222218   3.289   2.832   5.160
 7107SOL     OW22219   2.874   1.854   0.558
 7107SOL    HW122220   2.847   1.774   0.613
 7107SOL    HW222221   2.899   1.825   0.466
 7108SOL     OW22222   4.899   0.299   1.334
 7108SOL    HW122223   4.922   0.391   1.302
 7108SOL    HW222224   4.964   0.233   1.295
 7109SOL     OW22225   3.969   6.564   6.377
 7109SOL    HW122226   3.951   6.656   6.411
 7109SOL    HW222227   4.067   6.545   6.383
 7110SOL     OW22228   4.248   5.182   3.404
 7110SOL    HW122229   4.220   5.196   3.309
 7110SOL    HW222230   4.176   5.214   3.466
 7111SOL     OW22231   2.091   3.567   4.096
 7111SOL    HW122232   2.014   3.627   4.078
 7111SOL    HW222233   2.084   3.530   4.188
 7112SOL     OW22234   1.066   6.376   3.718
 7112SOL    HW122235   1.151   6.352   3.670
 7112SOL    HW222236   1.017   6.446   3.666
 7113SOL     OW22237   4.096   3.621   4.245
 7113SOL    HW122238   4.073   3.709   4.288
 7113SOL    HW222239   4.143   3.637   4.159
 7114SOL     OW22240   3.382   1.053   0.474
 7114SOL    HW122241   3.327   1.033   0.556
 7114SOL    HW222242   3.376   0.976   0.410
 7115SOL     OW22243   4.805   1.658   1.293
 7115SOL    HW122244   4.823   1.677   1.196
 7115SOL    HW222245   4.763   1.739   1.335
 7116SOL     OW22246   5.501   4.027   3.165
 7116SOL    HW122247   5.507   3.993   3.071
 7116SOL    HW222248   5.425   4.091   3.173
 7117SOL     OW22249   5.777   6.535   1.622
 7117SOL    HW122250   5.688   6.581   1.622
 7117SOL    HW222251   5.776   6.460   1.556
 7118SOL     OW22252   6.654   3.359   1.066
 7118SOL    HW122253   6.666   3.389   1.160
 7118SOL    HW222254   6.633   3.438   1.008
 7119SOL     OW22255   6.584   2.092   3.536
 7119SOL    HW122256   6.517   2.059   3.469
 7119SOL    HW222257   6.611   2.016   3.596
 7120SOL     OW22258   5.096   0.405   2.983
 7120SOL    HW122259   5.028   0.478   2.976
 7120SOL    HW222260   5.181   0.434   2.939
 7121SOL     OW22261   3.584   6.537   2.238
 7121SOL    HW122262   3.674   6.531   2.193
 7121SOL    HW222263   3.538   6.621   2.209
 7122SOL     OW22264   6.006   0.939   6.387
 7122SOL    HW122265   6.031   0.861   6.445
 7122SOL    HW222266   6.050   1.022   6.423
 7123SOL     OW22267   2.278   5.386   1.375
 7123SOL    HW122268   2.186   5.415   1.397
 7123SOL    HW222269   2.307   5.426   1.288
 7124SOL     OW22270   0.653   4.809   0.457
 7124SOL    HW122271   0.628   4.878   0.389
 7124SOL    HW222272   0.597   4.728   0.445
 7125SOL     OW22273   5.895   6.299   2.967
 7125SOL    HW122274   5.924   6.207   2.995
 7125SOL    HW222275   5.968   6.365   2.989
 7126SOL     OW22276   1.449   4.449   0.349
 7126SOL    HW122277   1.356   4.413   0.361
 7126SOL    HW222278   1.457   4.536   0.397
 7127SOL     OW22279   3.555   6.582   4.780
 7127SOL    HW122280   3.526   6.629   4.864
 7127SOL    HW222281   3.504   6.497   4.770
 7128SOL     OW22282   3.181   3.899   1.297
 7128SOL    HW122283   3.106   3.879   1.360
 7128SOL    HW222284   3.144   3.928   1.208
 7129SOL     OW22285   2.751   0.264   1.225
 7129SOL    HW122286   2.756   0.191   1.293
 7129SOL    HW222287   2.656   0.283   1.203
 7130SOL     OW22288   2.262   4.779   3.117
 7130SOL    HW122289   2.224   4.849   3.057
 7130SOL    HW222290   2.311   4.712   3.062
 7131SOL     OW22291   2.586   0.800   3.243
 7131SOL    HW122292   2.685   0.792   3.251
 7131SOL    HW222293   2.564   0.881   3.189
 7132SOL     OW22294   3.539   4.102   3.365
 7132SOL    HW122295   3.616   4.080   3.426
 7132SOL    HW222296   3.458   4.121   3.419
 7133SOL     OW22297   5.359   5.168   2.961
 7133SOL    HW122298   5.343   5.085   2.909
 7133SOL    HW222299   5.377   5.244   2.898
 7134SOL     OW22300   5.197   4.120   4.315
 7134SOL    HW122301   5.148   4.157   4.235
 7134SOL    HW222302   5.295   4.124   4.298
 7135SOL     OW22303   0.901   2.235   5.015
 7135SOL    HW122304   0.819   2.291   5.005
 7135SOL    HW222305   0.969   2.264   4.948
 7136SOL     OW22306   2.039   1.685   0.217
 7136SOL    HW122307   1.976   1.607   0.223
 7136SOL    HW222308   2.133   1.652   0.224
 7137SOL     OW22309   4.078   0.554   4.433
 7137SOL    HW122310   4.138   0.606   4.373
 7137SOL    HW222311   4.092   0.582   4.528
 7138SOL     OW22312   2.366   4.296   0.847
 7138SOL    HW122313   2.336   4.210   0.806
 7138SOL    HW222314   2.465   4.294   0.860
 7139SOL     OW22315   3.874   2.539   1.386
 7139SOL    HW122316   3.893   2.484   1.467
 7139SOL    HW222317   3.786   2.584   1.396
 7140SOL     OW22318   6.563   3.626   4.995
 7140SOL    HW122319   6.569   3.527   5.005
 7140SOL    HW222320   6.482   3.659   5.044
 7141SOL     OW22321   2.878   6.743   0.513
 7141SOL    HW122322   2.823   6.670   0.554
 7141SOL    HW222323   2.945   6.776   0.579
 7142SOL     OW22324   3.976   5.884   4.248
 7142SOL    HW122325   4.050   5.876   4.316
 7142SOL    HW222326   4.013   5.923   4.164
 7143SOL     OW22327   1.976   3.927   4.983
 7143SOL    HW122328   2.054   3.936   4.923
 7143SOL    HW222329   1.984   3.991   5.060
 7144SOL     OW22330   0.845   2.460   3.507
 7144SOL    HW122331   0.814   2.437   3.599
 7144SOL    HW222332   0.770   2.501   3.456
 7145SOL     OW22333   4.490   0.197   6.931
 7145SOL    HW122334   4.549   0.223   7.007
 7145SOL    HW222335   4.420   0.267   6.917
 7146SOL     OW22336   3.139   5.115   0.344
 7146SOL    HW122337   3.101   5.030   0.309
 7146SOL    HW222338   3.227   5.097   0.389
 7147SOL     OW22339   0.342   0.488   3.382
 7147SOL    HW122340   0.438   0.490   3.354
 7147SOL    HW222341   0.317   0.577   3.422
 7148SOL     OW22342   1.121   0.727   1.736
 7148SOL    HW122343   1.097   0.785   1.658
 7148SOL    HW222344   1.037   0.699   1.784
 7149SOL     OW22345   6.497   1.720   3.332
 7149SOL    HW122346   6.465   1.637   3.285
 7149SOL    HW222347   6.588   1.702   3.371
 7150SOL     OW22348   6.296   3.253   0.098
 7150SOL    HW122349   6.204   3.277   0.127
 7150SOL    HW222350   6.332   3.181   0.158
 7151SOL     OW22351   2.424   5.884   1.680
 7151SOL    HW122352   2.414   5.792   1.643
 7151SOL    HW222353   2.517   5.916   1.664
 7152SOL     OW22354   1.341   2.687   4.035
 7152SOL    HW122355   1.401   2.624   3.986
 7152SOL    HW222356   1.309   2.643   4.119
 7153SOL     OW22357   3.542   1.396   3.683
 7153SOL    HW122358   3.628   1.428   3.721
 7153SOL    HW222359   3.515   1.311   3.728
 7154SOL     OW22360   5.009   5.925   4.143
 7154SOL    HW122361   4.919   5.925   4.186
 7154SOL    HW222362   5.042   5.831   4.136
 7155SOL     OW22363   2.858   6.928   1.229
 7155SOL    HW122364   2.899   6.853   1.281
 7155SOL    HW222365   2.817   6.994   1.292
 7156SOL     OW22366   0.088   5.904   4.790
 7156SOL    HW122367   7.026   5.917   4.745
 7156SOL    HW222368   0.120   5.991   4.827
 7157SOL     OW22369   4.587   4.631   1.379
 7157SOL    HW122370   4.636   4.566   1.321
 7157SOL    HW222371   4.506   4.587   1.418
 7158SOL     OW22372   6.407   6.764   3.950
 7158SOL    HW122373   6.334   6.812   3.997
 7158SOL    HW222374   6.407   6.668   3.977
 7159SOL     OW22375   0.661   5.267   7.007
 7159SOL    HW122376   0.608   5.206   6.948
 7159SOL    HW222377   0.674   5.225   0.070
 7160SOL     OW22378   5.622   0.327   1.921
 7160SOL    HW122379   5.582   0.244   1.881
 7160SOL    HW222380   5.581   0.407   1.878
 7161SOL     OW22381   3.393   3.245   3.890
 7161SOL    HW122382   3.342   3.197   3.818
 7161SOL    HW222383   3.334   3.256   3.970
 7162SOL     OW22384   3.390   4.989   3.416
 7162SOL    HW122385   3.486   4.971   3.435
 7162SOL    HW222386   3.334   4.950   3.489
 7163SOL     OW22387   2.773   0.356   2.860
 7163SOL    HW122388   2.829   0.351   2.777
 7163SOL    HW222389   2.749   0.451   2.879
 7164SOL     OW22390   2.445   1.204   3.123
 7164SOL    HW122391   2.394   1.118   3.113
 7164SOL    HW222392   2.425   1.264   3.045
 7165SOL     OW22393   5.022   1.060   1.154
 7165SOL    HW122394   5.059   1.151   1.134
 7165SOL    HW222395   4.957   1.034   1.083
 7166SOL     OW22396   4.895   4.515   1.544
 7166SOL    HW122397   4.795   4.524   1.550
 7166SOL    HW222398   4.922   4.424   1.572
 7167SOL     OW22399   4.645   2.578   4.907
 7167SOL    HW122400   4.689   2.666   4.925
 7167SOL    HW222401   4.671   2.513   4.979
 7168SOL     OW22402   1.327   0.799   3.648
 7168SOL    HW122403   1.261   0.740   3.602
 7168SOL    HW222404   1.282   0.846   3.724
 7169SOL     OW22405   1.706   2.355   5.395
 7169SOL    HW122406   1.654   2.432   5.433
 7169SOL    HW222407   1.656   2.270   5.411
 7170SOL     OW22408   6.446   4.844   4.198
 7170SOL    HW122409   6.413   4.753   4.223
 7170SOL    HW222410   6.437   4.857   4.099
 7171SOL     OW22411   4.110   3.157   5.266
 7171SOL    HW122412   4.069   3.187   5.352
 7171SOL    HW222413   4.048   3.178   5.190
 7172SOL     OW22414   1.712   6.969   0.585
 7172SOL    HW122415   1.650   6.983   0.662
 7172SOL    HW222416   1.658   6.964   0.500
 7173SOL     OW22417   6.666   5.945   5.962
 7173SOL    HW122418   6.589   5.904   5.913
 7173SOL    HW222419   6.710   6.014   5.904
 7174SOL     OW22420   1.539   4.968   0.461
 7174SOL    HW122421   1.467   5.033   0.485
 7174SOL    HW222422   1.628   5.008   0.482
 7175SOL     OW22423   6.933   4.080   6.043
 7175SOL    HW122424   6.945   4.154   5.977
 7175SOL    HW222425   6.915   3.995   5.994
 7176SOL     OW22426   5.914   3.746   1.307
 7176SOL    HW122427   5.889   3.682   1.380
 7176SOL    HW222428   5.834   3.800   1.281
 7177SOL     OW22429   0.610   6.413   1.863
 7177SOL    HW122430   0.541   6.472   1.820
 7177SOL    HW222431   0.583   6.318   1.854
 7178SOL     OW22432   0.925   2.429   6.512
 7178SOL    HW122433   0.968   2.513   6.544
 7178SOL    HW222434   0.912   2.434   6.413
 7179SOL     OW22435   2.913   3.559   6.277
 7179SOL    HW122436   2.866   3.585   6.193
 7179SOL    HW222437   2.857   3.496   6.330
 7180SOL     OW22438   0.009   6.333   2.161
 7180SOL    HW122439   0.102   6.294   2.161
 7180SOL    HW222440   6.989   6.306   2.076
 7181SOL     OW22441   5.316   0.924   1.557
 7181SOL    HW122442   5.252   0.997   1.581
 7181SOL    HW222443   5.402   0.940   1.604
 7182SOL     OW22444   3.002   3.997   5.893
 7182SOL    HW122445   2.998   3.976   5.991
 7182SOL    HW222446   2.935   3.941   5.844
 7183SOL     OW22447   1.094   5.547   2.422
 7183SOL    HW122448   1.076   5.585   2.513
 7183SOL    HW222449   1.151   5.612   2.370
 7184SOL     OW22450   2.631   6.419   3.547
 7184SOL    HW122451   2.591   6.487   3.608
 7184SOL    HW222452   2.706   6.461   3.495
 7185SOL     OW22453   4.955   2.298   6.763
 7185SOL    HW122454   5.019   2.348   6.705
 7185SOL    HW222455   4.877   2.267   6.707
 7186SOL     OW22456   0.439   6.679   4.667
 7186SOL    HW122457   0.378   6.600   4.675
 7186SOL    HW222458   0.520   6.653   4.614
 7187SOL     OW22459   1.896   4.356   1.253
 7187SOL    HW122460   1.880   4.392   1.345
 7187SOL    HW222461   1.944   4.425   1.198
 7188SOL     OW22462   5.396   1.323   1.539
 7188SOL    HW122463   5.351   1.401   1.583
 7188SOL    HW222464   5.488   1.350   1.511
 7189SOL     OW22465   5.857   1.237   4.925
 7189SOL    HW122466   5.818   1.319   4.966
 7189SOL    HW222467   5.887   1.257   4.832
 7190SOL     OW22468   4.715   4.794   3.346
 7190SOL    HW122469   4.744   4.840   3.430
 7190SOL    HW222470   4.792   4.746   3.306
 7191SOL     OW22471   1.869   3.260   2.215
 7191SOL    HW122472   1.914   3.271   2.126
 7191SOL    HW222473   1.798   3.329   2.226
 7192SOL     OW22474   2.957   4.669   5.916
 7192SOL    HW122475   2.979   4.701   5.824
 7192SOL    HW222476   3.041   4.644   5.964
 7193SOL     OW22477   4.399   1.771   3.463
 7193SOL    HW122478   4.374   1.854   3.413
 7193SOL    HW222479   4.443   1.706   3.400
 7194SOL     OW22480   2.748   1.709   2.143
 7194SOL    HW122481   2.841   1.728   2.111
 7194SOL    HW222482   2.683   1.768   2.094
 7195SOL     OW22483   0.930   5.663   1.390
 7195SOL    HW122484   0.931   5.565   1.370
 7195SOL    HW222485   0.920   5.715   1.305
 7196SOL     OW22486   3.345   3.142   2.346
 7196SOL    HW122487   3.373   3.139   2.250
 7196SOL    HW222488   3.352   3.235   2.381
 7197SOL     OW22489   0.283   2.071   5.744
 7197SOL    HW122490   0.358   2.114   5.694
 7197SOL    HW222491   0.227   2.142   5.787
 7198SOL     OW22492   1.499   6.272   6.722
 7198SOL    HW122493   1.598   6.278   6.717
 7198SOL    HW222494   1.459   6.318   6.642
 7199SOL     OW22495   6.581   6.566   2.939
 7199SOL    HW122496   6.677   6.593   2.953
 7199SOL    HW222497   6.569   6.471   2.969
 7200SOL     OW22498   1.985   0.755   1.427
 7200SOL    HW122499   1.965   0.787   1.334
 7200SOL    HW222500   1.938   0.668   1.442
 7201SOL     OW22501   2.343   4.331   3.662
 7201SOL    HW122502   2.246   4.325   3.685
 7201SOL    HW222503   2.357   4.303   3.567
 7202SOL     OW22504   3.769   0.969   6.579
 7202SOL    HW122505   3.792   0.995   6.673
 7202SOL    HW222506   3.791   1.044   6.517
 7203SOL     OW22507   5.314   0.982   0.101
 7203SOL    HW122508   5.371   1.063   0.116
 7203SOL    HW222509   5.221   1.002   0.131
 7204SOL     OW22510   6.274   1.649   2.994
 7204SOL    HW122511   6.289   1.732   3.046
 7204SOL    HW222512   6.258   1.672   2.898
 7205SOL     OW22513   2.021   4.892   2.175
 7205SOL    HW122514   1.997   4.856   2.266
 7205SOL    HW222515   2.020   4.991   2.178
 7206SOL     OW22516   6.285   1.181   1.435
 7206SOL    HW122517   6.219   1.187   1.360
 7206SOL    HW222518   6.259   1.246   1.507
 7207SOL     OW22519   3.322   6.988   2.001
 7207SOL    HW122520   3.319   0.017   1.917
 7207SOL    HW222521   3.336   0.022   2.080
 7208SOL     OW22522   3.072   0.434   5.433
 7208SOL    HW122523   3.138   0.452   5.506
 7208SOL    HW222524   2.979   0.440   5.470
 7209SOL     OW22525   4.112   3.571   4.561
 7209SOL    HW122526   4.181   3.568   4.489
 7209SOL    HW222527   4.080   3.665   4.573
 7210SOL     OW22528   4.082   0.678   4.115
 7210SOL    HW122529   4.019   0.754   4.127
 7210SOL    HW222530   4.162   0.691   4.174
 7211SOL     OW22531   1.273   5.296   3.192
 7211SOL    HW122532   1.352   5.276   3.250
 7211SOL    HW222533   1.294   5.269   3.098
 7212SOL     OW22534   5.402   6.353   4.254
 7212SOL    HW122535   5.429   6.315   4.165
 7212SOL    HW222536   5.447   6.441   4.267
 7213SOL     OW22537   5.393   1.294   5.599
 7213SOL    HW122538   5.330   1.367   5.571
 7213SOL    HW222539   5.376   1.213   5.544
 7214SOL     OW22540   1.844   4.902   4.791
 7214SOL    HW122541   1.775   4.852   4.845
 7214SOL    HW222542   1.818   4.900   4.694
 7215SOL     OW22543   1.377   3.947   3.674
 7215SOL    HW122544   1.458   3.889   3.684
 7215SOL    HW222545   1.318   3.936   3.754
 7216SOL     OW22546   2.439   0.744   1.674
 7216SOL    HW122547   2.436   0.649   1.645
 7216SOL    HW222548   2.372   0.798   1.623
 7217SOL     OW22549   0.878   3.103   2.256
 7217SOL    HW122550   0.860   3.014   2.214
 7217SOL    HW222551   0.847   3.103   2.351
 7218SOL     OW22552   5.380   2.892   5.641
 7218SOL    HW122553   5.466   2.890   5.590
 7218SOL    HW222554   5.320   2.962   5.602
 7219SOL     OW22555   3.800   1.090   2.152
 7219SOL    HW122556   3.808   1.026   2.076
 7219SOL    HW222557   3.767   1.178   2.118
 7220SOL     OW22558   6.748   1.040   2.931
 7220SOL    HW122559   6.831   1.039   2.988
 7220SOL    HW222560   6.672   1.001   2.982
 7221SOL     OW22561   5.863   5.863   5.923
 7221SOL    HW122562   5.881   5.841   5.828
 7221SOL    HW222563   5.892   5.787   5.981
 7222SOL     OW22564   0.199   5.991   1.938
 7222SOL    HW122565   0.106   5.956   1.945
 7222SOL    HW222566   0.198   6.091   1.945
 7223SOL     OW22567   3.262   1.189   5.505
 7223SOL    HW122568   3.249   1.279   5.463
 7223SOL    HW222569   3.261   1.119   5.433
 7224SOL     OW22570   4.886   0.016   4.513
 7224SOL    HW122571   4.977   7.001   4.502
 7224SOL    HW222572   4.855   0.051   4.425
 7225SOL     OW22573   2.688   6.146   0.154
 7225SOL    HW122574   2.708   6.193   0.240
 7225SOL    HW222575   2.589   6.137   0.143
 7226SOL     OW22576   6.681   0.147   0.906
 7226SOL    HW122577   6.619   0.085   0.858
 7226SOL    HW222578   6.774   0.113   0.901
 7227SOL     OW22579   6.300   2.159   6.778
 7227SOL    HW122580   6.366   2.155   6.703
 7227SOL    HW222581   6.303   2.250   6.820
 7228SOL     OW22582   1.231   0.774   3.273
 7228SOL    HW122583   1.258   0.678   3.264
 7228SOL    HW222584   1.189   0.804   3.187
 7229SOL     OW22585   0.797   0.551   3.696
 7229SOL    HW122586   0.772   0.455   3.688
 7229SOL    HW222587   0.733   0.607   3.643
 7230SOL     OW22588   5.498   3.932   2.912
 7230SOL    HW122589   5.424   3.865   2.901
 7230SOL    HW222590   5.524   3.967   2.823
 7231SOL     OW22591   5.135   1.103   6.484
 7231SOL    HW122592   5.135   1.040   6.407
 7231SOL    HW222593   5.214   1.084   6.543
 7232SOL     OW22594   3.449   4.508   1.431
 7232SOL    HW122595   3.355   4.523   1.462
 7232SOL    HW222596   3.512   4.517   1.509
 7233SOL     OW22597   6.741   1.959   6.329
 7233SOL    HW122598   6.758   1.972   6.231
 7233SOL    HW222599   6.722   2.047   6.372
 7234SOL     OW22600   6.174   2.037   2.534
 7234SOL    HW122601   6.187   2.035   2.633
 7234SOL    HW222602   6.218   1.957   2.492
 7235SOL     OW22603   5.923   3.506   5.097
 7235SOL    HW122604   5.963   3.458   5.176
 7235SOL    HW222605   5.830   3.536   5.119
 7236SOL     OW22606   3.155   0.381   3.335
 7236SOL    HW122607   3.059   0.393   3.360
 7236SOL    HW222608   3.175   0.431   3.251
 7237SOL     OW22609   6.242   5.718   5.775
 7237SOL    HW122610   6.236   5.632   5.826
 7237SOL    HW222611   6.150   5.751   5.755
 7238SOL     OW22612   1.369   1.065   1.224
 7238SOL    HW122613   1.343   1.117   1.305
 7238SOL    HW222614   1.405   1.127   1.155
 7239SOL     OW22615   3.972   1.603   1.798
 7239SOL    HW122616   4.032   1.550   1.739
 7239SOL    HW222617   3.879   1.603   1.760
 7240SOL     OW22618   2.972   4.529   0.569
 7240SOL    HW122619   2.967   4.476   0.485
 7240SOL    HW222620   2.984   4.626   0.548
 7241SOL     OW22621   3.307   0.382   5.083
 7241SOL    HW122622   3.288   0.455   5.150
 7241SOL    HW222623   3.405   0.382   5.061
 7242SOL     OW22624   4.611   4.470   6.980
 7242SOL    HW122625   4.518   4.435   6.965
 7242SOL    HW222626   4.631   4.542   6.913
 7243SOL     OW22627   0.276   5.597   0.009
 7243SOL    HW122628   0.197   5.643   0.052
 7243SOL    HW222629   0.298   5.642   6.949
 7244SOL     OW22630   5.924   1.367   0.985
 7244SOL    HW122631   5.856   1.422   1.033
 7244SOL    HW222632   5.890   1.345   0.894
 7245SOL     OW22633   0.288   2.013   3.606
 7245SOL    HW122634   0.219   2.053   3.666
 7245SOL    HW222635   0.372   1.998   3.658
 7246SOL     OW22636   0.464   6.089   5.730
 7246SOL    HW122637   0.501   6.025   5.798
 7246SOL    HW222638   0.439   6.175   5.775
 7247SOL     OW22639   3.629   5.209   2.977
 7247SOL    HW122640   3.579   5.290   3.008
 7247SOL    HW222641   3.598   5.184   2.885
 7248SOL     OW22642   2.926   0.831   4.601
 7248SOL    HW122643   2.961   0.915   4.560
 7248SOL    HW222644   3.001   0.778   4.639
 7249SOL     OW22645   6.155   5.735   6.835
 7249SOL    HW122646   6.232   5.792   6.864
 7249SOL    HW222647   6.127   5.675   6.910
 7250SOL     OW22648   3.196   4.338   6.550
 7250SOL    HW122649   3.273   4.365   6.492
 7250SOL    HW222650   3.112   4.377   6.513
 7251SOL     OW22651   5.467   0.534   5.200
 7251SOL    HW122652   5.420   0.620   5.181
 7251SOL    HW222653   5.563   0.542   5.172
 7252SOL     OW22654   3.986   3.789   5.114
 7252SOL    HW122655   3.950   3.881   5.097
 7252SOL    HW222656   4.029   3.755   5.031
 7253SOL     OW22657   5.403   5.650   0.923
 7253SOL    HW122658   5.467   5.696   0.861
 7253SOL    HW222659   5.309   5.669   0.894
 7254SOL     OW22660   4.781   6.473   5.319
 7254SOL    HW122661   4.774   6.380   5.357
 7254SOL    HW222662   4.854   6.522   5.367
 7255SOL     OW22663   3.643   3.742   2.254
 7255SOL    HW122664   3.669   3.838   2.248
 7255SOL    HW222665   3.713   3.690   2.302
 7256SOL     OW22666   4.977   4.887   4.318
 7256SOL    HW122667   4.991   4.868   4.220
 7256SOL    HW222668   4.917   4.817   4.357
 7257SOL     OW22669   5.736   4.476   3.297
 7257SOL    HW122670   5.702   4.411   3.230
 7257SOL    HW222671   5.810   4.530   3.256
 7258SOL     OW22672   3.637   0.093   5.006
 7258SOL    HW122673   3.653   7.024   5.031
 7258SOL    HW222674   3.544   0.103   4.969
 7259SOL     OW22675   2.086   5.624   5.986
 7259SOL    HW122676   2.136   5.548   5.945
 7259SOL    HW222677   2.099   5.706   5.929
 7260SOL     OW22678   3.696   1.966   1.909
 7260SOL    HW122679   3.787   1.949   1.874
 7260SOL    HW222680   3.695   2.051   1.961
 7261SOL     OW22681   1.250   4.125   1.801
 7261SOL    HW122682   1.178   4.174   1.752
 7261SOL    HW222683   1.324   4.103   1.737
 7262SOL     OW22684   6.310   2.105   5.088
 7262SOL    HW122685   6.270   2.193   5.065
 7262SOL    HW222686   6.250   2.032   5.054
 7263SOL     OW22687   4.195   6.432   1.930
 7263SOL    HW122688   4.227   6.413   1.838
 7263SOL    HW222689   4.135   6.358   1.961
 7264SOL     OW22690   0.917   6.696   5.293
 7264SOL    HW122691   0.861   6.627   5.248
 7264SOL    HW222692   0.905   6.689   5.392
 7265SOL     OW22693   4.301   4.074   5.885
 7265SOL    HW122694   4.229   4.056   5.953
 7265SOL    HW222695   4.265   4.134   5.813
 7266SOL     OW22696   5.641   1.547   1.730
 7266SOL    HW122697   5.596   1.634   1.750
 7266SOL    HW222698   5.627   1.484   1.807
 7267SOL     OW22699   0.119   3.535   4.736
 7267SOL    HW122700   0.068   3.616   4.763
 7267SOL    HW222701   0.200   3.563   4.684
 7268SOL     OW22702   3.162   6.684   1.209
 7268SOL    HW122703   3.238   6.745   1.232
 7268SOL    HW222704   3.195   6.612   1.147
 7269SOL     OW22705   1.612   7.020   1.832
 7269SOL    HW122706   1.624   0.093   1.839
 7269SOL    HW222707   1.595   6.995   1.737
 7270SOL     OW22708   3.230   1.243   2.262
 7270SOL    HW122709   3.244   1.341   2.243
 7270SOL    HW222710   3.304   1.209   2.319
 7271SOL     OW22711   6.385   4.166   4.005
 7271SOL    HW122712   6.324   4.126   4.073
 7271SOL    HW222713   6.471   4.193   4.048
 7272SOL     OW22714   5.451   2.159   1.464
 7272SOL    HW122715   5.474   2.249   1.426
 7272SOL    HW222716   5.418   2.099   1.391
 7273SOL     OW22717   6.167   5.913   6.280
 7273SOL    HW122718   6.136   5.993   6.228
 7273SOL    HW222719   6.216   5.943   6.362
 7274SOL     OW22720   0.109   4.376   5.193
 7274SOL    HW122721   0.108   4.428   5.278
 7274SOL    HW222722   0.020   4.332   5.179
 7275SOL     OW22723   5.875   0.136   1.253
 7275SOL    HW122724   5.854   0.233   1.260
 7275SOL    HW222725   5.917   0.105   1.339
 7276SOL     OW22726   2.662   2.101   4.091
 7276SOL    HW122727   2.634   2.127   3.999
 7276SOL    HW222728   2.740   2.158   4.119
 7277SOL     OW22729   5.102   1.635   4.620
 7277SOL    HW122730   5.104   1.713   4.682
 7277SOL    HW222731   5.012   1.628   4.577
 7278SOL     OW22732   2.590   1.571   3.480
 7278SOL    HW122733   2.562   1.510   3.405
 7278SOL    HW222734   2.650   1.643   3.444
 7279SOL     OW22735   4.314   4.665   0.903
 7279SOL    HW122736   4.398   4.619   0.874
 7279SOL    HW222737   4.335   4.734   0.972
 7280SOL     OW22738   6.247   2.091   5.560
 7280SOL    HW122739   6.302   2.041   5.493
 7280SOL    HW222740   6.304   2.162   5.604
 7281SOL     OW22741   3.768   5.721   1.600
 7281SOL    HW122742   3.859   5.695   1.567
 7281SOL    HW222743   3.774   5.746   1.696
 7282SOL     OW22744   6.579   3.784   2.410
 7282SOL    HW122745   6.617   3.743   2.493
 7282SOL    HW222746   6.559   3.712   2.343
 7283SOL     OW22747   4.657   4.852   2.885
 7283SOL    HW122748   4.712   4.931   2.858
 7283SOL    HW222749   4.688   4.818   2.974
 7284SOL     OW22750   0.161   1.689   2.469
 7284SOL    HW122751   0.128   1.618   2.406
 7284SOL    HW222752   0.083   1.731   2.515
 7285SOL     OW22753   4.821   3.158   1.685
 7285SOL    HW122754   4.831   3.255   1.662
 7285SOL    HW222755   4.758   3.148   1.762
 7286SOL     OW22756   6.754   1.638   3.392
 7286SOL    HW122757   6.716   1.545   3.396
 7286SOL    HW222758   6.837   1.643   3.447
 7287SOL     OW22759   2.698   1.640   3.009
 7287SOL    HW122760   2.783   1.616   2.961
 7287SOL    HW222761   2.704   1.734   3.043
 7288SOL     OW22762   2.549   1.526   2.215
 7288SOL    HW122763   2.626   1.585   2.192
 7288SOL    HW222764   2.464   1.566   2.180
 7289SOL     OW22765   6.790   1.834   1.286
 7289SOL    HW122766   6.882   1.867   1.267
 7289SOL    HW222767   6.730   1.855   1.209
 7290SOL     OW22768   3.839   1.116   4.621
 7290SOL    HW122769   3.881   1.198   4.659
 7290SOL    HW222770   3.902   1.039   4.631
 7291SOL     OW22771   2.605   0.985   0.742
 7291SOL    HW122772   2.643   1.043   0.670
 7291SOL    HW222773   2.655   1.000   0.827
 7292SOL     OW22774   2.907   0.272   2.642
 7292SOL    HW122775   2.939   0.356   2.597
 7292SOL    HW222776   2.860   0.215   2.575
 7293SOL     OW22777   6.936   1.612   3.998
 7293SOL    HW122778   6.933   1.520   4.038
 7293SOL    HW222779   6.843   1.641   3.975
 7294SOL     OW22780   3.466   5.971   2.055
 7294SOL    HW122781   3.460   5.940   2.150
 7294SOL    HW222782   3.485   6.069   2.053
 7295SOL     OW22783   5.775   4.330   0.961
 7295SOL    HW122784   5.791   4.244   0.912
 7295SOL    HW222785   5.677   4.348   0.966
 7296SOL     OW22786   4.827   4.956   2.080
 7296SOL    HW122787   4.914   4.957   2.031
 7296SOL    HW222788   4.752   4.970   2.015
 7297SOL     OW22789   4.326   7.001   1.572
 7297SOL    HW122790   4.369   6.916   1.602
 7297SOL    HW222791   4.379   0.015   1.497
 7298SOL     OW22792   3.945   5.031   0.312
 7298SOL    HW122793   4.017   5.092   0.345
 7298SOL    HW222794   3.985   4.962   0.252
 7299SOL     OW22795   1.230   2.945   6.545
 7299SOL    HW122796   1.220   2.961   6.643
 7299SOL    HW222797   1.173   2.868   6.517
 7300SOL     OW22798   0.129   5.119   2.125
 7300SOL    HW122799   0.218   5.106   2.080
 7300SOL    HW222800   0.119   5.051   2.197
 7301SOL     OW22801   4.298   1.914   6.281
 7301SOL    HW122802   4.235   1.987   6.311
 7301SOL    HW222803   4.353   1.947   6.205
 7302SOL     OW22804   5.871   2.099   6.129
 7302SOL    HW122805   5.800   2.124   6.063
 7302SOL    HW222806   5.829   2.077   6.216
 7303SOL     OW22807   2.605   1.934   2.040
 7303SOL    HW122808   2.669   2.008   2.016
 7303SOL    HW222809   2.520   1.945   1.988
 7304SOL     OW22810   2.576   5.724   0.764
 7304SOL    HW122811   2.544   5.636   0.728
 7304SOL    HW222812   2.675   5.729   0.755
 7305SOL     OW22813   6.166   1.031   0.205
 7305SOL    HW122814   6.246   0.991   0.251
 7305SOL    HW222815   6.195   1.111   0.153
 7306SOL     OW22816   0.987   2.847   1.777
 7306SOL    HW122817   0.936   2.931   1.762
 7306SOL    HW222818   1.085   2.866   1.772
 7307SOL     OW22819   1.912   0.358   0.653
 7307SOL    HW122820   1.895   0.290   0.724
 7307SOL    HW222821   2.005   0.394   0.663
 7308SOL     OW22822   4.257   1.213   2.787
 7308SOL    HW122823   4.219   1.215   2.695
 7308SOL    HW222824   4.190   1.174   2.850
 7309SOL     OW22825   2.563   5.204   3.598
 7309SOL    HW122826   2.550   5.105   3.596
 7309SOL    HW222827   2.555   5.237   3.692
 7310SOL     OW22828   2.505   2.967   6.052
 7310SOL    HW122829   2.531   2.871   6.062
 7310SOL    HW222830   2.541   3.020   6.128
 7311SOL     OW22831   0.330   6.087   6.121
 7311SOL    HW122832   0.246   6.058   6.166
 7311SOL    HW222833   0.314   6.096   6.023
 7312SOL     OW22834   6.589   2.287   3.966
 7312SOL    HW122835   6.662   2.218   3.964
 7312SOL    HW222836   6.542   2.284   4.054
 7313SOL     OW22837   2.563   0.753   2.702
 7313SOL    HW122838   2.566   0.691   2.624
 7313SOL    HW222839   2.632   0.825   2.690
 7314SOL     OW22840   0.903   4.712   5.817
 7314SOL    HW122841   0.950   4.771   5.882
 7314SOL    HW222842   0.899   4.619   5.853
 7315SOL     OW22843   1.720   4.782   2.678
 7315SOL    HW122844   1.751   4.690   2.654
 7315SOL    HW222845   1.621   4.788   2.663
 7316SOL     OW22846   3.603   1.799   1.260
 7316SOL    HW122847   3.691   1.811   1.305
 7316SOL    HW222848   3.611   1.727   1.191
 7317SOL     OW22849   4.042   1.959   0.354
 7317SOL    HW122850   4.061   1.927   0.447
 7317SOL    HW222851   4.088   1.900   0.288
 7318SOL     OW22852   5.555   6.344   0.611
 7318SOL    HW122853   5.491   6.269   0.596
 7318SOL    HW222854   5.506   6.425   0.643
 7319SOL     OW22855   5.307   6.019   6.443
 7319SOL    HW122856   5.331   6.020   6.345
 7319SOL    HW222857   5.317   6.112   6.480
 7320SOL     OW22858   0.787   2.235   1.077
 7320SOL    HW122859   0.717   2.307   1.081
 7320SOL    HW222860   0.742   2.147   1.063
 7321SOL     OW22861   1.364   1.513   6.533
 7321SOL    HW122862   1.440   1.547   6.478
 7321SOL    HW222863   1.323   1.588   6.585
 7322SOL     OW22864   1.084   3.368   3.511
 7322SOL    HW122865   1.156   3.432   3.538
 7322SOL    HW222866   1.121   3.276   3.506
 7323SOL     OW22867   0.667   2.763   0.573
 7323SOL    HW122868   0.735   2.694   0.596
 7323SOL    HW222869   0.711   2.840   0.527
 7324SOL     OW22870   5.548   4.196   3.979
 7324SOL    HW122871   5.601   4.114   3.958
 7324SOL    HW222872   5.608   4.276   3.983
 7325SOL     OW22873   4.330   1.400   5.848
 7325SOL    HW122874   4.274   1.328   5.889
 7325SOL    HW222875   4.278   1.445   5.775
 7326SOL     OW22876   3.706   0.844   0.541
 7326SOL    HW122877   3.701   0.924   0.482
 7326SOL    HW222878   3.683   0.870   0.635
 7327SOL     OW22879   1.603   4.285   3.086
 7327SOL    HW122880   1.543   4.218   3.042
 7327SOL    HW222881   1.660   4.330   3.017
 7328SOL     OW22882   4.586   4.965   4.869
 7328SOL    HW122883   4.669   4.912   4.882
 7328SOL    HW222884   4.506   4.907   4.887
 7329SOL     OW22885   3.335   3.205   1.220
 7329SOL    HW122886   3.428   3.240   1.208
 7329SOL    HW222887   3.273   3.253   1.159
 7330SOL     OW22888   2.739   3.228   1.745
 7330SOL    HW122889   2.656   3.173   1.736
 7330SOL    HW222890   2.726   3.317   1.702
 7331SOL     OW22891   5.208   2.872   2.327
 7331SOL    HW122892   5.222   2.963   2.288
 7331SOL    HW222893   5.268   2.860   2.407
 7332SOL     OW22894   3.144   6.236   6.104
 7332SOL    HW122895   3.086   6.169   6.057
 7332SOL    HW222896   3.110   6.328   6.085
 7333SOL     OW22897   0.532   0.964   1.211
 7333SOL    HW122898   0.629   0.968   1.234
 7333SOL    HW222899   0.480   1.023   1.273
 7334SOL     OW22900   2.694   6.119   4.153
 7334SOL    HW122901   2.598   6.091   4.152
 7334SOL    HW222902   2.713   6.171   4.070
 7335SOL     OW22903   0.053   3.963   2.280
 7335SOL    HW122904   0.116   3.971   2.202
 7335SOL    HW222905   0.013   3.871   2.281
 7336SOL     OW22906   2.277   6.316   2.426
 7336SOL    HW122907   2.296   6.316   2.327
 7336SOL    HW222908   2.180   6.336   2.440
 7337SOL     OW22909   2.458   1.508   3.216
 7337SOL    HW122910   2.429   1.425   3.169
 7337SOL    HW222911   2.471   1.582   3.150
 7338SOL     OW22912   5.126   3.542   1.181
 7338SOL    HW122913   5.111   3.524   1.084
 7338SOL    HW222914   5.055   3.603   1.216
 7339SOL     OW22915   0.063   6.299   4.684
 7339SOL    HW122916   0.078   6.250   4.598
 7339SOL    HW222917   7.010   6.360   4.674
 7340SOL     OW22918   2.934   0.014   0.666
 7340SOL    HW122919   2.924   0.096   0.611
 7340SOL    HW222920   3.027   7.005   0.657
 7341SOL     OW22921   6.745   5.203   4.553
 7341SOL    HW122922   6.683   5.127   4.534
 7341SOL    HW222923   6.776   5.243   4.466
 7342SOL     OW22924   1.606   4.943   0.856
 7342SOL    HW122925   1.659   5.026   0.841
 7342SOL    HW222926   1.634   4.900   0.942
 7343SOL     OW22927   5.185   2.906   2.755
 7343SOL    HW122928   5.145   2.815   2.762
 7343SOL    HW222929   5.234   2.928   2.840
 7344SOL     OW22930   2.584   1.237   0.246
 7344SOL    HW122931   2.517   1.238   0.173
 7344SOL    HW222932   2.667   1.191   0.215
 7345SOL     OW22933   3.521   5.298   0.475
 7345SOL    HW122934   3.542   5.316   0.379
 7345SOL    HW222935   3.600   5.321   0.532
 7346SOL     OW22936   3.845   4.691   1.706
 7346SOL    HW122937   3.756   4.696   1.750
 7346SOL    HW222938   3.916   4.717   1.772
 7347SOL     OW22939   6.694   2.831   2.613
 7347SOL    HW122940   6.742   2.909   2.655
 7347SOL    HW222941   6.613   2.864   2.566
 7348SOL     OW22942   0.891   1.984   5.166
 7348SOL    HW122943   0.912   2.061   5.106
 7348SOL    HW222944   0.892   2.014   5.261
 7349SOL     OW22945   3.577   1.239   0.575
 7349SOL    HW122946   3.502   1.179   0.546
 7349SOL    HW222947   3.661   1.214   0.527
 7350SOL     OW22948   2.033   1.228   2.740
 7350SOL    HW122949   1.996   1.231   2.832
 7350SOL    HW222950   2.059   1.320   2.711
 7351SOL     OW22951   4.391   4.333   6.874
 7351SOL    HW122952   4.308   4.366   6.828
 7351SOL    HW222953   4.430   4.258   6.822
 7352SOL     OW22954   6.744   1.145   3.684
 7352SOL    HW122955   6.666   1.174   3.628
 7352SOL    HW222956   6.725   1.055   3.723
 7353SOL     OW22957   4.841   2.211   4.844
 7353SOL    HW122958   4.865   2.136   4.906
 7353SOL    HW222959   4.817   2.174   4.755
 7354SOL     OW22960   6.415   4.317   5.239
 7354SOL    HW122961   6.488   4.310   5.307
 7354SOL    HW222962   6.444   4.378   5.165
 7355SOL     OW22963   1.123   4.325   2.065
 7355SOL    HW122964   1.038   4.343   2.015
 7355SOL    HW222965   1.200   4.357   2.010
 7356SOL     OW22966   6.244   1.018   5.423
 7356SOL    HW122967   6.198   1.017   5.512
 7356SOL    HW222968   6.314   0.947   5.421
 7357SOL     OW22969   6.670   1.555   0.649
 7357SOL    HW122970   6.697   1.646   0.680
 7357SOL    HW222971   6.744   1.515   0.595
 7358SOL     OW22972   2.968   0.724   3.787
 7358SOL    HW122973   3.005   0.671   3.864
 7358SOL    HW222974   2.934   0.812   3.821
 7359SOL     OW22975   3.473   3.202   3.051
 7359SOL    HW122976   3.398   3.139   3.076
 7359SOL    HW222977   3.560   3.154   3.060
 7360SOL     OW22978   0.279   3.037   5.635
 7360SOL    HW122979   0.290   3.135   5.648
 7360SOL    HW222980   0.362   2.989   5.663
 7361SOL     OW22981   5.146   6.850   2.124
 7361SOL    HW122982   5.094   6.803   2.053
 7361SOL    HW222983   5.101   6.936   2.148
 7362SOL     OW22984   1.982   6.803   5.799
 7362SOL    HW122985   1.968   6.896   5.764
 7362SOL    HW222986   1.923   6.789   5.879
 7363SOL     OW22987   5.184   2.730   6.222
 7363SOL    HW122988   5.128   2.670   6.166
 7363SOL    HW222989   5.152   2.825   6.212
 7364SOL     OW22990   5.658   0.805   1.865
 7364SOL    HW122991   5.668   0.866   1.944
 7364SOL    HW222992   5.577   0.748   1.877
 7365SOL     OW22993   3.413   0.921   2.272
 7365SOL    HW122994   3.412   0.826   2.241
 7365SOL    HW222995   3.415   0.982   2.193
 7366SOL     OW22996   0.816   5.441   0.094
 7366SOL    HW122997   0.745   5.398   0.039
 7366SOL    HW222998   0.898   5.382   0.096
 7367SOL     OW22999   5.157   3.474   6.760
 7367SOL    HW123000   5.221   3.414   6.810
 7367SOL    HW223001   5.121   3.543   6.823
 7368SOL     OW23002   3.076   3.410   3.782
 7368SOL    HW123003   3.012   3.486   3.796
 7368SOL    HW223004   3.143   3.410   3.856
 7369SOL     OW23005   4.770   2.530   6.858
 7369SOL    HW123006   4.839   2.489   6.917
 7369SOL    HW223007   4.815   2.581   6.784
 7370SOL     OW23008   1.821   6.577   1.156
 7370SOL    HW123009   1.818   6.536   1.065
 7370SOL    HW223010   1.765   6.523   1.219
 7371SOL     OW23011   2.240   4.981   4.553
 7371SOL    HW123012   2.189   4.896   4.569
 7371SOL    HW223013   2.328   4.976   4.601
 7372SOL     OW23014   3.327   6.767   5.953
 7372SOL    HW123015   3.231   6.743   5.944
 7372SOL    HW223016   3.362   6.736   6.041
 7373SOL     OW23017   3.989   0.780   1.689
 7373SOL    HW123018   4.075   0.755   1.643
 7373SOL    HW223019   3.972   0.877   1.676
 7374SOL     OW23020   1.831   3.544   6.238
 7374SOL    HW123021   1.820   3.475   6.310
 7374SOL    HW223022   1.928   3.558   6.220
 7375SOL     OW23023   1.069   0.043   2.990
 7375SOL    HW123024   1.156   7.019   2.991
 7375SOL    HW223025   1.040   0.062   3.084
 7376SOL     OW23026   2.783   3.917   5.774
 7376SOL    HW123027   2.711   3.863   5.731
 7376SOL    HW223028   2.752   4.011   5.786
 7377SOL     OW23029   4.812   4.882   1.571
 7377SOL    HW123030   4.819   4.880   1.670
 7377SOL    HW223031   4.790   4.791   1.537
 7378SOL     OW23032   6.640   2.388   5.848
 7378SOL    HW123033   6.593   2.302   5.866
 7378SOL    HW223034   6.736   2.379   5.871
 7379SOL     OW23035   3.949   1.222   1.423
 7379SOL    HW123036   3.930   1.151   1.491
 7379SOL    HW223037   3.984   1.179   1.340
 7380SOL     OW23038   6.949   2.705   4.993
 7380SOL    HW123039   6.984   2.770   5.060
 7380SOL    HW223040   6.950   2.746   4.902
 7381SOL     OW23041   5.576   2.305   0.372
 7381SOL    HW123042   5.522   2.334   0.451
 7381SOL    HW223043   5.669   2.340   0.381
 7382SOL     OW23044   6.910   6.169   3.777
 7382SOL    HW123045   6.985   6.128   3.724
 7382SOL    HW223046   6.888   6.108   3.853
 7383SOL     OW23047   6.672   6.353   3.855
 7383SOL    HW123048   6.612   6.333   3.932
 7383SOL    HW223049   6.749   6.290   3.855
 7384SOL     OW23050   5.921   1.411   2.028
 7384SOL    HW123051   5.998   1.462   2.067
 7384SOL    HW223052   5.938   1.313   2.039
 7385SOL     OW23053   4.657   0.168   1.676
 7385SOL    HW123054   4.703   0.127   1.755
 7385SOL    HW223055   4.708   0.247   1.644
 7386SOL     OW23056   0.169   2.624   5.952
 7386SOL    HW123057   0.226   2.696   5.992
 7386SOL    HW223058   0.074   2.635   5.982
 7387SOL     OW23059   3.913   5.615   3.403
 7387SOL    HW123060   3.839   5.619   3.337
 7387SOL    HW223061   3.999   5.639   3.359
 7388SOL     OW23062   6.357   4.707   4.790
 7388SOL    HW123063   6.301   4.770   4.735
 7388SOL    HW223064   6.436   4.756   4.827
 7389SOL     OW23065   0.919   3.932   5.640
 7389SOL    HW123066   0.824   3.963   5.631
 7389SOL    HW223067   0.920   3.832   5.646
 7390SOL     OW23068   2.160   6.635   5.472
 7390SOL    HW123069   2.117   6.547   5.493
 7390SOL    HW223070   2.138   6.660   5.377
 7391SOL     OW23071   6.735   3.303   0.355
 7391SOL    HW123072   6.695   3.251   0.280
 7391SOL    HW223073   6.810   3.250   0.396
 7392SOL     OW23074   2.551   5.073   3.263
 7392SOL    HW123075   2.484   5.001   3.285
 7392SOL    HW223076   2.536   5.105   3.169
 7393SOL     OW23077   0.764   3.652   1.360
 7393SOL    HW123078   0.742   3.577   1.298
 7393SOL    HW223079   0.679   3.693   1.394
 7394SOL     OW23080   2.716   3.557   6.565
 7394SOL    HW123081   2.619   3.535   6.548
 7394SOL    HW223082   2.769   3.473   6.568
 7395SOL     OW23083   1.414   6.391   0.156
 7395SOL    HW123084   1.334   6.341   0.189
 7395SOL    HW223085   1.481   6.398   0.230
 7396SOL     OW23086   1.123   0.061   0.576
 7396SOL    HW123087   1.100   0.063   0.478
 7396SOL    HW223088   1.122   0.154   0.612
 7397SOL     OW23089   6.572   4.867   4.836
 7397SOL    HW123090   6.658   4.845   4.882
 7397SOL    HW223091   6.557   4.966   4.838
 7398SOL     OW23092   4.012   5.972   3.547
 7398SOL    HW123093   3.928   5.920   3.562
 7398SOL    HW223094   4.058   5.939   3.465
 7399SOL     OW23095   5.075   3.802   4.993
 7399SOL    HW123096   5.166   3.765   4.976
 7399SOL    HW223097   5.042   3.848   4.910
 7400SOL     OW23098   2.458   5.228   6.962
 7400SOL    HW123099   2.466   5.170   6.881
 7400SOL    HW223100   2.485   5.322   6.938
 7401SOL     OW23101   6.288   1.608   4.495
 7401SOL    HW123102   6.281   1.707   4.508
 7401SOL    HW223103   6.369   1.588   4.441
 7402SOL     OW23104   2.003   6.733   3.580
 7402SOL    HW123105   2.096   6.734   3.544
 7402SOL    HW223106   1.939   6.710   3.507
 7403SOL     OW23107   1.781   3.501   1.551
 7403SOL    HW123108   1.735   3.424   1.594
 7403SOL    HW223109   1.772   3.494   1.451
 7404SOL     OW23110   1.313   1.371   2.854
 7404SOL    HW123111   1.326   1.434   2.931
 7404SOL    HW223112   1.402   1.336   2.825
 7405SOL     OW23113   2.808   4.812   6.110
 7405SOL    HW123114   2.857   4.762   6.040
 7405SOL    HW223115   2.833   4.776   6.200
 7406SOL     OW23116   0.455   5.424   1.655
 7406SOL    HW123117   0.536   5.482   1.654
 7406SOL    HW223118   0.397   5.446   1.577
 7407SOL     OW23119   1.781   0.397   6.043
 7407SOL    HW123120   1.736   0.309   6.040
 7407SOL    HW223121   1.830   0.406   6.130
 7408SOL     OW23122   1.064   3.422   5.398
 7408SOL    HW123123   1.151   3.468   5.380
 7408SOL    HW223124   0.989   3.475   5.358
 7409SOL     OW23125   2.882   5.878   5.798
 7409SOL    HW123126   2.956   5.861   5.733
 7409SOL    HW223127   2.813   5.936   5.755
 7410SOL     OW23128   5.885   5.492   0.734
 7410SOL    HW123129   5.789   5.468   0.746
 7410SOL    HW223130   5.930   5.423   0.678
 7411SOL     OW23131   4.529   5.978   5.405
 7411SOL    HW123132   4.465   5.929   5.346
 7411SOL    HW223133   4.561   6.060   5.358
 7412SOL     OW23134   1.305   2.245   0.100
 7412SOL    HW123135   1.327   2.242   0.002
 7412SOL    HW223136   1.207   2.258   0.111
 7413SOL     OW23137   6.861   3.196   4.337
 7413SOL    HW123138   6.916   3.278   4.352
 7413SOL    HW223139   6.788   3.217   4.272
 7414SOL     OW23140   6.885   5.767   3.132
 7414SOL    HW123141   6.801   5.801   3.174
 7414SOL    HW223142   6.904   5.819   3.049
 7415SOL     OW23143   2.468   1.576   2.591
 7415SOL    HW123144   2.537   1.598   2.522
 7415SOL    HW223145   2.508   1.586   2.682
 7416SOL     OW23146   5.135   6.370   4.088
 7416SOL    HW123147   5.185   6.452   4.060
 7416SOL    HW223148   5.113   6.375   4.185
 7417SOL     OW23149   0.514   6.204   0.385
 7417SOL    HW123150   0.503   6.302   0.373
 7417SOL    HW223151   0.506   6.180   0.482
 7418SOL     OW23152   1.484   3.635   0.324
 7418SOL    HW123153   1.414   3.583   0.373
 7418SOL    HW223154   1.556   3.573   0.294
 7419SOL     OW23155   5.790   1.287   4.614
 7419SOL    HW123156   5.888   1.285   4.630
 7419SOL    HW223157   5.748   1.358   4.670
 7420SOL     OW23158   0.183   5.388   2.087
 7420SOL    HW123159   0.161   5.291   2.079
 7420SOL    HW223160   0.206   5.409   2.182
 7421SOL     OW23161   4.212   2.977   1.427
 7421SOL    HW123162   4.309   2.997   1.440
 7421SOL    HW223163   4.170   2.959   1.516
 7422SOL     OW23164   0.688   2.856   0.834
 7422SOL    HW123165   0.600   2.865   0.881
 7422SOL    HW223166   0.672   2.848   0.735
 7423SOL     OW23167   1.986   5.958   6.912
 7423SOL    HW123168   2.015   5.919   6.824
 7423SOL    HW223169   2.061   6.013   6.949
 7424SOL     OW23170   6.405   1.335   4.365
 7424SOL    HW123171   6.305   1.347   4.367
 7424SOL    HW223172   6.443   1.394   4.294
 7425SOL     OW23173   4.206   6.328   5.867
 7425SOL    HW123174   4.141   6.354   5.795
 7425SOL    HW223175   4.169   6.249   5.916
 7426SOL     OW23176   0.878   0.960   6.700
 7426SOL    HW123177   0.867   0.980   6.797
 7426SOL    HW223178   0.877   0.861   6.686
 7427SOL     OW23179   4.317   5.773   4.219
 7427SOL    HW123180   4.395   5.836   4.230
 7427SOL    HW223181   4.250   5.791   4.291
 7428SOL     OW23182   2.983   2.173   6.372
 7428SOL    HW123183   2.929   2.255   6.357
 7428SOL    HW223184   3.012   2.169   6.468
 7429SOL     OW23185   5.983   7.007   3.446
 7429SOL    HW123186   5.981   6.913   3.412
 7429SOL    HW223187   6.068   7.023   3.496
 7430SOL     OW23188   0.545   4.191   4.954
 7430SOL    HW123189   0.574   4.191   5.050
 7430SOL    HW223190   0.451   4.158   4.948
 7431SOL     OW23191   0.898   4.447   2.300
 7431SOL    HW123192   0.944   4.418   2.384
 7431SOL    HW223193   0.939   4.399   2.222
 7432SOL     OW23194   0.746   6.124   5.018
 7432SOL    HW123195   0.812   6.050   5.007
 7432SOL    HW223196   0.653   6.087   5.012
 7433SOL     OW23197   6.700   5.746   1.011
 7433SOL    HW123198   6.637   5.807   1.059
 7433SOL    HW223199   6.789   5.746   1.058
 7434SOL     OW23200   4.904   0.712   6.437
 7434SOL    HW123201   4.832   0.754   6.381
 7434SOL    HW223202   4.905   0.613   6.421
 7435SOL     OW23203   1.603   5.783   0.579
 7435SOL    HW123204   1.661   5.858   0.546
 7435SOL    HW223205   1.652   5.732   0.651
 7436SOL     OW23206   5.159   2.800   6.770
 7436SOL    HW123207   5.096   2.820   6.845
 7436SOL    HW223208   5.167   2.881   6.711
 7437SOL     OW23209   0.119   5.873   5.754
 7437SOL    HW123210   0.167   5.799   5.802
 7437SOL    HW223211   0.072   5.931   5.820
 7438SOL     OW23212   6.373   4.202   2.114
 7438SOL    HW123213   6.340   4.271   2.049
 7438SOL    HW223214   6.465   4.226   2.144
 7439SOL     OW23215   1.281   6.600   3.919
 7439SOL    HW123216   1.307   6.635   4.009
 7439SOL    HW223217   1.276   6.500   3.922
 7440SOL     OW23218   0.603   2.162   4.114
 7440SOL    HW123219   0.681   2.199   4.165
 7440SOL    HW223220   0.543   2.112   4.177
 7441SOL     OW23221   4.902   0.009   4.218
 7441SOL    HW123222   4.968   6.968   4.251
 7441SOL    HW223223   4.950   0.080   4.166
 7442SOL     OW23224   1.690   1.288   0.013
 7442SOL    HW123225   1.771   1.240   7.006
 7442SOL    HW223226   1.681   1.376   6.993
 7443SOL     OW23227   6.892   1.039   1.018
 7443SOL    HW123228   6.938   1.112   0.967
 7443SOL    HW223229   6.813   1.077   1.066
 7444SOL     OW23230   0.100   2.407   6.352
 7444SOL    HW123231   0.142   2.402   6.262
 7444SOL    HW223232   0.010   2.362   6.350
 7445SOL     OW23233   5.435   2.532   2.457
 7445SOL    HW123234   5.480   2.579   2.533
 7445SOL    HW223235   5.336   2.532   2.472
 7446SOL     OW23236   6.918   3.501   1.085
 7446SOL    HW123237   6.928   3.437   1.008
 7446SOL    HW223238   7.005   3.548   1.101
 7447SOL     OW23239   0.748   4.233   6.022
 7447SOL    HW123240   0.703   4.299   6.082
 7447SOL    HW223241   0.768   4.276   5.934
 7448SOL     OW23242   7.025   6.666   5.965
 7448SOL    HW123243   7.014   6.718   5.881
 7448SOL    HW223244   6.960   6.590   5.967
 7449SOL     OW23245   4.815   1.761   2.260
 7449SOL    HW123246   4.728   1.718   2.238
 7449SOL    HW223247   4.811   1.801   2.351
 7450SOL     OW23248   3.416   0.352   2.749
 7450SOL    HW123249   3.423   0.394   2.658
 7450SOL    HW223250   3.330   0.303   2.756
 7451SOL     OW23251   1.750   0.884   3.487
 7451SOL    HW123252   1.730   0.794   3.527
 7451SOL    HW223253   1.793   0.942   3.557
 7452SOL     OW23254   1.223   6.912   5.149
 7452SOL    HW123255   1.150   6.854   5.113
 7452SOL    HW223256   1.198   6.946   5.240
 7453SOL     OW23257   5.598   6.187   5.252
 7453SOL    HW123258   5.560   6.095   5.238
 7453SOL    HW223259   5.534   6.255   5.216
 7454SOL     OW23260   0.399   3.433   0.606
 7454SOL    HW123261   0.452   3.371   0.548
 7454SOL    HW223262   0.305   3.400   0.614
 7455SOL     OW23263   5.357   1.793   0.137
 7455SOL    HW123264   5.327   1.855   0.210
 7455SOL    HW223265   5.292   1.797   0.061
 7456SOL     OW23266   1.882   3.666   5.282
 7456SOL    HW123267   1.837   3.652   5.370
 7456SOL    HW223268   1.978   3.691   5.297
 7457SOL     OW23269   5.965   0.321   5.868
 7457SOL    HW123270   5.949   0.418   5.890
 7457SOL    HW223271   6.024   0.281   5.938
 7458SOL     OW23272   2.510   0.878   0.179
 7458SOL    HW123273   2.511   0.811   0.104
 7458SOL    HW223274   2.598   0.924   0.184
 7459SOL     OW23275   4.700   0.669   4.431
 7459SOL    HW123276   4.674   0.582   4.391
 7459SOL    HW223277   4.783   0.703   4.386
 7460SOL     OW23278   0.679   4.727   0.157
 7460SOL    HW123279   0.633   4.805   0.199
 7460SOL    HW223280   0.617   4.681   0.094
 7461SOL     OW23281   4.690   0.566   3.869
 7461SOL    HW123282   4.761   0.495   3.864
 7461SOL    HW223283   4.710   0.637   3.802
 7462SOL     OW23284   1.962   1.232   2.167
 7462SOL    HW123285   1.912   1.146   2.155
 7462SOL    HW223286   1.914   1.304   2.117
 7463SOL     OW23287   3.509   3.944   2.567
 7463SOL    HW123288   3.490   3.966   2.663
 7463SOL    HW223289   3.539   4.027   2.520
 7464SOL     OW23290   5.332   5.925   6.768
 7464SOL    HW123291   5.255   5.881   6.723
 7464SOL    HW223292   5.417   5.896   6.724
 7465SOL     OW23293   3.210   0.443   1.671
 7465SOL    HW123294   3.118   0.474   1.691
 7465SOL    HW223295   3.207   0.376   1.597
 7466SOL     OW23296   1.024   0.653   6.331
 7466SOL    HW123297   1.085   0.608   6.266
 7466SOL    HW223298   1.074   0.670   6.416
 7467SOL     OW23299   6.545   1.604   1.317
 7467SOL    HW123300   6.537   1.598   1.416
 7467SOL    HW223301   6.611   1.675   1.293
 7468SOL     OW23302   6.575   3.540   3.494
 7468SOL    HW123303   6.674   3.535   3.509
 7468SOL    HW223304   6.531   3.460   3.536
 7469SOL     OW23305   0.236   1.212   1.977
 7469SOL    HW123306   0.239   1.288   2.043
 7469SOL    HW223307   0.158   1.225   1.916
 7470SOL     OW23308   6.982   2.564   2.287
 7470SOL    HW123309   7.008   2.661   2.284
 7470SOL    HW223310   6.883   2.555   2.282
 7471SOL     OW23311   6.214   6.047   5.917
 7471SOL    HW123312   6.115   6.061   5.911
 7471SOL    HW223313   6.245   5.989   5.842
 7472SOL     OW23314   3.165   5.833   3.209
 7472SOL    HW123315   3.114   5.862   3.128
 7472SOL    HW223316   3.106   5.838   3.289
 7473SOL     OW23317   0.175   3.747   5.147
 7473SOL    HW123318   0.195   3.713   5.239
 7473SOL    HW223319   0.133   3.674   5.093
 7474SOL     OW23320   3.905   0.993   2.850
 7474SOL    HW123321   3.937   0.910   2.897
 7474SOL    HW223322   3.834   1.037   2.906
 7475SOL     OW23323   4.185   1.806   0.161
 7475SOL    HW123324   4.137   1.719   0.150
 7475SOL    HW223325   4.193   1.852   0.072
 7476SOL     OW23326   3.308   0.133   4.697
 7476SOL    HW123327   3.325   0.054   4.639
 7476SOL    HW223328   3.329   0.111   4.792
 7477SOL     OW23329   4.795   2.372   3.524
 7477SOL    HW123330   4.880   2.418   3.550
 7477SOL    HW223331   4.728   2.439   3.493
 7478SOL     OW23332   1.811   5.108   1.163
 7478SOL    HW123333   1.849   5.042   1.097
 7478SOL    HW223334   1.883   5.171   1.192
 7479SOL     OW23335   4.716   0.578   6.650
 7479SOL    HW123336   4.783   0.505   6.649
 7479SOL    HW223337   4.709   0.618   6.558
 7480SOL     OW23338   0.168   4.905   0.949
 7480SOL    HW123339   0.231   4.835   0.914
 7480SOL    HW223340   0.154   4.975   0.879
 7481SOL     OW23341   6.219   5.555   0.859
 7481SOL    HW123342   6.297   5.569   0.920
 7481SOL    HW223343   6.136   5.545   0.913
 7482SOL     OW23344   4.954   0.705   4.336
 7482SOL    HW123345   5.048   0.740   4.340
 7482SOL    HW223346   4.920   0.712   4.242
 7483SOL     OW23347   3.285   0.827   6.201
 7483SOL    HW123348   3.231   0.890   6.256
 7483SOL    HW223349   3.298   0.741   6.250
 7484SOL     OW23350   2.273   6.801   2.149
 7484SOL    HW123351   2.262   6.890   2.105
 7484SOL    HW223352   2.320   6.812   2.236
 7485SOL     OW23353   1.693   6.344   6.511
 7485SOL    HW123354   1.775   6.333   6.455
 7485SOL    HW223355   1.618   6.290   6.472
 7486SOL     OW23356   2.022   0.132   5.505
 7486SOL    HW123357   2.108   0.174   5.531
 7486SOL    HW223358   1.976   0.096   5.586
 7487SOL     OW23359   4.134   5.507   3.578
 7487SOL    HW123360   4.183   5.585   3.618
 7487SOL    HW223361   4.049   5.539   3.536
 7488SOL     OW23362   3.656   1.395   5.948
 7488SOL    HW123363   3.630   1.317   6.005
 7488SOL    HW223364   3.588   1.467   5.955
 7489SOL     OW23365   6.000   3.476   3.144
 7489SOL    HW123366   6.060   3.524   3.081
 7489SOL    HW223367   6.054   3.421   3.208
 7490SOL     OW23368   5.850   1.689   1.723
 7490SOL    HW123369   5.785   1.613   1.730
 7490SOL    HW223370   5.848   1.726   1.630
 7491SOL     OW23371   6.671   5.454   6.245
 7491SOL    HW123372   6.633   5.449   6.337
 7491SOL    HW223373   6.597   5.452   6.178
 7492SOL     OW23374   2.356   2.754   4.517
 7492SOL    HW123375   2.401   2.687   4.576
 7492SOL    HW223376   2.402   2.757   4.428
 7493SOL     OW23377   5.303   3.526   0.063
 7493SOL    HW123378   5.388   3.569   0.093
 7493SOL    HW223379   5.323   3.437   0.023
 7494SOL     OW23380   5.380   1.751   1.504
 7494SOL    HW123381   5.401   1.671   1.447
 7494SOL    HW223382   5.317   1.811   1.454
 7495SOL     OW23383   0.772   1.955   2.178
 7495SOL    HW123384   0.740   1.867   2.214
 7495SOL    HW223385   0.695   2.019   2.174
 7496SOL     OW23386   0.905   4.728   5.534
 7496SOL    HW123387   0.894   4.676   5.619
 7496SOL    HW223388   0.997   4.768   5.531
 7497SOL     OW23389   2.441   4.900   1.689
 7497SOL    HW123390   2.375   4.958   1.736
 7497SOL    HW223391   2.431   4.805   1.720
 7498SOL     OW23392   4.290   1.563   4.262
 7498SOL    HW123393   4.388   1.583   4.269
 7498SOL    HW223394   4.266   1.552   4.165
 7499SOL     OW23395   5.334   5.516   4.214
 7499SOL    HW123396   5.402   5.471   4.156
 7499SOL    HW223397   5.381   5.572   4.282
 7500SOL     OW23398   5.188   4.255   1.349
 7500SOL    HW123399   5.122   4.291   1.414
 7500SOL    HW223400   5.188   4.312   1.266
 7501SOL     OW23401   0.128   4.494   4.000
 7501SOL    HW123402   0.185   4.413   4.012
 7501SOL    HW223403   0.178   4.562   3.945
 7502SOL     OW23404   2.152   1.536   4.607
 7502SOL    HW123405   2.090   1.560   4.532
 7502SOL    HW223406   2.099   1.528   4.691
 7503SOL     OW23407   2.208   2.369   5.881
 7503SOL    HW123408   2.272   2.315   5.934
 7503SOL    HW223409   2.258   2.437   5.827
 7504SOL     OW23410   4.271   5.719   3.667
 7504SOL    HW123411   4.340   5.684   3.731
 7504SOL    HW223412   4.198   5.764   3.718
 7505SOL     OW23413   1.597   1.746   4.478
 7505SOL    HW123414   1.568   1.819   4.539
 7505SOL    HW223415   1.525   1.676   4.474
 7506SOL     OW23416   3.650   1.483   3.365
 7506SOL    HW123417   3.572   1.423   3.387
 7506SOL    HW223418   3.727   1.427   3.335
 7507SOL     OW23419   1.159   5.900   6.188
 7507SOL    HW123420   1.118   5.981   6.230
 7507SOL    HW223421   1.138   5.899   6.090
 7508SOL     OW23422   5.175   0.255   3.419
 7508SOL    HW123423   5.119   0.185   3.466
 7508SOL    HW223424   5.172   0.340   3.471
 7509SOL     OW23425   4.732   3.819   5.775
 7509SOL    HW123426   4.796   3.865   5.836
 7509SOL    HW223427   4.685   3.886   5.718
 7510SOL     OW23428   3.562   4.202   5.269
 7510SOL    HW123429   3.629   4.275   5.281
 7510SOL    HW223430   3.570   4.165   5.177
 7511SOL     OW23431   1.303   0.599   2.562
 7511SOL    HW123432   1.394   0.637   2.548
 7511SOL    HW223433   1.247   0.616   2.481
 7512SOL     OW23434   1.745   2.749   1.957
 7512SOL    HW123435   1.779   2.843   1.963
 7512SOL    HW223436   1.720   2.729   1.862
 7513SOL     OW23437   1.049   2.710   6.507
 7513SOL    HW123438   0.976   2.731   6.443
 7513SOL    HW223439   1.012   2.703   6.600
 7514SOL     OW23440   2.657   5.668   2.906
 7514SOL    HW123441   2.726   5.619   2.959
 7514SOL    HW223442   2.681   5.664   2.809
 7515SOL     OW23443   6.210   5.616   2.549
 7515SOL    HW123444   6.114   5.589   2.554
 7515SOL    HW223445   6.217   5.716   2.555
 7516SOL     OW23446   0.628   1.014   2.834
 7516SOL    HW123447   0.577   1.092   2.796
 7516SOL    HW223448   0.700   1.048   2.894
 7517SOL     OW23449   0.471   3.992   1.487
 7517SOL    HW123450   0.434   4.011   1.578
 7517SOL    HW223451   0.475   4.077   1.434
 7518SOL     OW23452   4.952   5.576   3.893
 7518SOL    HW123453   4.974   5.481   3.875
 7518SOL    HW223454   4.868   5.581   3.949
 7519SOL     OW23455   2.462   6.057   3.991
 7519SOL    HW123456   2.427   6.027   4.080
 7519SOL    HW223457   2.499   5.978   3.942
 7520SOL     OW23458   2.110   6.873   4.493
 7520SOL    HW123459   2.061   6.902   4.411
 7520SOL    HW223460   2.206   6.901   4.486
 7521SOL     OW23461   4.868   4.416   5.764
 7521SOL    HW123462   4.929   4.448   5.692
 7521SOL    HW223463   4.916   4.352   5.824
 7522SOL     OW23464   1.730   0.720   1.640
 7522SOL    HW123465   1.650   0.660   1.634
 7522SOL    HW223466   1.710   0.797   1.701
 7523SOL     OW23467   5.843   6.505   6.854
 7523SOL    HW123468   5.800   6.415   6.854
 7523SOL    HW223469   5.775   6.575   6.833
 7524SOL     OW23470   0.011   1.310   4.961
 7524SOL    HW123471   7.011   1.223   5.002
 7524SOL    HW223472   0.109   1.310   4.942
 7525SOL     OW23473   1.909   6.955   0.872
 7525SOL    HW123474   1.895   0.018   0.829
 7525SOL    HW223475   1.828   6.932   0.927
 7526SOL     OW23476   3.693   3.169   5.249
 7526SOL    HW123477   3.775   3.194   5.198
 7526SOL    HW223478   3.613   3.212   5.208
 7527SOL     OW23479   5.374   4.882   2.980
 7527SOL    HW123480   5.325   4.798   3.007
 7527SOL    HW223481   5.348   4.956   3.041
 7528SOL     OW23482   6.804   3.562   6.520
 7528SOL    HW123483   6.868   3.620   6.571
 7528SOL    HW223484   6.711   3.589   6.543
 7529SOL     OW23485   3.326   1.548   5.830
 7529SOL    HW123486   3.271   1.528   5.911
 7529SOL    HW223487   3.350   1.463   5.784
 7530SOL     OW23488   0.409   3.368   2.554
 7530SOL    HW123489   0.365   3.290   2.510
 7530SOL    HW223490   0.349   3.404   2.626
 7531SOL     OW23491   3.926   1.985   3.447
 7531SOL    HW123492   3.828   1.976   3.463
 7531SOL    HW223493   3.968   2.036   3.522
 7532SOL     OW23494   5.177   4.947   2.719
 7532SOL    HW123495   5.254   4.952   2.655
 7532SOL    HW223496   5.096   4.912   2.672
 7533SOL     OW23497   3.815   0.500   4.399
 7533SOL    HW123498   3.773   0.462   4.482
 7533SOL    HW223499   3.913   0.513   4.414
 7534SOL     OW23500   4.950   6.903   4.743
 7534SOL    HW123501   4.903   6.938   4.662
 7534SOL    HW223502   4.937   6.804   4.749
 7535SOL     OW23503   3.209   3.507   6.282
 7535SOL    HW123504   3.110   3.516   6.297
 7535SOL    HW223505   3.233   3.410   6.282
 7536SOL     OW23506   3.442   6.320   4.193
 7536SOL    HW123507   3.410   6.369   4.112
 7536SOL    HW223508   3.367   6.264   4.229
 7537SOL     OW23509   2.399   4.874   5.770
 7537SOL    HW123510   2.321   4.820   5.803
 7537SOL    HW223511   2.456   4.900   5.848
 7538SOL     OW23512   2.980   3.268   2.397
 7538SOL    HW123513   3.078   3.254   2.389
 7538SOL    HW223514   2.955   3.284   2.492
 7539SOL     OW23515   1.884   2.887   4.526
 7539SOL    HW123516   1.977   2.854   4.539
 7539SOL    HW223517   1.885   2.986   4.515
 7540SOL     OW23518   2.265   1.559   0.268
 7540SOL    HW123519   2.317   1.545   0.184
 7540SOL    HW223520   2.322   1.606   0.335
 7541SOL     OW23521   6.585   2.506   6.102
 7541SOL    HW123522   6.616   2.459   6.020
 7541SOL    HW223523   6.534   2.441   6.160
 7542SOL     OW23524   1.643   6.848   6.794
 7542SOL    HW123525   1.706   6.920   6.764
 7542SOL    HW223526   1.600   6.806   6.715
 7543SOL     OW23527   3.641   3.172   0.150
 7543SOL    HW123528   3.707   3.104   0.117
 7543SOL    HW223529   3.666   3.262   0.117
 7544SOL     OW23530   2.300   2.322   2.324
 7544SOL    HW123531   2.229   2.265   2.282
 7544SOL    HW223532   2.257   2.393   2.379
 7545SOL     OW23533   5.144   6.340   4.364
 7545SOL    HW123534   5.110   6.259   4.413
 7545SOL    HW223535   5.237   6.323   4.332
 7546SOL     OW23536   4.988   0.836   6.648
 7546SOL    HW123537   4.960   0.789   6.564
 7546SOL    HW223538   4.989   0.772   6.724
 7547SOL     OW23539   3.387   0.207   0.244
 7547SOL    HW123540   3.356   0.250   0.159
 7547SOL    HW223541   3.338   0.247   0.322
 7548SOL     OW23542   1.562   2.574   1.281
 7548SOL    HW123543   1.482   2.523   1.313
 7548SOL    HW223544   1.582   2.648   1.346
 7549SOL     OW23545   6.137   2.286   2.526
 7549SOL    HW123546   6.149   2.186   2.524
 7549SOL    HW223547   6.039   2.307   2.524
 7550SOL     OW23548   1.980   5.749   1.171
 7550SOL    HW123549   1.943   5.682   1.108
 7550SOL    HW223550   1.924   5.832   1.169
 7551SOL     OW23551   5.118   3.688   6.276
 7551SOL    HW123552   5.080   3.641   6.356
 7551SOL    HW223553   5.193   3.748   6.305
 7552SOL     OW23554   3.817   5.099   3.908
 7552SOL    HW123555   3.815   5.196   3.885
 7552SOL    HW223556   3.911   5.066   3.904
 7553SOL     OW23557   4.138   4.849   5.907
 7553SOL    HW123558   4.220   4.797   5.883
 7553SOL    HW223559   4.142   4.939   5.864
 7554SOL     OW23560   6.506   1.029   1.003
 7554SOL    HW123561   6.589   1.071   1.038
 7554SOL    HW223562   6.478   0.954   1.064
 7555SOL     OW23563   1.150   5.753   5.134
 7555SOL    HW123564   1.140   5.850   5.159
 7555SOL    HW223565   1.090   5.698   5.192
 7556SOL     OW23566   0.203   3.135   4.830
 7556SOL    HW123567   0.204   3.218   4.885
 7556SOL    HW223568   0.238   3.155   4.739
 7557SOL     OW23569   4.615   3.587   0.063
 7557SOL    HW123570   4.702   3.608   0.108
 7557SOL    HW223571   4.633   3.545   7.001
 7558SOL     OW23572   1.406   3.320   3.426
 7558SOL    HW123573   1.499   3.312   3.462
 7558SOL    HW223574   1.352   3.241   3.457
 7559SOL     OW23575   0.739   4.192   1.205
 7559SOL    HW123576   0.725   4.100   1.243
 7559SOL    HW223577   0.829   4.196   1.163
 7560SOL     OW23578   4.372   6.557   6.645
 7560SOL    HW123579   4.453   6.502   6.624
 7560SOL    HW223580   4.366   6.571   6.744
 7561SOL     OW23581   0.278   2.571   0.877
 7561SOL    HW123582   0.321   2.501   0.933
 7561SOL    HW223583   0.326   2.577   0.789
 7562SOL     OW23584   5.161   5.745   5.318
 7562SOL    HW123585   5.113   5.727   5.233
 7562SOL    HW223586   5.135   5.835   5.353
 7563SOL     OW23587   1.984   0.884   2.466
 7563SOL    HW123588   2.031   0.909   2.381
 7563SOL    HW223589   2.048   0.892   2.543
 7564SOL     OW23590   4.895   6.005   3.910
 7564SOL    HW123591   4.881   6.102   3.931
 7564SOL    HW223592   4.954   5.965   3.980
 7565SOL     OW23593   4.925   4.669   0.936
 7565SOL    HW123594   4.943   4.571   0.931
 7565SOL    HW223595   4.869   4.697   0.859
 7566SOL     OW23596   1.472   6.353   4.776
 7566SOL    HW123597   1.569   6.374   4.791
 7566SOL    HW223598   1.464   6.266   4.726
 7567SOL     OW23599   2.898   3.752   0.228
 7567SOL    HW123600   2.888   3.720   0.133
 7567SOL    HW223601   2.904   3.674   0.289
 7568SOL     OW23602   5.014   4.408   3.198
 7568SOL    HW123603   5.001   4.361   3.285
 7568SOL    HW223604   4.943   4.380   3.134
 7569SOL     OW23605   4.212   0.108   0.863
 7569SOL    HW123606   4.126   0.058   0.870
 7569SOL    HW223607   4.276   0.057   0.807
 7570SOL     OW23608   6.516   5.012   4.393
 7570SOL    HW123609   6.487   4.938   4.333
 7570SOL    HW223610   6.578   4.976   4.463
 7571SOL     OW23611   5.222   4.289   2.105
 7571SOL    HW123612   5.197   4.205   2.153
 7571SOL    HW223613   5.313   4.318   2.134
 7572SOL     OW23614   2.451   1.537   4.738
 7572SOL    HW123615   2.447   1.438   4.748
 7572SOL    HW223616   2.377   1.579   4.791
 7573SOL     OW23617   2.292   5.785   4.727
 7573SOL    HW123618   2.264   5.797   4.632
 7573SOL    HW223619   2.267   5.866   4.780
 7574SOL     OW23620   5.386   6.641   2.603
 7574SOL    HW123621   5.422   6.717   2.549
 7574SOL    HW223622   5.312   6.674   2.661
 7575SOL     OW23623   4.094   2.210   4.833
 7575SOL    HW123624   4.096   2.277   4.907
 7575SOL    HW223625   4.017   2.149   4.846
 7576SOL     OW23626   5.917   2.901   0.953
 7576SOL    HW123627   5.966   2.965   0.894
 7576SOL    HW223628   5.822   2.892   0.922
 7577SOL     OW23629   4.858   0.525   5.368
 7577SOL    HW123630   4.939   0.562   5.413
 7577SOL    HW223631   4.782   0.520   5.433
 7578SOL     OW23632   2.475   4.476   4.058
 7578SOL    HW123633   2.460   4.378   4.074
 7578SOL    HW223634   2.423   4.506   3.978
 7579SOL     OW23635   3.713   1.409   2.849
 7579SOL    HW123636   3.652   1.348   2.798
 7579SOL    HW223637   3.660   1.483   2.890
 7580SOL     OW23638   1.804   4.101   3.171
 7580SOL    HW123639   1.743   4.044   3.226
 7580SOL    HW223640   1.812   4.191   3.213
 7581SOL     OW23641   6.229   0.468   0.859
 7581SOL    HW123642   6.305   0.489   0.920
 7581SOL    HW223643   6.233   0.527   0.779
 7582SOL     OW23644   2.753   0.953   1.017
 7582SOL    HW123645   2.689   0.938   1.092
 7582SOL    HW223646   2.812   1.031   1.038
 7583SOL     OW23647   0.075   3.418   2.609
 7583SOL    HW123648   0.042   3.439   2.700
 7583SOL    HW223649   0.095   3.320   2.602
 7584SOL     OW23650   2.541   0.547   1.516
 7584SOL    HW123651   2.640   0.560   1.524
 7584SOL    HW223652   2.512   0.573   1.423
 7585SOL     OW23653   1.774   4.903   6.049
 7585SOL    HW123654   1.678   4.879   6.031
 7585SOL    HW223655   1.791   4.899   6.148
 7586SOL     OW23656   2.610   0.998   2.281
 7586SOL    HW123657   2.650   1.082   2.315
 7586SOL    HW223658   2.548   0.960   2.350
 7587SOL     OW23659   1.602   1.417   5.968
 7587SOL    HW123660   1.653   1.367   5.898
 7587SOL    HW223661   1.546   1.488   5.924
 7588SOL     OW23662   6.924   4.389   1.460
 7588SOL    HW123663   6.997   4.442   1.503
 7588SOL    HW223664   6.936   4.390   1.361
 7589SOL     OW23665   5.793   6.072   0.492
 7589SOL    HW123666   5.875   6.128   0.482
 7589SOL    HW223667   5.764   6.073   0.588
 7590SOL     OW23668   1.646   0.888   5.960
 7590SOL    HW123669   1.711   0.944   6.011
 7590SOL    HW223670   1.675   0.792   5.963
 7591SOL     OW23671   6.651   4.964   0.392
 7591SOL    HW123672   6.733   5.018   0.412
 7591SOL    HW223673   6.677   4.885   0.336
 7592SOL     OW23674   5.635   5.543   0.399
 7592SOL    HW123675   5.561   5.610   0.408
 7592SOL    HW223676   5.723   5.589   0.408
 7593SOL     OW23677   5.958   2.316   6.804
 7593SOL    HW123678   6.005   2.283   6.885
 7593SOL    HW223679   6.025   2.352   6.739
 7594SOL     OW23680   1.381   6.073   4.078
 7594SOL    HW123681   1.443   6.033   4.011
 7594SOL    HW223682   1.311   6.007   4.103
 7595SOL     OW23683   6.147   2.795   0.197
 7595SOL    HW123684   6.245   2.791   0.213
 7595SOL    HW223685   6.129   2.833   0.106
 7596SOL     OW23686   5.438   4.576   1.896
 7596SOL    HW123687   5.465   4.671   1.882
 7596SOL    HW223688   5.401   4.566   1.988
 7597SOL     OW23689   3.326   5.111   1.458
 7597SOL    HW123690   3.347   5.208   1.470
 7597SOL    HW223691   3.270   5.079   1.535
 7598SOL     OW23692   6.503   1.279   3.615
 7598SOL    HW123693   6.412   1.306   3.647
 7598SOL    HW223694   6.516   1.308   3.521
 7599SOL     OW23695   6.224   2.407   2.268
 7599SOL    HW123696   6.191   2.341   2.200
 7599SOL    HW223697   6.191   2.380   2.358
 7600SOL     OW23698   1.718   1.585   1.587
 7600SOL    HW123699   1.716   1.684   1.576
 7600SOL    HW223700   1.812   1.553   1.578
 7601SOL     OW23701   2.402   6.730   4.744
 7601SOL    HW123702   2.444   6.697   4.659
 7601SOL    HW223703   2.458   6.701   4.821
 7602SOL     OW23704   1.199   3.805   4.907
 7602SOL    HW123705   1.214   3.720   4.957
 7602SOL    HW223706   1.237   3.881   4.958
 7603SOL     OW23707   0.843   6.877   1.402
 7603SOL    HW123708   0.843   6.777   1.414
 7603SOL    HW223709   0.761   6.915   1.444
 7604SOL     OW23710   4.861   6.284   6.030
 7604SOL    HW123711   4.861   6.373   5.983
 7604SOL    HW223712   4.783   6.280   6.092
 7605SOL     OW23713   6.078   4.431   6.472
 7605SOL    HW123714   6.095   4.342   6.429
 7605SOL    HW223715   6.113   4.429   6.566
 7606SOL     OW23716   5.912   1.789   2.733
 7606SOL    HW123717   5.889   1.885   2.713
 7606SOL    HW223718   5.868   1.761   2.818
 7607SOL     OW23719   4.858   6.806   6.438
 7607SOL    HW123720   4.832   6.716   6.474
 7607SOL    HW223721   4.780   6.868   6.443
 7608SOL     OW23722   3.302   3.075   3.686
 7608SOL    HW123723   3.204   3.072   3.666
 7608SOL    HW223724   3.353   3.041   3.607
 7609SOL     OW23725   1.513   3.116   4.621
 7609SOL    HW123726   1.591   3.054   4.633
 7609SOL    HW223727   1.453   3.110   4.700
 7610SOL     OW23728   5.453   6.928   1.136
 7610SOL    HW123729   5.543   6.934   1.179
 7610SOL    HW223730   5.453   6.982   1.052
 7611SOL     OW23731   1.667   1.648   1.009
 7611SOL    HW123732   1.657   1.562   1.059
 7611SOL    HW223733   1.756   1.650   0.964
 7612SOL     OW23734   4.358   1.887   2.809
 7612SOL    HW123735   4.353   1.962   2.875
 7612SOL    HW223736   4.326   1.802   2.852
 7613SOL     OW23737   4.699   1.240   2.219
 7613SOL    HW123738   4.603   1.234   2.246
 7613SOL    HW223739   4.754   1.177   2.274
 7614SOL     OW23740   4.124   2.322   0.714
 7614SOL    HW123741   4.128   2.358   0.807
 7614SOL    HW223742   4.212   2.281   0.690
 7615SOL     OW23743   3.643   5.080   5.632
 7615SOL    HW123744   3.690   5.007   5.681
 7615SOL    HW223745   3.626   5.052   5.537
 7616SOL     OW23746   6.232   4.291   3.572
 7616SOL    HW123747   6.313   4.253   3.617
 7616SOL    HW223748   6.152   4.234   3.594
 7617SOL     OW23749   3.234   5.921   2.343
 7617SOL    HW123750   3.266   5.828   2.361
 7617SOL    HW223751   3.282   5.985   2.402
 7618SOL     OW23752   1.656   2.579   0.641
 7618SOL    HW123753   1.671   2.487   0.678
 7618SOL    HW223754   1.722   2.597   0.568
 7619SOL     OW23755   5.591   3.370   5.943
 7619SOL    HW123756   5.545   3.285   5.969
 7619SOL    HW223757   5.688   3.363   5.966
 7620SOL     OW23758   3.189   6.748   1.955
 7620SOL    HW123759   3.257   6.821   1.952
 7620SOL    HW223760   3.152   6.740   2.048
 7621SOL     OW23761   2.058   1.258   1.702
 7621SOL    HW123762   2.118   1.333   1.676
 7621SOL    HW223763   2.087   1.174   1.656
 7622SOL     OW23764   4.546   2.453   0.287
 7622SOL    HW123765   4.534   2.356   0.262
 7622SOL    HW223766   4.495   2.510   0.223
 7623SOL     OW23767   4.456   0.525   5.871
 7623SOL    HW123768   4.512   0.536   5.789
 7623SOL    HW223769   4.491   0.448   5.925
 7624SOL     OW23770   0.607   0.729   3.542
 7624SOL    HW123771   0.509   0.728   3.564
 7624SOL    HW223772   0.650   0.807   3.587
 7625SOL     OW23773   4.478   0.180   1.470
 7625SOL    HW123774   4.536   0.162   1.391
 7625SOL    HW223775   4.535   0.188   1.552
 7626SOL     OW23776   1.567   5.432   4.844
 7626SOL    HW123777   1.652   5.395   4.881
 7626SOL    HW223778   1.566   5.418   4.745
 7627SOL     OW23779   0.018   2.637   0.191
 7627SOL    HW123780   0.092   2.594   0.140
 7627SOL    HW223781   0.033   2.623   0.289
 7628SOL     OW23782   3.103   1.939   1.012
 7628SOL    HW123783   3.030   1.970   0.951
 7628SOL    HW223784   3.192   1.956   0.970
 7629SOL     OW23785   6.542   5.574   3.417
 7629SOL    HW123786   6.464   5.523   3.451
 7629SOL    HW223787   6.574   5.638   3.487
 7630SOL     OW23788   6.342   0.774   2.547
 7630SOL    HW123789   6.370   0.680   2.567
 7630SOL    HW223790   6.391   0.806   2.465
 7631SOL     OW23791   0.635   2.109   3.572
 7631SOL    HW123792   0.621   2.206   3.555
 7631SOL    HW223793   0.631   2.059   3.485
 7632SOL     OW23794   4.480   1.584   0.097
 7632SOL    HW123795   4.457   1.650   0.169
 7632SOL    HW223796   4.397   1.562   0.045
 7633SOL     OW23797   5.581   3.881   6.923
 7633SOL    HW123798   5.493   3.901   6.966
 7633SOL    HW223799   5.616   3.794   6.958
 7634SOL     OW23800   1.002   1.630   2.064
 7634SOL    HW123801   1.025   1.665   1.973
 7634SOL    HW223802   1.085   1.617   2.118
 7635SOL     OW23803   2.959   4.600   5.611
 7635SOL    HW123804   3.039   4.559   5.567
 7635SOL    HW223805   2.879   4.584   5.554
 7636SOL     OW23806   1.206   0.318   4.011
 7636SOL    HW123807   1.270   0.277   4.077
 7636SOL    HW223808   1.199   0.416   4.028
 7637SOL     OW23809   1.755   5.565   4.327
 7637SOL    HW123810   1.847   5.536   4.298
 7637SOL    HW223811   1.764   5.639   4.394
 7638SOL     OW23812   5.149   5.028   2.218
 7638SOL    HW123813   5.223   5.068   2.164
 7638SOL    HW223814   5.068   5.087   2.213
 7639SOL     OW23815   0.885   1.852   4.830
 7639SOL    HW123816   0.893   1.774   4.769
 7639SOL    HW223817   0.952   1.922   4.804
 7640SOL     OW23818   2.361   1.952   6.797
 7640SOL    HW123819   2.286   1.896   6.833
 7640SOL    HW223820   2.340   1.980   6.704
 7641SOL     OW23821   6.012   3.654   2.264
 7641SOL    HW123822   6.064   3.729   2.222
 7641SOL    HW223823   6.024   3.571   2.210
 7642SOL     OW23824   2.622   1.973   2.627
 7642SOL    HW123825   2.586   2.044   2.688
 7642SOL    HW223826   2.551   1.946   2.562
 7643SOL     OW23827   4.934   3.319   3.265
 7643SOL    HW123828   4.941   3.220   3.251
 7643SOL    HW223829   4.921   3.338   3.362
 7644SOL     OW23830   0.270   3.372   3.172
 7644SOL    HW123831   0.215   3.440   3.220
 7644SOL    HW223832   0.233   3.357   3.081
 7645SOL     OW23833   4.739   3.830   6.518
 7645SOL    HW123834   4.705   3.921   6.495
 7645SOL    HW223835   4.762   3.781   6.434
 7646SOL     OW23836   2.108   1.815   1.683
 7646SOL    HW123837   2.208   1.819   1.676
 7646SOL    HW223838   2.081   1.737   1.739
 7647SOL     OW23839   2.406   4.177   1.398
 7647SOL    HW123840   2.319   4.216   1.429
 7647SOL    HW223841   2.471   4.174   1.474
 7648SOL     OW23842   4.253   0.889   3.434
 7648SOL    HW123843   4.275   0.980   3.468
 7648SOL    HW223844   4.326   0.858   3.373
 7649SOL     OW23845   3.121   0.794   1.706
 7649SOL    HW123846   3.062   0.781   1.786
 7649SOL    HW223847   3.145   0.891   1.698
 7650SOL     OW23848   6.225   4.825   2.453
 7650SOL    HW123849   6.324   4.824   2.447
 7650SOL    HW223850   6.192   4.737   2.487
 7651SOL     OW23851   3.810   1.384   6.388
 7651SOL    HW123852   3.803   1.420   6.295
 7651SOL    HW223853   3.859   1.449   6.446
 7652SOL     OW23854   1.159   3.002   2.380
 7652SOL    HW123855   1.215   2.991   2.462
 7652SOL    HW223856   1.066   3.027   2.407
 7653SOL     OW23857   3.058   2.324   1.206
 7653SOL    HW123858   3.056   2.283   1.297
 7653SOL    HW223859   3.151   2.354   1.185
 7654SOL     OW23860   5.132   4.058   3.742
 7654SOL    HW123861   5.172   4.101   3.661
 7654SOL    HW223862   5.087   4.128   3.799
 7655SOL     OW23863   4.363   6.705   5.325
 7655SOL    HW123864   4.438   6.764   5.297
 7655SOL    HW223865   4.330   6.653   5.247
 7656SOL     OW23866   0.849   6.329   4.887
 7656SOL    HW123867   0.829   6.244   4.935
 7656SOL    HW223868   0.820   6.407   4.943
 7657SOL     OW23869   3.771   1.379   3.862
 7657SOL    HW123870   3.764   1.280   3.844
 7657SOL    HW223871   3.864   1.409   3.845
 7658SOL     OW23872   3.851   0.841   6.151
 7658SOL    HW123873   3.945   0.828   6.119
 7658SOL    HW223874   3.793   0.869   6.075
 7659SOL     OW23875   5.989   0.337   0.953
 7659SOL    HW123876   6.015   0.262   1.013
 7659SOL    HW223877   6.070   0.392   0.932
 7660SOL     OW23878   6.127   4.756   4.195
 7660SOL    HW123879   6.112   4.741   4.293
 7660SOL    HW223880   6.126   4.668   4.148
 7661SOL     OW23881   6.097   2.946   3.166
 7661SOL    HW123882   6.168   2.879   3.188
 7661SOL    HW223883   6.137   3.020   3.111
 7662SOL     OW23884   6.988   4.910   2.024
 7662SOL    HW123885   0.008   4.998   2.037
 7662SOL    HW223886   6.964   4.898   1.928
 7663SOL     OW23887   0.038   5.381   0.442
 7663SOL    HW123888   0.103   5.455   0.423
 7663SOL    HW223889   0.005   5.343   0.356
 7664SOL     OW23890   2.507   5.226   3.878
 7664SOL    HW123891   2.414   5.228   3.913
 7664SOL    HW223892   2.564   5.289   3.931
 7665SOL     OW23893   2.924   6.907   4.921
 7665SOL    HW123894   2.893   6.834   4.982
 7665SOL    HW223895   2.852   6.930   4.857
 7666SOL     OW23896   1.206   0.667   1.233
 7666SOL    HW123897   1.281   0.679   1.298
 7666SOL    HW223898   1.155   0.585   1.257
 7667SOL     OW23899   4.469   5.847   6.474
 7667SOL    HW123900   4.414   5.910   6.529
 7667SOL    HW223901   4.439   5.753   6.493
 7668SOL     OW23902   3.571   3.805   0.866
 7668SOL    HW123903   3.539   3.899   0.879
 7668SOL    HW223904   3.538   3.748   0.940
 7669SOL     OW23905   4.702   6.434   4.495
 7669SOL    HW123906   4.737   6.513   4.445
 7669SOL    HW223907   4.724   6.443   4.592
 7670SOL     OW23908   1.922   4.878   1.025
 7670SOL    HW123909   1.872   4.821   0.960
 7670SOL    HW223910   1.931   4.829   1.112
 7671SOL     OW23911   6.118   2.391   4.784
 7671SOL    HW123912   6.180   2.423   4.857
 7671SOL    HW223913   6.064   2.469   4.750
 7672SOL     OW23914   5.560   0.922   2.585
 7672SOL    HW123915   5.525   0.879   2.501
 7672SOL    HW223916   5.648   0.965   2.566
 7673SOL     OW23917   1.064   4.540   1.111
 7673SOL    HW123918   1.011   4.596   1.047
 7673SOL    HW223919   1.001   4.492   1.173
 7674SOL     OW23920   5.750   1.565   4.731
 7674SOL    HW123921   5.724   1.555   4.635
 7674SOL    HW223922   5.670   1.595   4.784
 7675SOL     OW23923   4.416   6.119   3.393
 7675SOL    HW123924   4.500   6.111   3.340
 7675SOL    HW223925   4.415   6.206   3.441
 7676SOL     OW23926   1.828   0.224   0.870
 7676SOL    HW123927   1.740   0.255   0.835
 7676SOL    HW223928   1.853   0.277   0.951
 7677SOL     OW23929   2.294   2.868   2.746
 7677SOL    HW123930   2.245   2.956   2.751
 7677SOL    HW223931   2.289   2.833   2.652
 7678SOL     OW23932   5.978   6.627   0.447
 7678SOL    HW123933   5.967   6.535   0.408
 7678SOL    HW223934   6.025   6.620   0.535
 7679SOL     OW23935   1.175   4.863   5.115
 7679SOL    HW123936   1.201   4.940   5.055
 7679SOL    HW223937   1.140   4.899   5.201
 7680SOL     OW23938   4.059   2.660   0.084
 7680SOL    HW123939   4.048   2.759   0.080
 7680SOL    HW223940   3.996   2.622   0.151
 7681SOL     OW23941   3.012   1.638   6.940
 7681SOL    HW123942   3.076   1.562   6.956
 7681SOL    HW223943   2.926   1.620   6.988
 7682SOL     OW23944   3.118   6.985   1.534
 7682SOL    HW123945   3.111   6.961   1.438
 7682SOL    HW223946   3.152   6.907   1.586
 7683SOL     OW23947   5.635   1.901   3.463
 7683SOL    HW123948   5.581   1.901   3.379
 7683SOL    HW223949   5.626   1.813   3.509
 7684SOL     OW23950   4.127   2.093   6.360
 7684SOL    HW123951   4.100   2.172   6.305
 7684SOL    HW223952   4.179   2.124   6.439
 7685SOL     OW23953   3.414   2.859   1.122
 7685SOL    HW123954   3.386   2.788   1.187
 7685SOL    HW223955   3.481   2.821   1.058
 7686SOL     OW23956   3.697   0.095   3.914
 7686SOL    HW123957   3.760   0.167   3.944
 7686SOL    HW223958   3.609   0.136   3.890
 7687SOL     OW23959   5.128   5.239   5.410
 7687SOL    HW123960   5.131   5.336   5.386
 7687SOL    HW223961   5.115   5.230   5.509
 7688SOL     OW23962   0.021   6.521   4.463
 7688SOL    HW123963   7.006   6.600   4.418
 7688SOL    HW223964   0.068   6.465   4.394
 7689SOL     OW23965   4.140   6.369   4.678
 7689SOL    HW123966   4.161   6.459   4.641
 7689SOL    HW223967   4.126   6.376   4.777
 7690SOL     OW23968   0.504   5.553   3.272
 7690SOL    HW123969   0.522   5.648   3.296
 7690SOL    HW223970   0.411   5.528   3.300
 7691SOL     OW23971   4.881   3.422   4.469
 7691SOL    HW123972   4.913   3.335   4.507
 7691SOL    HW223973   4.843   3.407   4.378
 7692SOL     OW23974   2.363   6.346   2.155
 7692SOL    HW123975   2.364   6.246   2.153
 7692SOL    HW223976   2.336   6.381   2.066
 7693SOL     OW23977   5.124   1.479   6.301
 7693SOL    HW123978   5.069   1.400   6.330
 7693SOL    HW223979   5.159   1.527   6.381
 7694SOL     OW23980   0.090   5.266   4.396
 7694SOL    HW123981   0.051   5.328   4.328
 7694SOL    HW223982   0.097   5.174   4.358
 7695SOL     OW23983   3.579   0.216   0.715
 7695SOL    HW123984   3.518   0.291   0.738
 7695SOL    HW223985   3.542   0.130   0.750
 7696SOL     OW23986   0.225   3.236   5.970
 7696SOL    HW123987   0.282   3.192   6.040
 7696SOL    HW223988   0.148   3.176   5.948
 7697SOL     OW23989   3.841   1.883   2.235
 7697SOL    HW123990   3.888   1.971   2.241
 7697SOL    HW223991   3.743   1.899   2.222
 7698SOL     OW23992   6.776   2.971   5.989
 7698SOL    HW123993   6.712   2.900   6.018
 7698SOL    HW223994   6.810   3.020   6.070
 7699SOL     OW23995   2.437   5.027   6.757
 7699SOL    HW123996   2.528   5.006   6.722
 7699SOL    HW223997   2.395   4.944   6.794
 7700SOL     OW23998   4.741   6.453   4.760
 7700SOL    HW123999   4.770   6.358   4.750
 7700SOL    HW224000   4.705   6.467   4.851
 7701SOL     OW24001   6.224   2.291   4.551
 7701SOL    HW124002   6.186   2.327   4.636
 7701SOL    HW224003   6.315   2.331   4.535
 7702SOL     OW24004   2.613   6.860   5.788
 7702SOL    HW124005   2.576   6.834   5.699
 7702SOL    HW224006   2.541   6.854   5.857
 7703SOL     OW24007   0.214   1.178   5.973
 7703SOL    HW124008   0.300   1.191   5.924
 7703SOL    HW224009   0.185   1.265   6.014
 7704SOL     OW24010   4.535   4.123   0.095
 7704SOL    HW124011   4.613   4.186   0.088
 7704SOL    HW224012   4.453   4.174   0.121
 7705SOL     OW24013   3.327   4.977   4.904
 7705SOL    HW124014   3.238   4.940   4.930
 7705SOL    HW224015   3.315   5.050   4.836
 7706SOL     OW24016   6.835   1.035   4.905
 7706SOL    HW124017   6.750   1.004   4.862
 7706SOL    HW224018   6.913   1.003   4.851
 7707SOL     OW24019   0.416   4.871   5.950
 7707SOL    HW124020   0.483   4.797   5.936
 7707SOL    HW224021   0.357   4.878   5.870
 7708SOL     OW24022   4.486   6.404   4.343
 7708SOL    HW124023   4.447   6.495   4.328
 7708SOL    HW224024   4.554   6.409   4.416
 7709SOL     OW24025   4.188   2.192   2.462
 7709SOL    HW124026   4.172   2.095   2.480
 7709SOL    HW224027   4.113   2.246   2.500
 7710SOL     OW24028   2.119   1.341   6.814
 7710SOL    HW124029   2.025   1.360   6.785
 7710SOL    HW224030   2.178   1.334   6.734
 7711SOL     OW24031   5.356   6.445   5.938
 7711SOL    HW124032   5.352   6.346   5.930
 7711SOL    HW224033   5.395   6.484   5.855
 7712SOL     OW24034   5.418   5.427   1.052
 7712SOL    HW124035   5.506   5.382   1.038
 7712SOL    HW224036   5.412   5.506   0.991
 7713SOL     OW24037   1.225   4.307   6.394
 7713SOL    HW124038   1.158   4.381   6.391
 7713SOL    HW224039   1.278   4.307   6.309
 7714SOL     OW24040   5.470   4.142   4.246
 7714SOL    HW124041   5.461   4.145   4.147
 7714SOL    HW224042   5.566   4.155   4.271
 7715SOL     OW24043   4.835   0.991   0.962
 7715SOL    HW124044   4.735   0.993   0.956
 7715SOL    HW224045   4.867   0.896   0.964
 7716SOL     OW24046   4.760   1.879   2.952
 7716SOL    HW124047   4.669   1.846   2.975
 7716SOL    HW224048   4.752   1.955   2.887
 7717SOL     OW24049   3.493   1.754   5.852
 7717SOL    HW124050   3.473   1.823   5.782
 7717SOL    HW224051   3.426   1.680   5.845
 7718SOL     OW24052   3.249   6.220   3.934
 7718SOL    HW124053   3.267   6.146   3.999
 7718SOL    HW224054   3.165   6.267   3.960
 7719SOL     OW24055   6.713   1.868   4.560
 7719SOL    HW124056   6.747   1.836   4.471
 7719SOL    HW224057   6.640   1.934   4.546
 7720SOL     OW24058   5.767   5.916   1.775
 7720SOL    HW124059   5.816   5.906   1.862
 7720SOL    HW224060   5.826   5.886   1.701
 7721SOL     OW24061   1.901   4.122   2.337
 7721SOL    HW124062   1.927   4.212   2.303
 7721SOL    HW224063   1.870   4.129   2.432
 7722SOL     OW24064   0.126   5.432   3.951
 7722SOL    HW124065   0.194   5.503   3.931
 7722SOL    HW224066   0.084   5.401   3.865
 7723SOL     OW24067   6.425   3.089   0.285
 7723SOL    HW124068   6.403   3.154   0.358
 7723SOL    HW224069   6.416   2.996   0.318
 7724SOL     OW24070   1.609   4.878   1.120
 7724SOL    HW124071   1.532   4.835   1.166
 7724SOL    HW224072   1.691   4.872   1.177
 7725SOL     OW24073   4.971   3.155   4.545
 7725SOL    HW124074   4.983   3.194   4.636
 7725SOL    HW224075   5.041   3.084   4.530
 7726SOL     OW24076   0.455   4.494   3.370
 7726SOL    HW124077   0.452   4.532   3.278
 7726SOL    HW224078   0.551   4.479   3.396
 7727SOL     OW24079   6.533   2.794   1.907
 7727SOL    HW124080   6.443   2.760   1.879
 7727SOL    HW224081   6.604   2.737   1.865
 7728SOL     OW24082   2.838   2.263   2.926
 7728SOL    HW124083   2.797   2.300   2.843
 7728SOL    HW224084   2.771   2.208   2.975
 7729SOL     OW24085   5.264   2.312   0.668
 7729SOL    HW124086   5.270   2.306   0.568
 7729SOL    HW224087   5.174   2.348   0.693
 7730SOL     OW24088   5.865   0.765   2.078
 7730SOL    HW124089   5.824   0.854   2.099
 7730SOL    HW224090   5.872   0.754   1.979
 7731SOL     OW24091   5.681   1.264   6.526
 7731SOL    HW124092   5.725   1.175   6.517
 7731SOL    HW224093   5.627   1.266   6.610
 7732SOL     OW24094   4.593   5.462   0.841
 7732SOL    HW124095   4.623   5.480   0.935
 7732SOL    HW224096   4.672   5.458   0.780
 7733SOL     OW24097   3.438   0.272   2.117
 7733SOL    HW124098   3.373   0.312   2.183
 7733SOL    HW224099   3.405   0.290   2.024
 7734SOL     OW24100   1.991   2.002   3.154
 7734SOL    HW124101   2.004   2.013   3.056
 7734SOL    HW224102   2.081   1.990   3.198
 7735SOL     OW24103   4.708   4.322   0.152
 7735SOL    HW124104   4.680   4.356   0.242
 7735SOL    HW224105   4.684   4.389   0.082
 7736SOL     OW24106   6.694   4.830   6.355
 7736SOL    HW124107   6.706   4.751   6.416
 7736SOL    HW224108   6.748   4.816   6.272
 7737SOL     OW24109   5.050   1.304   0.685
 7737SOL    HW124110   5.148   1.286   0.689
 7737SOL    HW224111   5.004   1.250   0.756
 7738SOL     OW24112   2.882   5.015   6.758
 7738SOL    HW124113   2.865   5.092   6.820
 7738SOL    HW224114   2.826   4.937   6.786
 7739SOL     OW24115   5.958   2.963   1.327
 7739SOL    HW124116   5.986   2.989   1.420
 7739SOL    HW224117   5.862   2.989   1.313
 7740SOL     OW24118   0.292   6.692   3.107
 7740SOL    HW124119   0.337   6.613   3.151
 7740SOL    HW224120   0.361   6.747   3.060
 7741SOL     OW24121   2.211   5.523   4.515
 7741SOL    HW124122   2.310   5.530   4.513
 7741SOL    HW224123   2.185   5.429   4.538
 7742SOL     OW24124   6.537   1.456   4.135
 7742SOL    HW124125   6.562   1.397   4.059
 7742SOL    HW224126   6.457   1.512   4.109
 7743SOL     OW24127   4.534   2.456   3.503
 7743SOL    HW124128   4.509   2.428   3.595
 7743SOL    HW224129   4.521   2.380   3.440
 7744SOL     OW24130   6.601   0.397   4.588
 7744SOL    HW124131   6.690   0.358   4.613
 7744SOL    HW224132   6.600   0.494   4.611
 7745SOL     OW24133   4.585   3.910   6.202
 7745SOL    HW124134   4.629   3.985   6.251
 7745SOL    HW224135   4.494   3.937   6.173
 7746SOL     OW24136   1.387   0.609   0.722
 7746SOL    HW124137   1.335   0.684   0.762
 7746SOL    HW224138   1.484   0.625   0.735
 7747SOL     OW24139   5.592   5.970   1.180
 7747SOL    HW124140   5.667   5.976   1.246
 7747SOL    HW224141   5.630   5.966   1.087
 7748SOL     OW24142   3.470   4.035   6.787
 7748SOL    HW124143   3.435   3.984   6.708
 7748SOL    HW224144   3.417   4.009   6.869
 7749SOL     OW24145   5.925   3.134   5.731
 7749SOL    HW124146   5.885   3.046   5.705
 7749SOL    HW224147   5.900   3.155   5.826
 7750SOL     OW24148   6.021   5.010   2.360
 7750SOL    HW124149   5.996   5.102   2.391
 7750SOL    HW224150   6.095   4.974   2.417
 7751SOL     OW24151   0.812   2.824   2.207
 7751SOL    HW124152   0.803   2.728   2.180
 7751SOL    HW224153   0.776   2.836   2.300
 7752SOL     OW24154   4.795   2.123   3.645
 7752SOL    HW124155   4.783   2.209   3.596
 7752SOL    HW224156   4.710   2.069   3.640
 7753SOL     OW24157   3.084   1.750   4.503
 7753SOL    HW124158   2.988   1.779   4.497
 7753SOL    HW224159   3.141   1.829   4.525
 7754SOL     OW24160   4.892   6.385   2.080
 7754SOL    HW124161   4.870   6.294   2.115
 7754SOL    HW224162   4.982   6.413   2.115
 7755SOL     OW24163   0.372   4.794   5.061
 7755SOL    HW124164   0.361   4.893   5.051
 7755SOL    HW224165   0.469   4.773   5.077
 7756SOL     OW24166   2.603   5.106   2.171
 7756SOL    HW124167   2.658   5.142   2.095
 7756SOL    HW224168   2.661   5.092   2.251
 7757SOL     OW24169   0.063   4.304   2.049
 7757SOL    HW124170   0.021   4.217   2.025
 7757SOL    HW224171   0.027   4.376   1.990
 7758SOL     OW24172   1.228   1.674   4.863
 7758SOL    HW124173   1.290   1.661   4.786
 7758SOL    HW224174   1.229   1.770   4.891
 7759SOL     OW24175   2.502   2.192   0.726
 7759SOL    HW124176   2.551   2.140   0.656
 7759SOL    HW224177   2.511   2.290   0.708
 7760SOL     OW24178   4.734   2.681   0.248
 7760SOL    HW124179   4.702   2.602   0.300
 7760SOL    HW224180   4.654   2.732   0.213
 7761SOL     OW24181   4.817   5.372   4.415
 7761SOL    HW124182   4.739   5.396   4.473
 7761SOL    HW224183   4.892   5.436   4.431
 7762SOL     OW24184   6.307   1.856   2.335
 7762SOL    HW124185   6.308   1.762   2.368
 7762SOL    HW224186   6.399   1.881   2.304
 7763SOL     OW24187   2.222   0.281   4.495
 7763SOL    HW124188   2.306   0.306   4.447
 7763SOL    HW224189   2.145   0.283   4.431
 7764SOL     OW24190   2.382   4.329   6.164
 7764SOL    HW124191   2.368   4.259   6.093
 7764SOL    HW224192   2.305   4.326   6.228
 7765SOL     OW24193   6.078   2.992   5.362
 7765SOL    HW124194   6.087   2.974   5.460
 7765SOL    HW224195   6.169   2.996   5.321
 7766SOL     OW24196   5.890   3.791   6.422
 7766SOL    HW124197   5.987   3.793   6.401
 7766SOL    HW224198   5.840   3.749   6.346
 7767SOL     OW24199   3.431   0.489   3.743
 7767SOL    HW124200   3.364   0.562   3.758
 7767SOL    HW224201   3.431   0.463   3.647
 7768SOL     OW24202   4.392   5.003   3.615
 7768SOL    HW124203   4.372   5.042   3.525
 7768SOL    HW224204   4.490   5.004   3.631
 7769SOL     OW24205   3.520   3.273   5.504
 7769SOL    HW124206   3.423   3.248   5.500
 7769SOL    HW224207   3.528   3.372   5.517
 7770SOL     OW24208   1.860   3.178   4.521
 7770SOL    HW124209   1.837   3.200   4.616
 7770SOL    HW224210   1.801   3.230   4.459
 7771SOL     OW24211   2.413   3.148   6.588
 7771SOL    HW124212   2.377   3.072   6.534
 7771SOL    HW224213   2.337   3.204   6.622
 7772SOL     OW24214   5.429   0.223   1.590
 7772SOL    HW124215   5.369   0.185   1.520
 7772SOL    HW224216   5.429   0.163   1.670
 7773SOL     OW24217   3.157   5.936   6.910
 7773SOL    HW124218   3.174   6.031   6.934
 7773SOL    HW224219   3.243   5.892   6.884
 7774SOL     OW24220   4.887   1.285   2.614
 7774SOL    HW124221   4.880   1.277   2.713
 7774SOL    HW224222   4.979   1.258   2.584
 7775SOL     OW24223   2.476   1.882   1.001
 7775SOL    HW124224   2.381   1.853   0.987
 7775SOL    HW224225   2.483   1.980   0.988
 7776SOL     OW24226   1.388   1.415   4.561
 7776SOL    HW124227   1.380   1.483   4.488
 7776SOL    HW224228   1.485   1.404   4.585
 7777SOL     OW24229   6.116   5.479   4.417
 7777SOL    HW124230   6.118   5.526   4.505
 7777SOL    HW224231   6.040   5.415   4.415
 7778SOL     OW24232   6.711   4.639   2.946
 7778SOL    HW124233   6.791   4.649   3.005
 7778SOL    HW224234   6.720   4.556   2.891
 7779SOL     OW24235   4.711   6.087   1.902
 7779SOL    HW124236   4.674   5.995   1.915
 7779SOL    HW224237   4.799   6.082   1.854
 7780SOL     OW24238   6.140   6.614   4.862
 7780SOL    HW124239   6.121   6.579   4.954
 7780SOL    HW224240   6.063   6.594   4.802
 7781SOL     OW24241   1.520   2.972   0.933
 7781SOL    HW124242   1.598   2.986   0.994
 7781SOL    HW224243   1.553   2.931   0.848
 7782SOL     OW24244   5.361   2.556   4.224
 7782SOL    HW124245   5.367   2.655   4.219
 7782SOL    HW224246   5.303   2.530   4.302
 7783SOL     OW24247   1.545   6.655   4.827
 7783SOL    HW124248   1.497   6.653   4.915
 7783SOL    HW224249   1.600   6.572   4.817
 7784SOL     OW24250   1.450   1.600   1.595
 7784SOL    HW124251   1.397   1.681   1.571
 7784SOL    HW224252   1.548   1.622   1.591
 7785SOL     OW24253   0.109   6.839   3.251
 7785SOL    HW124254   0.181   6.793   3.200
 7785SOL    HW224255   0.040   6.771   3.279
 7786SOL     OW24256   4.029   1.194   5.081
 7786SOL    HW124257   3.942   1.173   5.036
 7786SOL    HW224258   4.093   1.118   5.068
 7787SOL     OW24259   2.460   2.479   1.735
 7787SOL    HW124260   2.419   2.441   1.818
 7787SOL    HW224261   2.559   2.466   1.738
 7788SOL     OW24262   6.876   4.618   1.694
 7788SOL    HW124263   6.812   4.689   1.664
 7788SOL    HW224264   6.848   4.530   1.657
 7789SOL     OW24265   2.983   1.884   5.797
 7789SOL    HW124266   2.934   1.933   5.869
 7789SOL    HW224267   2.987   1.940   5.714
 7790SOL     OW24268   4.302   4.332   1.655
 7790SOL    HW124269   4.233   4.262   1.636
 7790SOL    HW224270   4.373   4.294   1.714
 7791SOL     OW24271   2.772   5.553   2.600
 7791SOL    HW124272   2.868   5.530   2.618
 7791SOL    HW224273   2.741   5.503   2.520
 7792SOL     OW24274   0.683   1.539   2.929
 7792SOL    HW124275   0.674   1.608   3.002
 7792SOL    HW224276   0.649   1.578   2.843
 7793SOL     OW24277   5.112   0.542   0.298
 7793SOL    HW124278   5.041   0.528   0.229
 7793SOL    HW224279   5.102   0.633   0.338
 7794SOL     OW24280   1.008   6.738   3.250
 7794SOL    HW124281   1.083   6.794   3.214
 7794SOL    HW224282   0.922   6.788   3.239
 7795SOL     OW24283   2.705   5.374   0.379
 7795SOL    HW124284   2.754   5.449   0.335
 7795SOL    HW224285   2.616   5.362   0.335
 7796SOL     OW24286   3.159   2.903   0.288
 7796SOL    HW124287   3.131   2.826   0.231
 7796SOL    HW224288   3.124   2.890   0.381
 7797SOL     OW24289   0.829   6.181   3.602
 7797SOL    HW124290   0.840   6.269   3.557
 7797SOL    HW224291   0.912   6.127   3.592
 7798SOL     OW24292   1.364   3.185   0.554
 7798SOL    HW124293   1.286   3.137   0.513
 7798SOL    HW224294   1.436   3.197   0.486
 7799SOL     OW24295   2.767   6.059   3.627
 7799SOL    HW124296   2.668   6.060   3.637
 7799SOL    HW224297   2.808   6.005   3.701
 7800SOL     OW24298   0.347   6.640   2.377
 7800SOL    HW124299   0.404   6.569   2.335
 7800SOL    HW224300   0.253   6.607   2.385
 7801SOL     OW24301   1.354   1.677   2.002
 7801SOL    HW124302   1.314   1.688   2.093
 7801SOL    HW224303   1.445   1.718   2.001
 7802SOL     OW24304   6.923   4.050   4.464
 7802SOL    HW124305   6.929   4.072   4.367
 7802SOL    HW224306   7.009   4.073   4.509
 7803SOL     OW24307   2.968   2.752   5.741
 7803SOL    HW124308   2.993   2.805   5.660
 7803SOL    HW224309   2.983   2.655   5.724
 7804SOL     OW24310   3.546   1.764   5.181
 7804SOL    HW124311   3.621   1.822   5.151
 7804SOL    HW224312   3.497   1.729   5.101
 7805SOL     OW24313   5.114   3.361   0.518
 7805SOL    HW124314   5.187   3.343   0.452
 7805SOL    HW224315   5.153   3.372   0.609
 7806SOL     OW24316   6.644   1.223   5.846
 7806SOL    HW124317   6.592   1.163   5.786
 7806SOL    HW224318   6.684   1.298   5.793
 7807SOL     OW24319   1.576   4.822   6.364
 7807SOL    HW124320   1.564   4.880   6.284
 7807SOL    HW224321   1.495   4.764   6.376
 7808SOL     OW24322   6.615   3.609   3.062
 7808SOL    HW124323   6.554   3.541   3.021
 7808SOL    HW224324   6.592   3.620   3.159
 7809SOL     OW24325   5.051   5.355   2.372
 7809SOL    HW124326   4.993   5.423   2.326
 7809SOL    HW224327   5.007   5.266   2.367
 7810SOL     OW24328   2.952   6.769   6.016
 7810SOL    HW124329   2.957   6.850   5.957
 7810SOL    HW224330   2.914   6.795   6.105
 7811SOL     OW24331   1.738   6.022   3.218
 7811SOL    HW124332   1.713   6.022   3.122
 7811SOL    HW224333   1.837   6.009   3.227
 7812SOL     OW24334   3.049   1.684   6.322
 7812SOL    HW124335   2.960   1.729   6.317
 7812SOL    HW224336   3.121   1.754   6.325
 7813SOL     OW24337   5.096   0.439   0.563
 7813SOL    HW124338   5.083   0.467   0.468
 7813SOL    HW224339   5.149   0.509   0.611
 7814SOL     OW24340   6.621   3.313   2.248
 7814SOL    HW124341   6.687   3.248   2.210
 7814SOL    HW224342   6.647   3.338   2.341
 7815SOL     OW24343   6.240   4.230   5.491
 7815SOL    HW124344   6.340   4.226   5.492
 7815SOL    HW224345   6.210   4.323   5.466
 7816SOL     OW24346   0.647   1.243   5.851
 7816SOL    HW124347   0.638   1.305   5.929
 7816SOL    HW224348   0.561   1.194   5.837
 7817SOL     OW24349   3.738   2.599   6.969
 7817SOL    HW124350   3.697   2.683   7.004
 7817SOL    HW224351   3.785   2.552   0.018
 7818SOL     OW24352   5.664   0.168   4.035
 7818SOL    HW124353   5.675   0.116   4.120
 7818SOL    HW224354   5.649   0.105   3.959
 7819SOL     OW24355   1.148   3.320   4.529
 7819SOL    HW124356   1.237   3.324   4.484
 7819SOL    HW224357   1.096   3.402   4.507
 7820SOL     OW24358   0.961   6.729   5.572
 7820SOL    HW124359   0.916   6.808   5.614
 7820SOL    HW224360   0.945   6.648   5.629
 7821SOL     OW24361   4.249   6.915   0.521
 7821SOL    HW124362   4.170   6.893   0.464
 7821SOL    HW224363   4.304   6.986   0.476
 7822SOL     OW24364   0.293   1.372   4.928
 7822SOL    HW124365   0.349   1.289   4.935
 7822SOL    HW224366   0.341   1.439   4.871
 7823SOL     OW24367   2.466   3.416   5.388
 7823SOL    HW124368   2.406   3.457   5.319
 7823SOL    HW224369   2.550   3.384   5.344
 7824SOL     OW24370   5.773   3.008   3.303
 7824SOL    HW124371   5.830   3.002   3.221
 7824SOL    HW224372   5.776   3.102   3.337
 7825SOL     OW24373   3.726   3.514   2.447
 7825SOL    HW124374   3.788   3.542   2.520
 7825SOL    HW224375   3.775   3.456   2.381
 7826SOL     OW24376   6.633   0.105   1.576
 7826SOL    HW124377   6.626   0.127   1.673
 7826SOL    HW224378   6.562   0.154   1.525
 7827SOL     OW24379   4.592   3.368   0.774
 7827SOL    HW124380   4.552   3.354   0.684
 7827SOL    HW224381   4.637   3.284   0.804
 7828SOL     OW24382   0.402   5.764   0.324
 7828SOL    HW124383   0.485   5.802   0.365
 7828SOL    HW224384   0.423   5.733   0.231
 7829SOL     OW24385   3.884   3.201   2.798
 7829SOL    HW124386   3.820   3.129   2.771
 7829SOL    HW224387   3.925   3.241   2.716
 7830SOL     OW24388   6.096   2.872   6.968
 7830SOL    HW124389   6.031   2.886   6.893
 7830SOL    HW224390   6.185   2.909   6.943
 7831SOL     OW24391   1.828   2.470   6.729
 7831SOL    HW124392   1.868   2.391   6.776
 7831SOL    HW224393   1.875   2.484   6.642
 7832SOL     OW24394   2.667   2.648   5.285
 7832SOL    HW124395   2.637   2.613   5.196
 7832SOL    HW224396   2.654   2.577   5.354
 7833SOL     OW24397   1.501   6.889   0.753
 7833SOL    HW124398   1.476   6.945   0.675
 7833SOL    HW224399   1.440   6.909   0.830
 7834SOL     OW24400   0.294   0.546   1.704
 7834SOL    HW124401   0.196   0.549   1.685
 7834SOL    HW224402   0.328   0.453   1.691
 7835SOL     OW24403   2.598   2.022   4.348
 7835SOL    HW124404   2.600   1.923   4.362
 7835SOL    HW224405   2.629   2.044   4.255
 7836SOL     OW24406   1.711   0.809   6.531
 7836SOL    HW124407   1.629   0.842   6.484
 7836SOL    HW224408   1.715   0.846   6.623
 7837SOL     OW24409   5.378   6.422   3.356
 7837SOL    HW124410   5.385   6.390   3.261
 7837SOL    HW224411   5.384   6.521   3.358
 7838SOL     OW24412   3.259   6.816   4.070
 7838SOL    HW124413   3.250   6.792   4.167
 7838SOL    HW224414   3.171   6.803   4.024
 7839SOL     OW24415   0.427   4.943   4.330
 7839SOL    HW124416   0.439   4.863   4.390
 7839SOL    HW224417   0.334   4.979   4.341
 7840SOL     OW24418   5.448   3.181   6.145
 7840SOL    HW124419   5.492   3.110   6.089
 7840SOL    HW224420   5.467   3.164   6.241
 7841SOL     OW24421   1.073   1.868   6.303
 7841SOL    HW124422   1.160   1.884   6.258
 7841SOL    HW224423   1.011   1.945   6.283
 7842SOL     OW24424   2.836   1.466   2.617
 7842SOL    HW124425   2.919   1.422   2.582
 7842SOL    HW224426   2.830   1.452   2.716
 7843SOL     OW24427   6.563   3.625   0.962
 7843SOL    HW124428   6.471   3.588   0.973
 7843SOL    HW224429   6.558   3.725   0.956
 7844SOL     OW24430   3.736   1.247   4.293
 7844SOL    HW124431   3.824   1.236   4.249
 7844SOL    HW224432   3.711   1.161   4.339
 7845SOL     OW24433   0.576   0.909   3.965
 7845SOL    HW124434   0.540   0.999   3.940
 7845SOL    HW224435   0.521   0.838   3.921
 7846SOL     OW24436   3.482   6.715   1.976
 7846SOL    HW124437   3.558   6.719   1.911
 7846SOL    HW224438   3.432   6.629   1.964
 7847SOL     OW24439   6.795   0.469   0.518
 7847SOL    HW124440   6.771   0.566   0.513
 7847SOL    HW224441   6.887   0.459   0.556
 7848SOL     OW24442   4.519   4.286   0.750
 7848SOL    HW124443   4.610   4.247   0.736
 7848SOL    HW224444   4.453   4.213   0.770
 7849SOL     OW24445   5.736   3.988   5.088
 7849SOL    HW124446   5.772   4.080   5.069
 7849SOL    HW224447   5.768   3.925   5.017
 7850SOL     OW24448   0.617   0.957   4.253
 7850SOL    HW124449   0.594   0.939   4.158
 7850SOL    HW224450   0.693   1.023   4.257
 7851SOL     OW24451   4.694   6.534   6.972
 7851SOL    HW124452   4.600   6.561   6.948
 7851SOL    HW224453   4.698   6.510   0.043
 7852SOL     OW24454   2.048   6.548   6.743
 7852SOL    HW124455   1.987   6.602   6.685
 7852SOL    HW224456   2.136   6.594   6.752
 7853SOL     OW24457   2.333   2.754   0.782
 7853SOL    HW124458   2.400   2.824   0.806
 7853SOL    HW224459   2.355   2.669   0.830
 7854SOL     OW24460   3.457   4.017   2.836
 7854SOL    HW124461   3.358   4.016   2.819
 7854SOL    HW224462   3.475   4.062   2.924
 7855SOL     OW24463   3.504   0.224   5.874
 7855SOL    HW124464   3.417   0.267   5.897
 7855SOL    HW224465   3.552   0.199   5.957
 7856SOL     OW24466   4.951   3.371   6.079
 7856SOL    HW124467   4.853   3.379   6.098
 7856SOL    HW224468   4.973   3.277   6.055
 7857SOL     OW24469   0.673   2.014   4.830
 7857SOL    HW124470   0.619   1.955   4.770
 7857SOL    HW224471   0.738   1.958   4.881
 7858SOL     OW24472   5.878   4.868   3.364
 7858SOL    HW124473   5.898   4.960   3.330
 7858SOL    HW224474   5.934   4.849   3.444
 7859SOL     OW24475   0.863   6.016   6.711
 7859SOL    HW124476   0.886   5.923   6.685
 7859SOL    HW224477   0.943   6.075   6.699
 7860SOL     OW24478   3.186   0.137   1.782
 7860SOL    HW124479   3.142   0.048   1.772
 7860SOL    HW224480   3.168   0.192   1.701
 7861SOL     OW24481   5.453   4.269   0.477
 7861SOL    HW124482   5.362   4.304   0.501
 7861SOL    HW224483   5.473   4.188   0.533
 7862SOL     OW24484   3.283   4.228   1.658
 7862SOL    HW124485   3.263   4.310   1.604
 7862SOL    HW224486   3.199   4.193   1.699
 7863SOL     OW24487   6.476   5.952   2.360
 7863SOL    HW124488   6.408   5.937   2.432
 7863SOL    HW224489   6.557   5.994   2.399
 7864SOL     OW24490   0.924   5.518   4.255
 7864SOL    HW124491   0.993   5.570   4.304
 7864SOL    HW224492   0.930   5.538   4.158
 7865SOL     OW24493   3.039   0.550   1.902
 7865SOL    HW124494   2.969   0.511   1.842
 7865SOL    HW224495   3.006   0.638   1.937
 7866SOL     OW24496   2.303   2.902   4.106
 7866SOL    HW124497   2.247   2.961   4.163
 7866SOL    HW224498   2.288   2.926   4.009
 7867SOL     OW24499   5.816   4.468   2.698
 7867SOL    HW124500   5.764   4.459   2.783
 7867SOL    HW224501   5.850   4.562   2.690
 7868SOL     OW24502   5.472   0.217   0.610
 7868SOL    HW124503   5.415   0.201   0.690
 7868SOL    HW224504   5.418   0.205   0.526
 7869SOL     OW24505   0.339   2.703   3.209
 7869SOL    HW124506   0.305   2.756   3.131
 7869SOL    HW224507   0.354   2.764   3.286
 7870SOL     OW24508   0.121   6.424   3.348
 7870SOL    HW124509   0.213   6.410   3.384
 7870SOL    HW224510   0.056   6.366   3.398
 7871SOL     OW24511   5.559   3.518   3.862
 7871SOL    HW124512   5.619   3.474   3.794
 7871SOL    HW224513   5.468   3.477   3.856
 7872SOL     OW24514   6.676   3.399   3.862
 7872SOL    HW124515   6.752   3.428   3.920
 7872SOL    HW224516   6.597   3.377   3.919
 7873SOL     OW24517   6.804   5.149   5.033
 7873SOL    HW124518   6.739   5.224   5.020
 7873SOL    HW224519   6.774   5.092   5.109
 7874SOL     OW24520   6.054   0.599   0.553
 7874SOL    HW124521   6.154   0.601   0.550
 7874SOL    HW224522   6.022   0.515   0.508
 7875SOL     OW24523   4.706   3.522   6.585
 7875SOL    HW124524   4.607   3.506   6.595
 7875SOL    HW224525   4.723   3.620   6.578
 7876SOL     OW24526   6.596   0.337   4.306
 7876SOL    HW124527   6.636   0.391   4.232
 7876SOL    HW224528   6.593   0.392   4.390
 7877SOL     OW24529   6.588   2.732   2.234
 7877SOL    HW124530   6.539   2.669   2.173
 7877SOL    HW224531   6.541   2.820   2.234
 7878SOL     OW24532   4.755   4.169   1.457
 7878SOL    HW124533   4.727   4.075   1.440
 7878SOL    HW224534   4.733   4.194   1.552
 7879SOL     OW24535   4.935   0.845   5.018
 7879SOL    HW124536   4.940   0.746   5.032
 7879SOL    HW224537   4.840   0.871   4.999
 7880SOL     OW24538   0.916   6.521   5.779
 7880SOL    HW124539   0.993   6.463   5.754
 7880SOL    HW224540   0.934   6.565   5.867
 7881SOL     OW24541   0.670   5.303   3.988
 7881SOL    HW124542   0.588   5.339   3.943
 7881SOL    HW224543   0.752   5.342   3.945
 7882SOL     OW24544   0.361   4.155   2.076
 7882SOL    HW124545   0.287   4.219   2.053
 7882SOL    HW224546   0.445   4.206   2.093
 7883SOL     OW24547   3.695   2.032   3.722
 7883SOL    HW124548   3.658   2.080   3.802
 7883SOL    HW224549   3.712   1.936   3.745
 7884SOL     OW24550   0.779   3.833   4.371
 7884SOL    HW124551   0.801   3.791   4.282
 7884SOL    HW224552   0.727   3.917   4.356
 7885SOL     OW24553   5.892   5.474   3.996
 7885SOL    HW124554   5.795   5.478   4.020
 7885SOL    HW224555   5.906   5.519   3.908
 7886SOL     OW24556   4.986   3.788   3.746
 7886SOL    HW124557   5.048   3.865   3.759
 7886SOL    HW224558   4.933   3.802   3.662
 7887SOL     OW24559   2.059   3.156   1.042
 7887SOL    HW124560   2.107   3.072   1.015
 7887SOL    HW224561   2.092   3.186   1.131
 7888SOL     OW24562   5.859   2.112   4.572
 7888SOL    HW124563   5.898   2.034   4.522
 7888SOL    HW224564   5.919   2.135   4.649
 7889SOL     OW24565   5.892   4.700   0.114
 7889SOL    HW124566   5.908   4.721   0.017
 7889SOL    HW224567   5.795   4.687   0.130
 7890SOL     OW24568   1.819   3.486   4.209
 7890SOL    HW124569   1.827   3.581   4.239
 7890SOL    HW224570   1.771   3.432   4.278
 7891SOL     OW24571   6.816   1.784   4.312
 7891SOL    HW124572   6.763   1.752   4.233
 7891SOL    HW224573   6.861   1.706   4.355
 7892SOL     OW24574   0.588   1.868   5.568
 7892SOL    HW124575   0.509   1.827   5.522
 7892SOL    HW224576   0.614   1.812   5.646
 7893SOL     OW24577   5.634   6.713   0.404
 7893SOL    HW124578   5.683   6.800   0.405
 7893SOL    HW224579   5.690   6.642   0.448
 7894SOL     OW24580   3.737   1.799   6.571
 7894SOL    HW124581   3.704   1.883   6.614
 7894SOL    HW224582   3.659   1.738   6.553
 7895SOL     OW24583   5.260   6.614   3.062
 7895SOL    HW124584   5.164   6.626   3.088
 7895SOL    HW224585   5.319   6.648   3.135
 7896SOL     OW24586   2.750   2.918   1.305
 7896SOL    HW124587   2.695   2.993   1.268
 7896SOL    HW224588   2.695   2.865   1.369
 7897SOL     OW24589   3.393   3.176   0.835
 7897SOL    HW124590   3.323   3.111   0.864
 7897SOL    HW224591   3.473   3.126   0.802
 7898SOL     OW24592   5.503   6.182   3.431
 7898SOL    HW124593   5.429   6.122   3.460
 7898SOL    HW224594   5.466   6.267   3.395
 7899SOL     OW24595   6.434   4.929   3.412
 7899SOL    HW124596   6.427   4.919   3.312
 7899SOL    HW224597   6.517   4.982   3.433
 7900SOL     OW24598   1.050   3.958   1.367
 7900SOL    HW124599   1.015   3.908   1.288
 7900SOL    HW224600   1.121   4.022   1.337
 7901SOL     OW24601   6.970   0.806   6.809
 7901SOL    HW124602   6.934   0.888   6.854
 7901SOL    HW224603   0.043   0.806   6.815
 7902SOL     OW24604   1.215   0.061   2.451
 7902SOL    HW124605   1.309   0.090   2.472
 7902SOL    HW224606   1.180   0.005   2.526
 7903SOL     OW24607   2.831   2.259   4.986
 7903SOL    HW124608   2.929   2.245   4.978
 7903SOL    HW224609   2.808   2.351   4.955
 7904SOL     OW24610   5.149   1.209   2.277
 7904SOL    HW124611   5.178   1.114   2.265
 7904SOL    HW224612   5.178   1.263   2.198
 7905SOL     OW24613   5.425   1.182   1.284
 7905SOL    HW124614   5.405   1.215   1.376
 7905SOL    HW224615   5.391   1.089   1.273
 7906SOL     OW24616   1.445   5.330   0.676
 7906SOL    HW124617   1.378   5.384   0.727
 7906SOL    HW224618   1.432   5.233   0.696
 7907SOL     OW24619   6.106   7.004   3.192
 7907SOL    HW124620   6.053   0.003   3.273
 7907SOL    HW224621   6.104   0.052   3.125
 7908SOL     OW24622   0.595   0.364   6.226
 7908SOL    HW124623   0.582   0.405   6.136
 7908SOL    HW224624   0.648   0.280   6.217
 7909SOL     OW24625   5.860   4.390   2.001
 7909SOL    HW124626   5.793   4.429   2.064
 7909SOL    HW224627   5.848   4.291   1.997
 7910SOL     OW24628   1.003   4.002   6.825
 7910SOL    HW124629   1.031   3.918   6.779
 7910SOL    HW224630   0.964   4.066   6.758
 7911SOL     OW24631   0.294   4.168   6.808
 7911SOL    HW124632   0.306   4.076   6.845
 7911SOL    HW224633   0.338   4.175   6.718
 7912SOL     OW24634   6.047   4.903   0.823
 7912SOL    HW124635   6.083   4.914   0.731
 7912SOL    HW224636   6.112   4.939   0.890
 7913SOL     OW24637   1.166   4.694   1.816
 7913SOL    HW124638   1.212   4.775   1.851
 7913SOL    HW224639   1.166   4.696   1.716
 7914SOL     OW24640   6.543   6.435   4.823
 7914SOL    HW124641   6.528   6.365   4.893
 7914SOL    HW224642   6.540   6.525   4.866
 7915SOL     OW24643   3.951   5.752   2.711
 7915SOL    HW124644   3.984   5.679   2.770
 7915SOL    HW224645   3.991   5.839   2.741
 7916SOL     OW24646   1.279   0.218   4.451
 7916SOL    HW124647   1.277   0.133   4.503
 7916SOL    HW224648   1.244   0.293   4.508
 7917SOL     OW24649   4.323   3.358   0.916
 7917SOL    HW124650   4.414   3.392   0.891
 7917SOL    HW224651   4.284   3.418   0.986
 7918SOL     OW24652   2.034   2.118   3.774
 7918SOL    HW124653   2.080   2.206   3.768
 7918SOL    HW224654   1.951   2.127   3.829
 7919SOL     OW24655   1.892   6.602   4.609
 7919SOL    HW124656   1.894   6.696   4.575
 7919SOL    HW224657   1.985   6.568   4.619
 7920SOL     OW24658   5.159   0.262   1.029
 7920SOL    HW124659   5.090   0.328   0.999
 7920SOL    HW224660   5.233   0.311   1.076
 7921SOL     OW24661   5.712   2.228   0.971
 7921SOL    HW124662   5.659   2.304   1.007
 7921SOL    HW224663   5.718   2.156   1.040
 7922SOL     OW24664   1.567   5.768   1.275
 7922SOL    HW124665   1.648   5.824   1.263
 7922SOL    HW224666   1.579   5.708   1.354
 7923SOL     OW24667   5.479   0.774   0.229
 7923SOL    HW124668   5.522   0.833   0.298
 7923SOL    HW224669   5.407   0.826   0.182
 7924SOL     OW24670   6.625   6.015   0.659
 7924SOL    HW124671   6.628   6.024   0.560
 7924SOL    HW224672   6.555   5.948   0.685
 7925SOL     OW24673   1.453   5.905   6.440
 7925SOL    HW124674   1.358   5.935   6.446
 7925SOL    HW224675   1.458   5.818   6.391
 7926SOL     OW24676   4.978   5.344   0.470
 7926SOL    HW124677   4.993   5.330   0.372
 7926SOL    HW224678   5.045   5.290   0.522
 7927SOL     OW24679   4.326   6.825   2.665
 7927SOL    HW124680   4.268   6.899   2.631
 7927SOL    HW224681   4.317   6.820   2.765
 7928SOL     OW24682   6.064   2.281   3.275
 7928SOL    HW124683   6.151   2.325   3.252
 7928SOL    HW224684   6.012   2.339   3.337
 7929SOL     OW24685   4.370   4.423   6.032
 7929SOL    HW124686   4.374   4.497   6.099
 7929SOL    HW224687   4.415   4.341   6.069
 7930SOL     OW24688   4.502   6.338   5.915
 7930SOL    HW124689   4.407   6.340   5.882
 7930SOL    HW224690   4.553   6.267   5.866
 7931SOL     OW24691   3.873   2.099   1.107
 7931SOL    HW124692   3.942   2.060   1.169
 7931SOL    HW224693   3.792   2.041   1.109
 7932SOL     OW24694   1.699   3.931   2.267
 7932SOL    HW124695   1.621   3.994   2.277
 7932SOL    HW224696   1.780   3.972   2.310
 7933SOL     OW24697   0.860   0.998   6.992
 7933SOL    HW124698   0.868   0.917   0.024
 7933SOL    HW224699   0.906   1.076   0.009
 7934SOL     OW24700   1.012   5.166   1.154
 7934SOL    HW124701   1.062   5.215   1.225
 7934SOL    HW224702   1.075   5.106   1.104
 7935SOL     OW24703   4.913   3.339   3.553
 7935SOL    HW124704   4.826   3.291   3.554
 7935SOL    HW224705   4.971   3.304   3.627
 7936SOL     OW24706   3.414   5.880   4.099
 7936SOL    HW124707   3.494   5.936   4.124
 7936SOL    HW224708   3.331   5.932   4.117
 7937SOL     OW24709   3.347   1.007   0.034
 7937SOL    HW124710   3.442   1.038   0.030
 7937SOL    HW224711   3.290   1.068   7.005
 7938SOL     OW24712   3.199   6.713   4.317
 7938SOL    HW124713   3.185   6.804   4.357
 7938SOL    HW224714   3.117   6.657   4.330
 7939SOL     OW24715   0.605   1.641   4.231
 7939SOL    HW124716   0.662   1.721   4.215
 7939SOL    HW224717   0.509   1.664   4.218
 7940SOL     OW24718   5.667   1.042   3.495
 7940SOL    HW124719   5.605   1.109   3.534
 7940SOL    HW224720   5.714   1.082   3.416
 7941SOL     OW24721   3.438   6.677   1.338
 7941SOL    HW124722   3.432   6.577   1.334
 7941SOL    HW224723   3.428   6.707   1.433
 7942SOL     OW24724   1.409   5.065   0.732
 7942SOL    HW124725   1.319   5.022   0.734
 7942SOL    HW224726   1.476   5.004   0.773
 7943SOL     OW24727   1.407   6.127   5.891
 7943SOL    HW124728   1.335   6.072   5.847
 7943SOL    HW224729   1.441   6.195   5.826
 7944SOL     OW24730   1.307   2.540   1.337
 7944SOL    HW124731   1.211   2.544   1.366
 7944SOL    HW224732   1.312   2.513   1.241
 7945SOL     OW24733   6.237   4.563   3.504
 7945SOL    HW124734   6.144   4.601   3.503
 7945SOL    HW224735   6.236   4.474   3.550
 7946SOL     OW24736   3.505   1.543   6.276
 7946SOL    HW124737   3.461   1.480   6.212
 7946SOL    HW224738   3.579   1.592   6.230
 7947SOL     OW24739   0.684   3.677   6.409
 7947SOL    HW124740   0.719   3.645   6.497
 7947SOL    HW224741   0.744   3.748   6.372
 7948SOL     OW24742   1.447   4.844   2.646
 7948SOL    HW124743   1.357   4.853   2.603
 7948SOL    HW224744   1.481   4.934   2.671
 7949SOL     OW24745   3.716   6.324   6.368
 7949SOL    HW124746   3.742   6.393   6.301
 7949SOL    HW224747   3.789   6.256   6.377
 7950SOL     OW24748   5.889   4.207   5.249
 7950SOL    HW124749   5.893   4.307   5.254
 7950SOL    HW224750   5.966   4.173   5.195
 7951SOL     OW24751   4.080   5.576   2.863
 7951SOL    HW124752   4.051   5.505   2.799
 7951SOL    HW224753   4.088   5.537   2.954
 7952SOL     OW24754   6.143   3.892   6.641
 7952SOL    HW124755   6.100   3.816   6.691
 7952SOL    HW224756   6.221   3.926   6.695
 7953SOL     OW24757   2.894   0.757   0.610
 7953SOL    HW124758   2.823   0.755   0.681
 7953SOL    HW224759   2.868   0.695   0.536
 7954SOL     OW24760   4.065   3.765   6.492
 7954SOL    HW124761   4.132   3.741   6.422
 7954SOL    HW224762   4.051   3.864   6.493
 7955SOL     OW24763   1.698   1.795   6.622
 7955SOL    HW124764   1.694   1.755   6.714
 7955SOL    HW224765   1.639   1.875   6.618
 7956SOL     OW24766   6.553   5.983   0.399
 7956SOL    HW124767   6.541   5.887   0.373
 7956SOL    HW224768   6.475   6.012   0.455
 7957SOL     OW24769   4.544   0.829   5.920
 7957SOL    HW124770   4.476   0.875   5.863
 7957SOL    HW224771   4.508   0.741   5.952
 7958SOL     OW24772   6.217   2.391   0.203
 7958SOL    HW124773   6.121   2.390   0.231
 7958SOL    HW224774   6.229   2.456   0.129
 7959SOL     OW24775   6.132   1.145   6.551
 7959SOL    HW124776   6.191   1.209   6.502
 7959SOL    HW224777   6.094   1.190   6.631
 7960SOL     OW24778   0.158   0.932   5.516
 7960SOL    HW124779   0.077   0.931   5.574
 7960SOL    HW224780   0.141   0.990   5.436
 7961SOL     OW24781   6.456   6.177   0.240
 7961SOL    HW124782   6.491   6.120   0.314
 7961SOL    HW224783   6.427   6.266   0.278
 7962SOL     OW24784   5.597   6.870   5.768
 7962SOL    HW124785   5.565   6.889   5.676
 7962SOL    HW224786   5.522   6.880   5.833
 7963SOL     OW24787   6.926   0.005   4.243
 7963SOL    HW124788   6.989   6.954   4.251
 7963SOL    HW224789   6.856   7.010   4.175
 7964SOL     OW24790   6.603   4.144   1.673
 7964SOL    HW124791   6.592   4.059   1.621
 7964SOL    HW224792   6.516   4.193   1.676
 7965SOL     OW24793   3.742   2.847   6.260
 7965SOL    HW124794   3.762   2.885   6.170
 7965SOL    HW224795   3.769   2.750   6.262
 7966SOL     OW24796   4.976   3.522   4.873
 7966SOL    HW124797   5.060   3.515   4.927
 7966SOL    HW224798   4.900   3.546   4.933
 7967SOL     OW24799   1.608   4.531   1.592
 7967SOL    HW124800   1.604   4.556   1.688
 7967SOL    HW224801   1.524   4.484   1.565
 7968SOL     OW24802   0.056   2.953   5.113
 7968SOL    HW124803   6.986   2.965   5.088
 7968SOL    HW224804   0.106   3.038   5.096
 7969SOL     OW24805   4.929   5.016   0.068
 7969SOL    HW124806   4.858   4.960   0.111
 7969SOL    HW224807   4.895   5.050   7.006
 7970SOL     OW24808   6.007   2.861   2.859
 7970SOL    HW124809   6.017   2.877   2.957
 7970SOL    HW224810   6.037   2.768   2.838
 7971SOL     OW24811   2.864   1.259   0.021
 7971SOL    HW124812   2.834   1.171   0.059
 7971SOL    HW224813   2.924   1.305   0.086
 7972SOL     OW24814   4.079   3.725   3.504
 7972SOL    HW124815   4.102   3.628   3.505
 7972SOL    HW224816   4.030   3.746   3.419
 7973SOL     OW24817   6.586   4.211   2.459
 7973SOL    HW124818   6.641   4.293   2.442
 7973SOL    HW224819   6.634   4.131   2.424
 7974SOL     OW24820   6.612   2.572   6.539
 7974SOL    HW124821   6.664   2.648   6.578
 7974SOL    HW224822   6.593   2.505   6.611
 7975SOL     OW24823   5.736   0.606   1.253
 7975SOL    HW124824   5.636   0.615   1.247
 7975SOL    HW224825   5.775   0.691   1.288
 7976SOL     OW24826   0.774   6.950   0.977
 7976SOL    HW124827   0.873   6.942   0.993
 7976SOL    HW224828   0.725   6.937   1.063
 7977SOL     OW24829   5.335   5.393   3.824
 7977SOL    HW124830   5.266   5.349   3.881
 7977SOL    HW224831   5.366   5.330   3.753
 7978SOL     OW24832   0.025   4.544   1.891
 7978SOL    HW124833   6.990   4.574   1.819
 7978SOL    HW224834   0.116   4.526   1.853
 7979SOL     OW24835   1.756   2.370   3.961
 7979SOL    HW124836   1.842   2.402   4.000
 7979SOL    HW224837   1.698   2.334   4.034
 7980SOL     OW24838   4.041   5.499   0.148
 7980SOL    HW124839   4.014   5.477   0.241
 7980SOL    HW224840   3.985   5.574   0.114
 7981SOL     OW24841   1.981   4.482   3.178
 7981SOL    HW124842   1.970   4.504   3.081
 7981SOL    HW224843   2.076   4.457   3.196
 7982SOL     OW24844   6.256   1.817   5.365
 7982SOL    HW124845   6.295   1.900   5.326
 7982SOL    HW224846   6.324   1.744   5.362
 7983SOL     OW24847   4.980   0.961   1.857
 7983SOL    HW124848   4.920   1.033   1.890
 7983SOL    HW224849   5.059   1.001   1.810
 7984SOL     OW24850   0.809   2.206   3.178
 7984SOL    HW124851   0.720   2.161   3.183
 7984SOL    HW224852   0.808   2.273   3.104
 7985SOL     OW24853   2.679   2.918   5.350
 7985SOL    HW124854   2.666   2.821   5.329
 7985SOL    HW224855   2.610   2.972   5.303
 7986SOL     OW24856   3.494   0.996   4.034
 7986SOL    HW124857   3.473   1.049   4.116
 7986SOL    HW224858   3.447   1.035   3.955
 7987SOL     OW24859   1.177   3.993   0.005
 7987SOL    HW124860   1.111   4.003   6.956
 7987SOL    HW224861   1.147   4.049   0.082
 7988SOL     OW24862   6.788   1.801   1.825
 7988SOL    HW124863   6.825   1.892   1.840
 7988SOL    HW224864   6.861   1.739   1.796
 7989SOL     OW24865   0.501   4.403   0.589
 7989SOL    HW124866   0.427   4.401   0.522
 7989SOL    HW224867   0.587   4.427   0.543
 7990SOL     OW24868   3.962   5.675   5.108
 7990SOL    HW124869   3.918   5.682   5.018
 7990SOL    HW224870   3.934   5.752   5.165
 7991SOL     OW24871   5.732   1.475   5.381
 7991SOL    HW124872   5.775   1.455   5.469
 7991SOL    HW224873   5.671   1.400   5.357
 7992SOL     OW24874   3.039   6.766   6.687
 7992SOL    HW124875   2.967   6.835   6.689
 7992SOL    HW224876   3.029   6.709   6.606
 7993SOL     OW24877   6.305   5.889   1.337
 7993SOL    HW124878   6.319   5.983   1.367
 7993SOL    HW224879   6.307   5.828   1.417
 7994SOL     OW24880   5.592   0.003   3.851
 7994SOL    HW124881   5.600   7.011   3.753
 7994SOL    HW224882   5.547   6.952   3.896
 7995SOL     OW24883   0.832   4.881   1.267
 7995SOL    HW124884   0.753   4.940   1.255
 7995SOL    HW224885   0.888   4.914   1.343
 7996SOL     OW24886   3.156   0.598   2.753
 7996SOL    HW124887   3.246   0.627   2.720
 7996SOL    HW224888   3.158   0.501   2.776
 7997SOL     OW24889   1.811   1.895   6.392
 7997SOL    HW124890   1.768   1.862   6.476
 7997SOL    HW224891   1.745   1.889   6.317
 7998SOL     OW24892   2.139   0.869   0.882
 7998SOL    HW124893   2.095   0.836   0.798
 7998SOL    HW224894   2.238   0.866   0.870
 7999SOL     OW24895   0.853   0.531   4.306
 7999SOL    HW124896   0.904   0.445   4.310
 7999SOL    HW224897   0.795   0.540   4.387
 8000SOL     OW24898   4.427   5.147   0.049
 8000SOL    HW124899   4.497   5.218   0.033
 8000SOL    HW224900   4.338   5.191   0.063
 8001SOL     OW24901   4.588   6.021   1.538
 8001SOL    HW124902   4.534   5.992   1.459
 8001SOL    HW224903   4.682   5.988   1.529
 8002SOL     OW24904   0.811   0.380   5.317
 8002SOL    HW124905   0.890   0.427   5.357
 8002SOL    HW224906   0.780   0.429   5.236
 8003SOL     OW24907   2.268   5.382   2.138
 8003SOL    HW124908   2.334   5.437   2.190
 8003SOL    HW224909   2.304   5.290   2.125
 8004SOL     OW24910   1.439   2.930   4.060
 8004SOL    HW124911   1.397   2.839   4.057
 8004SOL    HW224912   1.538   2.921   4.064
 8005SOL     OW24913   2.247   7.020   3.468
 8005SOL    HW124914   2.329   0.023   3.516
 8005SOL    HW224915   2.245   6.920   3.463
 8006SOL     OW24916   3.977   4.583   5.320
 8006SOL    HW124917   3.984   4.484   5.301
 8006SOL    HW224918   3.964   4.597   5.418
 8007SOL     OW24919   5.918   7.011   6.793
 8007SOL    HW124920   6.008   7.008   6.836
 8007SOL    HW224921   5.847   7.012   6.863
 8008SOL     OW24922   5.529   6.259   6.971
 8008SOL    HW124923   5.484   6.342   7.004
 8008SOL    HW224924   5.566   6.275   6.880
 8009SOL     OW24925   5.118   1.589   6.821
 8009SOL    HW124926   5.111   1.564   6.918
 8009SOL    HW224927   5.029   1.577   6.777
 8010SOL     OW24928   3.058   1.631   5.712
 8010SOL    HW124929   3.026   1.708   5.767
 8010SOL    HW224930   3.156   1.619   5.726
 8011SOL     OW24931   3.955   1.747   2.656
 8011SOL    HW124932   3.979   1.737   2.559
 8011SOL    HW224933   4.030   1.791   2.705
 8012SOL     OW24934   6.907   1.520   4.825
 8012SOL    HW124935   6.976   1.491   4.891
 8012SOL    HW224936   6.818   1.528   4.871
 8013SOL     OW24937   3.515   2.109   2.511
 8013SOL    HW124938   3.561   2.100   2.422
 8013SOL    HW224939   3.416   2.110   2.497
 8014SOL     OW24940   2.088   1.713   2.429
 8014SOL    HW124941   2.166   1.726   2.489
 8014SOL    HW224942   2.101   1.767   2.345
 8015SOL     OW24943   3.290   0.271   5.596
 8015SOL    HW124944   3.196   0.253   5.567
 8015SOL    HW224945   3.351   0.204   5.554
 8016SOL     OW24946   3.154   1.673   4.881
 8016SOL    HW124947   3.101   1.730   4.943
 8016SOL    HW224948   3.095   1.640   4.807
 8017SOL     OW24949   6.636   6.180   1.262
 8017SOL    HW124950   6.590   6.269   1.263
 8017SOL    HW224951   6.632   6.142   1.170
 8018SOL     OW24952   4.143   2.192   0.104
 8018SOL    HW124953   4.197   2.272   0.077
 8018SOL    HW224954   4.162   2.116   0.041
 8019SOL     OW24955   2.566   3.595   1.002
 8019SOL    HW124956   2.655   3.564   0.969
 8019SOL    HW224957   2.516   3.518   1.040
 8020SOL     OW24958   6.561   1.015   5.448
 8020SOL    HW124959   6.661   1.012   5.452
 8020SOL    HW224960   6.531   0.999   5.354
 8021SOL     OW24961   1.380   1.949   1.247
 8021SOL    HW124962   1.376   2.024   1.181
 8021SOL    HW224963   1.417   1.868   1.202
 8022SOL     OW24964   5.096   1.453   2.419
 8022SOL    HW124965   5.095   1.524   2.349
 8022SOL    HW224966   5.096   1.363   2.375
 8023SOL     OW24967   5.422   6.083   2.112
 8023SOL    HW124968   5.483   6.098   2.189
 8023SOL    HW224969   5.476   6.066   2.029
 8024SOL     OW24970   2.432   0.798   6.540
 8024SOL    HW124971   2.470   0.881   6.499
 8024SOL    HW224972   2.403   0.735   6.467
 8025SOL     OW24973   1.229   5.911   2.126
 8025SOL    HW124974   1.135   5.878   2.122
 8025SOL    HW224975   1.274   5.896   2.038
 8026SOL     OW24976   0.432   5.696   6.783
 8026SOL    HW124977   0.474   5.776   6.826
 8026SOL    HW224978   0.468   5.684   6.691
 8027SOL     OW24979   3.170   0.959   6.542
 8027SOL    HW124980   3.232   1.037   6.546
 8027SOL    HW224981   3.210   0.882   6.592
 8028SOL     OW24982   3.194   5.511   5.161
 8028SOL    HW124983   3.240   5.489   5.247
 8028SOL    HW224984   3.188   5.429   5.104
 8029SOL     OW24985   0.181   6.889   6.925
 8029SOL    HW124986   0.098   6.906   6.977
 8029SOL    HW224987   0.256   6.866   6.987
 8030SOL     OW24988   0.577   3.864   0.823
 8030SOL    HW124989   0.544   3.958   0.819
 8030SOL    HW224990   0.564   3.820   0.734
 8031SOL     OW24991   0.200   0.640   3.175
 8031SOL    HW124992   0.202   0.585   3.258
 8031SOL    HW224993   0.249   0.726   3.191
 8032SOL     OW24994   6.729   3.091   1.121
 8032SOL    HW124995   6.671   3.013   1.099
 8032SOL    HW224996   6.677   3.176   1.112
 8033SOL     OW24997   4.677   3.603   1.317
 8033SOL    HW124998   4.584   3.581   1.288
 8033SOL    HW224999   4.741   3.589   1.241
 8034SOL     OW25000   5.843   0.607   6.020
 8034SOL    HW125001   5.874   0.697   6.050
 8034SOL    HW225002   5.839   0.544   6.098
 8035SOL     OW25003   5.921   1.772   3.028
 8035SOL    HW125004   5.993   1.836   3.004
 8035SOL    HW225005   5.961   1.688   3.065
 8036SOL     OW25006   5.670   2.347   3.680
 8036SOL    HW125007   5.767   2.328   3.695
 8036SOL    HW225008   5.640   2.302   3.596
 8037SOL     OW25009   1.455   1.589   5.529
 8037SOL    HW125010   1.532   1.626   5.477
 8037SOL    HW225011   1.373   1.591   5.472
 8038SOL     OW25012   0.006   4.693   2.425
 8038SOL    HW125013   7.023   4.602   2.465
 8038SOL    HW225014   6.953   4.713   2.367
 8039SOL     OW25015   1.367   2.469   5.769
 8039SOL    HW125016   1.366   2.439   5.865
 8039SOL    HW225017   1.280   2.512   5.747
 8040SOL     OW25018   1.825   5.276   6.642
 8040SOL    HW125019   1.807   5.208   6.571
 8040SOL    HW225020   1.923   5.297   6.644
 8041SOL     OW25021   3.347   1.480   3.155
 8041SOL    HW125022   3.395   1.406   3.202
 8041SOL    HW225023   3.396   1.566   3.171
 8042SOL     OW25024   4.314   4.226   5.527
 8042SOL    HW125025   4.281   4.319   5.510
 8042SOL    HW225026   4.250   4.160   5.487
 8043SOL     OW25027   4.912   5.328   6.822
 8043SOL    HW125028   4.959   5.276   6.750
 8043SOL    HW225029   4.887   5.418   6.787
 8044SOL     OW25030   2.474   3.558   1.673
 8044SOL    HW125031   2.417   3.519   1.746
 8044SOL    HW225032   2.551   3.607   1.714
 8045SOL     OW25033   6.697   2.323   3.251
 8045SOL    HW125034   6.795   2.303   3.260
 8045SOL    HW225035   6.667   2.303   3.158
 8046SOL     OW25036   6.851   4.875   2.247
 8046SOL    HW125037   6.767   4.927   2.261
 8046SOL    HW225038   6.903   4.916   2.172
 8047SOL     OW25039   3.630   6.380   6.658
 8047SOL    HW125040   3.653   6.371   6.561
 8047SOL    HW225041   3.558   6.314   6.682
 8048SOL     OW25042   3.745   2.574   5.952
 8048SOL    HW125043   3.727   2.620   5.865
 8048SOL    HW225044   3.811   2.500   5.938
 8049SOL     OW25045   1.440   1.712   0.417
 8049SOL    HW125046   1.453   1.801   0.373
 8049SOL    HW225047   1.446   1.722   0.516
 8050SOL     OW25048   0.558   4.823   5.471
 8050SOL    HW125049   0.542   4.917   5.440
 8050SOL    HW225050   0.645   4.819   5.520
 8051SOL     OW25051   4.190   5.951   3.342
 8051SOL    HW125052   4.282   5.977   3.373
 8051SOL    HW225053   4.161   6.013   3.270
 8052SOL     OW25054   2.536   2.184   2.356
 8052SOL    HW125055   2.517   2.086   2.355
 8052SOL    HW225056   2.451   2.235   2.346
 8053SOL     OW25057   2.109   2.902   6.563
 8053SOL    HW125058   2.022   2.865   6.531
 8053SOL    HW225059   2.177   2.897   6.490
 8054SOL     OW25060   4.696   3.310   5.295
 8054SOL    HW125061   4.654   3.394   5.261
 8054SOL    HW225062   4.761   3.276   5.227
 8055SOL     OW25063   5.908   0.527   6.919
 8055SOL    HW125064   5.923   0.433   6.949
 8055SOL    HW225065   5.809   0.545   6.915
 8056SOL     OW25066   2.132   1.034   4.666
 8056SOL    HW125067   2.216   1.005   4.620
 8056SOL    HW225068   2.064   0.961   4.661
 8057SOL     OW25069   2.709   2.181   1.946
 8057SOL    HW125070   2.670   2.256   1.893
 8057SOL    HW225071   2.779   2.217   2.008
 8058SOL     OW25072   3.451   6.767   2.240
 8058SOL    HW125073   3.439   6.778   2.141
 8058SOL    HW225074   3.485   6.852   2.279
 8059SOL     OW25075   2.697   2.729   6.099
 8059SOL    HW125076   2.752   2.784   6.035
 8059SOL    HW225077   2.698   2.633   6.070
 8060SOL     OW25078   5.940   0.861   6.083
 8060SOL    HW125079   5.933   0.900   5.992
 8060SOL    HW225080   5.911   0.928   6.151
 8061SOL     OW25081   0.196   0.525   2.789
 8061SOL    HW125082   0.207   0.557   2.694
 8061SOL    HW225083   0.269   0.566   2.845
 8062SOL     OW25084   3.823   5.454   5.279
 8062SOL    HW125085   3.891   5.469   5.352
 8062SOL    HW225086   3.852   5.503   5.197
 8063SOL     OW25087   3.669   5.463   3.557
 8063SOL    HW125088   3.713   5.411   3.484
 8063SOL    HW225089   3.592   5.515   3.520
 8064SOL     OW25090   6.363   1.848   0.655
 8064SOL    HW125091   6.408   1.826   0.568
 8064SOL    HW225092   6.334   1.764   0.699
 8065SOL     OW25093   4.114   5.702   6.740
 8065SOL    HW125094   4.173   5.672   6.815
 8065SOL    HW225095   4.023   5.723   6.777
 8066SOL     OW25096   7.003   0.179   5.505
 8066SOL    HW125097   6.918   0.185   5.557
 8066SOL    HW225098   6.983   0.149   5.412
 8067SOL     OW25099   4.935   2.597   3.856
 8067SOL    HW125100   4.900   2.690   3.847
 8067SOL    HW225101   5.010   2.596   3.922
 8068SOL     OW25102   5.932   4.041   1.148
 8068SOL    HW125103   6.021   4.002   1.172
 8068SOL    HW225104   5.915   4.123   1.202
 8069SOL     OW25105   2.828   5.356   3.302
 8069SOL    HW125106   2.909   5.356   3.360
 8069SOL    HW225107   2.748   5.383   3.355
 8070SOL     OW25108   4.401   4.764   0.625
 8070SOL    HW125109   4.475   4.789   0.687
 8070SOL    HW225110   4.370   4.671   0.646
 8071SOL     OW25111   2.432   0.124   6.213
 8071SOL    HW125112   2.401   0.056   6.147
 8071SOL    HW225113   2.383   0.112   6.299
 8072SOL     OW25114   1.313   1.836   5.715
 8072SOL    HW125115   1.409   1.850   5.740
 8072SOL    HW225116   1.280   1.753   5.760
 8073SOL     OW25117   3.794   0.754   6.819
 8073SOL    HW125118   3.834   0.842   6.844
 8073SOL    HW225119   3.818   0.733   6.724
 8074SOL     OW25120   1.392   0.832   6.073
 8074SOL    HW125121   1.383   0.848   5.975
 8074SOL    HW225122   1.488   0.840   6.100
 8075SOL     OW25123   0.185   7.019   0.483
 8075SOL    HW125124   0.239   6.935   0.483
 8075SOL    HW225125   0.237   0.066   0.528
 8076SOL     OW25126   6.740   6.120   0.913
 8076SOL    HW125127   6.795   6.198   0.883
 8076SOL    HW225128   6.716   6.063   0.833
 8077SOL     OW25129   4.793   4.714   0.695
 8077SOL    HW125130   4.777   4.802   0.651
 8077SOL    HW225131   4.840   4.653   0.631
 8078SOL     OW25132   0.895   0.743   2.396
 8078SOL    HW125133   0.905   0.655   2.443
 8078SOL    HW225134   0.857   0.811   2.459
 8079SOL     OW25135   1.041   1.596   6.046
 8079SOL    HW125136   1.130   1.631   6.074
 8079SOL    HW225137   0.971   1.664   6.067
 8080SOL     OW25138   1.534   3.268   3.182
 8080SOL    HW125139   1.452   3.321   3.160
 8080SOL    HW225140   1.549   3.270   3.281
 8081SOL     OW25141   5.960   6.227   4.868
 8081SOL    HW125142   6.027   6.270   4.808
 8081SOL    HW225143   5.868   6.259   4.844
 8082SOL     OW25144   4.025   1.701   2.374
 8082SOL    HW125145   4.121   1.728   2.375
 8082SOL    HW225146   3.973   1.765   2.317
 8083SOL     OW25147   5.818   2.343   4.420
 8083SOL    HW125148   5.819   2.254   4.465
 8083SOL    HW225149   5.723   2.370   4.402
 8084SOL     OW25150   3.837   2.005   5.910
 8084SOL    HW125151   3.814   2.022   5.814
 8084SOL    HW225152   3.815   1.910   5.934
 8085SOL     OW25153   1.542   6.326   4.381
 8085SOL    HW125154   1.443   6.327   4.374
 8085SOL    HW225155   1.576   6.420   4.389
 8086SOL     OW25156   6.648   0.613   2.536
 8086SOL    HW125157   6.730   0.556   2.524
 8086SOL    HW225158   6.570   0.554   2.558
 8087SOL     OW25159   0.558   0.730   0.286
 8087SOL    HW125160   0.555   0.828   0.304
 8087SOL    HW225161   0.648   0.694   0.310
 8088SOL     OW25162   6.135   0.218   4.653
 8088SOL    HW125163   6.234   0.204   4.641
 8088SOL    HW225164   6.120   0.280   4.730
 8089SOL     OW25165   6.273   2.043   6.075
 8089SOL    HW125166   6.244   2.003   6.162
 8089SOL    HW225167   6.249   1.981   6.000
 8090SOL     OW25168   4.179   1.885   5.412
 8090SOL    HW125169   4.198   1.794   5.373
 8090SOL    HW225170   4.085   1.911   5.390
 8091SOL     OW25171   1.821   4.960   4.105
 8091SOL    HW125172   1.754   5.016   4.152
 8091SOL    HW225173   1.801   4.863   4.121
 8092SOL     OW25174   4.555   1.739   5.849
 8092SOL    HW125175   4.592   1.656   5.808
 8092SOL    HW225176   4.471   1.766   5.801
 8093SOL     OW25177   3.613   6.110   2.343
 8093SOL    HW125178   3.568   6.185   2.295
 8093SOL    HW225179   3.712   6.114   2.325
 8094SOL     OW25180   1.817   4.300   3.903
 8094SOL    HW125181   1.886   4.236   3.936
 8094SOL    HW225182   1.844   4.394   3.925
 8095SOL     OW25183   1.188   4.823   5.716
 8095SOL    HW125184   1.273   4.874   5.731
 8095SOL    HW225185   1.208   4.725   5.713
 8096SOL     OW25186   0.956   5.930   1.707
 8096SOL    HW125187   1.001   5.847   1.739
 8096SOL    HW225188   0.924   5.983   1.785
 8097SOL     OW25189   3.900   5.926   5.237
 8097SOL    HW125190   3.957   5.968   5.308
 8097SOL    HW225191   3.812   5.899   5.277
 8098SOL     OW25192   1.624   5.689   4.985
 8098SOL    HW125193   1.560   5.614   4.966
 8098SOL    HW225194   1.716   5.660   4.959
 8099SOL     OW25195   2.389   5.202   3.066
 8099SOL    HW125196   2.382   5.182   2.968
 8099SOL    HW225197   2.300   5.185   3.109
 8100SOL     OW25198   0.134   0.493   6.995
 8100SOL    HW125199   0.050   0.517   0.016
 8100SOL    HW225200   0.213   0.517   0.026
 8101SOL     OW25201   2.430   6.336   1.493
 8101SOL    HW125202   2.378   6.420   1.505
 8101SOL    HW225203   2.382   6.275   1.430
 8102SOL     OW25204   1.854   3.476   4.842
 8102SOL    HW125205   1.775   3.488   4.782
 8102SOL    HW225206   1.862   3.556   4.902
 8103SOL     OW25207   3.450   1.086   1.490
 8103SOL    HW125208   3.476   1.000   1.444
 8103SOL    HW225209   3.424   1.154   1.421
 8104SOL     OW25210   2.014   6.204   0.161
 8104SOL    HW125211   2.073   6.159   0.094
 8104SOL    HW225212   2.070   6.258   0.224
 8105SOL     OW25213   7.009   0.364   3.146
 8105SOL    HW125214   6.950   0.431   3.192
 8105SOL    HW225215   0.050   0.328   3.210
 8106SOL     OW25216   2.230   6.747   5.718
 8106SOL    HW125217   2.208   6.694   5.636
 8106SOL    HW225218   2.147   6.763   5.771
 8107SOL     OW25219   1.848   6.251   5.981
 8107SOL    HW125220   1.803   6.162   5.986
 8107SOL    HW225221   1.788   6.321   6.020
 8108SOL     OW25222   0.611   1.136   6.981
 8108SOL    HW125223   0.691   1.078   6.998
 8108SOL    HW225224   0.628   1.194   6.902
 8109SOL     OW25225   6.285   2.914   0.930
 8109SOL    HW125226   6.344   2.995   0.928
 8109SOL    HW225227   6.267   2.884   0.837
 8110SOL     OW25228   4.101   5.014   1.086
 8110SOL    HW125229   4.102   4.934   1.147
 8110SOL    HW225230   4.006   5.043   1.071
 8111SOL     OW25231   6.436   1.356   2.657
 8111SOL    HW125232   6.376   1.421   2.612
 8111SOL    HW225233   6.395   1.264   2.652
 8112SOL     OW25234   1.236   3.677   5.830
 8112SOL    HW125235   1.299   3.682   5.908
 8112SOL    HW225236   1.144   3.656   5.863
 8113SOL     OW25237   5.463   2.873   6.561
 8113SOL    HW125238   5.530   2.814   6.606
 8113SOL    HW225239   5.416   2.929   6.629
 8114SOL     OW25240   2.050   4.131   1.234
 8114SOL    HW125241   2.129   4.167   1.185
 8114SOL    HW225242   1.974   4.196   1.228
 8115SOL     OW25243   2.099   1.617   6.372
 8115SOL    HW125244   2.051   1.662   6.297
 8115SOL    HW225245   2.194   1.602   6.346
 8116SOL     OW25246   4.016   3.884   0.968
 8116SOL    HW125247   4.086   3.825   0.928
 8116SOL    HW225248   3.947   3.906   0.899
 8117SOL     OW25249   2.905   6.670   3.119
 8117SOL    HW125250   2.910   6.580   3.076
 8117SOL    HW225251   2.930   6.741   3.053
 8118SOL     OW25252   6.789   2.668   0.567
 8118SOL    HW125253   6.877   2.711   0.549
 8118SOL    HW225254   6.756   2.696   0.657
 8119SOL     OW25255   6.400   5.766   0.134
 8119SOL    HW125256   6.447   5.678   0.135
 8119SOL    HW225257   6.466   5.839   0.151
 8120SOL     OW25258   2.694   6.275   1.293
 8120SOL    HW125259   2.634   6.196   1.285
 8120SOL    HW225260   2.641   6.359   1.282
 8121SOL     OW25261   1.015   3.391   3.234
 8121SOL    HW125262   1.059   3.357   3.317
 8121SOL    HW225263   0.977   3.481   3.250
 8122SOL     OW25264   0.738   4.653   2.210
 8122SOL    HW125265   0.779   4.576   2.258
 8122SOL    HW225266   0.805   4.727   2.201
 8123SOL     OW25267   0.558   1.734   6.136
 8123SOL    HW125268   0.496   1.810   6.116
 8123SOL    HW225269   0.512   1.647   6.118
 8124SOL     OW25270   5.307   4.781   4.908
 8124SOL    HW125271   5.342   4.732   4.988
 8124SOL    HW225272   5.356   4.868   4.898
 8125SOL     OW25273   1.569   6.466   3.321
 8125SOL    HW125274   1.616   6.417   3.248
 8125SOL    HW225275   1.611   6.442   3.409
 8126SOL     OW25276   4.106   5.183   4.126
 8126SOL    HW125277   4.170   5.111   4.152
 8126SOL    HW225278   4.016   5.163   4.166
 8127SOL     OW25279   3.312   2.746   6.606
 8127SOL    HW125280   3.222   2.710   6.631
 8127SOL    HW225281   3.367   2.673   6.565
 8128SOL     OW25282   3.710   3.132   1.627
 8128SOL    HW125283   3.747   3.048   1.668
 8128SOL    HW225284   3.611   3.133   1.637
 8129SOL     OW25285   1.279   2.945   1.745
 8129SOL    HW125286   1.324   2.873   1.693
 8129SOL    HW225287   1.325   2.956   1.833
 8130SOL     OW25288   1.573   5.572   6.767
 8130SOL    HW125289   1.496   5.629   6.797
 8130SOL    HW225290   1.612   5.611   6.683
 8131SOL     OW25291   1.811   3.414   6.902
 8131SOL    HW125292   1.820   3.431   7.000
 8131SOL    HW225293   1.884   3.353   6.872
 8132SOL     OW25294   6.856   6.956   4.934
 8132SOL    HW125295   6.909   6.893   4.990
 8132SOL    HW225296   6.782   6.996   4.989
 8133SOL     OW25297   3.448   4.821   0.843
 8133SOL    HW125298   3.453   4.724   0.869
 8133SOL    HW225299   3.372   4.835   0.779
 8134SOL     OW25300   5.329   1.056   5.468
 8134SOL    HW125301   5.240   1.015   5.489
 8134SOL    HW225302   5.401   0.988   5.480
 8135SOL     OW25303   1.844   6.856   1.850
 8135SOL    HW125304   1.882   6.892   1.936
 8135SOL    HW225305   1.760   6.904   1.828
 8136SOL     OW25306   4.540   4.736   2.112
 8136SOL    HW125307   4.443   4.729   2.092
 8136SOL    HW225308   4.590   4.666   2.061
 8137SOL     OW25309   4.036   1.308   4.668
 8137SOL    HW125310   4.099   1.292   4.744
 8137SOL    HW225311   4.086   1.349   4.592
 8138SOL     OW25312   4.683   1.072   1.354
 8138SOL    HW125313   4.614   1.140   1.328
 8138SOL    HW225314   4.664   0.986   1.308
 8139SOL     OW25315   0.955   2.195   3.493
 8139SOL    HW125316   1.046   2.219   3.526
 8139SOL    HW225317   0.906   2.278   3.467
 8140SOL     OW25318   3.788   0.879   3.326
 8140SOL    HW125319   3.840   0.833   3.398
 8140SOL    HW225320   3.771   0.815   3.251
 8141SOL     OW25321   4.639   4.953   4.455
 8141SOL    HW125322   4.653   4.857   4.431
 8141SOL    HW225323   4.722   4.989   4.499
 8142SOL     OW25324   6.442   5.721   0.433
 8142SOL    HW125325   6.521   5.660   0.420
 8142SOL    HW225326   6.365   5.668   0.467
 8143SOL     OW25327   6.005   3.972   4.707
 8143SOL    HW125328   6.039   4.066   4.714
 8143SOL    HW225329   6.035   3.932   4.621
 8144SOL     OW25330   5.955   6.451   6.503
 8144SOL    HW125331   5.942   6.394   6.421
 8144SOL    HW225332   5.968   6.392   6.583
 8145SOL     OW25333   6.292   5.901   2.559
 8145SOL    HW125334   6.256   5.991   2.533
 8145SOL    HW225335   6.311   5.899   2.657
 8146SOL     OW25336   2.950   1.156   4.379
 8146SOL    HW125337   2.940   1.255   4.370
 8146SOL    HW225338   2.883   1.121   4.445
 8147SOL     OW25339   4.799   1.038   3.934
 8147SOL    HW125340   4.875   0.980   3.907
 8147SOL    HW225341   4.813   1.130   3.898
 8148SOL     OW25342   5.622   4.085   3.574
 8148SOL    HW125343   5.704   4.135   3.604
 8148SOL    HW225344   5.650   4.007   3.517
 8149SOL     OW25345   4.377   4.603   3.513
 8149SOL    HW125346   4.429   4.596   3.428
 8149SOL    HW225347   4.433   4.570   3.589
 8150SOL     OW25348   0.617   5.271   0.263
 8150SOL    HW125349   0.684   5.344   0.248
 8150SOL    HW225350   0.601   5.260   0.361
 8151SOL     OW25351   0.993   1.739   5.105
 8151SOL    HW125352   0.948   1.825   5.080
 8151SOL    HW225353   1.086   1.758   5.138
 8152SOL     OW25354   1.334   1.049   3.329
 8152SOL    HW125355   1.395   1.060   3.407
 8152SOL    HW225356   1.312   0.952   3.317
 8153SOL     OW25357   2.193   6.781   0.411
 8153SOL    HW125358   2.161   6.717   0.340
 8153SOL    HW225359   2.127   6.783   0.486
 8154SOL     OW25360   1.951   6.490   3.837
 8154SOL    HW125361   2.032   6.489   3.779
 8154SOL    HW225362   1.970   6.540   3.921
 8155SOL     OW25363   3.052   3.164   3.589
 8155SOL    HW125364   3.004   3.176   3.502
 8155SOL    HW225365   3.066   3.252   3.632
 8156SOL     OW25366   6.213   0.771   6.161
 8156SOL    HW125367   6.294   0.820   6.194
 8156SOL    HW225368   6.147   0.836   6.124
 8157SOL     OW25369   6.431   3.444   6.493
 8157SOL    HW125370   6.468   3.450   6.400
 8157SOL    HW225371   6.453   3.528   6.542
 8158SOL     OW25372   1.716   4.996   2.458
 8158SOL    HW125373   1.700   4.950   2.371
 8158SOL    HW225374   1.784   4.945   2.511
 8159SOL     OW25375   2.046   6.038   2.021
 8159SOL    HW125376   1.960   6.064   1.977
 8159SOL    HW225377   2.076   6.113   2.081
 8160SOL     OW25378   4.385   2.198   2.021
 8160SOL    HW125379   4.480   2.172   2.035
 8160SOL    HW225380   4.343   2.136   1.956
 8161SOL     OW25381   5.306   1.362   0.990
 8161SOL    HW125382   5.247   1.440   0.974
 8161SOL    HW225383   5.272   1.308   1.066
 8162SOL     OW25384   5.760   0.484   2.109
 8162SOL    HW125385   5.797   0.567   2.068
 8162SOL    HW225386   5.727   0.423   2.037
 8163SOL     OW25387   2.105   4.063   5.201
 8163SOL    HW125388   2.192   4.046   5.155
 8163SOL    HW225389   2.109   4.026   5.294
 8164SOL     OW25390   4.135   2.212   2.099
 8164SOL    HW125391   4.215   2.226   2.040
 8164SOL    HW225392   4.165   2.173   2.187
 8165SOL     OW25393   2.379   5.262   1.616
 8165SOL    HW125394   2.477   5.276   1.600
 8165SOL    HW225395   2.326   5.313   1.548
 8166SOL     OW25396   2.660   6.894   2.232
 8166SOL    HW125397   2.683   6.985   2.266
 8166SOL    HW225398   2.576   6.862   2.277
 8167SOL     OW25399   5.574   2.682   3.660
 8167SOL    HW125400   5.520   2.666   3.578
 8167SOL    HW225401   5.547   2.618   3.731
 8168SOL     OW25402   3.184   1.251   3.009
 8168SOL    HW125403   3.263   1.313   3.015
 8168SOL    HW225404   3.206   1.177   2.946
 8169SOL     OW25405   5.088   3.832   6.044
 8169SOL    HW125406   5.074   3.783   6.130
 8169SOL    HW225407   5.117   3.768   5.973
 8170SOL     OW25408   0.641   5.785   3.872
 8170SOL    HW125409   0.734   5.760   3.899
 8170SOL    HW225410   0.597   5.836   3.947
 8171SOL     OW25411   0.854   1.633   5.791
 8171SOL    HW125412   0.891   1.541   5.777
 8171SOL    HW225413   0.865   1.686   5.707
 8172SOL     OW25414   6.792   6.440   0.835
 8172SOL    HW125415   6.828   6.433   0.742
 8172SOL    HW225416   6.868   6.446   0.900
 8173SOL     OW25417   4.667   2.528   6.516
 8173SOL    HW125418   4.740   2.556   6.578
 8173SOL    HW225419   4.701   2.532   6.422
 8174SOL     OW25420   5.981   0.298   2.235
 8174SOL    HW125421   5.890   0.338   2.223
 8174SOL    HW225422   6.042   0.331   2.164
 8175SOL     OW25423   1.082   3.232   6.311
 8175SOL    HW125424   1.154   3.243   6.380
 8175SOL    HW225425   1.092   3.303   6.241
 8176SOL     OW25426   2.667   6.102   2.233
 8176SOL    HW125427   2.673   6.003   2.230
 8176SOL    HW225428   2.681   6.139   2.141
 8177SOL     OW25429   0.488   6.812   5.766
 8177SOL    HW125430   0.499   6.716   5.792
 8177SOL    HW225431   0.407   6.822   5.708
 8178SOL     OW25432   2.311   6.787   6.422
 8178SOL    HW125433   2.259   6.719   6.370
 8178SOL    HW225434   2.288   6.879   6.389
 8179SOL     OW25435   3.053   1.361   0.186
 8179SOL    HW125436   3.008   1.395   0.269
 8179SOL    HW225437   3.144   1.326   0.210
 8180SOL     OW25438   5.620   5.656   5.298
 8180SOL    HW125439   5.576   5.613   5.219
 8180SOL    HW225440   5.560   5.649   5.377
 8181SOL     OW25441   2.550   2.513   2.516
 8181SOL    HW125442   2.545   2.423   2.472
 8181SOL    HW225443   2.484   2.517   2.591
 8182SOL     OW25444   3.682   3.044   5.579
 8182SOL    HW125445   3.693   2.984   5.500
 8182SOL    HW225446   3.665   3.137   5.548
 8183SOL     OW25447   1.579   3.587   4.762
 8183SOL    HW125448   1.493   3.631   4.735
 8183SOL    HW225449   1.640   3.656   4.801
 8184SOL     OW25450   5.779   6.162   5.561
 8184SOL    HW125451   5.859   6.198   5.609
 8184SOL    HW225452   5.760   6.218   5.481
 8185SOL     OW25453   1.918   1.511   3.341
 8185SOL    HW125454   1.841   1.450   3.328
 8185SOL    HW225455   2.001   1.468   3.305
 8186SOL     OW25456   3.671   4.751   6.114
 8186SOL    HW125457   3.587   4.786   6.072
 8186SOL    HW225458   3.714   4.822   6.168
 8187SOL     OW25459   0.925   1.988   5.727
 8187SOL    HW125460   0.942   1.900   5.682
 8187SOL    HW225461   0.872   1.972   5.810
 8188SOL     OW25462   5.865   4.054   2.572
 8188SOL    HW125463   5.918   4.127   2.615
 8188SOL    HW225464   5.835   4.083   2.481
 8189SOL     OW25465   6.083   4.387   2.436
 8189SOL    HW125466   6.164   4.328   2.443
 8189SOL    HW225467   6.094   4.449   2.358
 8190SOL     OW25468   5.340   3.214   3.121
 8190SOL    HW125469   5.276   3.218   3.044
 8190SOL    HW225470   5.347   3.304   3.163
 8191SOL     OW25471   0.862   5.440   2.735
 8191SOL    HW125472   0.923   5.406   2.808
 8191SOL    HW225473   0.848   5.367   2.668
 8192SOL     OW25474   1.469   4.091   1.602
 8192SOL    HW125475   1.463   3.992   1.588
 8192SOL    HW225476   1.558   4.114   1.642
 8193SOL     OW25477   3.350   1.063   5.909
 8193SOL    HW125478   3.393   1.088   5.996
 8193SOL    HW225479   3.255   1.036   5.925
 8194SOL     OW25480   1.493   0.233   0.708
 8194SOL    HW125481   1.514   0.312   0.650
 8194SOL    HW225482   1.477   0.153   0.650
 8195SOL     OW25483   6.120   0.009   0.815
 8195SOL    HW125484   6.149   6.983   0.735
 8195SOL    HW225485   6.171   0.095   0.820
 8196SOL     OW25486   2.444   0.374   6.112
 8196SOL    HW125487   2.351   0.411   6.117
 8196SOL    HW225488   2.450   0.289   6.165
 8197SOL     OW25489   0.864   6.771   6.757
 8197SOL    HW125490   0.873   6.689   6.814
 8197SOL    HW225491   0.953   6.797   6.720
 8198SOL     OW25492   4.114   6.504   2.577
 8198SOL    HW125493   4.186   6.445   2.541
 8198SOL    HW225494   4.123   6.511   2.676
 8199SOL     OW25495   5.928   3.863   0.513
 8199SOL    HW125496   5.896   3.956   0.534
 8199SOL    HW225497   5.870   3.823   0.443
 8200SOL     OW25498   5.002   3.693   1.357
 8200SOL    HW125499   5.023   3.788   1.380
 8200SOL    HW225500   4.942   3.654   1.427
 8201SOL     OW25501   6.506   1.118   4.497
 8201SOL    HW125502   6.460   1.198   4.459
 8201SOL    HW225503   6.489   1.038   4.440
 8202SOL     OW25504   1.650   4.160   3.723
 8202SOL    HW125505   1.706   4.154   3.640
 8202SOL    HW225506   1.684   4.234   3.781
 8203SOL     OW25507   6.303   3.537   0.987
 8203SOL    HW125508   6.295   3.615   1.049
 8203SOL    HW225509   6.331   3.456   1.038
 8204SOL     OW25510   3.513   6.946   0.789
 8204SOL    HW125511   3.463   6.863   0.813
 8204SOL    HW225512   3.612   6.927   0.789
 8205SOL     OW25513   5.968   5.347   3.030
 8205SOL    HW125514   5.942   5.414   3.100
 8205SOL    HW225515   5.961   5.388   2.940
 8206SOL     OW25516   4.552   2.187   4.026
 8206SOL    HW125517   4.638   2.151   4.061
 8206SOL    HW225518   4.539   2.281   4.060
 8207SOL     OW25519   2.980   6.370   7.004
 8207SOL    HW125520   2.934   6.325   6.928
 8207SOL    HW225521   2.972   6.469   6.993
 8208SOL     OW25522   1.518   5.024   6.200
 8208SOL    HW125523   1.446   5.078   6.244
 8208SOL    HW225524   1.489   4.999   6.108
 8209SOL     OW25525   0.520   6.407   5.406
 8209SOL    HW125526   0.610   6.410   5.450
 8209SOL    HW225527   0.527   6.359   5.319
 8210SOL     OW25528   3.101   1.989   0.233
 8210SOL    HW125529   3.160   1.922   0.187
 8210SOL    HW225530   3.036   1.942   0.292
 8211SOL     OW25531   2.979   3.456   5.008
 8211SOL    HW125532   3.071   3.437   4.975
 8211SOL    HW225533   2.947   3.542   4.968
 8212SOL     OW25534   3.787   6.472   1.180
 8212SOL    HW125535   3.793   6.566   1.147
 8212SOL    HW225536   3.728   6.468   1.260
 8213SOL     OW25537   4.370   4.017   1.714
 8213SOL    HW125538   4.282   3.989   1.752
 8213SOL    HW225539   4.409   4.090   1.770
 8214SOL     OW25540   3.798   5.357   4.199
 8214SOL    HW125541   3.852   5.440   4.213
 8214SOL    HW225542   3.741   5.368   4.118
 8215SOL     OW25543   3.440   5.999   6.076
 8215SOL    HW125544   3.370   5.977   6.145
 8215SOL    HW225545   3.395   6.034   5.994
 8216SOL     OW25546   6.104   4.728   1.684
 8216SOL    HW125547   6.053   4.782   1.751
 8216SOL    HW225548   6.180   4.783   1.647
 8217SOL     OW25549   2.755   6.237   3.932
 8217SOL    HW125550   2.682   6.202   3.872
 8217SOL    HW225551   2.843   6.231   3.884
 8218SOL     OW25552   2.870   6.695   5.116
 8218SOL    HW125553   2.933   6.626   5.080
 8218SOL    HW225554   2.913   6.744   5.192
 8219SOL     OW25555   4.101   3.142   1.754
 8219SOL    HW125556   4.148   3.166   1.839
 8219SOL    HW225557   4.106   3.044   1.739
 8220SOL     OW25558   3.246   4.020   4.422
 8220SOL    HW125559   3.228   4.074   4.340
 8220SOL    HW225560   3.345   4.019   4.440
 8221SOL     OW25561   5.695   4.243   3.137
 8221SOL    HW125562   5.770   4.196   3.089
 8221SOL    HW225563   5.649   4.179   3.198
 8222SOL     OW25564   6.521   2.865   0.554
 8222SOL    HW125565   6.581   2.786   0.560
 8222SOL    HW225566   6.568   2.946   0.591
 8223SOL     OW25567   1.995   6.438   5.830
 8223SOL    HW125568   1.979   6.532   5.861
 8223SOL    HW225569   1.930   6.377   5.876
 8224SOL     OW25570   4.806   1.335   0.171
 8224SOL    HW125571   4.802   1.417   0.228
 8224SOL    HW225572   4.793   1.254   0.229
 8225SOL     OW25573   5.774   1.970   0.122
 8225SOL    HW125574   5.873   1.977   0.133
 8225SOL    HW225575   5.731   1.958   0.212
 8226SOL     OW25576   4.157   1.134   0.632
 8226SOL    HW125577   4.221   1.065   0.666
 8226SOL    HW225578   4.111   1.099   0.550
 8227SOL     OW25579   4.124   2.176   2.763
 8227SOL    HW125580   4.194   2.246   2.750
 8227SOL    HW225581   4.128   2.110   2.688
 8228SOL     OW25582   2.114   0.492   4.614
 8228SOL    HW125583   2.179   0.559   4.581
 8228SOL    HW225584   2.144   0.400   4.589
 8229SOL     OW25585   4.599   4.326   0.422
 8229SOL    HW125586   4.507   4.365   0.411
 8229SOL    HW225587   4.592   4.233   0.457
 8230SOL     OW25588   5.422   0.353   6.037
 8230SOL    HW125589   5.455   0.386   6.125
 8230SOL    HW225590   5.497   0.307   5.989
 8231SOL     OW25591   3.065   1.900   2.334
 8231SOL    HW125592   3.035   1.962   2.261
 8231SOL    HW225593   2.995   1.899   2.406
 8232SOL     OW25594   3.606   5.696   3.201
 8232SOL    HW125595   3.624   5.781   3.250
 8232SOL    HW225596   3.527   5.709   3.141
 8233SOL     OW25597   1.252   1.184   6.184
 8233SOL    HW125598   1.328   1.168   6.121
 8233SOL    HW225599   1.287   1.185   6.278
 8234SOL     OW25600   0.933   2.230   0.580
 8234SOL    HW125601   0.939   2.164   0.655
 8234SOL    HW225602   0.983   2.313   0.606
 8235SOL     OW25603   0.823   0.428   1.455
 8235SOL    HW125604   0.750   0.398   1.392
 8235SOL    HW225605   0.782   0.472   1.535
 8236SOL     OW25606   1.065   6.810   1.591
 8236SOL    HW125607   0.995   6.871   1.554
 8236SOL    HW225608   1.063   6.813   1.691
 8237SOL     OW25609   3.885   4.664   5.879
 8237SOL    HW125610   3.898   4.581   5.933
 8237SOL    HW225611   3.951   4.734   5.909
 8238SOL     OW25612   0.607   4.706   0.929
 8238SOL    HW125613   0.598   4.608   0.946
 8238SOL    HW225614   0.694   4.739   0.966
 8239SOL     OW25615   1.933   1.732   5.582
 8239SOL    HW125616   1.976   1.769   5.499
 8239SOL    HW225617   1.961   1.787   5.661
 8240SOL     OW25618   3.850   3.777   4.833
 8240SOL    HW125619   3.889   3.704   4.777
 8240SOL    HW225620   3.921   3.843   4.857
 8241SOL     OW25621   1.724   3.981   5.326
 8241SOL    HW125622   1.753   4.037   5.249
 8241SOL    HW225623   1.792   3.987   5.399
 8242SOL     OW25624   0.640   3.529   2.762
 8242SOL    HW125625   0.551   3.488   2.748
 8242SOL    HW225626   0.699   3.511   2.683
 8243SOL     OW25627   1.726   5.293   4.032
 8243SOL    HW125628   1.728   5.228   4.108
 8243SOL    HW225629   1.693   5.381   4.064
 8244SOL     OW25630   6.571   1.301   3.895
 8244SOL    HW125631   6.490   1.249   3.923
 8244SOL    HW225632   6.580   1.298   3.795
 8245SOL     OW25633   5.664   2.038   2.478
 8245SOL    HW125634   5.662   2.003   2.384
 8245SOL    HW225635   5.645   1.963   2.542
 8246SOL     OW25636   1.574   5.353   6.231
 8246SOL    HW125637   1.482   5.334   6.265
 8246SOL    HW225638   1.638   5.352   6.308
 8247SOL     OW25639   3.107   5.113   3.178
 8247SOL    HW125640   3.076   5.019   3.168
 8247SOL    HW225641   3.152   5.142   3.093
 8248SOL     OW25642   6.471   5.466   3.904
 8248SOL    HW125643   6.376   5.498   3.911
 8248SOL    HW225644   6.512   5.463   3.995
 8249SOL     OW25645   3.199   1.453   6.666
 8249SOL    HW125646   3.217   1.433   6.763
 8249SOL    HW225647   3.195   1.552   6.653
 8250SOL     OW25648   0.892   2.012   6.769
 8250SOL    HW125649   0.825   1.992   6.698
 8250SOL    HW225650   0.889   1.940   6.839
 8251SOL     OW25651   0.664   2.424   5.040
 8251SOL    HW125652   0.741   2.452   5.098
 8251SOL    HW225653   0.597   2.498   5.037
 8252SOL     OW25654   0.784   1.934   6.512
 8252SOL    HW125655   0.701   1.896   6.470
 8252SOL    HW225656   0.844   1.859   6.541
 8253SOL     OW25657   4.164   6.108   0.082
 8253SOL    HW125658   4.106   6.046   0.029
 8253SOL    HW225659   4.248   6.060   0.109
 8254SOL     OW25660   5.868   5.391   0.017
 8254SOL    HW125661   5.817   5.468   0.057
 8254SOL    HW225662   5.816   5.307   0.029
 8255SOL     OW25663   2.242   0.335   5.605
 8255SOL    HW125664   2.173   0.404   5.630
 8255SOL    HW225665   2.301   0.372   5.533
 8256SOL     OW25666   1.308   5.019   4.940
 8256SOL    HW125667   1.342   5.088   4.876
 8256SOL    HW225668   1.363   4.936   4.931
 8257SOL     OW25669   4.947   3.970   3.234
 8257SOL    HW125670   4.985   4.029   3.161
 8257SOL    HW225671   4.984   3.878   3.225
 8258SOL     OW25672   0.701   2.941   2.422
 8258SOL    HW125673   0.663   2.983   2.340
 8258SOL    HW225674   0.635   2.949   2.497
 8259SOL     OW25675   5.453   1.932   4.179
 8259SOL    HW125676   5.520   1.926   4.105
 8259SOL    HW225677   5.369   1.886   4.152
 8260SOL     OW25678   4.634   2.296   1.245
 8260SOL    HW125679   4.574   2.280   1.324
 8260SOL    HW225680   4.643   2.394   1.230
 8261SOL     OW25681   5.666   1.241   2.454
 8261SOL    HW125682   5.642   1.294   2.536
 8261SOL    HW225683   5.713   1.158   2.481
 8262SOL     OW25684   5.553   3.679   1.926
 8262SOL    HW125685   5.487   3.714   1.860
 8262SOL    HW225686   5.624   3.748   1.944
 8263SOL     OW25687   6.046   1.629   5.321
 8263SOL    HW125688   6.128   1.666   5.364
 8263SOL    HW225689   5.965   1.668   5.365
 8264SOL     OW25690   3.680   0.342   2.557
 8264SOL    HW125691   3.684   0.383   2.465
 8264SOL    HW225692   3.721   0.405   2.623
 8265SOL     OW25693   5.026   6.258   0.770
 8265SOL    HW125694   4.926   6.257   0.759
 8265SOL    HW225695   5.054   6.347   0.805
 8266SOL     OW25696   2.971   1.148   4.040
 8266SOL    HW125697   3.024   1.087   4.100
 8266SOL    HW225698   2.886   1.173   4.085
 8267SOL     OW25699   2.048   3.612   2.428
 8267SOL    HW125700   2.117   3.674   2.390
 8267SOL    HW225701   2.043   3.529   2.374
 8268SOL     OW25702   3.428   4.323   6.414
 8268SOL    HW125703   3.455   4.359   6.325
 8268SOL    HW225704   3.502   4.266   6.451
 8269SOL     OW25705   6.326   3.361   4.473
 8269SOL    HW125706   6.304   3.419   4.395
 8269SOL    HW225707   6.413   3.314   4.457
 8270SOL     OW25708   4.178   5.955   6.304
 8270SOL    HW125709   4.158   5.859   6.320
 8270SOL    HW225710   4.207   5.998   6.390
 8271SOL     OW25711   3.429   6.431   6.193
 8271SOL    HW125712   3.520   6.417   6.154
 8271SOL    HW225713   3.411   6.362   6.262
 8272SOL     OW25714   1.306   0.618   2.133
 8272SOL    HW125715   1.278   0.629   2.229
 8272SOL    HW225716   1.225   0.620   2.075
 8273SOL     OW25717   3.923   0.743   0.298
 8273SOL    HW125718   3.993   0.765   0.230
 8273SOL    HW225719   3.833   0.770   0.264
 8274SOL     OW25720   5.289   6.411   5.509
 8274SOL    HW125721   5.244   6.397   5.421
 8274SOL    HW225722   5.355   6.337   5.525
 8275SOL     OW25723   5.612   0.588   4.292
 8275SOL    HW125724   5.568   0.509   4.249
 8275SOL    HW225725   5.554   0.669   4.279
 8276SOL     OW25726   6.817   2.258   6.660
 8276SOL    HW125727   6.729   2.301   6.682
 8276SOL    HW225728   6.871   2.246   6.744
 8277SOL     OW25729   1.342   0.107   0.237
 8277SOL    HW125730   1.356   0.008   0.244
 8277SOL    HW225731   1.427   0.155   0.261
 8278SOL     OW25732   2.874   1.175   1.092
 8278SOL    HW125733   2.930   1.152   1.172
 8278SOL    HW225734   2.808   1.247   1.116
 8279SOL     OW25735   3.642   5.817   5.285
 8279SOL    HW125736   3.619   5.729   5.327
 8279SOL    HW225737   3.625   5.890   5.351
 8280SOL     OW25738   5.274   4.176   6.919
 8280SOL    HW125739   5.206   4.187   6.846
 8280SOL    HW225740   5.312   4.083   6.915
 8281SOL     OW25741   2.815   5.390   6.773
 8281SOL    HW125742   2.807   5.472   6.830
 8281SOL    HW225743   2.806   5.309   6.830
 8282SOL     OW25744   2.978   3.078   1.739
 8282SOL    HW125745   2.973   2.986   1.700
 8282SOL    HW225746   2.885   3.115   1.748
 8283SOL     OW25747   0.449   6.883   4.049
 8283SOL    HW125748   0.385   6.936   4.105
 8283SOL    HW225749   0.536   6.932   4.044
 8284SOL     OW25750   3.847   1.487   2.252
 8284SOL    HW125751   3.822   1.471   2.348
 8284SOL    HW225752   3.916   1.559   2.247
 8285SOL     OW25753   1.937   4.702   6.909
 8285SOL    HW125754   1.864   4.637   6.889
 8285SOL    HW225755   1.912   4.793   6.876
 8286SOL     OW25756   5.648   2.533   5.658
 8286SOL    HW125757   5.607   2.544   5.749
 8286SOL    HW225758   5.641   2.619   5.607
 8287SOL     OW25759   1.850   0.233   3.481
 8287SOL    HW125760   1.760   0.201   3.454
 8287SOL    HW225761   1.917   0.210   3.411
 8288SOL     OW25762   2.179   0.192   2.932
 8288SOL    HW125763   2.150   0.114   2.989
 8288SOL    HW225764   2.168   0.168   2.836
 8289SOL     OW25765   6.328   0.903   6.852
 8289SOL    HW125766   6.387   0.832   6.892
 8289SOL    HW225767   6.337   0.902   6.753
 8290SOL     OW25768   4.505   2.674   1.664
 8290SOL    HW125769   4.574   2.744   1.649
 8290SOL    HW225770   4.453   2.659   1.580
 8291SOL     OW25771   4.750   5.830   6.704
 8291SOL    HW125772   4.781   5.924   6.717
 8291SOL    HW225773   4.651   5.825   6.719
 8292SOL     OW25774   0.464   2.613   5.063
 8292SOL    HW125775   0.462   2.612   4.963
 8292SOL    HW225776   0.381   2.655   5.099
 8293SOL     OW25777   2.800   5.574   3.882
 8293SOL    HW125778   2.878   5.547   3.827
 8293SOL    HW225779   2.817   5.552   3.978
 8294SOL     OW25780   5.481   4.104   5.606
 8294SOL    HW125781   5.410   4.053   5.653
 8294SOL    HW225782   5.571   4.070   5.634
 8295SOL     OW25783   5.131   4.622   2.500
 8295SOL    HW125784   5.079   4.698   2.539
 8295SOL    HW225785   5.094   4.600   2.410
 8296SOL     OW25786   3.732   6.849   2.026
 8296SOL    HW125787   3.734   6.930   2.085
 8296SOL    HW225788   3.694   6.771   2.076
 8297SOL     OW25789   5.279   4.512   3.470
 8297SOL    HW125790   5.334   4.467   3.540
 8297SOL    HW225791   5.327   4.508   3.382
 8298SOL     OW25792   6.916   6.771   6.843
 8298SOL    HW125793   6.906   6.845   6.909
 8298SOL    HW225794   6.951   6.690   6.889
 8299SOL     OW25795   0.775   3.431   0.476
 8299SOL    HW125796   0.753   3.456   0.382
 8299SOL    HW225797   0.771   3.512   0.534
 8300SOL     OW25798   6.218   5.129   4.005
 8300SOL    HW125799   6.234   5.172   4.094
 8300SOL    HW225800   6.282   5.053   3.993
 8301SOL     OW25801   5.810   6.411   0.732
 8301SOL    HW125802   5.743   6.412   0.658
 8301SOL    HW225803   5.890   6.464   0.704
 8302SOL     OW25804   3.684   0.267   5.598
 8302SOL    HW125805   3.651   0.308   5.513
 8302SOL    HW225806   3.778   0.297   5.616
 8303SOL     OW25807   0.463   5.285   2.304
 8303SOL    HW125808   0.510   5.362   2.263
 8303SOL    HW225809   0.366   5.308   2.316
 8304SOL     OW25810   5.924   4.688   3.185
 8304SOL    HW125811   6.012   4.730   3.161
 8304SOL    HW225812   5.879   4.743   3.256
 8305SOL     OW25813   5.267   6.701   5.653
 8305SOL    HW125814   5.296   6.606   5.662
 8305SOL    HW225815   5.303   6.739   5.568
 8306SOL     OW25816   6.844   1.573   3.115
 8306SOL    HW125817   6.804   1.581   3.207
 8306SOL    HW225818   6.771   1.560   3.048
 8307SOL     OW25819   1.700   3.061   2.755
 8307SOL    HW125820   1.765   2.986   2.745
 8307SOL    HW225821   1.713   3.125   2.679
 8308SOL     OW25822   0.965   5.760   0.868
 8308SOL    HW125823   0.943   5.685   0.806
 8308SOL    HW225824   1.062   5.783   0.858
 8309SOL     OW25825   6.155   4.891   4.661
 8309SOL    HW125826   6.092   4.913   4.736
 8309SOL    HW225827   6.107   4.841   4.590
 8310SOL     OW25828   1.905   0.420   1.071
 8310SOL    HW125829   1.921   0.435   1.169
 8310SOL    HW225830   1.843   0.490   1.036
 8311SOL     OW25831   4.988   5.797   3.172
 8311SOL    HW125832   5.006   5.739   3.251
 8311SOL    HW225833   4.973   5.740   3.091
 8312SOL     OW25834   6.093   1.449   0.563
 8312SOL    HW125835   6.156   1.416   0.492
 8312SOL    HW225836   6.138   1.445   0.652
 8313SOL     OW25837   5.696   2.240   5.637
 8313SOL    HW125838   5.703   2.339   5.641
 8313SOL    HW225839   5.698   2.210   5.542
 8314SOL     OW25840   4.709   6.152   4.160
 8314SOL    HW125841   4.720   6.053   4.151
 8314SOL    HW225842   4.780   6.198   4.107
 8315SOL     OW25843   3.734   3.147   4.827
 8315SOL    HW125844   3.802   3.117   4.761
 8315SOL    HW225845   3.656   3.188   4.779
 8316SOL     OW25846   2.550   2.236   5.388
 8316SOL    HW125847   2.472   2.271   5.336
 8316SOL    HW225848   2.618   2.199   5.325
 8317SOL     OW25849   1.421   1.944   4.089
 8317SOL    HW125850   1.493   1.924   4.155
 8317SOL    HW225851   1.444   2.026   4.037
 8318SOL     OW25852   4.270   6.512   6.294
 8318SOL    HW125853   4.304   6.590   6.347
 8318SOL    HW225854   4.287   6.527   6.197
 8319SOL     OW25855   2.382   5.909   6.210
 8319SOL    HW125856   2.298   5.857   6.223
 8319SOL    HW225857   2.408   5.908   6.113
 8320SOL     OW25858   3.786   3.439   5.401
 8320SOL    HW125859   3.733   3.356   5.412
 8320SOL    HW225860   3.737   3.517   5.440
 8321SOL     OW25861   7.011   0.008   0.324
 8321SOL    HW125862   7.010   0.096   0.276
 8321SOL    HW225863   0.061   0.006   0.390
 8322SOL     OW25864   0.733   6.665   0.068
 8322SOL    HW125865   0.689   6.599   0.129
 8322SOL    HW225866   0.664   6.725   0.028
 8323SOL     OW25867   5.650   4.474   0.283
 8323SOL    HW125868   5.596   4.426   0.214
 8323SOL    HW225869   5.626   4.571   0.283
 8324SOL     OW25870   5.370   6.099   0.254
 8324SOL    HW125871   5.310   6.178   0.264
 8324SOL    HW225872   5.395   6.087   0.158
 8325SOL     OW25873   1.497   6.622   5.289
 8325SOL    HW125874   1.595   6.637   5.304
 8325SOL    HW225875   1.450   6.619   5.377
 8326SOL     OW25876   1.681   3.125   6.977
 8326SOL    HW125877   1.727   3.214   6.977
 8326SOL    HW225878   1.640   3.109   6.887
 8327SOL     OW25879   1.134   5.828   4.602
 8327SOL    HW125880   1.201   5.809   4.674
 8327SOL    HW225881   1.147   5.921   4.568
 8328SOL     OW25882   0.554   6.488   6.836
 8328SOL    HW125883   0.546   6.580   6.797
 8328SOL    HW225884   0.611   6.432   6.777
 8329SOL     OW25885   0.730   2.822   4.695
 8329SOL    HW125886   0.790   2.847   4.619
 8329SOL    HW225887   0.679   2.740   4.671
 8330SOL     OW25888   3.008   0.928   6.933
 8330SOL    HW125889   2.988   0.938   0.005
 8330SOL    HW225890   3.068   1.003   6.904
 8331SOL     OW25891   1.842   2.255   6.366
 8331SOL    HW125892   1.763   2.195   6.360
 8331SOL    HW225893   1.906   2.236   6.291
 8332SOL     OW25894   6.340   4.239   1.624
 8332SOL    HW125895   6.304   4.146   1.617
 8332SOL    HW225896   6.264   4.303   1.630
 8333SOL     OW25897   1.969   3.914   0.028
 8333SOL    HW125898   2.055   3.871   0.001
 8333SOL    HW225899   1.988   4.002   0.072
 8334SOL     OW25900   2.747   1.925   5.380
 8334SOL    HW125901   2.736   2.008   5.325
 8334SOL    HW225902   2.844   1.900   5.383
 8335SOL     OW25903   5.343   4.684   6.000
 8335SOL    HW125904   5.423   4.687   5.940
 8335SOL    HW225905   5.357   4.745   6.078
 8336SOL     OW25906   0.894   4.306   3.745
 8336SOL    HW125907   0.942   4.240   3.803
 8336SOL    HW225908   0.847   4.372   3.803
 8337SOL     OW25909   0.084   1.335   3.892
 8337SOL    HW125910   0.114   1.420   3.850
 8337SOL    HW225911   7.017   1.346   3.928
 8338SOL     OW25912   3.154   5.427   1.144
 8338SOL    HW125913   3.145   5.357   1.215
 8338SOL    HW225914   3.237   5.410   1.091
 8339SOL     OW25915   6.213   0.648   1.297
 8339SOL    HW125916   6.168   0.700   1.225
 8339SOL    HW225917   6.155   0.645   1.378
 8340SOL     OW25918   6.070   1.790   6.751
 8340SOL    HW125919   6.115   1.818   6.835
 8340SOL    HW225920   6.130   1.809   6.673
 8341SOL     OW25921   3.596   1.341   0.847
 8341SOL    HW125922   3.518   1.400   0.872
 8341SOL    HW225923   3.578   1.299   0.758
 8342SOL     OW25924   4.497   0.370   0.387
 8342SOL    HW125925   4.416   0.429   0.390
 8342SOL    HW225926   4.523   0.354   0.292
 8343SOL     OW25927   6.055   4.339   3.999
 8343SOL    HW125928   5.957   4.350   4.013
 8343SOL    HW225929   6.072   4.258   3.943
 8344SOL     OW25930   1.301   5.223   6.304
 8344SOL    HW125931   1.273   5.230   6.400
 8344SOL    HW225932   1.246   5.287   6.249
 8345SOL     OW25933   5.032   0.074   3.783
 8345SOL    HW125934   5.122   0.032   3.774
 8345SOL    HW225935   4.964   0.003   3.798
 8346SOL     OW25936   5.876   2.821   4.466
 8346SOL    HW125937   5.936   2.892   4.503
 8346SOL    HW225938   5.795   2.864   4.426
 8347SOL     OW25939   2.351   1.616   6.595
 8347SOL    HW125940   2.266   1.624   6.648
 8347SOL    HW225941   2.421   1.676   6.635
 8348SOL     OW25942   2.904   6.265   2.277
 8348SOL    HW125943   2.861   6.192   2.330
 8348SOL    HW225944   3.003   6.259   2.285
 8349SOL     OW25945   6.163   6.188   2.210
 8349SOL    HW125946   6.254   6.164   2.176
 8349SOL    HW225947   6.126   6.264   2.157
 8350SOL     OW25948   1.994   1.070   6.644
 8350SOL    HW125949   1.935   1.130   6.589
 8350SOL    HW225950   2.002   0.981   6.598
 8351SOL     OW25951   0.448   2.995   2.643
 8351SOL    HW125952   0.442   2.903   2.680
 8351SOL    HW225953   0.455   3.061   2.717
 8352SOL     OW25954   3.053   5.490   0.665
 8352SOL    HW125955   3.127   5.443   0.617
 8352SOL    HW225956   2.972   5.430   0.668
 8353SOL     OW25957   1.016   4.985   1.781
 8353SOL    HW125958   1.114   4.998   1.770
 8353SOL    HW225959   0.992   4.992   1.877
 8354SOL     OW25960   3.416   0.945   3.552
 8354SOL    HW125961   3.381   0.851   3.555
 8354SOL    HW225962   3.412   0.979   3.459
 8355SOL     OW25963   2.908   6.296   6.749
 8355SOL    HW125964   2.994   6.321   6.704
 8355SOL    HW225965   2.848   6.251   6.684
 8356SOL     OW25966   2.122   5.271   0.575
 8356SOL    HW125967   2.035   5.313   0.602
 8356SOL    HW225968   2.125   5.262   0.476
 8357SOL     OW25969   4.771   6.856   5.837
 8357SOL    HW125970   4.714   6.939   5.828
 8357SOL    HW225971   4.720   6.786   5.887
 8358SOL     OW25972   1.324   1.055   5.161
 8358SOL    HW125973   1.247   1.115   5.181
 8358SOL    HW225974   1.320   1.026   5.065
 8359SOL     OW25975   3.888   1.943   6.250
 8359SOL    HW125976   3.803   1.978   6.289
 8359SOL    HW225977   3.965   1.996   6.286
 8360SOL     OW25978   4.608   0.207   1.042
 8360SOL    HW125979   4.651   0.291   1.008
 8360SOL    HW225980   4.599   0.141   0.968
 8361SOL     OW25981   4.042   1.418   6.739
 8361SOL    HW125982   4.098   1.460   6.668
 8361SOL    HW225983   3.981   1.350   6.698
 8362SOL     OW25984   0.504   4.214   1.335
 8362SOL    HW125985   0.596   4.201   1.298
 8362SOL    HW225986   0.500   4.301   1.385
 8363SOL     OW25987   1.785   3.152   1.010
 8363SOL    HW125988   1.746   3.179   1.097
 8363SOL    HW225989   1.883   3.172   1.009
 8364SOL     OW25990   0.051   3.057   4.182
 8364SOL    HW125991   0.097   3.098   4.103
 8364SOL    HW225992   6.989   3.102   4.196
 8365SOL     OW25993   1.553   2.362   2.133
 8365SOL    HW125994   1.513   2.374   2.223
 8365SOL    HW225995   1.652   2.350   2.142
 8366SOL     OW25996   5.410   5.011   2.543
 8366SOL    HW125997   5.455   5.096   2.513
 8366SOL    HW225998   5.475   4.958   2.598
 8367SOL     OW25999   2.066   5.086   4.096
 8367SOL    HW126000   1.979   5.037   4.100
 8367SOL    HW226001   2.118   5.068   4.180
 8368SOL     OW26002   6.223   6.469   5.836
 8368SOL    HW126003   6.233   6.554   5.784
 8368SOL    HW226004   6.126   6.452   5.853
 8369SOL     OW26005   2.389   6.259   0.705
 8369SOL    HW126006   2.458   6.204   0.752
 8369SOL    HW226007   2.392   6.238   0.607
 8370SOL     OW26008   3.150   4.274   6.808
 8370SOL    HW126009   3.185   4.290   6.716
 8370SOL    HW226010   3.153   4.360   6.860
 8371SOL     OW26011   2.305   4.504   5.297
 8371SOL    HW126012   2.338   4.440   5.228
 8371SOL    HW226013   2.209   4.483   5.319
 8372SOL     OW26014   2.233   6.499   1.066
 8372SOL    HW126015   2.151   6.544   1.100
 8372SOL    HW226016   2.309   6.565   1.064
 8373SOL     OW26017   6.797   2.101   4.068
 8373SOL    HW126018   6.878   2.072   4.119
 8373SOL    HW226019   6.791   2.049   3.983
 8374SOL     OW26020   6.862   1.125   4.163
 8374SOL    HW126021   6.797   1.050   4.149
 8374SOL    HW226022   6.844   1.168   4.252
 8375SOL     OW26023   2.683   1.322   4.622
 8375SOL    HW126024   2.703   1.283   4.532
 8375SOL    HW226025   2.710   1.419   4.623
 8376SOL     OW26026   1.343   2.063   3.385
 8376SOL    HW126027   1.355   1.966   3.364
 8376SOL    HW226028   1.340   2.116   3.301
 8377SOL     OW26029   4.970   4.996   0.431
 8377SOL    HW126030   4.896   4.955   0.378
 8377SOL    HW226031   5.057   4.954   0.405
 8378SOL     OW26032   4.871   5.806   4.396
 8378SOL    HW126033   4.968   5.782   4.391
 8378SOL    HW226034   4.833   5.777   4.484
 8379SOL     OW26035   5.733   2.076   1.355
 8379SOL    HW126036   5.639   2.070   1.388
 8379SOL    HW226037   5.772   2.164   1.383
 8380SOL     OW26038   6.963   5.986   1.033
 8380SOL    HW126039   7.003   6.023   1.116
 8380SOL    HW226040   6.892   6.049   0.999
 8381SOL     OW26041   0.405   1.396   2.847
 8381SOL    HW126042   0.432   1.460   2.919
 8381SOL    HW226043   0.479   1.388   2.781
 8382SOL     OW26044   1.694   0.623   1.065
 8382SOL    HW126045   1.647   0.535   1.073
 8382SOL    HW226046   1.644   0.693   1.115
 8383SOL     OW26047   3.073   0.134   6.594
 8383SOL    HW126048   3.131   0.100   6.519
 8383SOL    HW226049   3.003   0.066   6.616
 8384SOL     OW26050   0.704   3.528   3.028
 8384SOL    HW126051   0.768   3.604   3.034
 8384SOL    HW226052   0.665   3.525   2.936
 8385SOL     OW26053   4.350   2.753   1.037
 8385SOL    HW126054   4.431   2.812   1.032
 8385SOL    HW226055   4.274   2.805   1.074
 8386SOL     OW26056   2.392   5.713   2.047
 8386SOL    HW126057   2.379   5.659   1.964
 8386SOL    HW226058   2.480   5.690   2.088
 8387SOL     OW26059   1.104   1.205   3.364
 8387SOL    HW126060   1.166   1.127   3.361
 8387SOL    HW226061   1.157   1.290   3.359
 8388SOL     OW26062   4.414   5.932   0.681
 8388SOL    HW126063   4.320   5.941   0.648
 8388SOL    HW226064   4.446   5.839   0.666
 8389SOL     OW26065   0.312   3.114   4.129
 8389SOL    HW126066   0.338   3.018   4.134
 8389SOL    HW226067   0.289   3.138   4.035
 8390SOL     OW26068   2.591   7.009   5.254
 8390SOL    HW126069   2.657   0.054   5.279
 8390SOL    HW226070   2.579   7.007   5.155
 8391SOL     OW26071   5.866   6.124   0.765
 8391SOL    HW126072   5.861   6.221   0.789
 8391SOL    HW226073   5.960   6.091   0.777
 8392SOL     OW26074   5.696   6.590   5.410
 8392SOL    HW126075   5.603   6.604   5.378
 8392SOL    HW226076   5.738   6.515   5.360
 8393SOL     OW26077   0.137   5.536   2.934
 8393SOL    HW126078   0.119   5.563   2.839
 8393SOL    HW226079   0.177   5.613   2.984
 8394SOL     OW26080   0.688   1.759   3.081
 8394SOL    HW126081   0.745   1.824   3.031
 8394SOL    HW226082   0.618   1.809   3.132
 8395SOL     OW26083   0.682   6.012   5.280
 8395SOL    HW126084   0.662   6.028   5.376
 8395SOL    HW226085   0.607   6.048   5.224
 8396SOL     OW26086   4.621   3.606   0.884
 8396SOL    HW126087   4.706   3.602   0.936
 8396SOL    HW226088   4.615   3.527   0.824
 8397SOL     OW26089   1.707   5.010   3.278
 8397SOL    HW126090   1.768   5.064   3.335
 8397SOL    HW226091   1.709   4.915   3.308
 8398SOL     OW26092   5.161   1.528   0.341
 8398SOL    HW126093   5.065   1.519   0.366
 8398SOL    HW226094   5.171   1.524   0.242
 8399SOL     OW26095   5.699   5.586   0.068
 8399SOL    HW126096   5.643   5.574   0.149
 8399SOL    HW226097   5.768   5.656   0.085
 8400SOL     OW26098   5.883   0.540   4.653
 8400SOL    HW126099   5.920   0.572   4.739
 8400SOL    HW226100   5.955   0.497   4.598
 8401SOL     OW26101   3.116   4.784   6.330
 8401SOL    HW126102   3.197   4.737   6.365
 8401SOL    HW226103   3.066   4.825   6.406
 8402SOL     OW26104   4.611   1.912   0.243
 8402SOL    HW126105   4.552   1.844   0.287
 8402SOL    HW226106   4.631   1.883   0.149
 8403SOL     OW26107   1.215   2.008   4.459
 8403SOL    HW126108   1.298   2.064   4.458
 8403SOL    HW226109   1.210   1.956   4.374
 8404SOL     OW26110   4.312   5.242   5.273
 8404SOL    HW126111   4.255   5.194   5.339
 8404SOL    HW226112   4.319   5.189   5.189
 8405SOL     OW26113   1.171   2.483   5.080
 8405SOL    HW126114   1.127   2.571   5.097
 8405SOL    HW226115   1.251   2.473   5.140
 8406SOL     OW26116   4.823   3.340   1.272
 8406SOL    HW126117   4.747   3.398   1.302
 8406SOL    HW226118   4.885   3.323   1.349
 8407SOL     OW26119   5.043   3.628   2.512
 8407SOL    HW126120   5.123   3.687   2.521
 8407SOL    HW226121   5.053   3.549   2.574
 8408SOL     OW26122   4.798   2.966   3.710
 8408SOL    HW126123   4.773   2.974   3.613
 8408SOL    HW226124   4.890   3.003   3.723
 8409SOL     OW26125   1.038   2.180   4.091
 8409SOL    HW126126   1.123   2.232   4.101
 8409SOL    HW226127   1.055   2.101   4.032
 8410SOL     OW26128   3.236   6.332   2.102
 8410SOL    HW126129   3.189   6.391   2.168
 8410SOL    HW226130   3.169   6.286   2.044
 8411SOL     OW26131   1.980   2.876   3.383
 8411SOL    HW126132   2.039   2.955   3.398
 8411SOL    HW226133   2.009   2.801   3.442
 8412SOL     OW26134   6.229   3.270   2.508
 8412SOL    HW126135   6.272   3.206   2.444
 8412SOL    HW226136   6.175   3.218   2.575
 8413SOL     OW26137   2.283   4.442   1.220
 8413SOL    HW126138   2.296   4.491   1.306
 8413SOL    HW226139   2.273   4.345   1.238
 8414SOL     OW26140   5.244   6.813   2.376
 8414SOL    HW126141   5.344   6.810   2.381
 8414SOL    HW226142   5.215   6.814   2.281
 8415SOL     OW26143   6.444   3.322   2.011
 8415SOL    HW126144   6.496   3.336   2.096
 8415SOL    HW226145   6.373   3.392   2.004
 8416SOL     OW26146   5.184   3.507   2.283
 8416SOL    HW126147   5.160   3.523   2.188
 8416SOL    HW226148   5.100   3.495   2.337
 8417SOL     OW26149   2.469   5.948   5.968
 8417SOL    HW126150   2.480   5.898   5.882
 8417SOL    HW226151   2.412   6.029   5.953
 8418SOL     OW26152   6.170   5.410   2.277
 8418SOL    HW126153   6.180   5.509   2.286
 8418SOL    HW226154   6.137   5.372   2.364
 8419SOL     OW26155   4.090   6.877   3.646
 8419SOL    HW126156   4.109   6.785   3.612
 8419SOL    HW226157   4.022   6.874   3.718
 8420SOL     OW26158   3.663   2.067   6.133
 8420SOL    HW126159   3.590   2.116   6.086
 8420SOL    HW226160   3.736   2.044   6.068
 8421SOL     OW26161   1.840   6.606   1.731
 8421SOL    HW126162   1.836   6.701   1.762
 8421SOL    HW226163   1.908   6.598   1.658
 8422SOL     OW26164   4.061   6.677   1.607
 8422SOL    HW126165   4.037   6.761   1.656
 8422SOL    HW226166   4.005   6.601   1.642
 8423SOL     OW26167   2.478   4.034   1.177
 8423SOL    HW126168   2.570   4.014   1.141
 8423SOL    HW226169   2.485   4.095   1.256
 8424SOL     OW26170   3.041   2.162   2.598
 8424SOL    HW126171   3.047   2.159   2.698
 8424SOL    HW226172   2.961   2.215   2.571
 8425SOL     OW26173   6.025   4.994   0.231
 8425SOL    HW126174   6.019   4.945   0.318
 8425SOL    HW226175   5.966   4.950   0.164
 8426SOL     OW26176   3.914   3.368   2.260
 8426SOL    HW126177   3.869   3.321   2.184
 8426SOL    HW226178   3.980   3.434   2.224
 8427SOL     OW26179   2.451   3.519   6.318
 8427SOL    HW126180   2.466   3.613   6.348
 8427SOL    HW226181   2.374   3.480   6.368
 8428SOL     OW26182   6.058   4.531   2.205
 8428SOL    HW126183   6.002   4.609   2.232
 8428SOL    HW226184   6.040   4.508   2.110
 8429SOL     OW26185   2.040   6.449   2.792
 8429SOL    HW126186   1.981   6.454   2.872
 8429SOL    HW226187   2.039   6.355   2.756
 8430SOL     OW26188   4.798   4.335   3.045
 8430SOL    HW126189   4.805   4.271   2.969
 8430SOL    HW226190   4.705   4.374   3.047
 8431SOL     OW26191   3.022   3.959   0.996
 8431SOL    HW126192   2.998   3.864   1.014
 8431SOL    HW226193   3.084   3.963   0.917
 8432SOL     OW26194   4.750   6.259   6.933
 8432SOL    HW126195   4.663   6.212   6.949
 8432SOL    HW226196   4.739   6.357   6.952
 8433SOL     OW26197   1.122   1.267   5.116
 8433SOL    HW126198   1.149   1.362   5.104
 8433SOL    HW226199   1.086   1.231   5.030
 8434SOL     OW26200   5.613   6.283   6.095
 8434SOL    HW126201   5.536   6.220   6.107
 8434SOL    HW226202   5.689   6.235   6.051
 8435SOL     OW26203   4.860   2.236   1.622
 8435SOL    HW126204   4.770   2.278   1.635
 8435SOL    HW226205   4.894   2.257   1.531
 8436SOL     OW26206   3.801   4.466   1.324
 8436SOL    HW126207   3.747   4.384   1.307
 8436SOL    HW226208   3.853   4.489   1.241
 8437SOL     OW26209   0.158   1.752   1.147
 8437SOL    HW126210   0.222   1.773   1.221
 8437SOL    HW226211   0.157   1.654   1.130
 8438SOL     OW26212   1.984   6.523   1.974
 8438SOL    HW126213   2.072   6.485   1.947
 8438SOL    HW226214   1.923   6.524   1.894
 8439SOL     OW26215   6.627   6.330   2.179
 8439SOL    HW126216   6.688   6.409   2.184
 8439SOL    HW226217   6.546   6.347   2.236
 8440SOL     OW26218   0.226   1.727   3.619
 8440SOL    HW126219   0.318   1.688   3.623
 8440SOL    HW226220   0.232   1.825   3.599
 8441SOL     OW26221   4.429   4.850   1.219
 8441SOL    HW126222   4.463   4.942   1.239
 8441SOL    HW226223   4.492   4.782   1.256
 8442SOL     OW26224   2.079   3.616   6.977
 8442SOL    HW126225   2.049   3.612   0.046
 8442SOL    HW226226   2.142   3.694   6.966
 8443SOL     OW26227   1.582   1.619   2.338
 8443SOL    HW126228   1.524   1.700   2.345
 8443SOL    HW226229   1.648   1.619   2.413
 8444SOL     OW26230   4.241   6.770   3.253
 8444SOL    HW126231   4.272   6.681   3.285
 8444SOL    HW226232   4.142   6.776   3.259
 8445SOL     OW26233   3.904   5.115   1.949
 8445SOL    HW126234   3.892   5.019   1.976
 8445SOL    HW226235   3.830   5.170   1.987
 8446SOL     OW26236   6.734   4.965   3.447
 8446SOL    HW126237   6.806   5.006   3.505
 8446SOL    HW226238   6.774   4.892   3.391
 8447SOL     OW26239   4.825   2.956   1.228
 8447SOL    HW126240   4.830   2.956   1.328
 8447SOL    HW226241   4.913   2.985   1.190
 8448SOL     OW26242   0.739   2.976   6.323
 8448SOL    HW126243   0.657   3.033   6.324
 8448SOL    HW226244   0.792   2.992   6.406
 8449SOL     OW26245   1.550   1.755   4.967
 8449SOL    HW126246   1.586   1.839   5.007
 8449SOL    HW226247   1.494   1.707   5.035
 8450SOL     OW26248   2.263   5.050   2.434
 8450SOL    HW126249   2.312   5.134   2.459
 8450SOL    HW226250   2.174   5.049   2.479
 8451SOL     OW26251   3.896   2.960   0.800
 8451SOL    HW126252   3.903   3.001   0.891
 8451SOL    HW226253   3.933   2.867   0.803
 8452SOL     OW26254   6.522   5.820   1.189
 8452SOL    HW126255   6.436   5.849   1.231
 8452SOL    HW226256   6.587   5.794   1.260
 8453SOL     OW26257   0.848   5.061   5.543
 8453SOL    HW126258   0.800   5.042   5.629
 8453SOL    HW226259   0.794   5.125   5.488
 8454SOL     OW26260   1.786   6.930   4.630
 8454SOL    HW126261   1.734   6.884   4.557
 8454SOL    HW226262   1.818   7.019   4.597
 8455SOL     OW26263   6.231   2.410   1.054
 8455SOL    HW126264   6.278   2.330   1.089
 8455SOL    HW226265   6.138   2.384   1.026
 8456SOL     OW26266   5.310   5.252   3.221
 8456SOL    HW126267   5.334   5.237   3.125
 8456SOL    HW226268   5.379   5.210   3.280
 8457SOL     OW26269   6.801   6.483   6.626
 8457SOL    HW126270   6.780   6.542   6.703
 8457SOL    HW226271   6.779   6.530   6.540
 8458SOL     OW26272   1.057   1.489   1.373
 8458SOL    HW126273   1.060   1.426   1.451
 8458SOL    HW226274   1.064   1.583   1.407
 8459SOL     OW26275   2.706   5.383   2.387
 8459SOL    HW126276   2.686   5.296   2.433
 8459SOL    HW226277   2.775   5.368   2.316
 8460SOL     OW26278   4.100   1.013   0.388
 8460SOL    HW126279   4.132   0.919   0.400
 8460SOL    HW226280   4.152   1.056   0.314
 8461SOL     OW26281   5.021   3.975   2.717
 8461SOL    HW126282   5.078   3.925   2.653
 8461SOL    HW226283   4.953   4.028   2.667
 8462SOL     OW26284   2.879   4.820   0.262
 8462SOL    HW126285   2.974   4.790   0.271
 8462SOL    HW226286   2.823   4.775   0.332
 8463SOL     OW26287   6.495   0.714   6.975
 8463SOL    HW126288   6.461   0.673   0.033
 8463SOL    HW226289   6.519   0.642   6.910
 8464SOL     OW26290   0.360   3.397   6.358
 8464SOL    HW126291   0.374   3.442   6.270
 8464SOL    HW226292   0.267   3.415   6.391
 8465SOL     OW26293   4.777   3.144   0.848
 8465SOL    HW126294   4.868   3.183   0.860
 8465SOL    HW226295   4.718   3.172   0.925
 8466SOL     OW26296   5.772   1.130   5.651
 8466SOL    HW126297   5.753   1.226   5.627
 8466SOL    HW226298   5.691   1.089   5.691
 8467SOL     OW26299   3.388   1.509   0.874
 8467SOL    HW126300   3.330   1.567   0.931
 8467SOL    HW226301   3.331   1.449   0.819
 8468SOL     OW26302   6.008   3.087   0.505
 8468SOL    HW126303   6.034   2.998   0.467
 8468SOL    HW226304   6.017   3.157   0.435
 8469SOL     OW26305   4.625   3.101   6.166
 8469SOL    HW126306   4.670   3.190   6.155
 8469SOL    HW226307   4.633   3.072   6.261
 8470SOL     OW26308   1.672   4.900   1.526
 8470SOL    HW126309   1.661   4.821   1.466
 8470SOL    HW226310   1.760   4.894   1.573
 8471SOL     OW26311   3.530   2.147   4.401
 8471SOL    HW126312   3.599   2.135   4.329
 8471SOL    HW226313   3.572   2.126   4.490
 8472SOL     OW26314   5.901   1.551   5.879
 8472SOL    HW126315   5.904   1.650   5.869
 8472SOL    HW226316   5.847   1.527   5.960
 8473SOL     OW26317   4.645   4.420   6.631
 8473SOL    HW126318   4.682   4.493   6.689
 8473SOL    HW226319   4.612   4.345   6.688
 8474SOL     OW26320   3.883   4.003   3.129
 8474SOL    HW126321   3.932   3.920   3.158
 8474SOL    HW226322   3.846   4.049   3.210
 8475SOL     OW26323   0.299   2.916   2.418
 8475SOL    HW126324   0.234   2.938   2.344
 8475SOL    HW226325   0.385   2.965   2.402
 8476SOL     OW26326   6.212   0.203   1.694
 8476SOL    HW126327   6.272   0.270   1.736
 8476SOL    HW226328   6.183   0.236   1.604
 8477SOL     OW26329   5.503   0.081   1.822
 8477SOL    HW126330   5.423   0.095   1.880
 8477SOL    HW226331   5.511   7.010   1.798
 8478SOL     OW26332   6.161   1.134   5.852
 8478SOL    HW126333   6.121   1.137   5.760
 8478SOL    HW226334   6.168   1.226   5.888
 8479SOL     OW26335   0.883   2.582   0.589
 8479SOL    HW126336   0.909   2.634   0.507
 8479SOL    HW226337   0.963   2.537   0.627
 8480SOL     OW26338   4.076   3.588   0.061
 8480SOL    HW126339   4.035   3.675   0.032
 8480SOL    HW226340   4.175   3.595   0.059
 8481SOL     OW26341   4.504   1.640   3.175
 8481SOL    HW126342   4.529   1.632   3.078
 8481SOL    HW226343   4.498   1.549   3.215
 8482SOL     OW26344   4.551   0.681   0.973
 8482SOL    HW126345   4.555   0.777   0.947
 8482SOL    HW226346   4.590   0.669   1.064
 8483SOL     OW26347   3.325   4.925   3.156
 8483SOL    HW126348   3.412   4.876   3.157
 8483SOL    HW226349   3.306   4.961   3.247
 8484SOL     OW26350   5.660   5.550   4.639
 8484SOL    HW126351   5.638   5.647   4.646
 8484SOL    HW226352   5.683   5.527   4.545
 8485SOL     OW26353   3.501   2.338   0.388
 8485SOL    HW126354   3.523   2.398   0.312
 8485SOL    HW226355   3.579   2.279   0.408
 8486SOL     OW26356   0.553   2.137   3.151
 8486SOL    HW126357   0.487   2.172   3.218
 8486SOL    HW226358   0.516   2.149   3.059
 8487SOL     OW26359   6.442   1.509   5.761
 8487SOL    HW126360   6.503   1.522   5.839
 8487SOL    HW226361   6.432   1.596   5.712
 8488SOL     OW26362   4.833   4.784   1.831
 8488SOL    HW126363   4.863   4.756   1.923
 8488SOL    HW226364   4.793   4.705   1.784
 8489SOL     OW26365   5.519   2.152   1.914
 8489SOL    HW126366   5.549   2.159   2.009
 8489SOL    HW226367   5.425   2.116   1.910
 8490SOL     OW26368   3.013   0.390   6.547
 8490SOL    HW126369   3.035   0.297   6.575
 8490SOL    HW226370   3.052   0.408   6.456
 8491SOL     OW26371   3.105   5.788   1.835
 8491SOL    HW126372   3.205   5.780   1.831
 8491SOL    HW226373   3.072   5.754   1.923
 8492SOL     OW26374   6.433   6.495   4.108
 8492SOL    HW126375   6.484   6.409   4.099
 8492SOL    HW226376   6.346   6.488   4.058
 8493SOL     OW26377   4.534   1.236   6.984
 8493SOL    HW126378   4.574   1.271   0.043
 8493SOL    HW226379   4.472   1.305   6.945
 8494SOL     OW26380   6.508   4.828   2.436
 8494SOL    HW126381   6.503   4.923   2.467
 8494SOL    HW226382   6.560   4.774   2.501
 8495SOL     OW26383   6.202   5.496   6.520
 8495SOL    HW126384   6.247   5.545   6.595
 8495SOL    HW226385   6.267   5.431   6.480
 8496SOL     OW26386   5.840   3.298   2.292
 8496SOL    HW126387   5.807   3.380   2.246
 8496SOL    HW226388   5.762   3.244   2.324
 8497SOL     OW26389   6.771   0.867   3.752
 8497SOL    HW126390   6.817   0.901   3.670
 8497SOL    HW226391   6.737   0.775   3.736
 8498SOL     OW26392   4.509   6.880   3.919
 8498SOL    HW126393   4.545   6.971   3.899
 8498SOL    HW226394   4.409   6.883   3.917
 8499SOL     OW26395   6.025   6.247   5.667
 8499SOL    HW126396   6.017   6.303   5.750
 8499SOL    HW226397   6.094   6.287   5.606
 8500SOL     OW26398   0.657   0.847   5.411
 8500SOL    HW126399   0.719   0.779   5.451
 8500SOL    HW226400   0.648   0.924   5.474
 8501SOL     OW26401   0.868   1.686   6.397
 8501SOL    HW126402   0.954   1.683   6.449
 8501SOL    HW226403   0.885   1.728   6.308
 8502SOL     OW26404   0.686   4.352   0.026
 8502SOL    HW126405   0.727   4.279   6.997
 8502SOL    HW226406   0.632   4.411   6.992
 8503SOL     OW26407   5.406   0.973   4.624
 8503SOL    HW126408   5.504   0.988   4.611
 8503SOL    HW226409   5.360   0.970   4.535
 8504SOL     OW26410   1.160   6.858   1.851
 8504SOL    HW126411   1.192   6.763   1.858
 8504SOL    HW226412   1.097   6.878   1.926
 8505SOL     OW26413   5.177   3.191   2.891
 8505SOL    HW126414   5.197   3.285   2.864
 8505SOL    HW226415   5.140   3.141   2.813
 8506SOL     OW26416   1.466   0.347   5.890
 8506SOL    HW126417   1.524   0.428   5.879
 8506SOL    HW226418   1.443   0.310   5.800
 8507SOL     OW26419   3.514   6.457   5.289
 8507SOL    HW126420   3.594   6.498   5.246
 8507SOL    HW226421   3.512   6.359   5.268
 8508SOL     OW26422   3.188   1.757   6.603
 8508SOL    HW126423   3.197   1.728   6.507
 8508SOL    HW226424   3.249   1.834   6.621
 8509SOL     OW26425   5.688   1.624   2.913
 8509SOL    HW126426   5.606   1.663   2.872
 8509SOL    HW226427   5.723   1.685   2.984
 8510SOL     OW26428   6.892   2.459   4.394
 8510SOL    HW126429   6.903   2.362   4.372
 8510SOL    HW226430   6.795   2.480   4.404
 8511SOL     OW26431   5.370   2.953   2.556
 8511SOL    HW126432   5.446   2.888   2.558
 8511SOL    HW226433   5.305   2.930   2.628
 8512SOL     OW26434   1.681   6.668   5.909
 8512SOL    HW126435   1.716   6.721   5.831
 8512SOL    HW226436   1.622   6.595   5.877
 8513SOL     OW26437   4.844   0.114   6.367
 8513SOL    HW126438   4.872   0.077   6.279
 8513SOL    HW226439   4.769   0.058   6.405
 8514SOL     OW26440   3.069   5.734   4.350
 8514SOL    HW126441   3.059   5.636   4.332
 8514SOL    HW226442   3.022   5.785   4.278
 8515SOL     OW26443   5.854   1.693   0.758
 8515SOL    HW126444   5.756   1.712   0.771
 8515SOL    HW226445   5.866   1.634   0.678
 8516SOL     OW26446   0.200   2.047   2.463
 8516SOL    HW126447   0.225   1.964   2.413
 8516SOL    HW226448   0.102   2.064   2.453
 8517SOL     OW26449   0.949   3.909   0.591
 8517SOL    HW126450   1.047   3.927   0.600
 8517SOL    HW226451   0.897   3.986   0.628
 8518SOL     OW26452   3.523   5.485   0.757
 8518SOL    HW126453   3.487   5.397   0.724
 8518SOL    HW226454   3.580   5.527   0.686
 8519SOL     OW26455   1.511   5.005   2.962
 8519SOL    HW126456   1.495   4.926   3.020
 8519SOL    HW226457   1.432   5.020   2.902
 8520SOL     OW26458   2.960   0.459   6.944
 8520SOL    HW126459   2.988   0.533   6.882
 8520SOL    HW226460   3.026   0.385   6.938
 8521SOL     OW26461   1.126   6.864   6.677
 8521SOL    HW126462   1.203   6.856   6.741
 8521SOL    HW226463   1.109   6.960   6.656
 8522SOL     OW26464   1.781   6.070   4.929
 8522SOL    HW126465   1.840   6.115   4.863
 8522SOL    HW226466   1.787   6.118   5.017
 8523SOL     OW26467   1.356   6.926   6.820
 8523SOL    HW126468   1.380   6.922   6.917
 8523SOL    HW226469   1.396   7.007   6.778
 8524SOL     OW26470   1.568   2.578   6.098
 8524SOL    HW126471   1.589   2.580   6.196
 8524SOL    HW226472   1.651   2.556   6.047
 8525SOL     OW26473   5.500   2.979   3.345
 8525SOL    HW126474   5.480   3.048   3.415
 8525SOL    HW226475   5.598   2.979   3.327
 8526SOL     OW26476   2.053   3.125   1.814
 8526SOL    HW126477   2.023   3.201   1.872
 8526SOL    HW226478   2.117   3.158   1.746
 8527SOL     OW26479   4.291   6.884   4.256
 8527SOL    HW126480   4.250   6.933   4.179
 8527SOL    HW226481   4.238   6.900   4.339
 8528SOL     OW26482   5.067   2.725   0.030
 8528SOL    HW126483   5.091   2.734   0.126
 8528SOL    HW226484   5.106   2.640   7.020
 8529SOL     OW26485   0.169   4.813   0.159
 8529SOL    HW126486   0.236   4.740   0.149
 8529SOL    HW226487   0.104   4.788   0.231
 8530SOL     OW26488   1.873   3.430   5.803
 8530SOL    HW126489   1.861   3.474   5.714
 8530SOL    HW226490   1.912   3.339   5.790
 8531SOL     OW26491   3.918   4.807   2.044
 8531SOL    HW126492   3.959   4.797   2.135
 8531SOL    HW226493   3.819   4.802   2.052
 8532SOL     OW26494   1.628   4.345   6.460
 8532SOL    HW126495   1.644   4.313   6.554
 8532SOL    HW226496   1.530   4.349   6.443
 8533SOL     OW26497   3.731   0.699   5.858
 8533SOL    HW126498   3.734   0.791   5.817
 8533SOL    HW226499   3.638   0.680   5.888
 8534SOL     OW26500   2.090   2.795   2.912
 8534SOL    HW126501   2.162   2.820   2.848
 8534SOL    HW226502   2.122   2.807   3.005
 8535SOL     OW26503   6.429   3.343   3.994
 8535SOL    HW126504   6.379   3.395   4.062
 8535SOL    HW226505   6.368   3.278   3.949
 8536SOL     OW26506   0.183   1.152   4.387
 8536SOL    HW126507   0.197   1.066   4.437
 8536SOL    HW226508   0.204   1.138   4.291
 8537SOL     OW26509   6.030   6.831   2.619
 8537SOL    HW126510   6.124   6.801   2.600
 8537SOL    HW226511   5.986   6.860   2.535
 8538SOL     OW26512   5.320   0.858   4.889
 8538SOL    HW126513   5.241   0.912   4.916
 8538SOL    HW226514   5.371   0.905   4.818
 8539SOL     OW26515   6.857   3.053   2.703
 8539SOL    HW126516   6.830   3.094   2.790
 8539SOL    HW226517   6.955   3.034   2.703
 8540SOL     OW26518   3.828   0.466   0.323
 8540SOL    HW126519   3.730   0.452   0.342
 8540SOL    HW226520   3.847   0.564   0.319
 8541SOL     OW26521   3.348   0.091   4.964
 8541SOL    HW126522   3.341   0.022   5.036
 8541SOL    HW226523   3.296   0.173   4.991
 8542SOL     OW26524   1.300   5.566   6.031
 8542SOL    HW126525   1.300   5.503   5.954
 8542SOL    HW226526   1.323   5.658   6.000
 8543SOL     OW26527   2.312   2.706   5.743
 8543SOL    HW126528   2.245   2.729   5.673
 8543SOL    HW226529   2.277   2.733   5.833
 8544SOL     OW26530   5.676   4.887   5.971
 8544SOL    HW126531   5.679   4.788   5.980
 8544SOL    HW226532   5.746   4.928   6.030
 8545SOL     OW26533   2.737   0.089   6.447
 8545SOL    HW126534   2.732   0.183   6.413
 8545SOL    HW226535   2.645   0.054   6.465
 8546SOL     OW26536   4.872   0.957   2.830
 8546SOL    HW126537   4.880   1.052   2.802
 8546SOL    HW226538   4.944   0.903   2.787
 8547SOL     OW26539   5.433   6.105   6.185
 8547SOL    HW126540   5.353   6.056   6.153
 8547SOL    HW226541   5.512   6.043   6.185
 8548SOL     OW26542   0.775   3.452   5.420
 8548SOL    HW126543   0.769   3.537   5.367
 8548SOL    HW226544   0.787   3.473   5.517
 8549SOL     OW26545   2.107   0.289   4.254
 8549SOL    HW126546   2.204   0.312   4.249
 8549SOL    HW226547   2.089   0.208   4.198
 8550SOL     OW26548   6.744   4.640   5.874
 8550SOL    HW126549   6.829   4.682   5.904
 8550SOL    HW226550   6.736   4.647   5.775
 8551SOL     OW26551   2.150   0.460   6.058
 8551SOL    HW126552   2.087   0.510   6.117
 8551SOL    HW226553   2.143   0.494   5.965
 8552SOL     OW26554   3.265   2.101   2.459
 8552SOL    HW126555   3.188   2.156   2.493
 8552SOL    HW226556   3.235   2.049   2.379
 8553SOL     OW26557   5.227   3.982   6.712
 8553SOL    HW126558   5.326   3.993   6.703
 8553SOL    HW226559   5.202   3.889   6.685
 8554SOL     OW26560   2.394   1.393   0.627
 8554SOL    HW126561   2.296   1.414   0.639
 8554SOL    HW226562   2.423   1.329   0.698
 8555SOL     OW26563   3.592   1.692   3.981
 8555SOL    HW126564   3.624   1.607   4.025
 8555SOL    HW226565   3.590   1.766   4.048
 8556SOL     OW26566   1.271   5.328   6.844
 8556SOL    HW126567   1.230   5.387   6.774
 8556SOL    HW226568   1.289   5.381   6.926
 8557SOL     OW26569   6.648   0.661   6.516
 8557SOL    HW126570   6.567   0.670   6.458
 8557SOL    HW226571   6.641   0.725   6.592
 8558SOL     OW26572   2.911   6.073   4.332
 8558SOL    HW126573   2.894   6.107   4.424
 8558SOL    HW226574   2.824   6.053   4.287
 8559SOL     OW26575   1.945   4.501   2.899
 8559SOL    HW126576   2.019   4.508   2.833
 8559SOL    HW226577   1.901   4.591   2.910
 8560SOL     OW26578   2.295   4.450   0.586
 8560SOL    HW126579   2.290   4.478   0.681
 8560SOL    HW226580   2.202   4.442   0.549
 8561SOL     OW26581   4.024   0.733   2.885
 8561SOL    HW126582   4.115   0.714   2.920
 8561SOL    HW226583   3.995   0.658   2.825
 8562SOL     OW26584   5.572   2.053   0.356
 8562SOL    HW126585   5.562   2.153   0.360
 8562SOL    HW226586   5.489   2.013   0.318
 8563SOL     OW26587   2.735   5.078   2.453
 8563SOL    HW126588   2.805   5.108   2.519
 8563SOL    HW226589   2.751   4.981   2.431
 8564SOL     OW26590   3.904   0.038   0.351
 8564SOL    HW126591   3.810   0.020   0.323
 8564SOL    HW226592   3.910   0.130   0.391
 8565SOL     OW26593   1.971   4.752   1.281
 8565SOL    HW126594   2.036   4.794   1.344
 8565SOL    HW226595   1.891   4.720   1.331
 8566SOL     OW26596   3.103   1.143   2.011
 8566SOL    HW126597   3.189   1.129   1.961
 8566SOL    HW226598   3.122   1.188   2.098
 8567SOL     OW26599   1.882   3.100   2.486
 8567SOL    HW126600   1.961   3.147   2.524
 8567SOL    HW226601   1.854   3.146   2.401
 8568SOL     OW26602   5.846   0.451   6.264
 8568SOL    HW126603   5.879   0.488   6.351
 8568SOL    HW226604   5.911   0.382   6.231
 8569SOL     OW26605   4.390   2.235   0.633
 8569SOL    HW126606   4.403   2.140   0.664
 8569SOL    HW226607   4.478   2.274   0.607
 8570SOL     OW26608   1.966   2.606   1.722
 8570SOL    HW126609   1.938   2.570   1.811
 8570SOL    HW226610   2.011   2.694   1.735
 8571SOL     OW26611   1.653   0.930   2.996
 8571SOL    HW126612   1.722   0.961   3.061
 8571SOL    HW226613   1.609   0.847   3.031
 8572SOL     OW26614   2.400   4.279   5.745
 8572SOL    HW126615   2.374   4.363   5.792
 8572SOL    HW226616   2.455   4.301   5.665
 8573SOL     OW26617   3.283   6.645   0.510
 8573SOL    HW126618   3.234   6.559   0.507
 8573SOL    HW226619   3.363   6.636   0.570
 8574SOL     OW26620   4.438   0.849   5.197
 8574SOL    HW126621   4.426   0.750   5.186
 8574SOL    HW226622   4.383   0.881   5.274
 8575SOL     OW26623   3.073   5.894   3.463
 8575SOL    HW126624   3.101   5.987   3.482
 8575SOL    HW226625   3.093   5.836   3.542
 8576SOL     OW26626   1.869   4.582   3.973
 8576SOL    HW126627   1.791   4.590   4.036
 8576SOL    HW226628   1.869   4.659   3.909
 8577SOL     OW26629   1.852   1.102   0.764
 8577SOL    HW126630   1.820   1.187   0.723
 8577SOL    HW226631   1.949   1.090   0.744
 8578SOL     OW26632   0.161   0.120   6.263
 8578SOL    HW126633   0.110   0.047   6.217
 8578SOL    HW226634   0.114   0.207   6.248
 8579SOL     OW26635   2.827   6.448   2.526
 8579SOL    HW126636   2.763   6.418   2.456
 8579SOL    HW226637   2.826   6.548   2.531
 8580SOL     OW26638   1.602   0.506   1.397
 8580SOL    HW126639   1.628   0.530   1.491
 8580SOL    HW226640   1.531   0.568   1.365
 8581SOL     OW26641   3.206   4.741   1.354
 8581SOL    HW126642   3.273   4.807   1.388
 8581SOL    HW226643   3.244   4.648   1.360
 8582SOL     OW26644   3.569   5.328   5.748
 8582SOL    HW126645   3.593   5.241   5.706
 8582SOL    HW226646   3.474   5.352   5.725
 8583SOL     OW26647   4.105   0.166   2.540
 8583SOL    HW126648   4.042   0.124   2.605
 8583SOL    HW226649   4.063   0.247   2.499
 8584SOL     OW26650   6.508   1.460   4.808
 8584SOL    HW126651   6.418   1.494   4.836
 8584SOL    HW226652   6.532   1.498   4.719
 8585SOL     OW26653   5.295   2.460   2.970
 8585SOL    HW126654   5.284   2.366   2.937
 8585SOL    HW226655   5.378   2.466   3.025
 8586SOL     OW26656   6.819   6.472   0.261
 8586SOL    HW126657   6.759   6.473   0.341
 8586SOL    HW226658   6.804   6.554   0.206
 8587SOL     OW26659   0.336   1.540   0.111
 8587SOL    HW126660   0.403   1.550   0.037
 8587SOL    HW226661   0.335   1.623   0.167
 8588SOL     OW26662   2.751   1.704   6.146
 8588SOL    HW126663   2.670   1.647   6.130
 8588SOL    HW226664   2.759   1.723   6.244
 8589SOL     OW26665   6.697   3.309   6.939
 8589SOL    HW126666   6.639   3.290   6.860
 8589SOL    HW226667   6.676   3.244   7.012
 8590SOL     OW26668   0.460   0.632   3.968
 8590SOL    HW126669   0.555   0.622   3.996
 8590SOL    HW226670   0.447   0.591   3.878
 8591SOL     OW26671   6.842   4.635   6.454
 8591SOL    HW126672   6.756   4.596   6.420
 8591SOL    HW226673   6.858   4.605   6.547
 8592SOL     OW26674   0.182   1.490   4.663
 8592SOL    HW126675   0.259   1.427   4.670
 8592SOL    HW226676   0.107   1.446   4.614
 8593SOL     OW26677   4.836   1.592   6.775
 8593SOL    HW126678   4.813   1.562   6.867
 8593SOL    HW226679   4.818   1.690   6.765
 8594SOL     OW26680   6.390   2.987   6.406
 8594SOL    HW126681   6.383   2.918   6.478
 8594SOL    HW226682   6.313   3.050   6.413
 8595SOL     OW26683   6.248   6.499   3.121
 8595SOL    HW126684   6.208   6.446   3.195
 8595SOL    HW226685   6.207   6.591   3.119
 8596SOL     OW26686   0.849   1.629   3.943
 8596SOL    HW126687   0.890   1.542   3.968
 8596SOL    HW226688   0.789   1.660   4.017
 8597SOL     OW26689   6.124   3.304   5.880
 8597SOL    HW126690   6.165   3.395   5.875
 8597SOL    HW226691   6.034   3.305   5.838
 8598SOL     OW26692   6.129   6.908   4.913
 8598SOL    HW126693   6.170   6.817   4.906
 8598SOL    HW226694   6.195   6.970   4.956
 8599SOL     OW26695   6.948   3.785   4.437
 8599SOL    HW126696   6.893   3.741   4.367
 8599SOL    HW226697   6.911   3.875   4.457
 8600SOL     OW26698   4.979   2.148   0.912
 8600SOL    HW126699   5.077   2.134   0.896
 8600SOL    HW226700   4.941   2.068   0.958
 8601SOL     OW26701   0.295   6.033   3.710
 8601SOL    HW126702   0.376   6.005   3.658
 8601SOL    HW226703   0.275   6.129   3.691
 8602SOL     OW26704   2.042   6.153   5.359
 8602SOL    HW126705   2.024   6.055   5.344
 8602SOL    HW226706   1.972   6.191   5.419
 8603SOL     OW26707   0.279   0.179   0.173
 8603SOL    HW126708   0.280   0.080   0.185
 8603SOL    HW226709   0.186   0.210   0.154
 8604SOL     OW26710   0.447   4.633   6.509
 8604SOL    HW126711   0.441   4.700   6.582
 8604SOL    HW226712   0.358   4.588   6.497
 8605SOL     OW26713   0.050   4.876   4.880
 8605SOL    HW126714   0.096   4.825   4.807
 8605SOL    HW226715   0.030   4.969   4.848
 8606SOL     OW26716   1.791   2.222   0.344
 8606SOL    HW126717   1.881   2.193   0.378
 8606SOL    HW226718   1.740   2.266   0.419
 8607SOL     OW26719   2.248   3.940   1.392
 8607SOL    HW126720   2.186   3.964   1.317
 8607SOL    HW226721   2.328   4.000   1.390
 8608SOL     OW26722   1.723   5.117   2.869
 8608SOL    HW126723   1.749   5.201   2.916
 8608SOL    HW226724   1.666   5.061   2.929
 8609SOL     OW26725   4.145   1.605   3.941
 8609SOL    HW126726   4.245   1.609   3.944
 8609SOL    HW226727   4.116   1.544   3.867
 8610SOL     OW26728   6.901   6.130   3.337
 8610SOL    HW126729   6.948   6.047   3.307
 8610SOL    HW226730   6.871   6.182   3.256
 8611SOL     OW26731   2.694   1.086   5.070
 8611SOL    HW126732   2.659   1.100   5.163
 8611SOL    HW226733   2.721   1.175   5.032
 8612SOL     OW26734   2.984   3.214   4.269
 8612SOL    HW126735   3.048   3.289   4.284
 8612SOL    HW226736   2.966   3.204   4.171
 8613SOL     OW26737   3.900   2.965   2.236
 8613SOL    HW126738   3.976   3.019   2.201
 8613SOL    HW226739   3.839   2.939   2.161
 8614SOL     OW26740   1.504   1.980   3.108
 8614SOL    HW126741   1.438   2.033   3.054
 8614SOL    HW226742   1.563   2.042   3.160
 8615SOL     OW26743   3.678   1.474   4.431
 8615SOL    HW126744   3.582   1.486   4.459
 8615SOL    HW226745   3.684   1.398   4.365
 8616SOL     OW26746   5.788   4.378   4.091
 8616SOL    HW126747   5.771   4.400   3.995
 8616SOL    HW226748   5.776   4.460   4.147
 8617SOL     OW26749   2.328   0.378   3.534
 8617SOL    HW126750   2.245   0.323   3.537
 8617SOL    HW226751   2.311   0.466   3.578
 8618SOL     OW26752   5.684   3.876   1.248
 8618SOL    HW126753   5.675   3.963   1.297
 8618SOL    HW226754   5.682   3.893   1.150
 8619SOL     OW26755   5.190   4.847   0.351
 8619SOL    HW126756   5.158   4.759   0.387
 8619SOL    HW226757   5.281   4.866   0.388
 8620SOL     OW26758   2.322   0.713   4.521
 8620SOL    HW126759   2.388   0.685   4.450
 8620SOL    HW226760   2.338   0.809   4.545
 8621SOL     OW26761   5.629   2.787   1.918
 8621SOL    HW126762   5.571   2.846   1.974
 8621SOL    HW226763   5.574   2.746   1.845
 8622SOL     OW26764   6.881   4.922   2.553
 8622SOL    HW126765   6.820   4.845   2.570
 8622SOL    HW226766   6.925   4.911   2.463
 8623SOL     OW26767   1.226   3.623   4.427
 8623SOL    HW126768   1.127   3.609   4.422
 8623SOL    HW226769   1.250   3.709   4.383
 8624SOL     OW26770   3.390   4.171   4.752
 8624SOL    HW126771   3.301   4.130   4.729
 8624SOL    HW226772   3.393   4.264   4.716
 8625SOL     OW26773   4.009   2.889   5.433
 8625SOL    HW126774   3.983   2.986   5.434
 8625SOL    HW226775   4.061   2.868   5.515
 8626SOL     OW26776   3.641   3.434   0.509
 8626SOL    HW126777   3.580   3.385   0.447
 8626SOL    HW226778   3.586   3.489   0.572
 8627SOL     OW26779   1.881   0.934   2.143
 8627SOL    HW126780   1.979   0.927   2.164
 8627SOL    HW226781   1.870   0.948   2.044
 8628SOL     OW26782   0.089   6.586   0.755
 8628SOL    HW126783   0.079   6.577   0.854
 8628SOL    HW226784   0.062   6.501   0.710
 8629SOL     OW26785   7.015   6.273   5.577
 8629SOL    HW126786   0.020   6.195   5.523
 8629SOL    HW226787   6.929   6.308   5.540
 8630SOL     OW26788   4.826   3.005   2.308
 8630SOL    HW126789   4.921   3.035   2.321
 8630SOL    HW226790   4.799   3.021   2.213
 8631SOL     OW26791   3.012   6.743   6.380
 8631SOL    HW126792   2.945   6.672   6.399
 8631SOL    HW226793   3.099   6.701   6.352
 8632SOL     OW26794   5.546   5.288   4.786
 8632SOL    HW126795   5.467   5.306   4.844
 8632SOL    HW226796   5.592   5.374   4.764
 8633SOL     OW26797   5.885   4.126   5.529
 8633SOL    HW126798   5.932   4.049   5.572
 8633SOL    HW226799   5.908   4.130   5.432
 8634SOL     OW26800   4.494   2.818   0.214
 8634SOL    HW126801   4.525   2.850   0.304
 8634SOL    HW226802   4.494   2.895   0.150
 8635SOL     OW26803   5.137   2.600   5.907
 8635SOL    HW126804   5.053   2.597   5.854
 8635SOL    HW226805   5.127   2.543   5.989
 8636SOL     OW26806   4.443   6.790   1.762
 8636SOL    HW126807   4.527   6.785   1.815
 8636SOL    HW226808   4.366   6.811   1.824
 8637SOL     OW26809   2.297   2.444   6.606
 8637SOL    HW126810   2.275   2.538   6.634
 8637SOL    HW226811   2.256   2.380   6.671
 8638SOL     OW26812   4.742   2.949   3.431
 8638SOL    HW126813   4.826   2.943   3.376
 8638SOL    HW226814   4.667   2.980   3.373
 8639SOL     OW26815   3.663   3.848   0.096
 8639SOL    HW126816   3.660   3.795   0.181
 8639SOL    HW226817   3.758   3.858   0.066
 8640SOL     OW26818   2.854   2.724   0.928
 8640SOL    HW126819   2.904   2.678   1.002
 8640SOL    HW226820   2.906   2.803   0.896
 8641SOL     OW26821   4.635   5.121   1.936
 8641SOL    HW126822   4.547   5.096   1.976
 8641SOL    HW226823   4.636   5.097   1.839
 8642SOL     OW26824   1.472   5.801   3.688
 8642SOL    HW126825   1.435   5.850   3.609
 8642SOL    HW226826   1.559   5.760   3.664
 8643SOL     OW26827   3.681   6.366   0.949
 8643SOL    HW126828   3.716   6.413   1.029
 8643SOL    HW226829   3.616   6.295   0.978
 8644SOL     OW26830   6.083   1.950   6.290
 8644SOL    HW126831   6.029   1.949   6.205
 8644SOL    HW226832   6.049   1.879   6.352
 8645SOL     OW26833   5.842   4.732   2.865
 8645SOL    HW126834   5.855   4.733   2.766
 8645SOL    HW226835   5.767   4.793   2.889
 8646SOL     OW26836   6.325   2.484   4.975
 8646SOL    HW126837   6.387   2.405   4.973
 8646SOL    HW226838   6.365   2.558   4.921
 8647SOL     OW26839   2.012   5.541   2.091
 8647SOL    HW126840   2.012   5.551   1.992
 8647SOL    HW226841   2.105   5.521   2.123
 8648SOL     OW26842   5.152   4.599   0.468
 8648SOL    HW126843   5.216   4.582   0.543
 8648SOL    HW226844   5.065   4.554   0.489
 8649SOL     OW26845   4.891   0.336   0.725
 8649SOL    HW126846   4.806   0.335   0.672
 8649SOL    HW226847   4.964   0.379   0.671
 8650SOL     OW26848   2.382   6.725   5.048
 8650SOL    HW126849   2.384   6.701   5.145
 8650SOL    HW226850   2.301   6.780   5.029
 8651SOL     OW26851   4.161   2.294   1.511
 8651SOL    HW126852   4.074   2.314   1.556
 8651SOL    HW226853   4.144   2.268   1.416
 8652SOL     OW26854   1.123   3.113   4.020
 8652SOL    HW126855   1.123   3.173   3.939
 8652SOL    HW226856   1.094   3.021   3.993
 8653SOL     OW26857   6.507   1.660   6.757
 8653SOL    HW126858   6.553   1.613   6.832
 8653SOL    HW226859   6.500   1.599   6.678
 8654SOL     OW26860   0.370   4.565   2.273
 8654SOL    HW126861   0.405   4.637   2.333
 8654SOL    HW226862   0.282   4.593   2.235
 8655SOL     OW26863   0.047   0.959   4.746
 8655SOL    HW126864   0.086   1.036   4.796
 8655SOL    HW226865   0.101   0.942   4.664
 8656SOL     OW26866   5.069   0.120   1.237
 8656SOL    HW126867   5.040   0.032   1.199
 8656SOL    HW226868   5.109   0.176   1.164
 8657SOL     OW26869   4.304   0.715   2.933
 8657SOL    HW126870   4.362   0.674   3.004
 8657SOL    HW226871   4.346   0.702   2.844
 8658SOL     OW26872   5.866   4.479   0.725
 8658SOL    HW126873   5.853   4.443   0.817
 8658SOL    HW226874   5.789   4.453   0.667
 8659SOL     OW26875   3.273   0.870   2.507
 8659SOL    HW126876   3.207   0.942   2.527
 8659SOL    HW226877   3.318   0.889   2.419
 8660SOL     OW26878   0.270   4.476   1.752
 8660SOL    HW126879   0.330   4.432   1.819
 8660SOL    HW226880   0.326   4.522   1.683
 8661SOL     OW26881   6.668   3.991   2.270
 8661SOL    HW126882   6.726   3.951   2.199
 8661SOL    HW226883   6.628   3.917   2.325
 8662SOL     OW26884   1.836   4.143   3.477
 8662SOL    HW126885   1.865   4.068   3.418
 8662SOL    HW226886   1.777   4.205   3.425
 8663SOL     OW26887   4.403   5.502   2.408
 8663SOL    HW126888   4.340   5.461   2.342
 8663SOL    HW226889   4.386   5.462   2.499
 8664SOL     OW26890   3.663   5.912   3.330
 8664SOL    HW126891   3.618   6.001   3.338
 8664SOL    HW226892   3.698   5.884   3.419
 8665SOL     OW26893   5.610   3.460   0.037
 8665SOL    HW126894   5.635   3.464   6.966
 8665SOL    HW226895   5.663   3.389   0.082
 8666SOL     OW26896   4.588   0.051   2.449
 8666SOL    HW126897   4.502   0.061   2.499
 8666SOL    HW226898   4.570   0.045   2.351
 8667SOL     OW26899   5.012   2.062   2.961
 8667SOL    HW126900   4.999   1.972   3.002
 8667SOL    HW226901   5.034   2.128   3.033
 8668SOL     OW26902   5.200   2.393   5.104
 8668SOL    HW126903   5.133   2.319   5.095
 8668SOL    HW226904   5.171   2.471   5.049
 8669SOL     OW26905   6.222   6.360   6.682
 8669SOL    HW126906   6.192   6.270   6.713
 8669SOL    HW226907   6.309   6.352   6.635
 8670SOL     OW26908   6.708   4.376   5.978
 8670SOL    HW126909   6.771   4.355   6.053
 8670SOL    HW226910   6.726   4.468   5.945
 8671SOL     OW26911   0.811   3.025   3.185
 8671SOL    HW126912   0.731   3.024   3.125
 8671SOL    HW226913   0.843   2.931   3.200
 8672SOL     OW26914   0.298   1.007   2.707
 8672SOL    HW126915   0.363   0.942   2.670
 8672SOL    HW226916   0.218   0.958   2.742
 8673SOL     OW26917   0.461   1.991   1.429
 8673SOL    HW126918   0.425   2.021   1.517
 8673SOL    HW226919   0.559   1.972   1.437
 8674SOL     OW26920   6.773   3.927   3.690
 8674SOL    HW126921   6.833   3.922   3.610
 8674SOL    HW226922   6.678   3.935   3.661
 8675SOL     OW26923   3.569   2.122   5.160
 8675SOL    HW126924   3.486   2.128   5.105
 8675SOL    HW226925   3.563   2.187   5.236
 8676SOL     OW26926   5.529   1.236   0.950
 8676SOL    HW126927   5.455   1.302   0.964
 8676SOL    HW226928   5.608   1.263   1.004
 8677SOL     OW26929   2.148   6.975   6.120
 8677SOL    HW126930   2.219   6.917   6.080
 8677SOL    HW226931   2.060   6.953   6.080
 8678SOL     OW26932   1.554   1.956   0.400
 8678SOL    HW126933   1.585   2.004   0.483
 8678SOL    HW226934   1.633   1.922   0.350
 8679SOL     OW26935   1.784   2.552   5.965
 8679SOL    HW126936   1.786   2.619   5.891
 8679SOL    HW226937   1.833   2.470   5.937
 8680SOL     OW26938   6.408   0.582   0.221
 8680SOL    HW126939   6.420   0.637   0.303
 8680SOL    HW226940   6.310   0.562   0.208
 8681SOL     OW26941   5.499   6.613   1.588
 8681SOL    HW126942   5.449   6.547   1.645
 8681SOL    HW226943   5.466   6.705   1.609
 8682SOL     OW26944   1.977   0.625   1.699
 8682SOL    HW126945   1.889   0.658   1.666
 8682SOL    HW226946   1.963   0.552   1.766
 8683SOL     OW26947   2.089   4.506   4.104
 8683SOL    HW126948   2.035   4.462   4.176
 8683SOL    HW226949   2.028   4.551   4.039
 8684SOL     OW26950   2.300   4.272   4.100
 8684SOL    HW126951   2.228   4.202   4.102
 8684SOL    HW226952   2.258   4.362   4.094
 8685SOL     OW26953   5.049   2.202   4.481
 8685SOL    HW126954   5.015   2.292   4.454
 8685SOL    HW226955   4.993   2.167   4.556
 8686SOL     OW26956   1.061   5.104   3.333
 8686SOL    HW126957   1.096   5.194   3.307
 8686SOL    HW226958   0.961   5.107   3.334
 8687SOL     OW26959   4.989   4.301   6.003
 8687SOL    HW126960   5.053   4.355   5.948
 8687SOL    HW226961   4.996   4.328   6.099
 8688SOL     OW26962   0.941   3.905   4.902
 8688SOL    HW126963   1.038   3.886   4.917
 8688SOL    HW226964   0.932   3.983   4.840
 8689SOL     OW26965   3.904   3.420   6.888
 8689SOL    HW126966   3.941   3.485   6.821
 8689SOL    HW226967   3.955   3.429   6.974
 8690SOL     OW26968   2.033   2.202   2.685
 8690SOL    HW126969   2.068   2.149   2.762
 8690SOL    HW226970   1.934   2.215   2.696
 8691SOL     OW26971   3.588   2.452   5.428
 8691SOL    HW126972   3.547   2.541   5.410
 8691SOL    HW226973   3.520   2.380   5.418
 8692SOL     OW26974   4.261   1.615   5.329
 8692SOL    HW126975   4.274   1.546   5.400
 8692SOL    HW226976   4.222   1.572   5.247
 8693SOL     OW26977   6.444   6.630   6.022
 8693SOL    HW126978   6.425   6.655   6.117
 8693SOL    HW226979   6.406   6.699   5.961
 8694SOL     OW26980   4.938   2.991   5.243
 8694SOL    HW126981   4.879   3.016   5.320
 8694SOL    HW226982   4.974   3.074   5.200
 8695SOL     OW26983   3.691   4.433   6.617
 8695SOL    HW126984   3.701   4.462   6.522
 8695SOL    HW226985   3.601   4.459   6.651
 8696SOL     OW26986   3.132   5.576   5.538
 8696SOL    HW126987   3.119   5.675   5.540
 8696SOL    HW226988   3.076   5.533   5.609
 8697SOL     OW26989   1.973   3.819   5.544
 8697SOL    HW126990   1.948   3.916   5.544
 8697SOL    HW226991   2.063   3.807   5.586
 8698SOL     OW26992   4.974   5.655   5.814
 8698SOL    HW126993   4.962   5.732   5.877
 8698SOL    HW226994   4.896   5.651   5.752
 8699SOL     OW26995   1.518   2.705   6.652
 8699SOL    HW126996   1.451   2.645   6.697
 8699SOL    HW226997   1.610   2.679   6.681
 8700SOL     OW26998   1.426   0.533   3.461
 8700SOL    HW126999   1.524   0.544   3.446
 8700SOL    HW227000   1.410   0.459   3.526
 8701SOL     OW27001   0.994   2.241   0.120
 8701SOL    HW127002   0.947   2.317   0.076
 8701SOL    HW227003   1.027   2.270   0.210
 8702SOL     OW27004   5.475   4.695   1.254
 8702SOL    HW127005   5.388   4.664   1.215
 8702SOL    HW227006   5.535   4.727   1.180
 8703SOL     OW27007   2.420   5.828   0.536
 8703SOL    HW127008   2.473   5.799   0.615
 8703SOL    HW227009   2.481   5.843   0.458
 8704SOL     OW27010   0.713   0.981   4.997
 8704SOL    HW127011   0.717   1.073   5.036
 8704SOL    HW227012   0.628   0.970   4.946
 8705SOL     OW27013   4.207   2.448   6.760
 8705SOL    HW127014   4.155   2.392   6.825
 8705SOL    HW227015   4.178   2.543   6.767
 8706SOL     OW27016   5.286   3.524   6.106
 8706SOL    HW127017   5.223   3.579   6.160
 8706SOL    HW227018   5.253   3.430   6.101
 8707SOL     OW27019   1.781   1.628   4.878
 8707SOL    HW127020   1.685   1.646   4.901
 8707SOL    HW227021   1.822   1.712   4.840
 8708SOL     OW27022   5.763   2.895   0.522
 8708SOL    HW127023   5.795   2.804   0.546
 8708SOL    HW227024   5.842   2.957   0.513
 8709SOL     OW27025   5.910   6.771   5.388
 8709SOL    HW127026   5.827   6.719   5.408
 8709SOL    HW227027   5.887   6.868   5.378
 8710SOL     OW27028   2.184   1.406   3.419
 8710SOL    HW127029   2.265   1.458   3.444
 8710SOL    HW227030   2.207   1.310   3.407
 8711SOL     OW27031   1.348   1.357   1.659
 8711SOL    HW127032   1.248   1.355   1.649
 8711SOL    HW227033   1.381   1.449   1.640
 8712SOL     OW27034   1.377   4.008   5.694
 8712SOL    HW127035   1.420   4.075   5.634
 8712SOL    HW227036   1.278   4.016   5.687
 8713SOL     OW27037   0.128   3.598   1.183
 8713SOL    HW127038   0.102   3.666   1.252
 8713SOL    HW227039   0.180   3.644   1.110
 8714SOL     OW27040   6.915   5.673   6.364
 8714SOL    HW127041   6.847   5.746   6.371
 8714SOL    HW227042   6.888   5.596   6.422
 8715SOL     OW27043   1.854   3.606   1.794
 8715SOL    HW127044   1.951   3.623   1.812
 8715SOL    HW227045   1.842   3.582   1.698
 8716SOL     OW27046   6.680   0.252   1.845
 8716SOL    HW127047   6.716   0.241   1.938
 8716SOL    HW227048   6.749   0.294   1.787
 8717SOL     OW27049   2.588   3.329   0.141
 8717SOL    HW127050   2.586   3.269   0.060
 8717SOL    HW227051   2.680   3.326   0.181
 8718SOL     OW27052   2.583   4.880   6.451
 8718SOL    HW127053   2.648   4.955   6.453
 8718SOL    HW227054   2.505   4.905   6.393
 8719SOL     OW27055   3.174   1.012   4.563
 8719SOL    HW127056   3.246   0.942   4.562
 8719SOL    HW227057   3.216   1.102   4.575
 8720SOL     OW27058   7.009   5.130   4.830
 8720SOL    HW127059   6.956   5.152   4.912
 8720SOL    HW227060   6.946   5.117   4.752
 8721SOL     OW27061   0.359   7.026   6.779
 8721SOL    HW127062   0.347   0.024   6.683
 8721SOL    HW227063   0.279   6.974   6.810
 8722SOL     OW27064   3.424   1.053   0.872
 8722SOL    HW127065   3.441   1.059   0.970
 8722SOL    HW227066   3.353   0.984   0.855
 8723SOL     OW27067   4.181   6.962   2.415
 8723SOL    HW127068   4.155   0.013   2.473
 8723SOL    HW227069   4.109   6.892   2.419
 8724SOL     OW27070   3.998   1.229   4.160
 8724SOL    HW127071   4.008   1.258   4.065
 8724SOL    HW227072   4.088   1.226   4.204
 8725SOL     OW27073   6.602   0.019   3.647
 8725SOL    HW127074   6.689   6.997   3.661
 8725SOL    HW227075   6.544   0.008   3.728
 8726SOL     OW27076   0.181   1.097   1.230
 8726SOL    HW127077   0.102   1.056   1.275
 8726SOL    HW227078   0.216   1.035   1.160
 8727SOL     OW27079   4.891   6.728   6.101
 8727SOL    HW127080   4.979   6.717   6.147
 8727SOL    HW227081   4.829   6.655   6.131
 8728SOL     OW27082   6.236   0.132   4.308
 8728SOL    HW127083   6.182   0.101   4.386
 8728SOL    HW227084   6.329   0.095   4.315
 8729SOL     OW27085   4.832   6.023   6.448
 8729SOL    HW127086   4.763   6.049   6.380
 8729SOL    HW227087   4.816   5.929   6.476
 8730SOL     OW27088   4.535   5.076   1.287
 8730SOL    HW127089   4.629   5.110   1.297
 8730SOL    HW227090   4.481   5.105   1.366
 8731SOL     OW27091   6.901   1.957   3.620
 8731SOL    HW127092   6.936   1.914   3.537
 8731SOL    HW227093   6.975   1.968   3.686
 8732SOL     OW27094   5.947   6.382   0.278
 8732SOL    HW127095   5.960   6.305   0.217
 8732SOL    HW227096   5.858   6.424   0.262
 8733SOL     OW27097   6.270   4.795   2.919
 8733SOL    HW127098   6.348   4.809   2.979
 8733SOL    HW227099   6.262   4.697   2.898
 8734SOL     OW27100   0.241   3.922   2.020
 8734SOL    HW127101   0.309   3.991   2.045
 8734SOL    HW227102   0.287   3.837   1.997
 8735SOL     OW27103   6.905   3.213   5.246
 8735SOL    HW127104   7.002   3.218   5.223
 8735SOL    HW227105   6.892   3.153   5.325
 8736SOL     OW27106   1.144   6.045   3.840
 8736SOL    HW127107   1.061   6.099   3.856
 8736SOL    HW227108   1.140   6.003   3.750
 8737SOL     OW27109   1.713   5.699   0.304
 8737SOL    HW127110   1.737   5.725   0.398
 8737SOL    HW227111   1.765   5.756   0.240
 8738SOL     OW27112   1.394   3.014   3.423
 8738SOL    HW127113   1.375   2.960   3.505
 8738SOL    HW227114   1.451   2.962   3.361
 8739SOL     OW27115   5.627   4.416   5.501
 8739SOL    HW127116   5.705   4.361   5.533
 8739SOL    HW227117   5.635   4.431   5.403
 8740SOL     OW27118   2.774   0.682   4.899
 8740SOL    HW127119   2.694   0.712   4.846
 8740SOL    HW227120   2.840   0.756   4.904
 8741SOL     OW27121   1.161   0.890   3.032
 8741SOL    HW127122   1.190   0.974   2.987
 8741SOL    HW227123   1.180   0.812   2.972
 8742SOL     OW27124   2.715   1.784   1.782
 8742SOL    HW127125   2.752   1.718   1.716
 8742SOL    HW227126   2.675   1.735   1.859
 8743SOL     OW27127   0.708   2.637   1.478
 8743SOL    HW127128   0.795   2.680   1.454
 8743SOL    HW227129   0.650   2.703   1.526
 8744SOL     OW27130   3.404   4.177   5.704
 8744SOL    HW127131   3.323   4.124   5.683
 8744SOL    HW227132   3.470   4.170   5.628
 8745SOL     OW27133   5.952   1.193   6.123
 8745SOL    HW127134   5.994   1.248   6.050
 8745SOL    HW227135   5.965   1.240   6.211
 8746SOL     OW27136   4.538   5.270   5.668
 8746SOL    HW127137   4.542   5.313   5.578
 8746SOL    HW227138   4.470   5.316   5.725
 8747SOL     OW27139   0.421   0.421   2.425
 8747SOL    HW127140   0.408   0.513   2.388
 8747SOL    HW227141   0.483   0.425   2.504
 8748SOL     OW27142   6.322   1.613   3.733
 8748SOL    HW127143   6.268   1.656   3.661
 8748SOL    HW227144   6.413   1.656   3.736
 8749SOL     OW27145   2.518   1.018   3.905
 8749SOL    HW127146   2.582   0.944   3.884
 8749SOL    HW227147   2.515   1.082   3.828
 8750SOL     OW27148   3.658   3.768   0.366
 8750SOL    HW127149   3.755   3.745   0.365
 8750SOL    HW227150   3.605   3.690   0.332
 8751SOL     OW27151   2.143   6.401   0.369
 8751SOL    HW127152   2.124   6.488   0.324
 8751SOL    HW227153   2.069   6.379   0.432
 8752SOL     OW27154   6.406   3.137   5.532
 8752SOL    HW127155   6.416   3.064   5.465
 8752SOL    HW227156   6.355   3.102   5.611
 8753SOL     OW27157   2.772   2.433   0.926
 8753SOL    HW127158   2.672   2.429   0.923
 8753SOL    HW227159   2.802   2.528   0.918
 8754SOL     OW27160   1.573   5.155   0.031
 8754SOL    HW127161   1.594   5.219   6.983
 8754SOL    HW227162   1.572   5.204   0.118
 8755SOL     OW27163   0.478   2.787   1.578
 8755SOL    HW127164   0.465   2.742   1.667
 8755SOL    HW227165   0.408   2.756   1.515
 8756SOL     OW27166   1.607   1.787   2.104
 8756SOL    HW127167   1.577   1.724   2.175
 8756SOL    HW227168   1.571   1.879   2.123
 8757SOL     OW27169   5.060   5.980   5.392
 8757SOL    HW127170   5.014   6.005   5.477
 8757SOL    HW227171   5.042   6.050   5.323
 8758SOL     OW27172   3.614   5.853   4.978
 8758SOL    HW127173   3.621   5.822   5.073
 8758SOL    HW227174   3.680   5.804   4.922
 8759SOL     OW27175   5.799   0.468   0.793
 8759SOL    HW127176   5.818   0.398   0.863
 8759SOL    HW227177   5.882   0.486   0.741
 8760SOL     OW27178   2.431   2.714   4.266
 8760SOL    HW127179   2.453   2.629   4.217
 8760SOL    HW227180   2.412   2.787   4.200
 8761SOL     OW27181   5.345   1.547   2.931
 8761SOL    HW127182   5.316   1.566   2.837
 8761SOL    HW227183   5.370   1.450   2.939
 8762SOL     OW27184   3.214   4.887   3.588
 8762SOL    HW127185   3.203   4.788   3.586
 8762SOL    HW227186   3.126   4.931   3.570
 8763SOL     OW27187   0.736   0.393   6.642
 8763SOL    HW127188   0.728   0.455   6.564
 8763SOL    HW227189   0.645   0.375   6.680
 8764SOL     OW27190   2.963   5.038   5.117
 8764SOL    HW127191   2.981   4.984   5.035
 8764SOL    HW227192   2.914   4.982   5.184
 8765SOL     OW27193   4.159   6.622   4.565
 8765SOL    HW127194   4.078   6.655   4.614
 8765SOL    HW227195   4.146   6.635   4.467
 8766SOL     OW27196   4.616   6.264   6.152
 8766SOL    HW127197   4.588   6.168   6.165
 8766SOL    HW227198   4.552   6.308   6.089
 8767SOL     OW27199   1.894   0.656   3.866
 8767SOL    HW127200   1.879   0.557   3.859
 8767SOL    HW227201   1.841   0.702   3.795
 8768SOL     OW27202   6.658   1.887   6.707
 8768SOL    HW127203   6.588   1.817   6.714
 8768SOL    HW227204   6.671   1.930   6.797
 8769SOL     OW27205   6.147   0.059   0.205
 8769SOL    HW127206   6.118   6.995   0.173
 8769SOL    HW227207   6.118   0.072   0.300
 8770SOL     OW27208   5.172   2.579   0.249
 8770SOL    HW127209   5.258   2.623   0.275
 8770SOL    HW227210   5.174   2.483   0.274
 8771SOL     OW27211   0.192   2.828   0.029
 8771SOL    HW127212   0.285   2.803   0.001
 8771SOL    HW227213   0.185   2.824   0.129
 8772SOL     OW27214   0.013   0.265   4.206
 8772SOL    HW127215   0.000   0.168   4.225
 8772SOL    HW227216   0.042   0.311   4.290
 8773SOL     OW27217   0.255   0.932   4.523
 8773SOL    HW127218   0.326   0.999   4.543
 8773SOL    HW227219   0.289   0.840   4.543
 8774SOL     OW27220   0.992   1.083   0.533
 8774SOL    HW127221   0.911   1.046   0.579
 8774SOL    HW227222   0.969   1.172   0.493
 8775SOL     OW27223   5.624   3.022   3.921
 8775SOL    HW127224   5.706   3.002   3.976
 8775SOL    HW227225   5.553   3.060   3.979
 8776SOL     OW27226   4.578   2.883   0.485
 8776SOL    HW127227   4.644   2.828   0.535
 8776SOL    HW227228   4.514   2.926   0.549
 8777SOL     OW27229   6.627   2.373   2.818
 8777SOL    HW127230   6.651   2.449   2.758
 8777SOL    HW227231   6.702   2.356   2.882
 8778SOL     OW27232   3.131   5.033   6.969
 8778SOL    HW127233   3.140   5.132   6.959
 8778SOL    HW227234   3.203   4.999   0.004
 8779SOL     OW27235   4.279   4.763   3.332
 8779SOL    HW127236   4.220   4.822   3.387
 8779SOL    HW227237   4.327   4.698   3.392
 8780SOL     OW27238   0.243   4.678   3.769
 8780SOL    HW127239   0.228   4.777   3.768
 8780SOL    HW227240   0.308   4.655   3.841
 8781SOL     OW27241   3.454   1.047   2.009
 8781SOL    HW127242   3.418   0.997   1.931
 8781SOL    HW227243   3.533   1.101   1.981
 8782SOL     OW27244   5.367   2.269   0.904
 8782SOL    HW127245   5.465   2.284   0.915
 8782SOL    HW227246   5.339   2.297   0.813
 8783SOL     OW27247   5.202   3.490   5.002
 8783SOL    HW127248   5.188   3.483   5.101
 8783SOL    HW227249   5.296   3.464   4.979
 8784SOL     OW27250   5.230   0.891   0.989
 8784SOL    HW127251   5.329   0.902   0.976
 8784SOL    HW227252   5.195   0.966   1.046
 8785SOL     OW27253   0.176   5.744   4.977
 8785SOL    HW127254   0.180   5.816   4.908
 8785SOL    HW227255   0.157   5.656   4.932
 8786SOL     OW27256   4.831   1.510   2.425
 8786SOL    HW127257   4.778   1.426   2.441
 8786SOL    HW227258   4.929   1.490   2.434
 8787SOL     OW27259   3.898   5.700   0.666
 8787SOL    HW127260   3.927   5.794   0.688
 8787SOL    HW227261   3.965   5.636   0.701
 8788SOL     OW27262   0.445   0.079   3.724
 8788SOL    HW127263   0.354   0.047   3.749
 8788SOL    HW227264   0.481   0.138   3.796
 8789SOL     OW27265   0.440   2.600   6.169
 8789SOL    HW127266   0.491   2.600   6.083
 8789SOL    HW227267   0.364   2.535   6.162
 8790SOL     OW27268   4.689   2.973   5.601
 8790SOL    HW127269   4.780   3.010   5.617
 8790SOL    HW227270   4.659   2.997   5.509
 8791SOL     OW27271   3.276   6.174   4.571
 8791SOL    HW127272   3.254   6.135   4.660
 8791SOL    HW227273   3.372   6.202   4.569
 8792SOL     OW27274   5.278   4.405   1.679
 8792SOL    HW127275   5.278   4.453   1.591
 8792SOL    HW227276   5.327   4.460   1.747
 8793SOL     OW27277   0.177   6.146   4.879
 8793SOL    HW127278   0.272   6.123   4.861
 8793SOL    HW227279   0.149   6.221   4.819
 8794SOL     OW27280   6.665   1.233   2.367
 8794SOL    HW127281   6.685   1.188   2.280
 8794SOL    HW227282   6.638   1.165   2.435
 8795SOL     OW27283   1.794   6.081   6.767
 8795SOL    HW127284   1.826   6.024   6.842
 8795SOL    HW227285   1.833   6.173   6.776
 8796SOL     OW27286   6.240   3.515   4.145
 8796SOL    HW127287   6.204   3.544   4.056
 8796SOL    HW227288   6.166   3.511   4.211
 8797SOL     OW27289   4.495   6.331   3.542
 8797SOL    HW127290   4.490   6.405   3.610
 8797SOL    HW227291   4.587   6.328   3.503
 8798SOL     OW27292   3.191   0.131   5.798
 8798SOL    HW127293   3.241   0.211   5.764
 8798SOL    HW227294   3.235   0.098   5.882
 8799SOL     OW27295   1.332   5.508   2.090
 8799SOL    HW127296   1.312   5.603   2.067
 8799SOL    HW227297   1.247   5.461   2.113
 8800SOL     OW27298   6.767   5.734   4.983
 8800SOL    HW127299   6.796   5.681   4.903
 8800SOL    HW227300   6.847   5.760   5.037
 8801SOL     OW27301   6.075   3.292   5.550
 8801SOL    HW127302   6.076   3.202   5.593
 8801SOL    HW227303   6.019   3.355   5.604
 8802SOL     OW27304   1.427   6.517   6.562
 8802SOL    HW127305   1.479   6.505   6.477
 8802SOL    HW227306   1.435   6.611   6.593
 8803SOL     OW27307   6.811   6.486   5.910
 8803SOL    HW127308   6.717   6.463   5.934
 8803SOL    HW227309   6.873   6.417   5.947
 8804SOL     OW27310   1.777   6.092   2.796
 8804SOL    HW127311   1.719   6.066   2.874
 8804SOL    HW227312   1.868   6.052   2.807
 8805SOL     OW27313   5.445   4.665   3.606
 8805SOL    HW127314   5.513   4.662   3.533
 8805SOL    HW227315   5.356   4.634   3.572
 8806SOL     OW27316   1.887   0.497   1.365
 8806SOL    HW127317   1.794   0.513   1.331
 8806SOL    HW227318   1.888   0.416   1.424
 8807SOL     OW27319   5.206   2.846   1.509
 8807SOL    HW127320   5.193   2.882   1.601
 8807SOL    HW227321   5.300   2.815   1.498
 8808SOL     OW27322   1.476   2.200   6.806
 8808SOL    HW127323   1.509   2.294   6.800
 8808SOL    HW227324   1.378   2.201   6.826
 8809SOL     OW27325   0.545   3.664   3.233
 8809SOL    HW127326   0.602   3.693   3.309
 8809SOL    HW227327   0.588   3.588   3.185
 8810SOL     OW27328   0.642   1.046   5.596
 8810SOL    HW127329   0.551   1.082   5.619
 8810SOL    HW227330   0.706   1.122   5.584
 8811SOL     OW27331   4.377   5.352   2.654
 8811SOL    HW127332   4.428   5.394   2.729
 8811SOL    HW227333   4.372   5.253   2.669
 8812SOL     OW27334   4.693   1.124   6.342
 8812SOL    HW127335   4.693   1.213   6.295
 8812SOL    HW227336   4.745   1.058   6.289
 8813SOL     OW27337   2.074   3.955   3.356
 8813SOL    HW127338   2.077   3.992   3.449
 8813SOL    HW227339   2.073   4.031   3.291
 8814SOL     OW27340   4.726   0.350   5.649
 8814SOL    HW127341   4.629   0.356   5.672
 8814SOL    HW227342   4.738   0.293   5.567
 8815SOL     OW27343   5.409   0.840   0.683
 8815SOL    HW127344   5.490   0.827   0.626
 8815SOL    HW227345   5.399   0.937   0.705
 8816SOL     OW27346   0.845   5.921   4.414
 8816SOL    HW127347   0.792   5.927   4.498
 8816SOL    HW227348   0.937   5.957   4.429
 8817SOL     OW27349   1.318   2.868   3.669
 8817SOL    HW127350   1.223   2.880   3.696
 8817SOL    HW227351   1.377   2.921   3.729
 8818SOL     OW27352   0.558   0.212   5.843
 8818SOL    HW127353   0.590   0.129   5.796
 8818SOL    HW227354   0.552   0.194   5.941
 8819SOL     OW27355   5.275   4.795   6.689
 8819SOL    HW127356   5.373   4.790   6.707
 8819SOL    HW227357   5.226   4.803   6.776
 8820SOL     OW27358   3.351   0.559   5.308
 8820SOL    HW127359   3.288   0.567   5.385
 8820SOL    HW227360   3.391   0.648   5.287
 8821SOL     OW27361   0.004   4.543   6.289
 8821SOL    HW127362   6.959   4.604   6.325
 8821SOL    HW227363   0.019   4.563   6.192
 8822SOL     OW27364   6.374   0.619   4.665
 8822SOL    HW127365   6.454   0.660   4.622
 8822SOL    HW227366   6.398   0.588   4.757
 8823SOL     OW27367   3.574   1.213   3.088
 8823SOL    HW127368   3.533   1.263   3.012
 8823SOL    HW227369   3.636   1.274   3.138
 8824SOL     OW27370   1.560   0.701   2.489
 8824SOL    HW127371   1.595   0.757   2.565
 8824SOL    HW227372   1.587   0.742   2.402
 8825SOL     OW27373   0.370   6.708   0.283
 8825SOL    HW127374   0.409   6.624   0.244
 8825SOL    HW227375   0.395   6.715   0.379
 8826SOL     OW27376   1.180   4.110   0.792
 8826SOL    HW127377   1.181   4.044   0.867
 8826SOL    HW227378   1.274   4.127   0.761
 8827SOL     OW27379   4.587   6.933   3.035
 8827SOL    HW127380   4.599   7.020   2.988
 8827SOL    HW227381   4.501   6.934   3.086
 8828SOL     OW27382   4.567   2.175   6.262
 8828SOL    HW127383   4.656   2.182   6.306
 8828SOL    HW227384   4.523   2.265   6.262
 8829SOL     OW27385   6.657   1.391   1.629
 8829SOL    HW127386   6.651   1.364   1.725
 8829SOL    HW227387   6.752   1.414   1.606
 8830SOL     OW27388   2.841   0.747   3.195
 8830SOL    HW127389   2.818   0.692   3.115
 8830SOL    HW227390   2.901   0.822   3.167
 8831SOL     OW27391   0.598   2.730   1.916
 8831SOL    HW127392   0.586   2.823   1.953
 8831SOL    HW227393   0.696   2.711   1.909
 8832SOL     OW27394   5.328   0.767   5.146
 8832SOL    HW127395   5.243   0.774   5.199
 8832SOL    HW227396   5.313   0.800   5.053
 8833SOL     OW27397   5.256   2.813   1.898
 8833SOL    HW127398   5.327   2.785   1.833
 8833SOL    HW227399   5.188   2.869   1.850
 8834SOL     OW27400   5.882   3.801   5.554
 8834SOL    HW127401   5.970   3.787   5.599
 8834SOL    HW227402   5.873   3.739   5.476
 8835SOL     OW27403   6.967   0.479   5.764
 8835SOL    HW127404   6.970   0.442   5.856
 8835SOL    HW227405   0.002   0.557   5.757
 8836SOL     OW27406   4.712   1.357   1.583
 8836SOL    HW127407   4.772   1.391   1.655
 8836SOL    HW227408   4.767   1.327   1.505
 8837SOL     OW27409   3.338   6.320   0.427
 8837SOL    HW127410   3.427   6.362   0.443
 8837SOL    HW227411   3.319   6.254   0.499
 8838SOL     OW27412   1.520   3.723   3.709
 8838SOL    HW127413   1.500   3.644   3.767
 8838SOL    HW227414   1.611   3.758   3.732
 8839SOL     OW27415   5.657   5.665   2.522
 8839SOL    HW127416   5.666   5.765   2.527
 8839SOL    HW227417   5.561   5.641   2.511
 8840SOL     OW27418   0.034   0.326   1.473
 8840SOL    HW127419   6.981   0.325   1.413
 8840SOL    HW227420   0.023   0.397   1.543
 8841SOL     OW27421   3.542   0.580   1.057
 8841SOL    HW127422   3.546   0.503   0.993
 8841SOL    HW227423   3.563   0.547   1.149
 8842SOL     OW27424   3.983   3.983   4.382
 8842SOL    HW127425   3.918   3.966   4.307
 8842SOL    HW227426   4.051   4.050   4.351
 8843SOL     OW27427   2.739   6.163   6.548
 8843SOL    HW127428   2.659   6.207   6.588
 8843SOL    HW227429   2.713   6.074   6.510
 8844SOL     OW27430   3.511   2.540   6.521
 8844SOL    HW127431   3.535   2.552   6.425
 8844SOL    HW227432   3.591   2.557   6.578
 8845SOL     OW27433   6.631   4.246   2.173
 8845SOL    HW127434   6.640   4.152   2.204
 8845SOL    HW227435   6.689   4.260   2.092
 8846SOL     OW27436   5.261   4.266   4.609
 8846SOL    HW127437   5.293   4.185   4.659
 8846SOL    HW227438   5.332   4.336   4.611
 8847SOL     OW27439   1.656   1.924   3.736
 8847SOL    HW127440   1.719   1.848   3.726
 8847SOL    HW227441   1.632   1.961   3.646
 8848SOL     OW27442   5.388   1.352   0.361
 8848SOL    HW127443   5.308   1.410   0.377
 8848SOL    HW227444   5.386   1.274   0.423
 8849SOL     OW27445   2.780   4.776   4.389
 8849SOL    HW127446   2.858   4.735   4.437
 8849SOL    HW227447   2.703   4.784   4.451
 8850SOL     OW27448   3.271   1.288   1.190
 8850SOL    HW127449   3.193   1.247   1.239
 8850SOL    HW227450   3.253   1.287   1.092
 8851SOL     OW27451   6.622   4.595   2.229
 8851SOL    HW127452   6.567   4.516   2.202
 8851SOL    HW227453   6.705   4.599   2.173
 8852SOL     OW27454   4.567   2.378   4.709
 8852SOL    HW127455   4.582   2.445   4.781
 8852SOL    HW227456   4.522   2.297   4.747
 8853SOL     OW27457   3.975   1.281   5.731
 8853SOL    HW127458   4.016   1.307   5.643
 8853SOL    HW227459   3.969   1.361   5.790
 8854SOL     OW27460   1.253   1.982   6.825
 8854SOL    HW127461   1.190   1.993   6.902
 8854SOL    HW227462   1.240   2.057   6.760
 8855SOL     OW27463   6.229   5.212   0.185
 8855SOL    HW127464   6.319   5.175   0.207
 8855SOL    HW227465   6.163   5.138   0.180
 8856SOL     OW27466   5.565   1.188   4.355
 8856SOL    HW127467   5.599   1.137   4.276
 8856SOL    HW227468   5.584   1.137   4.438
 8857SOL     OW27469   6.971   2.439   4.772
 8857SOL    HW127470   6.912   2.519   4.781
 8857SOL    HW227471   0.035   2.467   4.741
 8858SOL     OW27472   0.121   4.375   6.725
 8858SOL    HW127473   0.090   4.390   6.818
 8858SOL    HW227474   0.172   4.289   6.720
 8859SOL     OW27475   2.873   5.261   5.003
 8859SOL    HW127476   2.903   5.257   4.908
 8859SOL    HW227477   2.915   5.186   5.055
 8860SOL     OW27478   1.356   2.748   1.550
 8860SOL    HW127479   1.336   2.813   1.476
 8860SOL    HW227480   1.360   2.656   1.512
 8861SOL     OW27481   2.911   2.862   0.460
 8861SOL    HW127482   2.820   2.871   0.500
 8861SOL    HW227483   2.905   2.867   0.360
 8862SOL     OW27484   6.882   2.198   4.371
 8862SOL    HW127485   6.814   2.156   4.431
 8862SOL    HW227486   6.920   2.128   4.311
 8863SOL     OW27487   1.407   5.550   5.245
 8863SOL    HW127488   1.457   5.637   5.250
 8863SOL    HW227489   1.377   5.533   5.151
 8864SOL     OW27490   0.736   3.103   6.069
 8864SOL    HW127491   0.747   3.070   6.162
 8864SOL    HW227492   0.825   3.119   6.027
 8865SOL     OW27493   2.423   2.214   5.952
 8865SOL    HW127494   2.489   2.288   5.940
 8865SOL    HW227495   2.463   2.129   5.917
 8866SOL     OW27496   3.943   6.986   5.525
 8866SOL    HW127497   3.972   0.052   5.551
 8866SOL    HW227498   4.018   6.939   5.478
 8867SOL     OW27499   0.049   2.646   3.712
 8867SOL    HW127500   0.073   2.566   3.657
 8867SOL    HW227501   0.128   2.674   3.766
 8868SOL     OW27502   4.452   3.907   1.146
 8868SOL    HW127503   4.394   3.944   1.219
 8868SOL    HW227504   4.492   3.983   1.095
 8869SOL     OW27505   5.088   2.836   4.096
 8869SOL    HW127506   5.075   2.763   4.163
 8869SOL    HW227507   5.002   2.887   4.084
 8870SOL     OW27508   3.859   1.411   0.899
 8870SOL    HW127509   3.776   1.372   0.860
 8870SOL    HW227510   3.850   1.511   0.902
 8871SOL     OW27511   1.606   1.954   4.301
 8871SOL    HW127512   1.589   1.866   4.345
 8871SOL    HW227513   1.703   1.977   4.310
 8872SOL     OW27514   2.011   3.146   3.666
 8872SOL    HW127515   1.932   3.085   3.658
 8872SOL    HW227516   2.040   3.151   3.762
 8873SOL     OW27517   6.786   6.390   4.710
 8873SOL    HW127518   6.690   6.416   4.721
 8873SOL    HW227519   6.843   6.447   4.769
 8874SOL     OW27520   1.908   1.271   0.341
 8874SOL    HW127521   2.001   1.233   0.337
 8874SOL    HW227522   1.874   1.266   0.434
 8875SOL     OW27523   1.977   1.721   3.952
 8875SOL    HW127524   1.998   1.773   3.869
 8875SOL    HW227525   1.933   1.635   3.927
 8876SOL     OW27526   1.699   0.039   4.178
 8876SOL    HW127527   1.627   0.099   4.211
 8876SOL    HW227528   1.705   0.046   4.078
 8877SOL     OW27529   2.577   6.260   4.959
 8877SOL    HW127530   2.507   6.293   4.895
 8877SOL    HW227531   2.560   6.165   4.982
 8878SOL     OW27532   6.189   4.499   6.876
 8878SOL    HW127533   6.233   4.411   6.856
 8878SOL    HW227534   6.203   4.522   6.972
 8879SOL     OW27535   4.472   5.761   4.577
 8879SOL    HW127536   4.382   5.738   4.614
 8879SOL    HW227537   4.464   5.839   4.515
 8880SOL     OW27538   0.093   5.603   5.228
 8880SOL    HW127539   0.085   5.513   5.185
 8880SOL    HW227540   0.131   5.668   5.162
 8881SOL     OW27541   6.910   0.651   2.215
 8881SOL    HW127542   6.868   0.697   2.293
 8881SOL    HW227543   7.004   0.685   2.203
 8882SOL     OW27544   5.721   1.728   6.552
 8882SOL    HW127545   5.742   1.781   6.634
 8882SOL    HW227546   5.756   1.635   6.562
 8883SOL     OW27547   6.328   1.229   5.285
 8883SOL    HW127548   6.246   1.275   5.252
 8883SOL    HW227549   6.302   1.151   5.341
 8884SOL     OW27550   6.292   0.572   5.684
 8884SOL    HW127551   6.356   0.505   5.720
 8884SOL    HW227552   6.223   0.594   5.754
 8885SOL     OW27553   4.852   3.591   1.612
 8885SOL    HW127554   4.767   3.558   1.654
 8885SOL    HW227555   4.930   3.544   1.653
 8886SOL     OW27556   3.243   6.930   6.770
 8886SOL    HW127557   3.157   6.883   6.750
 8886SOL    HW227558   3.260   7.000   6.701
 8887SOL     OW27559   2.391   0.588   1.299
 8887SOL    HW127560   2.382   0.607   1.201
 8887SOL    HW227561   2.301   0.566   1.337
 8888SOL     OW27562   2.903   1.161   2.936
 8888SOL    HW127563   2.986   1.184   2.988
 8888SOL    HW227564   2.839   1.113   2.995
 8889SOL     OW27565   3.829   0.199   5.165
 8889SOL    HW127566   3.811   0.292   5.197
 8889SOL    HW227567   3.752   0.166   5.110
 8890SOL     OW27568   1.085   4.911   4.313
 8890SOL    HW127569   1.075   4.922   4.412
 8890SOL    HW227570   0.996   4.887   4.273
 8891SOL     OW27571   3.489   1.759   0.031
 8891SOL    HW127572   3.449   1.755   0.123
 8891SOL    HW227573   3.421   1.792   6.992
 8892SOL     OW27574   0.953   6.400   2.775
 8892SOL    HW127575   0.934   6.425   2.681
 8892SOL    HW227576   0.879   6.431   2.834
 8893SOL     OW27577   0.704   1.622   1.839
 8893SOL    HW127578   0.801   1.618   1.815
 8893SOL    HW227579   0.654   1.672   1.768
 8894SOL     OW27580   3.906   3.184   6.558
 8894SOL    HW127581   3.886   3.280   6.535
 8894SOL    HW227582   3.833   3.126   6.523
 8895SOL     OW27583   0.618   6.767   1.775
 8895SOL    HW127584   0.661   6.687   1.735
 8895SOL    HW227585   0.632   6.846   1.715
 8896SOL     OW27586   1.981   4.240   5.006
 8896SOL    HW127587   2.046   4.209   5.076
 8896SOL    HW227588   2.011   4.208   4.916
 8897SOL     OW27589   1.364   2.182   1.555
 8897SOL    HW127590   1.394   2.092   1.526
 8897SOL    HW227591   1.444   2.241   1.570
 8898SOL     OW27592   6.352   3.433   4.786
 8898SOL    HW127593   6.429   3.456   4.845
 8898SOL    HW227594   6.384   3.374   4.712
 8899SOL     OW27595   2.269   4.363   0.292
 8899SOL    HW127596   2.234   4.435   0.352
 8899SOL    HW227597   2.240   4.382   0.198
 8900SOL     OW27598   5.792   1.949   3.215
 8900SOL    HW127599   5.696   1.922   3.221
 8900SOL    HW227600   5.849   1.868   3.211
 8901SOL     OW27601   2.047   6.943   2.758
 8901SOL    HW127602   2.098   6.858   2.770
 8901SOL    HW227603   2.021   6.953   2.662
 8902SOL     OW27604   1.887   5.469   6.234
 8902SOL    HW127605   1.927   5.561   6.239
 8902SOL    HW227606   1.855   5.442   6.324
 8903SOL     OW27607   1.440   1.731   3.547
 8903SOL    HW127608   1.456   1.695   3.455
 8903SOL    HW227609   1.528   1.746   3.593
 8904SOL     OW27610   1.395   5.811   3.277
 8904SOL    HW127611   1.421   5.772   3.189
 8904SOL    HW227612   1.462   5.880   3.304
 8905SOL     OW27613   2.365   4.168   5.336
 8905SOL    HW127614   2.361   4.082   5.285
 8905SOL    HW227615   2.389   4.242   5.273
 8906SOL     OW27616   1.581   5.048   5.164
 8906SOL    HW127617   1.553   5.130   5.213
 8906SOL    HW227618   1.507   4.980   5.167
 8907SOL     OW27619   3.480   2.693   5.403
 8907SOL    HW127620   3.404   2.703   5.339
 8907SOL    HW227621   3.549   2.763   5.384
 8908SOL     OW27622   6.971   2.481   1.516
 8908SOL    HW127623   6.897   2.414   1.518
 8908SOL    HW227624   6.955   2.547   1.442
 8909SOL     OW27625   3.030   0.352   5.859
 8909SOL    HW127626   3.013   0.262   5.819
 8909SOL    HW227627   2.947   0.384   5.905
 8910SOL     OW27628   3.816   4.215   7.000
 8910SOL    HW127629   3.837   4.212   6.902
 8910SOL    HW227630   3.899   4.194   0.026
 8911SOL     OW27631   3.637   2.082   3.991
 8911SOL    HW127632   3.538   2.074   3.992
 8911SOL    HW227633   3.670   2.112   4.080
 8912SOL     OW27634   4.874   2.590   5.785
 8912SOL    HW127635   4.823   2.523   5.839
 8912SOL    HW227636   4.810   2.656   5.746
 8913SOL     OW27637   5.079   3.939   0.769
 8913SOL    HW127638   4.991   3.896   0.787
 8913SOL    HW227639   5.083   4.027   0.818
 8914SOL     OW27640   4.168   1.913   4.262
 8914SOL    HW127641   4.225   1.929   4.182
 8914SOL    HW227642   4.072   1.927   4.239
 8915SOL     OW27643   1.488   5.151   1.697
 8915SOL    HW127644   1.468   5.057   1.668
 8915SOL    HW227645   1.447   5.167   1.787
 8916SOL     OW27646   6.789   3.912   1.538
 8916SOL    HW127647   6.826   4.000   1.507
 8916SOL    HW227648   6.708   3.889   1.483
 8917SOL     OW27649   5.958   5.689   6.096
 8917SOL    HW127650   6.018   5.730   6.164
 8917SOL    HW227651   5.924   5.602   6.131
 8918SOL     OW27652   4.392   4.561   6.424
 8918SOL    HW127653   4.490   4.545   6.429
 8918SOL    HW227654   4.373   4.659   6.432
 8919SOL     OW27655   2.274   4.154   1.084
 8919SOL    HW127656   2.304   4.208   1.005
 8919SOL    HW227657   2.351   4.103   1.121
 8920SOL     OW27658   6.508   5.854   5.769
 8920SOL    HW127659   6.422   5.802   5.764
 8920SOL    HW227660   6.535   5.883   5.677
 8921SOL     OW27661   1.458   6.798   3.444
 8921SOL    HW127662   1.399   6.718   3.433
 8921SOL    HW227663   1.430   6.849   3.526
 8922SOL     OW27664   6.268   4.251   0.108
 8922SOL    HW127665   6.264   4.152   0.122
 8922SOL    HW227666   6.224   4.274   0.021
 8923SOL     OW27667   1.645   4.334   5.392
 8923SOL    HW127668   1.681   4.321   5.299
 8923SOL    HW227669   1.663   4.428   5.421
 8924SOL     OW27670   2.699   6.036   5.378
 8924SOL    HW127671   2.653   6.124   5.384
 8924SOL    HW227672   2.763   6.036   5.301
 8925SOL     OW27673   6.024   6.686   2.266
 8925SOL    HW127674   6.096   6.663   2.201
 8925SOL    HW227675   5.987   6.776   2.244
 8926SOL     OW27676   5.890   1.596   0.479
 8926SOL    HW127677   5.819   1.536   0.444
 8926SOL    HW227678   5.968   1.542   0.510
 8927SOL     OW27679   2.526   1.727   5.348
 8927SOL    HW127680   2.544   1.632   5.372
 8927SOL    HW227681   2.611   1.780   5.355
 8928SOL     OW27682   0.235   0.351   5.222
 8928SOL    HW127683   0.143   0.384   5.245
 8928SOL    HW227684   0.272   0.301   5.300
 8929SOL     OW27685   5.769   3.712   4.418
 8929SOL    HW127686   5.756   3.811   4.428
 8929SOL    HW227687   5.794   3.673   4.507
 8930SOL     OW27688   0.929   4.553   4.802
 8930SOL    HW127689   0.852   4.492   4.820
 8930SOL    HW227690   0.975   4.575   4.888
 8931SOL     OW27691   5.693   0.923   1.058
 8931SOL    HW127692   5.740   0.951   0.974
 8931SOL    HW227693   5.623   0.856   1.036
 8932SOL     OW27694   6.626   0.265   6.947
 8932SOL    HW127695   6.596   0.288   0.013
 8932SOL    HW227696   6.639   0.348   6.894
 8933SOL     OW27697   1.882   6.844   5.437
 8933SOL    HW127698   1.831   6.890   5.364
 8933SOL    HW227699   1.971   6.889   5.449
 8934SOL     OW27700   4.565   6.649   2.977
 8934SOL    HW127701   4.613   6.635   2.891
 8934SOL    HW227702   4.599   6.732   3.022
 8935SOL     OW27703   5.501   2.723   3.392
 8935SOL    HW127704   5.426   2.681   3.340
 8935SOL    HW227705   5.493   2.822   3.388
 8936SOL     OW27706   1.968   4.816   2.421
 8936SOL    HW127707   2.016   4.787   2.504
 8936SOL    HW227708   1.921   4.738   2.380
 8937SOL     OW27709   4.943   6.862   5.431
 8937SOL    HW127710   4.969   6.882   5.526
 8937SOL    HW227711   4.877   6.787   5.429
 8938SOL     OW27712   5.785   6.927   1.962
 8938SOL    HW127713   5.707   6.866   1.955
 8938SOL    HW227714   5.753   7.018   1.989
 8939SOL     OW27715   0.089   3.016   3.665
 8939SOL    HW127716   0.076   2.939   3.603
 8939SOL    HW227717   0.118   2.982   3.754
 8940SOL     OW27718   6.532   2.894   1.064
 8940SOL    HW127719   6.545   2.892   1.163
 8940SOL    HW227720   6.437   2.871   1.042
 8941SOL     OW27721   4.289   2.445   1.842
 8941SOL    HW127722   4.366   2.506   1.860
 8941SOL    HW227723   4.323   2.360   1.802
 8942SOL     OW27724   5.999   4.131   4.446
 8942SOL    HW127725   5.918   4.130   4.503
 8942SOL    HW227726   5.979   4.178   4.360
 8943SOL     OW27727   4.770   3.866   0.823
 8943SOL    HW127728   4.771   3.854   0.922
 8943SOL    HW227729   4.676   3.864   0.790
 8944SOL     OW27730   5.488   5.602   5.041
 8944SOL    HW127731   5.568   5.544   5.027
 8944SOL    HW227732   5.421   5.584   4.968
 8945SOL     OW27733   5.215   4.102   3.446
 8945SOL    HW127734   5.232   4.003   3.450
 8945SOL    HW227735   5.250   4.137   3.359
 8946SOL     OW27736   4.595   1.046   5.459
 8946SOL    HW127737   4.638   1.081   5.376
 8946SOL    HW227738   4.666   1.008   5.519
 8947SOL     OW27739   2.485   5.159   6.487
 8947SOL    HW127740   2.400   5.117   6.519
 8947SOL    HW227741   2.470   5.257   6.470
 8948SOL     OW27742   5.342   1.092   2.887
 8948SOL    HW127743   5.348   1.013   2.947
 8948SOL    HW227744   5.308   1.063   2.797
 8949SOL     OW27745   3.885   6.221   0.853
 8949SOL    HW127746   3.821   6.292   0.881
 8949SOL    HW227747   3.867   6.137   0.905
 8950SOL     OW27748   3.815   3.353   0.881
 8950SOL    HW127749   3.720   3.371   0.904
 8950SOL    HW227750   3.822   3.328   0.784
 8951SOL     OW27751   1.588   0.790   4.427
 8951SOL    HW127752   1.493   0.808   4.401
 8951SOL    HW227753   1.596   0.786   4.527
 8952SOL     OW27754   2.187   4.797   3.851
 8952SOL    HW127755   2.259   4.856   3.814
 8952SOL    HW227756   2.147   4.744   3.777
 8953SOL     OW27757   1.267   5.054   1.065
 8953SOL    HW127758   1.357   5.089   1.037
 8953SOL    HW227759   1.277   4.961   1.099
 8954SOL     OW27760   2.826   4.466   6.079
 8954SOL    HW127761   2.894   4.393   6.072
 8954SOL    HW227762   2.839   4.531   6.004
 8955SOL     OW27763   5.280   2.253   4.696
 8955SOL    HW127764   5.371   2.288   4.674
 8955SOL    HW227765   5.225   2.249   4.612
 8956SOL     OW27766   0.834   6.065   0.224
 8956SOL    HW127767   0.744   6.091   0.186
 8956SOL    HW227768   0.895   6.039   0.149
 8957SOL     OW27769   6.982   6.468   2.971
 8957SOL    HW127770   6.911   6.430   2.911
 8957SOL    HW227771   6.973   6.568   2.973
 8958SOL     OW27772   1.968   3.193   4.904
 8958SOL    HW127773   1.910   3.274   4.911
 8958SOL    HW227774   2.026   3.201   4.822
 8959SOL     OW27775   6.483   2.595   3.108
 8959SOL    HW127776   6.542   2.642   3.042
 8959SOL    HW227777   6.409   2.548   3.060
 8960SOL     OW27778   5.497   4.611   3.038
 8960SOL    HW127779   5.403   4.593   3.067
 8960SOL    HW227780   5.549   4.648   3.115
 8961SOL     OW27781   2.030   1.503   4.839
 8961SOL    HW127782   1.939   1.519   4.876
 8961SOL    HW227783   2.068   1.419   4.879
 8962SOL     OW27784   6.626   5.578   2.011
 8962SOL    HW127785   6.583   5.583   2.101
 8962SOL    HW227786   6.570   5.521   1.951
 8963SOL     OW27787   4.773   6.653   5.615
 8963SOL    HW127788   4.745   6.656   5.711
 8963SOL    HW227789   4.872   6.650   5.609
 8964SOL     OW27790   1.672   2.822   4.687
 8964SOL    HW127791   1.685   2.845   4.784
 8964SOL    HW227792   1.756   2.845   4.637
 8965SOL     OW27793   3.922   5.650   6.152
 8965SOL    HW127794   3.859   5.653   6.075
 8965SOL    HW227795   3.905   5.567   6.206
 8966SOL     OW27796   4.257   6.116   4.554
 8966SOL    HW127797   4.209   6.187   4.604
 8966SOL    HW227798   4.254   6.135   4.456
 8967SOL     OW27799   3.286   6.992   3.442
 8967SOL    HW127800   3.299   0.026   3.362
 8967SOL    HW227801   3.291   0.021   3.525
 8968SOL     OW27802   3.348   4.869   2.371
 8968SOL    HW127803   3.389   4.871   2.279
 8968SOL    HW227804   3.303   4.780   2.385
 8969SOL     OW27805   1.176   1.078   2.801
 8969SOL    HW127806   1.241   1.015   2.758
 8969SOL    HW227807   1.219   1.167   2.813
 8970SOL     OW27808   1.806   0.027   3.939
 8970SOL    HW127809   1.892   7.017   3.975
 8970SOL    HW227810   1.819   0.059   3.845
 8971SOL     OW27811   3.290   4.712   0.476
 8971SOL    HW127812   3.314   4.616   0.457
 8971SOL    HW227813   3.267   4.722   0.573
 8972SOL     OW27814   6.085   3.643   6.804
 8972SOL    HW127815   6.144   3.598   6.871
 8972SOL    HW227816   6.009   3.688   6.852
 8973SOL     OW27817   1.693   2.573   3.402
 8973SOL    HW127818   1.745   2.499   3.444
 8973SOL    HW227819   1.743   2.609   3.324
 8974SOL     OW27820   2.454   4.447   4.791
 8974SOL    HW127821   2.412   4.526   4.835
 8974SOL    HW227822   2.551   4.442   4.816
 8975SOL     OW27823   0.286   5.363   5.745
 8975SOL    HW127824   0.276   5.354   5.844
 8975SOL    HW227825   0.197   5.380   5.704
 8976SOL     OW27826   6.017   0.508   2.801
 8976SOL    HW127827   5.955   0.446   2.849
 8976SOL    HW227828   6.038   0.471   2.711
 8977SOL     OW27829   6.398   4.501   6.145
 8977SOL    HW127830   6.372   4.453   6.061
 8977SOL    HW227831   6.427   4.594   6.123
 8978SOL     OW27832   6.340   5.917   6.927
 8978SOL    HW127833   6.386   5.867   7.000
 8978SOL    HW227834   6.342   6.015   6.948
 8979SOL     OW27835   1.604   5.115   4.700
 8979SOL    HW127836   1.539   5.039   4.707
 8979SOL    HW227837   1.697   5.080   4.715
 8980SOL     OW27838   3.548   0.627   6.758
 8980SOL    HW127839   3.597   0.579   6.685
 8980SOL    HW227840   3.604   0.625   6.841
 8981SOL     OW27841   4.803   3.690   6.302
 8981SOL    HW127842   4.780   3.705   6.206
 8981SOL    HW227843   4.807   3.591   6.320
 8982SOL     OW27844   0.394   1.873   2.000
 8982SOL    HW127845   0.456   1.903   1.928
 8982SOL    HW227846   0.315   1.934   2.003
 8983SOL     OW27847   1.825   6.072   2.299
 8983SOL    HW127848   1.783   6.044   2.385
 8983SOL    HW227849   1.765   6.045   2.223
 8984SOL     OW27850   6.969   0.768   3.947
 8984SOL    HW127851   0.037   0.801   3.952
 8984SOL    HW227852   6.906   0.843   3.966
 8985SOL     OW27853   5.002   1.708   1.885
 8985SOL    HW127854   5.003   1.803   1.855
 8985SOL    HW227855   5.096   1.674   1.890
 8986SOL     OW27856   6.776   4.781   0.213
 8986SOL    HW127857   6.834   4.705   0.185
 8986SOL    HW227858   6.818   4.867   0.184
 8987SOL     OW27859   2.258   6.110   1.626
 8987SOL    HW127860   2.315   6.191   1.618
 8987SOL    HW227861   2.315   6.032   1.654
 8988SOL     OW27862   2.280   6.589   1.543
 8988SOL    HW127863   2.244   6.641   1.621
 8988SOL    HW227864   2.340   6.649   1.489
 8989SOL     OW27865   5.382   1.624   3.180
 8989SOL    HW127866   5.308   1.602   3.245
 8989SOL    HW227867   5.362   1.584   3.091
 8990SOL     OW27868   3.020   0.718   2.210
 8990SOL    HW127869   3.000   0.769   2.126
 8990SOL    HW227870   2.951   0.740   2.279
 8991SOL     OW27871   1.038   1.297   0.773
 8991SOL    HW127872   1.015   1.393   0.756
 8991SOL    HW227873   1.100   1.264   0.702
 8992SOL     OW27874   0.861   3.884   6.353
 8992SOL    HW127875   0.868   3.935   6.438
 8992SOL    HW227876   0.885   3.944   6.276
 8993SOL     OW27877   5.686   3.588   5.225
 8993SOL    HW127878   5.649   3.659   5.165
 8993SOL    HW227879   5.613   3.524   5.250
 8994SOL     OW27880   1.099   5.655   2.701
 8994SOL    HW127881   1.044   5.614   2.773
 8994SOL    HW227882   1.147   5.735   2.737
 8995SOL     OW27883   2.196   3.966   4.799
 8995SOL    HW127884   2.267   3.999   4.861
 8995SOL    HW227885   2.143   4.043   4.764
 8996SOL     OW27886   1.314   4.024   2.060
 8996SOL    HW127887   1.259   3.941   2.057
 8996SOL    HW227888   1.295   4.080   1.979
 8997SOL     OW27889   4.360   1.775   5.610
 8997SOL    HW127890   4.299   1.711   5.657
 8997SOL    HW227891   4.306   1.844   5.563
 8998SOL     OW27892   0.829   1.402   6.294
 8998SOL    HW127893   0.819   1.487   6.346
 8998SOL    HW227894   0.924   1.371   6.298
 8999SOL     OW27895   5.104   1.026   4.888
 8999SOL    HW127896   5.055   0.987   4.810
 8999SOL    HW227897   5.057   1.002   4.973
 9000SOL     OW27898   2.479   4.242   0.367
 9000SOL    HW127899   2.542   4.303   0.415
 9000SOL    HW227900   2.402   4.295   0.332
 9001SOL     OW27901   1.601   4.588   3.619
 9001SOL    HW127902   1.661   4.656   3.662
 9001SOL    HW227903   1.655   4.507   3.595
 9002SOL     OW27904   5.210   4.659   5.684
 9002SOL    HW127905   5.161   4.614   5.610
 9002SOL    HW227906   5.308   4.659   5.665
 9003SOL     OW27907   5.832   3.111   6.053
 9003SOL    HW127908   5.913   3.052   6.045
 9003SOL    HW227909   5.750   3.059   6.032
 9004SOL     OW27910   4.834   5.373   0.691
 9004SOL    HW127911   4.850   5.350   0.595
 9004SOL    HW227912   4.874   5.302   0.749
 9005SOL     OW27913   4.594   2.346   2.814
 9005SOL    HW127914   4.675   2.296   2.783
 9005SOL    HW227915   4.612   2.444   2.812
 9006SOL     OW27916   1.827   6.610   0.677
 9006SOL    HW127917   1.734   6.643   0.663
 9006SOL    HW227918   1.830   6.549   0.756
 9007SOL     OW27919   2.381   6.526   3.966
 9007SOL    HW127920   2.473   6.538   3.927
 9007SOL    HW227921   2.372   6.434   4.003
 9008SOL     OW27922   6.460   4.538   2.958
 9008SOL    HW127923   6.462   4.506   3.053
 9008SOL    HW227924   6.547   4.582   2.936
 9009SOL     OW27925   4.032   6.347   1.196
 9009SOL    HW127926   3.939   6.382   1.206
 9009SOL    HW227927   4.097   6.418   1.222
 9010SOL     OW27928   0.899   5.904   4.918
 9010SOL    HW127929   0.942   5.827   4.871
 9010SOL    HW227930   0.968   5.975   4.935
 9011SOL     OW27931   4.208   1.862   1.549
 9011SOL    HW127932   4.196   1.831   1.644
 9011SOL    HW227933   4.164   1.798   1.487
 9012SOL     OW27934   6.119   5.697   1.673
 9012SOL    HW127935   6.136   5.598   1.675
 9012SOL    HW227936   6.155   5.739   1.756
 9013SOL     OW27937   4.944   6.129   2.954
 9013SOL    HW127938   4.923   6.064   2.881
 9013SOL    HW227939   4.864   6.188   2.969
 9014SOL     OW27940   2.705   0.713   0.823
 9014SOL    HW127941   2.616   0.670   0.809
 9014SOL    HW227942   2.693   0.793   0.882
 9015SOL     OW27943   6.462   1.559   5.105
 9015SOL    HW127944   6.403   1.490   5.062
 9015SOL    HW227945   6.474   1.636   5.043
 9016SOL     OW27946   6.720   6.150   6.404
 9016SOL    HW127947   6.643   6.201   6.444
 9016SOL    HW227948   6.762   6.204   6.331
 9017SOL     OW27949   0.268   4.265   3.981
 9017SOL    HW127950   0.359   4.225   3.990
 9017SOL    HW227951   0.243   4.269   3.884
 9018SOL     OW27952   3.764   2.064   5.620
 9018SOL    HW127953   3.819   2.097   5.544
 9018SOL    HW227954   3.668   2.058   5.593
 9019SOL     OW27955   1.698   6.321   7.009
 9019SOL    HW127956   1.633   6.396   6.999
 9019SOL    HW227957   1.765   6.324   6.935
 9020SOL     OW27958   0.232   4.757   2.835
 9020SOL    HW127959   0.218   4.851   2.868
 9020SOL    HW227960   0.183   4.693   2.895
 9021SOL     OW27961   6.602   5.938   4.857
 9021SOL    HW127962   6.645   6.026   4.838
 9021SOL    HW227963   6.662   5.884   4.916
 9022SOL     OW27964   3.069   1.225   6.210
 9022SOL    HW127965   3.050   1.235   6.307
 9022SOL    HW227966   3.106   1.310   6.174
 9023SOL     OW27967   3.384   2.898   3.082
 9023SOL    HW127968   3.451   2.851   3.140
 9023SOL    HW227969   3.412   2.891   2.986
 9024SOL     OW27970   1.811   0.376   6.338
 9024SOL    HW127971   1.729   0.421   6.374
 9024SOL    HW227972   1.892   0.422   6.376
 9025SOL     OW27973   7.004   4.214   1.203
 9025SOL    HW127974   6.972   4.125   1.237
 9025SOL    HW227975   0.077   4.213   1.197
 9026SOL     OW27976   3.063   3.452   5.431
 9026SOL    HW127977   3.034   3.475   5.524
 9026SOL    HW227978   2.998   3.491   5.365
 9027SOL     OW27979   2.418   2.451   2.767
 9027SOL    HW127980   2.420   2.532   2.826
 9027SOL    HW227981   2.326   2.412   2.768
 9028SOL     OW27982   2.262   4.778   5.309
 9028SOL    HW127983   2.303   4.687   5.298
 9028SOL    HW227984   2.191   4.790   5.239
 9029SOL     OW27985   4.797   5.069   3.079
 9029SOL    HW127986   4.849   5.145   3.117
 9029SOL    HW227987   4.699   5.083   3.097
 9030SOL     OW27988   3.111   1.517   1.439
 9030SOL    HW127989   3.071   1.604   1.469
 9030SOL    HW227990   3.210   1.519   1.452
 9031SOL     OW27991   2.065   1.001   0.477
 9031SOL    HW127992   2.093   1.064   0.550
 9031SOL    HW227993   2.143   0.981   0.418
 9032SOL     OW27994   1.540   1.854   2.690
 9032SOL    HW127995   1.590   1.767   2.694
 9032SOL    HW227996   1.450   1.842   2.733
 9033SOL     OW27997   1.754   3.441   2.878
 9033SOL    HW127998   1.769   3.406   2.785
 9033SOL    HW227999   1.656   3.452   2.894
 9034SOL     OW28000   1.564   0.353   5.544
 9034SOL    HW128001   1.600   0.305   5.464
 9034SOL    HW228002   1.486   0.302   5.581
 9035SOL     OW28003   6.823   0.750   4.270
 9035SOL    HW128004   6.837   0.807   4.190
 9035SOL    HW228005   6.837   0.805   4.353
 9036SOL     OW28006   0.980   1.503   5.244
 9036SOL    HW128007   1.013   1.589   5.206
 9036SOL    HW228008   0.987   1.431   5.175
 9037SOL     OW28009   2.562   3.945   6.033
 9037SOL    HW128010   2.630   3.960   5.961
 9037SOL    HW228011   2.605   3.958   6.122
 9038SOL     OW28012   5.421   6.657   5.410
 9038SOL    HW128013   5.393   6.566   5.439
 9038SOL    HW228014   5.376   6.680   5.323
 9039SOL     OW28015   2.405   4.988   6.263
 9039SOL    HW128016   2.348   5.015   6.186
 9039SOL    HW228017   2.420   5.068   6.322
 9040SOL     OW28018   2.239   1.479   1.701
 9040SOL    HW128019   2.278   1.549   1.642
 9040SOL    HW228020   2.311   1.439   1.757
 9041SOL     OW28021   1.399   3.186   0.102
 9041SOL    HW128022   1.435   3.277   0.123
 9041SOL    HW228023   1.470   3.131   0.058
 9042SOL     OW28024   2.586   5.421   3.413
 9042SOL    HW128025   2.605   5.491   3.482
 9042SOL    HW228026   2.532   5.348   3.454
 9043SOL     OW28027   6.981   2.395   0.576
 9043SOL    HW128028   7.003   2.455   0.653
 9043SOL    HW228029   6.885   2.370   0.580
 9044SOL     OW28030   6.404   4.856   0.445
 9044SOL    HW128031   6.502   4.874   0.444
 9044SOL    HW228032   6.364   4.885   0.358
 9045SOL     OW28033   3.588   6.089   4.160
 9045SOL    HW128034   3.649   6.091   4.081
 9045SOL    HW228035   3.550   6.180   4.176
 9046SOL     OW28036   3.587   4.244   5.998
 9046SOL    HW128037   3.606   4.342   5.992
 9046SOL    HW228038   3.594   4.203   5.907
 9047SOL     OW28039   1.616   4.436   4.798
 9047SOL    HW128040   1.706   4.478   4.812
 9047SOL    HW228041   1.575   4.415   4.887
 9048SOL     OW28042   1.581   2.517   5.175
 9048SOL    HW128043   1.667   2.549   5.213
 9048SOL    HW228044   1.567   2.559   5.085
 9049SOL     OW28045   5.024   5.802   6.257
 9049SOL    HW128046   5.102   5.793   6.319
 9049SOL    HW228047   4.939   5.801   6.309
 9050SOL     OW28048   0.427   5.856   5.300
 9050SOL    HW128049   0.420   5.859   5.399
 9050SOL    HW228050   0.411   5.947   5.262
 9051SOL     OW28051   5.136   6.400   6.111
 9051SOL    HW128052   5.051   6.367   6.071
 9051SOL    HW228053   5.205   6.410   6.039
 9052SOL     OW28054   2.198   5.264   4.855
 9052SOL    HW128055   2.109   5.228   4.886
 9052SOL    HW228056   2.236   5.323   4.926
 9053SOL     OW28057   2.628   1.585   3.768
 9053SOL    HW128058   2.682   1.502   3.782
 9053SOL    HW228059   2.627   1.608   3.671
 9054SOL     OW28060   3.697   0.369   1.225
 9054SOL    HW128061   3.671   0.397   1.317
 9054SOL    HW228062   3.787   0.406   1.203
 9055SOL     OW28063   0.869   1.400   4.373
 9055SOL    HW128064   0.896   1.471   4.308
 9055SOL    HW228065   0.860   1.440   4.464
 9056SOL     OW28066   5.899   1.370   2.733
 9056SOL    HW128067   5.879   1.448   2.673
 9056SOL    HW228068   5.967   1.397   2.801
 9057SOL     OW28069   4.375   6.579   6.909
 9057SOL    HW128070   4.315   6.647   6.953
 9057SOL    HW228071   4.353   6.488   6.943
 9058SOL     OW28072   1.990   2.489   4.827
 9058SOL    HW128073   2.017   2.475   4.922
 9058SOL    HW228074   2.044   2.564   4.788
 9059SOL     OW28075   6.506   0.784   3.298
 9059SOL    HW128076   6.421   0.803   3.251
 9059SOL    HW228077   6.486   0.746   3.389
 9060SOL     OW28078   0.871   5.569   2.004
 9060SOL    HW128079   0.853   5.594   1.909
 9060SOL    HW228080   0.891   5.652   2.057
 9061SOL     OW28081   5.833   4.108   2.915
 9061SOL    HW128082   5.841   4.161   2.831
 9061SOL    HW228083   5.762   4.039   2.904
 9062SOL     OW28084   0.727   5.991   3.096
 9062SOL    HW128085   0.753   5.936   3.017
 9062SOL    HW228086   0.716   6.086   3.069
 9063SOL     OW28087   4.739   1.732   1.657
 9063SOL    HW128088   4.690   1.774   1.734
 9063SOL    HW228089   4.807   1.797   1.622
 9064SOL     OW28090   0.746   5.548   3.084
 9064SOL    HW128091   0.674   5.540   3.152
 9064SOL    HW228092   0.828   5.500   3.116
 9065SOL     OW28093   2.768   4.439   5.758
 9065SOL    HW128094   2.686   4.492   5.778
 9065SOL    HW228095   2.835   4.496   5.710
 9066SOL     OW28096   4.976   4.869   4.615
 9066SOL    HW128097   4.944   4.907   4.529
 9066SOL    HW228098   5.071   4.838   4.605
 9067SOL     OW28099   1.041   6.108   4.532
 9067SOL    HW128100   1.066   6.165   4.454
 9067SOL    HW228101   1.038   6.165   4.615
 9068SOL     OW28102   4.604   0.074   5.849
 9068SOL    HW128103   4.571   0.127   5.771
 9068SOL    HW228104   4.584   0.125   5.934
 9069SOL     OW28105   5.233   2.048   0.853
 9069SOL    HW128106   5.262   1.967   0.905
 9069SOL    HW228107   5.283   2.128   0.885
 9070SOL     OW28108   1.448   1.572   5.806
 9070SOL    HW128109   1.473   1.560   5.710
 9070SOL    HW228110   1.348   1.576   5.815
 9071SOL     OW28111   4.804   2.171   6.380
 9071SOL    HW128112   4.893   2.195   6.341
 9071SOL    HW228113   4.785   2.228   6.460
 9072SOL     OW28114   4.942   0.645   2.987
 9072SOL    HW128115   4.869   0.607   3.043
 9072SOL    HW228116   5.002   0.702   3.044
 9073SOL     OW28117   4.545   1.798   5.398
 9073SOL    HW128118   4.541   1.895   5.373
 9073SOL    HW228119   4.476   1.778   5.467
 9074SOL     OW28120   1.466   0.753   1.971
 9074SOL    HW128121   1.389   0.712   2.021
 9074SOL    HW228122   1.531   0.682   1.946
 9075SOL     OW28123   6.298   6.228   0.975
 9075SOL    HW128124   6.314   6.130   0.967
 9075SOL    HW228125   6.385   6.277   0.976
 9076SOL     OW28126   6.122   0.357   2.602
 9076SOL    HW128127   6.191   0.418   2.562
 9076SOL    HW228128   6.164   0.269   2.623
 9077SOL     OW28129   6.685   1.464   6.373
 9077SOL    HW128130   6.739   1.381   6.375
 9077SOL    HW228131   6.646   1.477   6.282
 9078SOL     OW28132   4.989   5.934   6.894
 9078SOL    HW128133   5.002   6.026   6.858
 9078SOL    HW228134   4.908   5.932   6.952
 9079SOL     OW28135   1.452   1.562   6.977
 9079SOL    HW128136   1.410   1.652   6.961
 9079SOL    HW228137   1.479   1.554   0.046
 9080SOL     OW28138   5.972   3.239   1.854
 9080SOL    HW128139   6.061   3.197   1.872
 9080SOL    HW228140   5.959   3.252   1.756
 9081SOL     OW28141   5.135   1.446   0.053
 9081SOL    HW128142   5.069   1.384   0.012
 9081SOL    HW228143   5.228   1.419   0.027
 9082SOL     OW28144   3.702   5.609   5.977
 9082SOL    HW128145   3.647   5.670   5.920
 9082SOL    HW228146   3.668   5.515   5.967
 9083SOL     OW28147   4.234   5.249   6.548
 9083SOL    HW128148   4.215   5.265   6.451
 9083SOL    HW228149   4.246   5.151   6.563
 9084SOL     OW28150   6.914   2.654   6.041
 9084SOL    HW128151   6.892   2.650   6.139
 9084SOL    HW228152   6.836   2.692   5.991
 9085SOL     OW28153   2.222   4.882   6.876
 9085SOL    HW128154   2.162   4.803   6.891
 9085SOL    HW228155   2.179   4.964   6.914
 9086SOL     OW28156   0.075   4.564   1.057
 9086SOL    HW128157   7.014   4.588   1.100
 9086SOL    HW228158   0.066   4.567   0.958
 9087SOL     OW28159   5.746   0.991   1.496
 9087SOL    HW128160   5.791   0.963   1.412
 9087SOL    HW228161   5.792   1.072   1.533
 9088SOL     OW28162   6.315   6.531   0.655
 9088SOL    HW128163   6.336   6.613   0.708
 9088SOL    HW228164   6.387   6.516   0.587
 9089SOL     OW28165   5.213   5.238   4.020
 9089SOL    HW128166   5.199   5.253   4.117
 9089SOL    HW228167   5.229   5.141   4.003
 9090SOL     OW28168   5.150   6.384   5.239
 9090SOL    HW128169   5.094   6.302   5.230
 9090SOL    HW228170   5.117   6.455   5.177
 9091SOL     OW28171   2.088   1.257   1.377
 9091SOL    HW128172   2.112   1.188   1.446
 9091SOL    HW228173   2.171   1.300   1.342
 9092SOL     OW28174   1.495   1.213   5.440
 9092SOL    HW128175   1.588   1.248   5.426
 9092SOL    HW228176   1.500   1.125   5.487
 9093SOL     OW28177   2.058   3.802   0.750
 9093SOL    HW128178   2.076   3.765   0.659
 9093SOL    HW228179   1.985   3.871   0.743
 9094SOL     OW28180   6.596   4.570   1.393
 9094SOL    HW128181   6.505   4.545   1.360
 9094SOL    HW228182   6.637   4.492   1.440
 9095SOL     OW28183   3.126   2.652   0.167
 9095SOL    HW128184   3.122   2.714   0.088
 9095SOL    HW228185   3.186   2.575   0.145
 9096SOL     OW28186   4.968   2.911   3.280
 9096SOL    HW128187   5.062   2.939   3.260
 9096SOL    HW228188   4.931   2.860   3.202
 9097SOL     OW28189   0.941   5.408   6.510
 9097SOL    HW128190   0.919   5.415   6.607
 9097SOL    HW228191   0.857   5.413   6.456
 9098SOL     OW28192   4.077   3.575   2.756
 9098SOL    HW128193   4.033   3.658   2.790
 9098SOL    HW228194   4.077   3.577   2.656
 9099SOL     OW28195   2.172   3.188   0.730
 9099SOL    HW128196   2.188   3.108   0.786
 9099SOL    HW228197   2.091   3.173   0.673
 9100SOL     OW28198   0.457   2.898   1.186
 9100SOL    HW128199   0.551   2.913   1.219
 9100SOL    HW228200   0.457   2.888   1.087
 9101SOL     OW28201   1.988   2.659   1.108
 9101SOL    HW128202   1.960   2.567   1.134
 9101SOL    HW228203   2.073   2.683   1.156
 9102SOL     OW28204   3.608   5.292   2.274
 9102SOL    HW128205   3.528   5.332   2.228
 9102SOL    HW228206   3.579   5.247   2.358
 9103SOL     OW28207   0.564   4.047   0.500
 9103SOL    HW128208   0.540   4.085   0.411
 9103SOL    HW228209   0.502   3.973   0.523
 9104SOL     OW28210   4.621   6.927   1.515
 9104SOL    HW128211   4.696   6.884   1.465
 9104SOL    HW228212   4.639   7.025   1.527
 9105SOL     OW28213   1.736   1.958   5.430
 9105SOL    HW128214   1.787   1.983   5.512
 9105SOL    HW228215   1.670   2.031   5.409
 9106SOL     OW28216   6.455   5.261   0.821
 9106SOL    HW128217   6.362   5.249   0.787
 9106SOL    HW228218   6.485   5.177   0.867
 9107SOL     OW28219   4.239   0.249   1.572
 9107SOL    HW128220   4.190   0.169   1.607
 9107SOL    HW228221   4.330   0.222   1.542
 9108SOL     OW28222   4.635   5.701   5.762
 9108SOL    HW128223   4.659   5.616   5.810
 9108SOL    HW228224   4.542   5.693   5.726
 9109SOL     OW28225   2.972   1.964   3.818
 9109SOL    HW128226   3.058   1.935   3.860
 9109SOL    HW228227   2.982   2.055   3.779
 9110SOL     OW28228   1.745   3.848   3.708
 9110SOL    HW128229   1.820   3.830   3.644
 9110SOL    HW228230   1.713   3.941   3.696
 9111SOL     OW28231   3.862   4.124   1.801
 9111SOL    HW128232   3.838   4.064   1.877
 9111SOL    HW228233   3.783   4.179   1.775
 9112SOL     OW28234   0.129   4.635   2.175
 9112SOL    HW128235   0.089   4.572   2.108
 9112SOL    HW228236   0.072   4.636   2.257
 9113SOL     OW28237   4.370   6.915   0.752
 9113SOL    HW128238   4.335   6.898   0.660
 9113SOL    HW228239   4.325   6.854   0.817
 9114SOL     OW28240   2.915   4.465   1.537
 9114SOL    HW128241   2.929   4.472   1.635
 9114SOL    HW228242   2.826   4.505   1.513
 9115SOL     OW28243   1.445   4.787   5.188
 9115SOL    HW128244   1.492   4.718   5.133
 9115SOL    HW228245   1.353   4.801   5.151
 9116SOL     OW28246   7.009   1.083   5.815
 9116SOL    HW128247   6.982   1.160   5.757
 9116SOL    HW228248   0.064   1.108   5.868
 9117SOL     OW28249   6.877   2.195   6.971
 9117SOL    HW128250   6.867   2.292   6.995
 9117SOL    HW228251   6.974   2.170   6.974
 9118SOL     OW28252   6.506   6.603   1.809
 9118SOL    HW128253   6.512   6.702   1.799
 9118SOL    HW228254   6.568   6.560   1.743
 9119SOL     OW28255   6.496   0.530   1.659
 9119SOL    HW128256   6.472   0.451   1.716
 9119SOL    HW228257   6.558   0.590   1.708
 9120SOL     OW28258   5.516   1.044   6.032
 9120SOL    HW128259   5.455   0.990   6.090
 9120SOL    HW228260   5.593   1.077   6.086
 9121SOL     OW28261   0.329   1.014   6.615
 9121SOL    HW128262   0.305   1.108   6.639
 9121SOL    HW228263   0.428   1.005   6.609
 9122SOL     OW28264   1.786   2.864   2.983
 9122SOL    HW128265   1.834   2.870   2.895
 9122SOL    HW228266   1.704   2.921   2.980
 9123SOL     OW28267   2.324   5.927   6.700
 9123SOL    HW128268   2.289   6.020   6.703
 9123SOL    HW228269   2.358   5.902   6.791
 9124SOL     OW28270   6.579   5.739   5.211
 9124SOL    HW128271   6.481   5.739   5.232
 9124SOL    HW228272   6.593   5.768   5.116
 9125SOL     OW28273   4.744   4.086   3.587
 9125SOL    HW128274   4.780   4.159   3.530
 9125SOL    HW228275   4.657   4.114   3.628
 9126SOL     OW28276   6.245   0.704   1.628
 9126SOL    HW128277   6.276   0.787   1.581
 9126SOL    HW228278   6.320   0.638   1.632
 9127SOL     OW28279   4.961   0.561   0.076
 9127SOL    HW128280   4.967   0.620   7.022
 9127SOL    HW228281   4.968   0.465   0.048
 9128SOL     OW28282   3.928   2.000   4.901
 9128SOL    HW128283   4.013   1.992   4.954
 9128SOL    HW228284   3.921   1.923   4.838
 9129SOL     OW28285   2.072   1.621   6.662
 9129SOL    HW128286   2.096   1.634   6.566
 9129SOL    HW228287   1.997   1.556   6.669
 9130SOL     OW28288   5.856   4.762   0.676
 9130SOL    HW128289   5.843   4.663   0.671
 9130SOL    HW228290   5.915   4.784   0.754
 9131SOL     OW28291   0.677   4.068   4.262
 9131SOL    HW128292   0.731   4.152   4.269
 9131SOL    HW228293   0.618   4.073   4.182
 9132SOL     OW28294   6.511   3.751   4.393
 9132SOL    HW128295   6.497   3.711   4.302
 9132SOL    HW228296   6.444   3.713   4.457
 9133SOL     OW28297   2.664   4.270   0.889
 9133SOL    HW128298   2.732   4.322   0.837
 9133SOL    HW228299   2.656   4.309   0.981
 9134SOL     OW28300   2.895   6.167   6.332
 9134SOL    HW128301   2.992   6.184   6.350
 9134SOL    HW228302   2.843   6.178   6.417
 9135SOL     OW28303   6.311   5.819   4.022
 9135SOL    HW128304   6.379   5.816   4.096
 9135SOL    HW228305   6.241   5.750   4.039
 9136SOL     OW28306   5.060   5.421   5.696
 9136SOL    HW128307   5.045   5.500   5.755
 9136SOL    HW228308   5.055   5.449   5.601
 9137SOL     OW28309   4.419   1.090   1.724
 9137SOL    HW128310   4.411   1.184   1.692
 9137SOL    HW228311   4.504   1.050   1.690
 9138SOL     OW28312   4.843   5.145   6.285
 9138SOL    HW128313   4.865   5.053   6.251
 9138SOL    HW228314   4.745   5.162   6.274
 9139SOL     OW28315   3.651   1.361   5.222
 9139SOL    HW128316   3.684   1.454   5.204
 9139SOL    HW228317   3.621   1.354   5.317
 9140SOL     OW28318   6.722   2.539   2.379
 9140SOL    HW128319   6.672   2.612   2.334
 9140SOL    HW228320   6.676   2.514   2.464
 9141SOL     OW28321   5.420   0.088   5.541
 9141SOL    HW128322   5.342   0.094   5.602
 9141SOL    HW228323   5.487   0.159   5.566
 9142SOL     OW28324   0.488   2.905   6.003
 9142SOL    HW128325   0.485   2.924   5.904
 9142SOL    HW228326   0.525   2.814   6.018
 9143SOL     OW28327   4.672   3.396   0.317
 9143SOL    HW128328   4.653   3.312   0.368
 9143SOL    HW228329   4.623   3.394   0.230
 9144SOL     OW28330   2.556   5.604   5.597
 9144SOL    HW128331   2.545   5.514   5.554
 9144SOL    HW228332   2.640   5.605   5.651
 9145SOL     OW28333   0.318   4.569   0.162
 9145SOL    HW128334   0.325   4.538   0.257
 9145SOL    HW228335   0.316   4.489   0.101
 9146SOL     OW28336   6.170   2.834   1.193
 9146SOL    HW128337   6.076   2.852   1.220
 9146SOL    HW228338   6.182   2.855   1.096
 9147SOL     OW28339   4.543   5.617   4.204
 9147SOL    HW128340   4.462   5.674   4.215
 9147SOL    HW228341   4.516   5.522   4.192
 9148SOL     OW28342   5.111   5.412   3.295
 9148SOL    HW128343   5.124   5.498   3.344
 9148SOL    HW228344   5.200   5.368   3.281
 9149SOL     OW28345   4.663   2.703   4.593
 9149SOL    HW128346   4.618   2.716   4.681
 9149SOL    HW228347   4.632   2.618   4.551
 9150SOL     OW28348   4.825   0.240   3.321
 9150SOL    HW128349   4.865   0.249   3.412
 9150SOL    HW228350   4.892   0.200   3.258
 9151SOL     OW28351   1.498   4.117   2.235
 9151SOL    HW128352   1.419   4.117   2.174
 9151SOL    HW228353   1.557   4.195   2.213
 9152SOL     OW28354   2.514   6.237   3.384
 9152SOL    HW128355   2.512   6.147   3.427
 9152SOL    HW228356   2.557   6.302   3.447
 9153SOL     OW28357   1.887   2.800   6.428
 9153SOL    HW128358   1.815   2.837   6.487
 9153SOL    HW228359   1.889   2.701   6.436
 9154SOL     OW28360   2.631   5.902   6.545
 9154SOL    HW128361   2.539   5.920   6.580
 9154SOL    HW228362   2.626   5.841   6.466
 9155SOL     OW28363   2.012   4.109   6.320
 9155SOL    HW128364   2.000   4.010   6.312
 9155SOL    HW228365   1.922   4.153   6.313
 9156SOL     OW28366   4.091   2.079   1.300
 9156SOL    HW128367   4.146   2.065   1.382
 9156SOL    HW228368   4.151   2.102   1.223
 9157SOL     OW28369   5.514   3.735   5.406
 9157SOL    HW128370   5.602   3.690   5.388
 9157SOL    HW228371   5.520   3.831   5.377
 9158SOL     OW28372   0.473   3.414   4.401
 9158SOL    HW128373   0.535   3.488   4.427
 9158SOL    HW228374   0.379   3.447   4.402
 9159SOL     OW28375   6.751   5.272   2.089
 9159SOL    HW128376   6.720   5.319   2.171
 9159SOL    HW228377   6.679   5.274   2.020
 9160SOL     OW28378   0.909   6.727   6.274
 9160SOL    HW128379   0.982   6.729   6.342
 9160SOL    HW228380   0.821   6.741   6.319
 9161SOL     OW28381   4.847   3.260   5.094
 9161SOL    HW128382   4.830   3.178   5.039
 9161SOL    HW228383   4.827   3.341   5.039
 9162SOL     OW28384   4.864   2.874   2.544
 9162SOL    HW128385   4.962   2.859   2.531
 9162SOL    HW228386   4.829   2.934   2.471
 9163SOL     OW28387   3.016   2.225   3.915
 9163SOL    HW128388   3.108   2.262   3.927
 9163SOL    HW228389   2.972   2.215   4.005
 9164SOL     OW28390   2.600   0.703   6.727
 9164SOL    HW128391   2.675   0.659   6.677
 9164SOL    HW228392   2.529   0.732   6.662
 9165SOL     OW28393   5.613   0.754   6.552
 9165SOL    HW128394   5.622   0.670   6.606
 9165SOL    HW228395   5.552   0.737   6.474
 9166SOL     OW28396   3.683   5.322   0.932
 9166SOL    HW128397   3.667   5.226   0.907
 9166SOL    HW228398   3.631   5.382   0.872
 9167SOL     OW28399   1.690   3.653   5.859
 9167SOL    HW128400   1.597   3.688   5.856
 9167SOL    HW228401   1.695   3.575   5.921
 9168SOL     OW28402   1.941   0.046   5.793
 9168SOL    HW128403   2.028   0.069   5.836
 9168SOL    HW228404   1.874   0.119   5.812
 9169SOL     OW28405   0.482   1.057   4.618
 9169SOL    HW128406   0.480   1.156   4.606
 9169SOL    HW228407   0.577   1.026   4.622
 9170SOL     OW28408   6.882   5.468   0.636
 9170SOL    HW128409   6.841   5.397   0.694
 9170SOL    HW228410   6.939   5.425   0.565
 9171SOL     OW28411   2.871   5.919   6.828
 9171SOL    HW128412   2.906   5.922   6.735
 9171SOL    HW228413   2.939   5.955   6.891
 9172SOL     OW28414   3.379   1.100   4.280
 9172SOL    HW128415   3.378   1.187   4.329
 9172SOL    HW228416   3.434   1.034   4.330
 9173SOL     OW28417   6.278   5.140   5.074
 9173SOL    HW128418   6.232   5.069   5.020
 9173SOL    HW228419   6.332   5.198   5.013
 9174SOL     OW28420   6.867   4.640   6.976
 9174SOL    HW128421   6.946   4.692   6.945
 9174SOL    HW228422   6.884   4.542   6.965
 9175SOL     OW28423   2.113   5.897   5.889
 9175SOL    HW128424   2.026   5.904   5.840
 9175SOL    HW228425   2.153   5.988   5.899
 9176SOL     OW28426   2.108   0.748   5.553
 9176SOL    HW128427   2.198   0.783   5.525
 9176SOL    HW228428   2.046   0.824   5.571
 9177SOL     OW28429   1.402   4.188   4.181
 9177SOL    HW128430   1.417   4.239   4.096
 9177SOL    HW228431   1.319   4.133   4.173
 9178SOL     OW28432   2.245   5.488   0.968
 9178SOL    HW128433   2.223   5.522   0.876
 9178SOL    HW228434   2.292   5.400   0.960
 9179SOL     OW28435   2.830   5.540   4.141
 9179SOL    HW128436   2.778   5.456   4.126
 9179SOL    HW228437   2.859   5.545   4.236
 9180SOL     OW28438   6.062   2.108   3.878
 9180SOL    HW128439   6.158   2.125   3.856
 9180SOL    HW228440   6.008   2.187   3.852
 9181SOL     OW28441   4.313   1.715   2.437
 9181SOL    HW128442   4.394   1.768   2.415
 9181SOL    HW228443   4.339   1.631   2.484
 9182SOL     OW28444   1.230   6.080   2.411
 9182SOL    HW128445   1.273   6.028   2.485
 9182SOL    HW228446   1.253   6.039   2.323
 9183SOL     OW28447   5.012   6.214   1.185
 9183SOL    HW128448   5.061   6.231   1.271
 9183SOL    HW228449   5.075   6.175   1.118
 9184SOL     OW28450   5.107   6.993   0.696
 9184SOL    HW128451   5.169   0.034   0.656
 9184SOL    HW228452   5.014   7.010   0.664
 9185SOL     OW28453   3.512   1.073   5.286
 9185SOL    HW128454   3.414   1.055   5.291
 9185SOL    HW228455   3.543   1.064   5.192
 9186SOL     OW28456   6.191   0.781   5.037
 9186SOL    HW128457   6.246   0.841   4.979
 9186SOL    HW228458   6.164   0.831   5.120
 9187SOL     OW28459   1.962   6.272   2.431
 9187SOL    HW128460   1.892   6.316   2.487
 9187SOL    HW228461   1.921   6.196   2.381
 9188SOL     OW28462   2.957   6.451   0.946
 9188SOL    HW128463   2.881   6.484   0.890
 9188SOL    HW228464   2.952   6.492   1.037
 9189SOL     OW28465   5.390   5.355   2.740
 9189SOL    HW128466   5.426   5.443   2.768
 9189SOL    HW228467   5.301   5.367   2.696
 9190SOL     OW28468   2.011   5.660   0.494
 9190SOL    HW128469   2.108   5.640   0.482
 9190SOL    HW228470   1.996   5.759   0.489
 9191SOL     OW28471   6.425   0.308   5.715
 9191SOL    HW128472   6.509   0.307   5.769
 9191SOL    HW228473   6.348   0.280   5.772
 9192SOL     OW28474   0.611   4.052   4.724
 9192SOL    HW128475   0.633   3.969   4.775
 9192SOL    HW228476   0.557   4.113   4.781
 9193SOL     OW28477   3.435   3.190   6.899
 9193SOL    HW128478   3.510   3.251   6.874
 9193SOL    HW228479   3.438   3.107   6.844
 9194SOL     OW28480   3.230   0.698   3.770
 9194SOL    HW128481   3.264   0.710   3.677
 9194SOL    HW228482   3.145   0.750   3.782
 9195SOL     OW28483   2.288   2.385   4.547
 9195SOL    HW128484   2.300   2.481   4.573
 9195SOL    HW228485   2.377   2.345   4.529
 9196SOL     OW28486   4.463   1.417   5.129
 9196SOL    HW128487   4.460   1.317   5.124
 9196SOL    HW228488   4.382   1.451   5.178
 9197SOL     OW28489   2.356   3.583   1.339
 9197SOL    HW128490   2.435   3.624   1.385
 9197SOL    HW228491   2.353   3.485   1.359
 9198SOL     OW28492   6.516   5.503   5.462
 9198SOL    HW128493   6.478   5.443   5.392
 9198SOL    HW228494   6.451   5.512   5.537
 9199SOL     OW28495   0.215   3.888   5.799
 9199SOL    HW128496   0.123   3.853   5.812
 9199SOL    HW228497   0.281   3.823   5.837
 9200SOL     OW28498   2.900   0.695   1.175
 9200SOL    HW128499   2.862   0.603   1.168
 9200SOL    HW228500   2.837   0.761   1.133
 9201SOL     OW28501   1.569   3.504   6.847
 9201SOL    HW128502   1.647   3.447   6.872
 9201SOL    HW228503   1.500   3.449   6.800
 9202SOL     OW28504   1.740   6.744   3.360
 9202SOL    HW128505   1.672   6.770   3.429
 9202SOL    HW228506   1.710   6.662   3.312
 9203SOL     OW28507   6.850   5.167   0.718
 9203SOL    HW128508   6.944   5.156   0.751
 9203SOL    HW228509   6.786   5.131   0.786
 9204SOL     OW28510   5.029   1.266   6.068
 9204SOL    HW128511   5.024   1.242   6.165
 9204SOL    HW228512   5.042   1.365   6.059
 9205SOL     OW28513   6.860   3.672   2.806
 9205SOL    HW128514   6.837   3.606   2.877
 9205SOL    HW228515   6.889   3.758   2.848
 9206SOL     OW28516   4.021   5.892   0.347
 9206SOL    HW128517   4.011   5.890   0.248
 9206SOL    HW228518   3.939   5.932   0.388
 9207SOL     OW28519   4.809   5.718   0.367
 9207SOL    HW128520   4.805   5.790   0.436
 9207SOL    HW228521   4.875   5.648   0.396
 9208SOL     OW28522   6.901   4.012   4.762
 9208SOL    HW128523   6.837   3.983   4.834
 9208SOL    HW228524   6.862   3.990   4.672
 9209SOL     OW28525   3.034   1.437   6.435
 9209SOL    HW128526   3.106   1.441   6.504
 9209SOL    HW228527   3.018   1.528   6.398
 9210SOL     OW28528   6.704   1.277   2.759
 9210SOL    HW128529   6.673   1.220   2.836
 9210SOL    HW228530   6.624   1.319   2.715
 9211SOL     OW28531   0.168   2.300   3.777
 9211SOL    HW128532   0.242   2.360   3.747
 9211SOL    HW228533   0.180   2.277   3.873
 9212SOL     OW28534   2.978   5.363   4.782
 9212SOL    HW128535   3.076   5.363   4.766
 9212SOL    HW228536   2.949   5.453   4.814
 9213SOL     OW28537   5.696   3.665   5.861
 9213SOL    HW128538   5.788   3.700   5.880
 9213SOL    HW228539   5.686   3.573   5.899
 9214SOL     OW28540   0.280   5.526   0.419
 9214SOL    HW128541   0.303   5.457   0.351
 9214SOL    HW228542   0.318   5.614   0.391
 9215SOL     OW28543   1.274   0.577   0.175
 9215SOL    HW128544   1.247   0.492   0.221
 9215SOL    HW228545   1.201   0.645   0.186
 9216SOL     OW28546   2.615   0.121   2.627
 9216SOL    HW128547   2.590   0.218   2.627
 9216SOL    HW228548   2.631   0.091   2.533
 9217SOL     OW28549   0.238   2.018   6.504
 9217SOL    HW128550   0.332   1.988   6.517
 9217SOL    HW228551   0.235   2.118   6.495
 9218SOL     OW28552   3.297   0.088   0.820
 9218SOL    HW128553   3.375   0.030   0.797
 9218SOL    HW228554   3.240   0.041   0.888
 9219SOL     OW28555   1.305   2.504   1.055
 9219SOL    HW128556   1.334   2.596   1.027
 9219SOL    HW228557   1.206   2.503   1.067
 9220SOL     OW28558   3.370   6.429   1.237
 9220SOL    HW128559   3.427   6.364   1.287
 9220SOL    HW228560   3.277   6.393   1.228
 9221SOL     OW28561   3.284   6.357   3.592
 9221SOL    HW128562   3.240   6.424   3.652
 9221SOL    HW228563   3.357   6.310   3.642
 9222SOL     OW28564   2.302   1.114   6.652
 9222SOL    HW128565   2.238   1.036   6.654
 9222SOL    HW228566   2.259   1.191   6.605
 9223SOL     OW28567   1.856   3.126   5.504
 9223SOL    HW128568   1.861   3.072   5.588
 9223SOL    HW228569   1.949   3.144   5.470
 9224SOL     OW28570   1.970   5.230   4.456
 9224SOL    HW128571   1.975   5.209   4.554
 9224SOL    HW228572   2.040   5.177   4.407
 9225SOL     OW28573   3.397   6.225   6.734
 9225SOL    HW128574   3.383   6.161   6.810
 9225SOL    HW228575   3.310   6.264   6.706
 9226SOL     OW28576   5.195   6.260   1.373
 9226SOL    HW128577   5.183   6.267   1.472
 9226SOL    HW228578   5.271   6.199   1.352
 9227SOL     OW28579   1.126   5.241   2.470
 9227SOL    HW128580   1.118   5.341   2.468
 9227SOL    HW228581   1.083   5.206   2.553
 9228SOL     OW28582   1.459   1.161   5.999
 9228SOL    HW128583   1.517   1.093   6.043
 9228SOL    HW228584   1.511   1.244   5.983
 9229SOL     OW28585   1.488   5.817   3.960
 9229SOL    HW128586   1.588   5.818   3.969
 9229SOL    HW228587   1.463   5.832   3.864
 9230SOL     OW28588   5.148   0.426   3.851
 9230SOL    HW128589   5.174   0.493   3.921
 9230SOL    HW228590   5.221   0.359   3.839
 9231SOL     OW28591   1.349   2.471   4.508
 9231SOL    HW128592   1.306   2.418   4.582
 9231SOL    HW228593   1.448   2.467   4.518
 9232SOL     OW28594   3.246   5.376   0.524
 9232SOL    HW128595   3.204   5.357   0.436
 9232SOL    HW228596   3.343   5.349   0.522
 9233SOL     OW28597   5.694   4.875   1.256
 9233SOL    HW128598   5.621   4.927   1.213
 9233SOL    HW228599   5.771   4.867   1.193
 9234SOL     OW28600   3.026   5.449   3.775
 9234SOL    HW128601   2.992   5.356   3.761
 9234SOL    HW228602   3.103   5.447   3.838
 9235SOL     OW28603   1.281   2.113   3.027
 9235SOL    HW128604   1.241   2.170   2.955
 9235SOL    HW228605   1.226   2.120   3.110
 9236SOL     OW28606   3.315   3.615   5.320
 9236SOL    HW128607   3.289   3.681   5.390
 9236SOL    HW228608   3.250   3.540   5.319
 9237SOL     OW28609   1.373   3.890   4.341
 9237SOL    HW128610   1.396   3.917   4.247
 9237SOL    HW228611   1.279   3.917   4.361
 9238SOL     OW28612   4.887   2.868   6.915
 9238SOL    HW128613   4.930   2.837   7.000
 9238SOL    HW228614   4.808   2.810   6.894
 9239SOL     OW28615   0.595   3.783   1.099
 9239SOL    HW128616   0.611   3.837   1.017
 9239SOL    HW228617   0.667   3.714   1.109
 9240SOL     OW28618   5.267   1.553   1.642
 9240SOL    HW128619   5.316   1.629   1.599
 9240SOL    HW228620   5.180   1.539   1.594
 9241SOL     OW28621   6.776   5.275   6.852
 9241SOL    HW128622   6.731   5.192   6.886
 9241SOL    HW228623   6.712   5.351   6.856
 9242SOL     OW28624   6.978   6.009   1.757
 9242SOL    HW128625   6.967   6.059   1.843
 9242SOL    HW228626   6.891   6.008   1.708
 9243SOL     OW28627   6.852   6.227   4.493
 9243SOL    HW128628   6.950   6.205   4.494
 9243SOL    HW228629   6.834   6.301   4.558
 9244SOL     OW28630   4.462   5.394   6.614
 9244SOL    HW128631   4.371   5.357   6.599
 9244SOL    HW228632   4.503   5.353   6.695
 9245SOL     OW28633   0.608   5.650   2.335
 9245SOL    HW128634   0.523   5.692   2.306
 9245SOL    HW228635   0.640   5.587   2.263
 9246SOL     OW28636   6.617   5.347   3.713
 9246SOL    HW128637   6.541   5.321   3.653
 9246SOL    HW228638   6.580   5.396   3.793
 9247SOL     OW28639   0.618   6.737   2.843
 9247SOL    HW128640   0.562   6.786   2.909
 9247SOL    HW228641   0.568   6.728   2.757
 9248SOL     OW28642   2.684   2.453   6.037
 9248SOL    HW128643   2.720   2.447   6.131
 9248SOL    HW228644   2.732   2.388   5.979
 9249SOL     OW28645   5.332   1.296   4.059
 9249SOL    HW128646   5.334   1.359   4.137
 9249SOL    HW228647   5.246   1.245   4.060
 9250SOL     OW28648   4.776   4.035   3.891
 9250SOL    HW128649   4.800   4.023   3.794
 9250SOL    HW228650   4.829   4.111   3.929
 9251SOL     OW28651   3.539   1.605   2.910
 9251SOL    HW128652   3.586   1.683   2.869
 9251SOL    HW228653   3.514   1.627   3.005
 9252SOL     OW28654   6.998   6.788   5.102
 9252SOL    HW128655   0.060   6.793   5.056
 9252SOL    HW228656   6.999   6.714   5.170
 9253SOL     OW28657   2.296   7.006   5.597
 9253SOL    HW128658   2.299   0.037   5.679
 9253SOL    HW228659   2.260   6.916   5.621
 9254SOL     OW28660   5.626   3.693   1.579
 9254SOL    HW128661   5.654   3.600   1.604
 9254SOL    HW228662   5.540   3.715   1.626
 9255SOL     OW28663   5.292   3.757   0.656
 9255SOL    HW128664   5.235   3.823   0.706
 9255SOL    HW228665   5.261   3.664   0.676
 9256SOL     OW28666   4.266   4.720   2.081
 9256SOL    HW128667   4.177   4.755   2.108
 9256SOL    HW228668   4.296   4.651   2.146
 9257SOL     OW28669   0.939   3.878   2.157
 9257SOL    HW128670   0.924   3.876   2.256
 9257SOL    HW228671   0.852   3.893   2.110
 9258SOL     OW28672   3.444   2.863   4.076
 9258SOL    HW128673   3.444   2.875   3.976
 9258SOL    HW228674   3.504   2.786   4.100
 9259SOL     OW28675   0.993   2.021   1.551
 9259SOL    HW128676   1.031   2.085   1.484
 9259SOL    HW228677   1.067   1.973   1.598
 9260SOL     OW28678   4.885   3.038   6.476
 9260SOL    HW128679   4.911   3.008   6.568
 9260SOL    HW228680   4.967   3.038   6.418
 9261SOL     OW28681   3.697   0.328   6.794
 9261SOL    HW128682   3.722   0.402   6.730
 9261SOL    HW228683   3.771   0.315   6.859
 9262SOL     OW28684   5.539   1.367   4.883
 9262SOL    HW128685   5.481   1.292   4.853
 9262SOL    HW228686   5.492   1.454   4.865
 9263SOL     OW28687   5.303   3.764   1.187
 9263SOL    HW128688   5.362   3.764   1.267
 9263SOL    HW228689   5.244   3.683   1.188
 9264SOL     OW28690   6.354   3.632   6.689
 9264SOL    HW128691   6.363   3.590   6.779
 9264SOL    HW228692   6.258   3.630   6.660
 9265SOL     OW28693   2.566   2.012   0.412
 9265SOL    HW128694   2.592   1.971   0.324
 9265SOL    HW228695   2.645   2.009   0.474
 9266SOL     OW28696   2.668   6.204   2.688
 9266SOL    HW128697   2.609   6.188   2.609
 9266SOL    HW228698   2.762   6.183   2.664
 9267SOL     OW28699   0.672   4.284   4.544
 9267SOL    HW128700   0.672   4.194   4.587
 9267SOL    HW228701   0.748   4.291   4.480
 9268SOL     OW28702   0.446   6.654   2.644
 9268SOL    HW128703   0.434   6.652   2.545
 9268SOL    HW228704   0.356   6.658   2.688
 9269SOL     OW28705   2.889   2.043   0.027
 9269SOL    HW128706   2.923   1.984   6.980
 9269SOL    HW228707   2.942   2.026   0.110
 9270SOL     OW28708   6.691   6.592   5.637
 9270SOL    HW128709   6.759   6.587   5.711
 9270SOL    HW228710   6.621   6.659   5.661
 9271SOL     OW28711   1.548   6.652   0.625
 9271SOL    HW128712   1.531   6.750   0.631
 9271SOL    HW228713   1.461   6.603   0.620
 9272SOL     OW28714   2.929   4.119   6.642
 9272SOL    HW128715   3.017   4.159   6.666
 9272SOL    HW228716   2.856   4.172   6.686
 9273SOL     OW28717   4.428   5.374   4.178
 9273SOL    HW128718   4.372   5.426   4.242
 9273SOL    HW228719   4.450   5.285   4.219
 9274SOL     OW28720   5.438   2.187   6.416
 9274SOL    HW128721   5.348   2.192   6.457
 9274SOL    HW228722   5.503   2.148   6.481
 9275SOL     OW28723   0.535   0.734   6.477
 9275SOL    HW128724   0.440   0.714   6.451
 9275SOL    HW228725   0.596   0.670   6.431
 9276SOL     OW28726   3.629   5.665   4.666
 9276SOL    HW128727   3.622   5.606   4.585
 9276SOL    HW228728   3.616   5.760   4.640
 9277SOL     OW28729   3.634   3.371   6.918
 9277SOL    HW128730   3.731   3.396   6.909
 9277SOL    HW228731   3.580   3.454   6.935
 9278SOL     OW28732   1.325   1.987   3.708
 9278SOL    HW128733   1.369   1.989   3.618
 9278SOL    HW228734   1.383   2.034   3.775
 9279SOL     OW28735   3.424   0.681   2.148
 9279SOL    HW128736   3.519   0.697   2.119
 9279SOL    HW228737   3.409   0.583   2.161
 9280SOL     OW28738   1.645   6.932   3.712
 9280SOL    HW128739   1.648   6.846   3.662
 9280SOL    HW228740   1.648   6.914   3.810
 9281SOL     OW28741   1.870   2.847   0.913
 9281SOL    HW128742   1.861   2.931   0.967
 9281SOL    HW228743   1.901   2.773   0.973
 9282SOL     OW28744   4.383   1.467   3.980
 9282SOL    HW128745   4.414   1.545   4.034
 9282SOL    HW228746   4.426   1.384   4.014
 9283SOL     OW28747   6.276   2.438   2.691
 9283SOL    HW128748   6.217   2.400   2.620
 9283SOL    HW228749   6.324   2.518   2.655
 9284SOL     OW28750   3.844   3.758   1.129
 9284SOL    HW128751   3.898   3.813   1.065
 9284SOL    HW228752   3.880   3.664   1.131
 9285SOL     OW28753   6.499   2.736   6.929
 9285SOL    HW128754   6.522   2.729   7.026
 9285SOL    HW228755   6.481   2.644   6.892
 9286SOL     OW28756   5.638   6.996   5.201
 9286SOL    HW128757   5.641   6.971   5.298
 9286SOL    HW228758   5.651   0.069   5.192
 9287SOL     OW28759   2.713   5.833   1.427
 9287SOL    HW128760   2.798   5.784   1.444
 9287SOL    HW228761   2.730   5.932   1.432
 9288SOL     OW28762   4.025   2.130   6.047
 9288SOL    HW128763   3.961   2.072   5.996
 9288SOL    HW228764   4.119   2.107   6.021
 9289SOL     OW28765   5.149   2.279   2.425
 9289SOL    HW128766   5.064   2.232   2.403
 9289SOL    HW228767   5.162   2.356   2.363
 9290SOL     OW28768   4.231   1.919   4.906
 9290SOL    HW128769   4.202   1.944   4.999
 9290SOL    HW228770   4.264   2.001   4.858
 9291SOL     OW28771   1.537   0.376   5.107
 9291SOL    HW128772   1.506   0.286   5.138
 9291SOL    HW228773   1.523   0.384   5.008
 9292SOL     OW28774   0.021   3.355   6.152
 9292SOL    HW128775   0.064   3.385   6.237
 9292SOL    HW228776   0.090   3.311   6.094
 9293SOL     OW28777   5.180   4.544   0.153
 9293SOL    HW128778   5.225   4.611   0.093
 9293SOL    HW228779   5.207   4.561   0.248
 9294SOL     OW28780   5.139   5.902   0.346
 9294SOL    HW128781   5.168   5.901   0.250
 9294SOL    HW228782   5.152   5.993   0.384
 9295SOL     OW28783   4.295   1.405   2.966
 9295SOL    HW128784   4.298   1.378   3.062
 9295SOL    HW228785   4.279   1.324   2.909
 9296SOL     OW28786   6.401   6.260   5.850
 9296SOL    HW128787   6.349   6.189   5.898
 9296SOL    HW228788   6.341   6.338   5.831
 9297SOL     OW28789   0.387   0.806   1.674
 9297SOL    HW128790   0.351   0.714   1.690
 9297SOL    HW228791   0.464   0.822   1.736
 9298SOL     OW28792   1.728   6.122   5.603
 9298SOL    HW128793   1.767   6.058   5.670
 9298SOL    HW228794   1.682   6.196   5.652
 9299SOL     OW28795   1.474   3.492   3.843
 9299SOL    HW128796   1.426   3.452   3.920
 9299SOL    HW228797   1.521   3.420   3.792
 9300SOL     OW28798   6.092   4.677   5.229
 9300SOL    HW128799   6.132   4.736   5.159
 9300SOL    HW228800   6.036   4.732   5.291
 9301SOL     OW28801   5.118   4.378   2.762
 9301SOL    HW128802   5.038   4.429   2.791
 9301SOL    HW228803   5.097   4.325   2.681
 9302SOL     OW28804   2.457   2.291   3.269
 9302SOL    HW128805   2.372   2.239   3.275
 9302SOL    HW228806   2.437   2.386   3.245
 9303SOL     OW28807   3.919   6.162   0.228
 9303SOL    HW128808   3.901   6.256   0.259
 9303SOL    HW228809   4.015   6.153   0.204
 9304SOL     OW28810   3.225   3.967   0.781
 9304SOL    HW128811   3.269   3.893   0.729
 9304SOL    HW228812   3.293   4.015   0.836
 9305SOL     OW28813   5.747   2.584   2.277
 9305SOL    HW128814   5.657   2.588   2.234
 9305SOL    HW228815   5.747   2.514   2.349
 9306SOL     OW28816   0.277   4.998   3.763
 9306SOL    HW128817   0.364   4.999   3.715
 9306SOL    HW228818   0.292   5.008   3.862
 9307SOL     OW28819   1.346   2.212   0.719
 9307SOL    HW128820   1.351   2.220   0.818
 9307SOL    HW228821   1.264   2.161   0.693
 9308SOL     OW28822   0.584   3.206   1.033
 9308SOL    HW128823   0.514   3.252   0.979
 9308SOL    HW228824   0.572   3.229   1.130
 9309SOL     OW28825   4.420   3.823   5.797
 9309SOL    HW128826   4.396   3.915   5.827
 9309SOL    HW228827   4.446   3.767   5.876
 9310SOL     OW28828   4.053   6.305   6.146
 9310SOL    HW128829   3.981   6.273   6.207
 9310SOL    HW228830   4.089   6.392   6.180
 9311SOL     OW28831   5.412   4.037   0.624
 9311SOL    HW128832   5.441   3.944   0.605
 9311SOL    HW228833   5.436   4.061   0.718
 9312SOL     OW28834   1.233   4.118   6.568
 9312SOL    HW128835   1.325   4.095   6.598
 9312SOL    HW228836   1.238   4.184   6.492
 9313SOL     OW28837   6.919   0.236   2.650
 9313SOL    HW128838   6.906   0.140   2.626
 9313SOL    HW228839   6.967   0.242   2.738
 9314SOL     OW28840   4.453   5.718   7.026
 9314SOL    HW128841   4.510   5.764   6.957
 9314SOL    HW228842   4.510   5.652   0.050
 9315SOL     OW28843   0.349   0.641   5.731
 9315SOL    HW128844   0.407   0.560   5.730
 9315SOL    HW228845   0.264   0.622   5.682
 9316SOL     OW28846   3.681   5.722   3.789
 9316SOL    HW128847   3.741   5.648   3.819
 9316SOL    HW228848   3.701   5.805   3.841
 9317SOL     OW28849   6.138   5.138   3.113
 9317SOL    HW128850   6.113   5.066   3.049
 9317SOL    HW228851   6.094   5.224   3.085
 9318SOL     OW28852   0.067   0.408   6.737
 9318SOL    HW128853   0.115   0.419   6.824
 9318SOL    HW228854   7.011   0.465   6.737
 9319SOL     OW28855   0.979   3.157   0.016
 9319SOL    HW128856   0.916   3.234   0.011
 9319SOL    HW228857   1.071   3.189   7.018
 9320SOL     OW28858   4.349   2.405   6.220
 9320SOL    HW128859   4.269   2.387   6.278
 9320SOL    HW228860   4.320   2.407   6.124
 9321SOL     OW28861   6.435   6.339   3.011
 9321SOL    HW128862   6.358   6.393   3.045
 9321SOL    HW228863   6.405   6.287   2.931
 9322SOL     OW28864   0.665   6.103   5.537
 9322SOL    HW128865   0.595   6.139   5.599
 9322SOL    HW228866   0.746   6.161   5.541
 9323SOL     OW28867   0.387   1.408   6.708
 9323SOL    HW128868   0.457   1.347   6.670
 9323SOL    HW228869   0.299   1.390   6.662
 9324SOL     OW28870   0.991   5.487   0.462
 9324SOL    HW128871   1.014   5.494   0.365
 9324SOL    HW228872   1.061   5.433   0.509
 9325SOL     OW28873   5.593   1.745   1.133
 9325SOL    HW128874   5.680   1.732   1.180
 9325SOL    HW228875   5.608   1.745   1.034
 9326SOL     OW28876   1.982   0.055   1.247
 9326SOL    HW128877   1.961   0.021   1.155
 9326SOL    HW228878   1.901   0.099   1.285
 9327SOL     OW28879   4.618   0.092   2.830
 9327SOL    HW128880   4.709   0.098   2.789
 9327SOL    HW228881   4.550   0.078   2.758
 9328SOL     OW28882   3.336   1.535   0.359
 9328SOL    HW128883   3.293   1.452   0.325
 9328SOL    HW228884   3.428   1.514   0.393
 9329SOL     OW28885   0.169   3.707   2.916
 9329SOL    HW128886   0.238   3.774   2.888
 9329SOL    HW228887   0.122   3.740   2.997
 9330SOL     OW28888   6.218   6.903   0.560
 9330SOL    HW128889   6.283   6.866   0.494
 9330SOL    HW228890   6.144   6.950   0.511
 9331SOL     OW28891   0.376   0.650   0.086
 9331SOL    HW128892   0.421   0.647   7.023
 9331SOL    HW228893   0.442   0.678   0.156
 9332SOL     OW28894   3.134   3.639   4.640
 9332SOL    HW128895   3.157   3.630   4.736
 9332SOL    HW228896   3.037   3.621   4.626
 9333SOL     OW28897   6.226   4.371   1.020
 9333SOL    HW128898   6.186   4.460   1.002
 9333SOL    HW228899   6.316   4.365   0.976
 9334SOL     OW28900   2.696   0.312   3.623
 9334SOL    HW128901   2.673   0.406   3.598
 9334SOL    HW228902   2.633   0.249   3.578
 9335SOL     OW28903   1.919   1.284   6.472
 9335SOL    HW128904   1.924   1.355   6.402
 9335SOL    HW228905   1.825   1.273   6.502
 9336SOL     OW28906   2.967   6.490   6.035
 9336SOL    HW128907   2.912   6.476   5.953
 9336SOL    HW228908   2.976   6.589   6.051
 9337SOL     OW28909   5.462   0.463   2.170
 9337SOL    HW128910   5.488   0.553   2.204
 9337SOL    HW228911   5.448   0.402   2.248
 9338SOL     OW28912   3.427   0.541   2.944
 9338SOL    HW128913   3.423   0.449   2.903
 9338SOL    HW228914   3.520   0.576   2.938
 9339SOL     OW28915   4.853   6.234   1.602
 9339SOL    HW128916   4.860   6.138   1.575
 9339SOL    HW228917   4.761   6.268   1.581
 9340SOL     OW28918   5.860   3.395   6.054
 9340SOL    HW128919   5.847   3.297   6.038
 9340SOL    HW228920   5.923   3.408   6.130
 9341SOL     OW28921   0.605   5.599   6.571
 9341SOL    HW128922   0.597   5.605   6.472
 9341SOL    HW228923   0.620   5.504   6.599
 9342SOL     OW28924   1.370   0.223   5.651
 9342SOL    HW128925   1.341   0.128   5.666
 9342SOL    HW228926   1.312   0.265   5.581
 9343SOL     OW28927   6.123   5.435   5.058
 9343SOL    HW128928   6.078   5.504   5.001
 9343SOL    HW228929   6.222   5.441   5.045
 9344SOL     OW28930   5.484   6.418   1.404
 9344SOL    HW128931   5.516   6.487   1.469
 9344SOL    HW228932   5.384   6.425   1.395
 9345SOL     OW28933   6.989   2.851   0.854
 9345SOL    HW128934   7.001   2.751   0.857
 9345SOL    HW228935   0.014   2.893   0.929
 9346SOL     OW28936   6.460   0.770   1.198
 9346SOL    HW128937   6.527   0.717   1.250
 9346SOL    HW228938   6.373   0.773   1.248
 9347SOL     OW28939   1.687   6.405   1.594
 9347SOL    HW128940   1.634   6.337   1.646
 9347SOL    HW228941   1.731   6.469   1.657
 9348SOL     OW28942   2.847   5.525   0.219
 9348SOL    HW128943   2.926   5.479   0.258
 9348SOL    HW228944   2.866   5.623   0.209
 9349SOL     OW28945   0.833   6.911   2.835
 9349SOL    HW128946   0.754   6.850   2.831
 9349SOL    HW228947   0.855   6.931   2.931
 9350SOL     OW28948   0.538   2.585   5.931
 9350SOL    HW128949   0.550   2.645   5.853
 9350SOL    HW228950   0.517   2.492   5.899
 9351SOL     OW28951   3.878   2.267   7.012
 9351SOL    HW128952   3.938   2.200   0.030
 9351SOL    HW228953   3.866   2.346   0.045
 9352SOL     OW28954   2.772   4.315   6.789
 9352SOL    HW128955   2.683   4.358   6.774
 9352SOL    HW228956   2.840   4.385   6.808
 9353SOL     OW28957   0.294   6.129   1.599
 9353SOL    HW128958   0.269   6.038   1.567
 9353SOL    HW228959   0.220   6.165   1.656
 9354SOL     OW28960   6.047   2.203   0.020
 9354SOL    HW128961   6.130   2.250   0.050
 9354SOL    HW228962   6.056   2.105   0.038
 9355SOL     OW28963   0.687   1.727   5.222
 9355SOL    HW128964   0.697   1.681   5.310
 9355SOL    HW228965   0.773   1.773   5.199
 9356SOL     OW28966   4.706   6.922   2.160
 9356SOL    HW128967   4.606   6.919   2.165
 9356SOL    HW228968   4.744   6.832   2.181
 9357SOL     OW28969   0.688   2.161   0.012
 9357SOL    HW128970   0.751   2.161   6.961
 9357SOL    HW228971   0.683   2.070   0.052
 9358SOL     OW28972   1.525   3.552   2.473
 9358SOL    HW128973   1.444   3.496   2.491
 9358SOL    HW228974   1.502   3.648   2.484
 9359SOL     OW28975   1.923   6.837   6.455
 9359SOL    HW128976   1.876   6.752   6.481
 9359SOL    HW228977   1.922   6.901   6.532
 9360SOL     OW28978   0.545   0.525   5.979
 9360SOL    HW128979   0.550   0.504   5.881
 9360SOL    HW228980   0.561   0.623   5.992
 9361SOL     OW28981   2.220   5.847   4.462
 9361SOL    HW128982   2.187   5.754   4.478
 9361SOL    HW228983   2.177   5.884   4.379
 9362SOL     OW28984   1.967   0.397   2.515
 9362SOL    HW128985   1.979   0.456   2.435
 9362SOL    HW228986   1.909   0.444   2.582
 9363SOL     OW28987   2.907   5.156   2.651
 9363SOL    HW128988   2.915   5.255   2.642
 9363SOL    HW228989   2.957   5.126   2.732
 9364SOL     OW28990   1.203   2.184   1.119
 9364SOL    HW128991   1.176   2.091   1.094
 9364SOL    HW228992   1.168   2.248   1.050
 9365SOL     OW28993   3.336   1.974   4.595
 9365SOL    HW128994   3.293   2.038   4.532
 9365SOL    HW228995   3.401   1.917   4.545
 9366SOL     OW28996   3.657   5.627   0.529
 9366SOL    HW128997   3.736   5.638   0.589
 9366SOL    HW228998   3.670   5.682   0.446
 9367SOL     OW28999   6.355   0.938   1.529
 9367SOL    HW129000   6.380   0.968   1.621
 9367SOL    HW229001   6.324   1.016   1.475
 9368SOL     OW29002   3.512   1.019   2.717
 9368SOL    HW129003   3.523   1.043   2.620
 9368SOL    HW229004   3.482   0.924   2.724
 9369SOL     OW29005   2.056   5.325   6.437
 9369SOL    HW129006   2.004   5.314   6.352
 9369SOL    HW229007   2.087   5.236   6.469
 9370SOL     OW29008   4.429   1.756   3.955
 9370SOL    HW129009   4.462   1.741   3.862
 9370SOL    HW229010   4.413   1.854   3.969
 9371SOL     OW29011   4.401   5.529   1.500
 9371SOL    HW129012   4.361   5.621   1.496
 9371SOL    HW229013   4.329   5.461   1.507
 9372SOL     OW29014   5.091   6.417   1.584
 9372SOL    HW129015   5.017   6.398   1.648
 9372SOL    HW229016   5.053   6.454   1.499
 9373SOL     OW29017   7.008   1.614   0.321
 9373SOL    HW129018   7.000   1.709   0.351
 9373SOL    HW229019   0.055   1.568   0.373
 9374SOL     OW29020   0.743   5.385   5.650
 9374SOL    HW129021   0.726   5.454   5.580
 9374SOL    HW229022   0.814   5.418   5.713
 9375SOL     OW29023   0.135   0.747   0.386
 9375SOL    HW129024   0.147   0.828   0.444
 9375SOL    HW229025   0.099   0.775   0.297
 9376SOL     OW29026   2.356   4.116   1.796
 9376SOL    HW129027   2.273   4.097   1.744
 9376SOL    HW229028   2.435   4.115   1.734
 9377SOL     OW29029   2.271   6.748   3.486
 9377SOL    HW129030   2.359   6.736   3.531
 9377SOL    HW229031   2.277   6.714   3.392
 9378SOL     OW29032   2.687   0.619   3.794
 9378SOL    HW129033   2.653   0.654   3.707
 9378SOL    HW229034   2.780   0.653   3.809
 9379SOL     OW29035   4.027   6.405   5.081
 9379SOL    HW129036   3.946   6.373   5.031
 9379SOL    HW229037   4.041   6.502   5.064
 9380SOL     OW29038   5.159   5.441   0.235
 9380SOL    HW129039   5.133   5.516   0.295
 9380SOL    HW229040   5.099   5.440   0.155
 9381SOL     OW29041   5.171   1.851   4.410
 9381SOL    HW129042   5.123   1.780   4.461
 9381SOL    HW229043   5.182   1.823   4.315
 9382SOL     OW29044   2.929   0.130   4.700
 9382SOL    HW129045   2.927   0.034   4.728
 9382SOL    HW229046   2.951   0.187   4.780
 9383SOL     OW29047   5.300   4.226   3.194
 9383SOL    HW129048   5.217   4.222   3.138
 9383SOL    HW229049   5.340   4.317   3.187
 9384SOL     OW29050   2.332   0.497   2.343
 9384SOL    HW129051   2.253   0.549   2.374
 9384SOL    HW229052   2.315   0.399   2.357
 9385SOL     OW29053   3.901   1.571   2.910
 9385SOL    HW129054   3.832   1.504   2.881
 9385SOL    HW229055   3.966   1.585   2.835
 9386SOL     OW29056   4.604   6.256   6.501
 9386SOL    HW129057   4.649   6.241   6.413
 9386SOL    HW229058   4.627   6.181   6.564
 9387SOL     OW29059   2.692   2.381   0.226
 9387SOL    HW129060   2.760   2.418   0.289
 9387SOL    HW229061   2.654   2.455   0.170
 9388SOL     OW29062   2.389   6.906   4.424
 9388SOL    HW129063   2.358   6.906   4.329
 9388SOL    HW229064   2.464   6.841   4.434
 9389SOL     OW29065   2.634   4.398   1.727
 9389SOL    HW129066   2.569   4.457   1.775
 9389SOL    HW229067   2.727   4.423   1.754
 9390SOL     OW29068   5.307   5.329   4.906
 9390SOL    HW129069   5.248   5.375   4.972
 9390SOL    HW229070   5.250   5.279   4.840
 9391SOL     OW29071   1.403   5.565   4.451
 9391SOL    HW129072   1.488   5.514   4.461
 9391SOL    HW229073   1.326   5.506   4.475
 9392SOL     OW29074   5.592   4.291   2.623
 9392SOL    HW129075   5.683   4.329   2.635
 9392SOL    HW229076   5.524   4.349   2.668
 9393SOL     OW29077   2.708   0.275   6.137
 9393SOL    HW129078   2.665   0.194   6.178
 9393SOL    HW229079   2.644   0.352   6.140
 9394SOL     OW29080   4.128   0.446   0.705
 9394SOL    HW129081   4.041   0.468   0.660
 9394SOL    HW229082   4.120   0.359   0.753
 9395SOL     OW29083   1.664   1.374   1.092
 9395SOL    HW129084   1.623   1.393   1.181
 9395SOL    HW229085   1.735   1.303   1.103
 9396SOL     OW29086   0.631   6.612   6.497
 9396SOL    HW129087   0.696   6.560   6.553
 9396SOL    HW229088   0.545   6.622   6.547
 9397SOL     OW29089   3.702   1.295   5.698
 9397SOL    HW129090   3.671   1.340   5.782
 9397SOL    HW229091   3.801   1.301   5.692
 9398SOL     OW29092   0.481   1.571   6.890
 9398SOL    HW129093   0.580   1.562   6.894
 9398SOL    HW229094   0.446   1.514   6.815
 9399SOL     OW29095   1.827   3.023   4.190
 9399SOL    HW129096   1.840   3.091   4.118
 9399SOL    HW229097   1.911   3.014   4.243
 9400SOL     OW29098   5.848   1.313   0.722
 9400SOL    HW129099   5.920   1.308   0.653
 9400SOL    HW229100   5.773   1.253   0.697
 9401SOL     OW29101   0.173   2.316   3.205
 9401SOL    HW129102   0.236   2.372   3.150
 9401SOL    HW229103   0.225   2.267   3.275
 9402SOL     OW29104   1.563   6.427   4.107
 9402SOL    HW129105   1.513   6.344   4.132
 9402SOL    HW229106   1.607   6.414   4.019
 9403SOL     OW29107   6.194   2.790   2.352
 9403SOL    HW129108   6.144   2.707   2.325
 9403SOL    HW229109   6.226   2.837   2.269
 9404SOL     OW29110   2.025   2.790   0.697
 9404SOL    HW129111   2.119   2.788   0.733
 9404SOL    HW229112   1.965   2.833   0.763
 9405SOL     OW29113   0.419   5.662   5.097
 9405SOL    HW129114   0.350   5.713   5.046
 9405SOL    HW229115   0.446   5.714   5.178
 9406SOL     OW29116   0.145   2.978   0.414
 9406SOL    HW129117   0.186   2.951   0.501
 9406SOL    HW229118   0.185   2.924   0.340
 9407SOL     OW29119   1.108   5.518   5.277
 9407SOL    HW129120   1.063   5.450   5.219
 9407SOL    HW229121   1.207   5.512   5.264
 9408SOL     OW29122   0.354   3.666   4.612
 9408SOL    HW129123   0.434   3.684   4.555
 9408SOL    HW229124   0.376   3.683   4.707
 9409SOL     OW29125   6.670   5.254   2.555
 9409SOL    HW129126   6.751   5.224   2.604
 9409SOL    HW229127   6.591   5.199   2.581
 9410SOL     OW29128   3.650   0.947   0.811
 9410SOL    HW129129   3.556   0.964   0.841
 9410SOL    HW229130   3.699   1.035   0.807
 9411SOL     OW29131   2.897   3.572   3.330
 9411SOL    HW129132   2.839   3.607   3.404
 9411SOL    HW229133   2.993   3.579   3.358
 9412SOL     OW29134   6.211   6.284   0.662
 9412SOL    HW129135   6.172   6.281   0.754
 9412SOL    HW229136   6.265   6.367   0.652
 9413SOL     OW29137   4.790   4.159   2.842
 9413SOL    HW129138   4.802   4.067   2.880
 9413SOL    HW229139   4.811   4.157   2.744
 9414SOL     OW29140   2.000   2.123   3.483
 9414SOL    HW129141   1.940   2.046   3.462
 9414SOL    HW229142   2.009   2.132   3.582
 9415SOL     OW29143   3.947   1.026   2.362
 9415SOL    HW129144   3.930   1.021   2.460
 9415SOL    HW229145   3.865   1.062   2.316
 9416SOL     OW29146   5.535   5.373   5.990
 9416SOL    HW129147   5.451   5.393   6.040
 9416SOL    HW229148   5.512   5.329   5.903
 9417SOL     OW29149   3.462   5.541   2.126
 9417SOL    HW129150   3.532   5.556   2.055
 9417SOL    HW229151   3.401   5.467   2.098
 9418SOL     OW29152   3.260   1.846   5.363
 9418SOL    HW129153   3.337   1.783   5.348
 9418SOL    HW229154   3.247   1.902   5.281
 9419SOL     OW29155   1.888   3.244   6.293
 9419SOL    HW129156   1.790   3.222   6.293
 9419SOL    HW229157   1.940   3.163   6.267
 9420SOL     OW29158   6.865   4.176   6.490
 9420SOL    HW129159   6.844   4.080   6.508
 9420SOL    HW229160   6.959   4.185   6.457
 9421SOL     OW29161   3.751   6.554   6.171
 9421SOL    HW129162   3.709   6.546   6.081
 9421SOL    HW229163   3.842   6.595   6.162
 9422SOL     OW29164   2.193   6.219   5.117
 9422SOL    HW129165   2.132   6.239   5.193
 9422SOL    HW229166   2.223   6.305   5.075
 9423SOL     OW29167   4.909   4.684   3.183
 9423SOL    HW129168   4.926   4.587   3.166
 9423SOL    HW229169   4.982   4.739   3.142
 9424SOL     OW29170   6.002   0.010   4.571
 9424SOL    HW129171   6.065   0.084   4.597
 9424SOL    HW229172   5.952   7.005   4.652
 9425SOL     OW29173   6.820   4.700   1.107
 9425SOL    HW129174   6.845   4.780   1.052
 9425SOL    HW229175   6.876   4.699   1.190
 9426SOL     OW29176   6.926   2.212   6.245
 9426SOL    HW129177   6.954   2.202   6.341
 9426SOL    HW229178   6.985   2.157   6.187
 9427SOL     OW29179   4.979   4.858   2.532
 9427SOL    HW129180   4.933   4.936   2.573
 9427SOL    HW229181   4.950   4.848   2.437
 9428SOL     OW29182   0.260   6.449   5.403
 9428SOL    HW129183   0.358   6.436   5.387
 9428SOL    HW229184   0.239   6.428   5.499
 9429SOL     OW29185   2.553   2.450   4.201
 9429SOL    HW129186   2.575   2.472   4.106
 9429SOL    HW229187   2.470   2.393   4.204
 9430SOL     OW29188   1.294   2.286   4.678
 9430SOL    HW129189   1.378   2.310   4.727
 9430SOL    HW229190   1.317   2.227   4.601
 9431SOL     OW29191   0.890   5.078   5.918
 9431SOL    HW129192   0.950   5.008   5.956
 9431SOL    HW229193   0.942   5.134   5.853
 9432SOL     OW29194   6.828   1.400   3.706
 9432SOL    HW129195   6.911   1.425   3.657
 9432SOL    HW229196   6.813   1.301   3.700
 9433SOL     OW29197   4.750   5.351   2.058
 9433SOL    HW129198   4.708   5.266   2.026
 9433SOL    HW229199   4.844   5.356   2.023
 9434SOL     OW29200   4.762   5.506   4.062
 9434SOL    HW129201   4.783   5.423   4.114
 9434SOL    HW229202   4.683   5.553   4.103
 9435SOL     OW29203   0.483   3.103   1.771
 9435SOL    HW129204   0.509   3.199   1.770
 9435SOL    HW229205   0.384   3.095   1.782
 9436SOL     OW29206   2.226   0.407   2.657
 9436SOL    HW129207   2.168   0.464   2.599
 9436SOL    HW229208   2.215   0.311   2.631
 9437SOL     OW29209   5.392   6.767   4.826
 9437SOL    HW129210   5.458   6.727   4.762
 9437SOL    HW229211   5.432   6.849   4.867
 9438SOL     OW29212   4.793   6.889   2.517
 9438SOL    HW129213   4.730   6.967   2.516
 9438SOL    HW229214   4.787   6.840   2.430
 9439SOL     OW29215   1.702   3.220   0.753
 9439SOL    HW129216   1.718   3.164   0.672
 9439SOL    HW229217   1.728   3.170   0.835
 9440SOL     OW29218   2.301   5.332   3.538
 9440SOL    HW129219   2.219   5.275   3.527
 9440SOL    HW229220   2.381   5.273   3.547
 9441SOL     OW29221   0.518   6.673   4.323
 9441SOL    HW129222   0.572   6.737   4.269
 9441SOL    HW229223   0.575   6.633   4.395
 9442SOL     OW29224   5.249   3.020   0.551
 9442SOL    HW129225   5.202   2.932   0.546
 9442SOL    HW229226   5.342   3.010   0.517
 9443SOL     OW29227   2.195   4.554   2.715
 9443SOL    HW129228   2.271   4.561   2.780
 9443SOL    HW229229   2.167   4.646   2.686
 9444SOL     OW29230   1.027   4.461   5.913
 9444SOL    HW129231   1.078   4.375   5.923
 9444SOL    HW229232   0.931   4.446   5.933
 9445SOL     OW29233   0.835   1.153   4.022
 9445SOL    HW129234   0.831   1.196   3.932
 9445SOL    HW229235   0.776   1.203   4.085
 9446SOL     OW29236   6.382   4.770   3.626
 9446SOL    HW129237   6.317   4.700   3.597
 9446SOL    HW229238   6.405   4.828   3.548
 9447SOL     OW29239   4.848   4.371   1.952
 9447SOL    HW129240   4.815   4.283   1.919
 9447SOL    HW229241   4.938   4.389   1.912
 9448SOL     OW29242   6.105   1.110   5.056
 9448SOL    HW129243   6.089   1.194   5.107
 9448SOL    HW229244   6.033   1.097   4.988
 9449SOL     OW29245   5.194   0.438   1.357
 9449SOL    HW129246   5.177   0.523   1.406
 9449SOL    HW229247   5.133   0.433   1.277
 9450SOL     OW29248   1.004   5.758   3.034
 9450SOL    HW129249   1.050   5.848   3.034
 9450SOL    HW229250   0.919   5.764   2.982
 9451SOL     OW29251   3.186   5.377   6.207
 9451SOL    HW129252   3.151   5.285   6.226
 9451SOL    HW229253   3.196   5.427   6.293
 9452SOL     OW29254   6.216   3.903   6.930
 9452SOL    HW129255   6.204   3.928   0.000
 9452SOL    HW229256   6.206   3.804   6.920
 9453SOL     OW29257   5.381   5.061   1.700
 9453SOL    HW129258   5.358   4.965   1.684
 9453SOL    HW229259   5.369   5.113   1.616
 9454SOL     OW29260   5.858   4.297   0.257
 9454SOL    HW129261   5.891   4.269   0.167
 9454SOL    HW229262   5.784   4.364   0.247
 9455SOL     OW29263   3.758   1.365   1.780
 9455SOL    HW129264   3.856   1.380   1.793
 9455SOL    HW229265   3.734   1.381   1.684
 9456SOL     OW29266   0.539   3.125   2.275
 9456SOL    HW129267   0.439   3.136   2.275
 9456SOL    HW229268   0.582   3.209   2.308
 9457SOL     OW29269   6.363   6.438   4.583
 9457SOL    HW129270   6.335   6.521   4.536
 9457SOL    HW229271   6.434   6.460   4.651
 9458SOL     OW29272   6.302   3.975   0.180
 9458SOL    HW129273   6.392   3.932   0.188
 9458SOL    HW229274   6.245   3.949   0.258
 9459SOL     OW29275   4.926   4.980   5.350
 9459SOL    HW129276   5.007   5.009   5.402
 9459SOL    HW229277   4.917   4.881   5.355
 9460SOL     OW29278   1.448   2.355   2.736
 9460SOL    HW129279   1.532   2.408   2.723
 9460SOL    HW229280   1.448   2.277   2.674
 9461SOL     OW29281   1.507   2.048   2.110
 9461SOL    HW129282   1.461   2.098   2.184
 9461SOL    HW229283   1.497   2.099   2.025
 9462SOL     OW29284   0.381   1.368   4.362
 9462SOL    HW129285   0.319   1.293   4.386
 9462SOL    HW229286   0.442   1.386   4.439
 9463SOL     OW29287   5.812   4.803   1.534
 9463SOL    HW129288   5.799   4.812   1.435
 9463SOL    HW229289   5.837   4.709   1.556
 9464SOL     OW29290   1.054   1.278   2.009
 9464SOL    HW129291   1.081   1.186   2.038
 9464SOL    HW229292   1.136   1.336   2.004
 9465SOL     OW29293   6.830   4.313   0.995
 9465SOL    HW129294   6.891   4.277   1.067
 9465SOL    HW229295   6.770   4.383   1.034
 9466SOL     OW29296   3.947   4.691   5.593
 9466SOL    HW129297   4.017   4.761   5.578
 9466SOL    HW229298   3.954   4.657   5.687
 9467SOL     OW29299   2.039   3.709   0.494
 9467SOL    HW129300   2.093   3.625   0.481
 9467SOL    HW229301   1.976   3.719   0.416
 9468SOL     OW29302   6.428   1.443   0.539
 9468SOL    HW129303   6.515   1.444   0.588
 9468SOL    HW229304   6.430   1.511   0.465
 9469SOL     OW29305   0.464   6.496   1.283
 9469SOL    HW129306   0.555   6.482   1.321
 9469SOL    HW229307   0.454   6.441   1.200
 9470SOL     OW29308   3.293   3.720   0.464
 9470SOL    HW129309   3.322   3.815   0.458
 9470SOL    HW229310   3.281   3.684   0.371
 9471SOL     OW29311   6.483   3.009   4.750
 9471SOL    HW129312   6.567   2.964   4.780
 9471SOL    HW229313   6.494   3.041   4.656
 9472SOL     OW29314   1.442   2.971   6.373
 9472SOL    HW129315   1.362   2.933   6.420
 9472SOL    HW229316   1.443   2.938   6.278
 9473SOL     OW29317   2.757   3.971   0.822
 9473SOL    HW129318   2.850   3.959   0.857
 9473SOL    HW229319   2.739   4.067   0.805
 9474SOL     OW29320   5.513   2.993   0.498
 9474SOL    HW129321   5.530   3.080   0.450
 9474SOL    HW229322   5.597   2.963   0.542
 9475SOL     OW29323   4.976   4.102   6.387
 9475SOL    HW129324   4.960   4.125   6.483
 9475SOL    HW229325   5.074   4.086   6.373
 9476SOL     OW29326   4.082   4.116   0.014
 9476SOL    HW129327   4.167   4.137   0.063
 9476SOL    HW229328   4.099   4.120   6.942
 9477SOL     OW29329   1.858   4.473   0.331
 9477SOL    HW129330   1.810   4.557   0.357
 9477SOL    HW229331   1.826   4.443   0.241
 9478SOL     OW29332   5.289   3.283   6.945
 9478SOL    HW129333   5.295   3.220   6.867
 9478SOL    HW229334   5.207   3.263   6.998
 9479SOL     OW29335   4.241   0.586   2.511
 9479SOL    HW129336   4.283   0.506   2.469
 9479SOL    HW229337   4.182   0.632   2.445
 9480SOL     OW29338   6.644   1.034   0.635
 9480SOL    HW129339   6.673   0.975   0.710
 9480SOL    HW229340   6.716   1.101   0.616
 9481SOL     OW29341   4.174   0.041   4.082
 9481SOL    HW129342   4.188   7.008   4.003
 9481SOL    HW229343   4.228   0.125   4.071
 9482SOL     OW29344   6.802   6.127   6.938
 9482SOL    HW129345   6.889   6.148   6.983
 9482SOL    HW229346   6.751   6.061   6.993
 9483SOL     OW29347   6.428   6.812   0.382
 9483SOL    HW129348   6.387   6.787   0.294
 9483SOL    HW229349   6.454   6.908   0.380
 9484SOL     OW29350   3.987   5.561   4.657
 9484SOL    HW129351   3.935   5.623   4.598
 9484SOL    HW229352   3.974   5.586   4.752
 9485SOL     OW29353   0.515   0.991   0.372
 9485SOL    HW129354   0.472   1.062   0.316
 9485SOL    HW229355   0.605   1.023   0.402
 9486SOL     OW29356   5.441   5.736   0.414
 9486SOL    HW129357   5.411   5.737   0.319
 9486SOL    HW229358   5.398   5.812   0.464
 9487SOL     OW29359   3.511   2.905   3.512
 9487SOL    HW129360   3.416   2.903   3.482
 9487SOL    HW229361   3.571   2.909   3.431
 9488SOL     OW29362   1.641   0.675   0.815
 9488SOL    HW129363   1.665   0.658   0.910
 9488SOL    HW229364   1.644   0.773   0.796
 9489SOL     OW29365   5.677   3.167   0.078
 9489SOL    HW129366   5.627   3.111   0.012
 9489SOL    HW229367   5.766   3.125   0.095
 9490SOL     OW29368   5.583   3.545   4.773
 9490SOL    HW129369   5.537   3.630   4.749
 9490SOL    HW229370   5.550   3.471   4.715
 9491SOL     OW29371   5.444   6.069   2.640
 9491SOL    HW129372   5.429   6.166   2.660
 9491SOL    HW229373   5.433   6.052   2.542
 9492SOL     OW29374   4.967   3.172   3.923
 9492SOL    HW129375   4.912   3.113   3.982
 9492SOL    HW229376   4.934   3.266   3.930
 9493SOL     OW29377   4.328   6.361   1.688
 9493SOL    HW129378   4.405   6.326   1.741
 9493SOL    HW229379   4.357   6.440   1.635
 9494SOL     OW29380   5.817   2.063   1.989
 9494SOL    HW129381   5.893   2.120   2.019
 9494SOL    HW229382   5.757   2.043   2.066
 9495SOL     OW29383   7.002   1.915   1.627
 9495SOL    HW129384   0.018   1.826   1.640
 9495SOL    HW229385   6.999   1.937   1.529
 9496SOL     OW29386   5.395   2.175   2.349
 9496SOL    HW129387   5.403   2.077   2.368
 9496SOL    HW229388   5.304   2.207   2.375
 9497SOL     OW29389   4.848   4.578   4.971
 9497SOL    HW129390   4.820   4.674   4.974
 9497SOL    HW229391   4.770   4.521   4.943
 9498SOL     OW29392   0.943   5.349   3.866
 9498SOL    HW129393   0.989   5.278   3.919
 9498SOL    HW229394   1.008   5.422   3.845
 9499SOL     OW29395   6.423   5.711   4.839
 9499SOL    HW129396   6.336   5.717   4.790
 9499SOL    HW229397   6.486   5.780   4.803
 9500SOL     OW29398   3.971   2.047   0.790
 9500SOL    HW129399   3.887   2.028   0.841
 9500SOL    HW229400   3.976   2.145   0.768
 9501SOL     OW29401   2.248   3.498   5.231
 9501SOL    HW129402   2.206   3.422   5.181
 9501SOL    HW229403   2.208   3.584   5.201
 9502SOL     OW29404   4.972   4.542   4.722
 9502SOL    HW129405   5.046   4.602   4.691
 9502SOL    HW229406   4.936   4.576   4.809
 9503SOL     OW29407   6.983   1.917   0.123
 9503SOL    HW129408   0.044   1.877   0.095
 9503SOL    HW229409   6.947   1.975   0.050
 9504SOL     OW29410   5.871   5.307   1.904
 9504SOL    HW129411   5.790   5.252   1.923
 9504SOL    HW229412   5.876   5.328   1.807
 9505SOL     OW29413   3.917   5.455   5.552
 9505SOL    HW129414   3.971   5.378   5.587
 9505SOL    HW229415   3.844   5.477   5.616
 9506SOL     OW29416   3.080   1.101   1.313
 9506SOL    HW129417   3.093   1.116   1.411
 9506SOL    HW229418   3.080   1.003   1.293
 9507SOL     OW29419   5.285   0.106   1.965
 9507SOL    HW129420   5.264   0.201   1.988
 9507SOL    HW229421   5.240   0.045   2.030
 9508SOL     OW29422   4.959   1.544   2.861
 9508SOL    HW129423   5.047   1.499   2.876
 9508SOL    HW229424   4.927   1.586   2.946
 9509SOL     OW29425   5.361   0.115   3.196
 9509SOL    HW129426   5.362   0.106   3.295
 9509SOL    HW229427   5.266   0.120   3.164
 9510SOL     OW29428   1.096   2.853   3.958
 9510SOL    HW129429   1.017   2.797   3.934
 9510SOL    HW229430   1.175   2.795   3.972
 9511SOL     OW29431   0.917   1.540   0.678
 9511SOL    HW129432   0.818   1.528   0.680
 9511SOL    HW229433   0.952   1.510   0.589
 9512SOL     OW29434   6.368   2.157   1.158
 9512SOL    HW129435   6.391   2.089   1.089
 9512SOL    HW229436   6.321   2.113   1.234
 9513SOL     OW29437   4.233   4.777   5.568
 9513SOL    HW129438   4.294   4.730   5.631
 9513SOL    HW229439   4.260   4.756   5.474
 9514SOL     OW29440   3.694   2.936   6.682
 9514SOL    HW129441   3.715   2.956   6.586
 9514SOL    HW229442   3.605   2.974   6.705
 9515SOL     OW29443   0.739   5.763   2.909
 9515SOL    HW129444   0.755   5.693   2.978
 9515SOL    HW229445   0.680   5.725   2.837
 9516SOL     OW29446   0.287   4.350   7.004
 9516SOL    HW129447   0.210   4.303   0.020
 9516SOL    HW229448   0.334   4.286   6.942
 9517SOL     OW29449   0.980   5.303   0.834
 9517SOL    HW129450   0.989   5.264   0.926
 9517SOL    HW229451   0.995   5.232   0.766
 9518SOL     OW29452   0.947   1.357   0.444
 9518SOL    HW129453   1.044   1.381   0.441
 9518SOL    HW229454   0.897   1.413   0.379
 9519SOL     OW29455   1.331   3.129   5.218
 9519SOL    HW129456   1.331   3.205   5.153
 9519SOL    HW229457   1.357   3.163   5.308
 9520SOL     OW29458   3.987   6.927   1.678
 9520SOL    HW129459   3.889   6.949   1.680
 9520SOL    HW229460   4.039   7.007   1.706
 9521SOL     OW29461   5.581   5.021   4.214
 9521SOL    HW129462   5.539   4.945   4.165
 9521SOL    HW229463   5.607   5.093   4.150
 9522SOL     OW29464   3.426   5.866   0.972
 9522SOL    HW129465   3.382   5.873   1.062
 9522SOL    HW229466   3.357   5.848   0.902
 9523SOL     OW29467   3.384   5.980   5.085
 9523SOL    HW129468   3.457   5.930   5.038
 9523SOL    HW229469   3.342   5.921   5.153
 9524SOL     OW29470   4.313   2.471   1.078
 9524SOL    HW129471   4.251   2.493   1.154
 9524SOL    HW229472   4.378   2.546   1.065
 9525SOL     OW29473   3.474   0.521   5.945
 9525SOL    HW129474   3.464   0.615   5.979
 9525SOL    HW229475   3.417   0.460   6.000
 9526SOL     OW29476   5.463   5.502   2.099
 9526SOL    HW129477   5.411   5.462   2.175
 9526SOL    HW229478   5.429   5.594   2.080
 9527SOL     OW29479   6.144   2.155   1.800
 9527SOL    HW129480   6.190   2.225   1.745
 9527SOL    HW229481   6.055   2.136   1.760
 9528SOL     OW29482   6.415   0.528   2.114
 9528SOL    HW129483   6.367   0.616   2.121
 9528SOL    HW229484   6.366   0.458   2.166
 9529SOL     OW29485   0.893   3.523   4.896
 9529SOL    HW129486   0.901   3.457   4.970
 9529SOL    HW229487   0.971   3.586   4.899
 9530SOL     OW29488   1.742   2.208   4.459
 9530SOL    HW129489   1.777   2.292   4.501
 9530SOL    HW229490   1.819   2.150   4.431
 9531SOL     OW29491   2.812   6.020   3.360
 9531SOL    HW129492   2.774   6.058   3.444
 9531SOL    HW229493   2.902   5.981   3.378
 9532SOL     OW29494   2.357   1.095   1.601
 9532SOL    HW129495   2.342   1.059   1.693
 9532SOL    HW229496   2.334   1.025   1.533
 9533SOL     OW29497   1.739   0.384   5.310
 9533SOL    HW129498   1.799   0.458   5.341
 9533SOL    HW229499   1.666   0.423   5.254
 9534SOL     OW29500   4.756   1.747   4.706
 9534SOL    HW129501   4.702   1.753   4.790
 9534SOL    HW229502   4.846   1.786   4.721
 9535SOL     OW29503   2.168   2.347   5.502
 9535SOL    HW129504   2.247   2.389   5.547
 9535SOL    HW229505   2.186   2.338   5.404
 9536SOL     OW29506   3.174   6.945   6.454
 9536SOL    HW129507   3.253   6.889   6.477
 9536SOL    HW229508   3.099   6.886   6.424
 9537SOL     OW29509   2.937   6.768   0.987
 9537SOL    HW129510   2.848   6.749   0.946
 9537SOL    HW229511   2.926   6.832   1.063
 9538SOL     OW29512   5.808   3.217   4.132
 9538SOL    HW129513   5.795   3.316   4.147
 9538SOL    HW229514   5.720   3.170   4.143
 9539SOL     OW29515   0.596   5.110   0.943
 9539SOL    HW129516   0.570   5.195   0.898
 9539SOL    HW229517   0.620   5.041   0.875
 9540SOL     OW29518   5.028   3.411   5.236
 9540SOL    HW129519   4.972   3.367   5.166
 9540SOL    HW229520   4.969   3.446   5.309
 9541SOL     OW29521   0.899   1.925   3.427
 9541SOL    HW129522   0.802   1.902   3.424
 9541SOL    HW229523   0.910   2.023   3.438
 9542SOL     OW29524   4.979   3.918   4.779
 9542SOL    HW129525   4.926   3.844   4.738
 9542SOL    HW229526   5.035   3.962   4.708
 9543SOL     OW29527   5.281   2.013   2.017
 9543SOL    HW129528   5.321   1.922   2.023
 9543SOL    HW229529   5.217   2.026   2.093
 9544SOL     OW29530   3.059   1.612   2.128
 9544SOL    HW129531   3.159   1.605   2.120
 9544SOL    HW229532   3.032   1.592   2.223
 9545SOL     OW29533   0.266   0.225   4.401
 9545SOL    HW129534   0.280   0.198   4.305
 9545SOL    HW229535   0.286   0.323   4.410
 9546SOL     OW29536   2.629   4.437   1.440
 9546SOL    HW129537   2.556   4.505   1.429
 9546SOL    HW229538   2.649   4.424   1.537
 9547SOL     OW29539   6.679   5.809   2.851
 9547SOL    HW129540   6.775   5.828   2.873
 9547SOL    HW229541   6.673   5.729   2.792
 9548SOL     OW29542   4.672   6.333   2.576
 9548SOL    HW129543   4.747   6.294   2.523
 9548SOL    HW229544   4.606   6.375   2.513
 9549SOL     OW29545   3.059   5.664   0.351
 9549SOL    HW129546   3.086   5.709   0.266
 9549SOL    HW229547   3.128   5.595   0.375
 9550SOL     OW29548   1.233   1.790   0.194
 9550SOL    HW129549   1.292   1.809   0.115
 9550SOL    HW229550   1.281   1.731   0.259
 9551SOL     OW29551   2.278   6.035   5.578
 9551SOL    HW129552   2.213   6.046   5.503
 9551SOL    HW229553   2.311   6.124   5.607
 9552SOL     OW29554   1.092   5.302   3.630
 9552SOL    HW129555   0.994   5.282   3.628
 9552SOL    HW229556   1.116   5.358   3.551
 9553SOL     OW29557   5.214   4.960   5.547
 9553SOL    HW129558   5.304   4.932   5.581
 9553SOL    HW229559   5.168   5.017   5.615
 9554SOL     OW29560   2.147   0.931   2.253
 9554SOL    HW129561   2.191   0.864   2.195
 9554SOL    HW229562   2.201   1.016   2.254
 9555SOL     OW29563   6.566   2.350   6.695
 9555SOL    HW129564   6.527   2.263   6.666
 9555SOL    HW229565   6.510   2.390   6.768
 9556SOL     OW29566   0.074   2.098   0.850
 9556SOL    HW129567   0.112   2.013   0.888
 9556SOL    HW229568   0.089   2.173   0.915
 9557SOL     OW29569   5.526   2.455   1.925
 9557SOL    HW129570   5.539   2.361   1.894
 9557SOL    HW229571   5.579   2.471   2.008
 9558SOL     OW29572   6.340   4.464   1.969
 9558SOL    HW129573   6.435   4.493   1.954
 9558SOL    HW229574   6.303   4.427   1.885
 9559SOL     OW29575   6.810   3.134   2.212
 9559SOL    HW129576   6.797   3.044   2.169
 9559SOL    HW229577   6.842   3.121   2.306
 9560SOL     OW29578   3.371   1.594   4.240
 9560SOL    HW129579   3.414   1.559   4.157
 9560SOL    HW229580   3.342   1.517   4.297
 9561SOL     OW29581   3.951   0.004   0.894
 9561SOL    HW129582   3.933   0.056   0.978
 9561SOL    HW229583   3.939   6.933   0.912
 9562SOL     OW29584   5.773   5.471   3.205
 9562SOL    HW129585   5.730   5.394   3.252
 9562SOL    HW229586   5.709   5.509   3.138
 9563SOL     OW29587   6.996   5.635   0.022
 9563SOL    HW129588   6.941   5.699   6.996
 9563SOL    HW229589   6.979   5.648   0.120
 9564SOL     OW29590   2.656   0.126   6.771
 9564SOL    HW129591   2.694   0.073   6.847
 9564SOL    HW229592   2.677   0.223   6.785
 9565SOL     OW29593   4.082   6.017   4.035
 9565SOL    HW129594   4.182   6.022   4.035
 9565SOL    HW229595   4.044   6.108   4.049
 9566SOL     OW29596   3.184   4.845   5.165
 9566SOL    HW129597   3.149   4.778   5.230
 9566SOL    HW229598   3.109   4.901   5.130
 9567SOL     OW29599   5.967   5.773   5.698
 9567SOL    HW129600   6.002   5.856   5.656
 9567SOL    HW229601   5.916   5.720   5.630
 9568SOL     OW29602   5.482   3.574   6.298
 9568SOL    HW129603   5.458   3.527   6.214
 9568SOL    HW229604   5.426   3.656   6.308
 9569SOL     OW29605   5.845   0.014   1.627
 9569SOL    HW129606   5.812   6.977   1.697
 9569SOL    HW229607   5.772   0.079   1.603
 9570SOL     OW29608   0.878   0.200   6.798
 9570SOL    HW129609   0.960   0.159   6.757
 9570SOL    HW229610   0.844   0.272   6.738
 9571SOL     OW29611   2.215   3.027   6.761
 9571SOL    HW129612   2.190   2.977   6.679
 9571SOL    HW229613   2.310   3.006   6.786
 9572SOL     OW29614   0.743   4.231   0.875
 9572SOL    HW129615   0.693   4.311   0.910
 9572SOL    HW229616   0.699   4.147   0.909
 9573SOL     OW29617   6.565   2.120   1.957
 9573SOL    HW129618   6.643   2.063   1.929
 9573SOL    HW229619   6.480   2.073   1.935
 9574SOL     OW29620   2.474   2.180   4.531
 9574SOL    HW129621   2.424   2.099   4.559
 9574SOL    HW229622   2.545   2.154   4.465
 9575SOL     OW29623   4.997   0.743   2.470
 9575SOL    HW129624   4.919   0.692   2.434
 9575SOL    HW229625   4.990   0.749   2.569
 9576SOL     OW29626   3.597   1.569   4.784
 9576SOL    HW129627   3.693   1.592   4.769
 9576SOL    HW229628   3.586   1.470   4.786
 9577SOL     OW29629   0.539   6.372   3.112
 9577SOL    HW129630   0.440   6.367   3.103
 9577SOL    HW229631   0.582   6.346   3.025
 9578SOL     OW29632   6.230   4.013   2.297
 9578SOL    HW129633   6.138   4.040   2.270
 9578SOL    HW229634   6.292   4.018   2.219
 9579SOL     OW29635   1.145   6.546   2.904
 9579SOL    HW129636   1.110   6.472   2.846
 9579SOL    HW229637   1.210   6.508   2.970
 9580SOL     OW29638   4.381   3.405   6.284
 9580SOL    HW129639   4.408   3.340   6.355
 9580SOL    HW229640   4.292   3.379   6.247
 9581SOL     OW29641   1.506   5.223   5.970
 9581SOL    HW129642   1.529   5.257   6.061
 9581SOL    HW229643   1.584   5.173   5.933
 9582SOL     OW29644   4.741   4.708   4.400
 9582SOL    HW129645   4.723   4.650   4.479
 9582SOL    HW229646   4.697   4.668   4.319
 9583SOL     OW29647   2.490   4.624   1.822
 9583SOL    HW129648   2.461   4.596   1.913
 9583SOL    HW229649   2.578   4.671   1.828
 9584SOL     OW29650   5.426   5.456   0.058
 9584SOL    HW129651   5.389   5.549   0.059
 9584SOL    HW229652   5.457   5.431   0.149
 9585SOL     OW29653   0.419   7.001   3.312
 9585SOL    HW129654   0.442   6.959   3.400
 9585SOL    HW229655   0.442   0.072   3.314
 9586SOL     OW29656   5.330   3.215   2.454
 9586SOL    HW129657   5.351   3.125   2.492
 9586SOL    HW229658   5.414   3.269   2.446
 9587SOL     OW29659   4.700   6.592   2.729
 9587SOL    HW129660   4.772   6.652   2.695
 9587SOL    HW229661   4.698   6.508   2.674
 9588SOL     OW29662   6.878   0.112   3.046
 9588SOL    HW129663   6.959   0.068   3.007
 9588SOL    HW229664   6.907   0.182   3.111
 9589SOL     OW29665   2.519   1.599   5.696
 9589SOL    HW129666   2.466   1.638   5.771
 9589SOL    HW229667   2.571   1.520   5.729
 9590SOL     OW29668   0.121   4.704   4.646
 9590SOL    HW129669   0.186   4.635   4.680
 9590SOL    HW229670   0.080   4.671   4.561
 9591SOL     OW29671   1.403   4.571   2.457
 9591SOL    HW129672   1.346   4.534   2.531
 9591SOL    HW229673   1.349   4.577   2.373
 9592SOL     OW29674   5.016   5.348   1.986
 9592SOL    HW129675   5.052   5.290   1.913
 9592SOL    HW229676   5.069   5.334   2.069
 9593SOL     OW29677   1.699   3.268   4.316
 9593SOL    HW129678   1.628   3.197   4.322
 9593SOL    HW229679   1.751   3.257   4.231
 9594SOL     OW29680   6.275   6.737   2.044
 9594SOL    HW129681   6.316   6.658   1.998
 9594SOL    HW229682   6.201   6.774   1.988
 9595SOL     OW29683   1.116   4.275   4.288
 9595SOL    HW129684   1.117   4.283   4.188
 9595SOL    HW229685   1.180   4.340   4.327
 9596SOL     OW29686   4.815   5.520   2.297
 9596SOL    HW129687   4.762   5.437   2.281
 9596SOL    HW229688   4.759   5.585   2.348
 9597SOL     OW29689   1.656   4.158   0.776
 9597SOL    HW129690   1.681   4.183   0.870
 9597SOL    HW229691   1.709   4.212   0.711
 9598SOL     OW29692   1.041   5.779   5.510
 9598SOL    HW129693   1.121   5.744   5.462
 9598SOL    HW229694   0.985   5.833   5.447
 9599SOL     OW29695   4.816   1.287   4.147
 9599SOL    HW129696   4.802   1.202   4.197
 9599SOL    HW229697   4.877   1.271   4.070
 9600SOL     OW29698   1.612   5.918   0.045
 9600SOL    HW129699   1.672   5.839   0.034
 9600SOL    HW229700   1.658   5.988   0.101
 9601SOL     OW29701   0.855   6.345   6.129
 9601SOL    HW129702   0.846   6.258   6.081
 9601SOL    HW229703   0.770   6.365   6.179
 9602SOL     OW29704   1.236   5.943   0.365
 9602SOL    HW129705   1.143   5.905   0.366
 9602SOL    HW229706   1.264   5.958   0.270
 9603SOL     OW29707   1.050   4.934   3.528
 9603SOL    HW129708   1.096   5.000   3.468
 9603SOL    HW229709   1.114   4.901   3.597
 9604SOL     OW29710   6.474   0.055   0.472
 9604SOL    HW129711   6.554   0.107   0.501
 9604SOL    HW229712   6.392   0.110   0.484
 9605SOL     OW29713   2.379   5.883   6.952
 9605SOL    HW129714   2.453   5.820   6.974
 9605SOL    HW229715   2.306   5.873   7.019
 9606SOL     OW29716   6.192   0.336   5.488
 9606SOL    HW129717   6.253   0.357   5.564
 9606SOL    HW229718   6.171   0.421   5.438
 9607SOL     OW29719   0.526   2.700   2.530
 9607SOL    HW129720   0.618   2.667   2.553
 9607SOL    HW229721   0.473   2.710   2.614
 9608SOL     OW29722   6.493   0.449   3.167
 9608SOL    HW129723   6.479   0.358   3.128
 9608SOL    HW229724   6.405   0.496   3.176
 9609SOL     OW29725   1.596   2.258   3.289
 9609SOL    HW129726   1.562   2.298   3.204
 9609SOL    HW229727   1.696   2.268   3.292
 9610SOL     OW29728   3.261   1.852   6.349
 9610SOL    HW129729   3.278   1.917   6.424
 9610SOL    HW229730   3.334   1.861   6.281
 9611SOL     OW29731   6.364   5.962   0.917
 9611SOL    HW129732   6.449   5.952   0.968
 9611SOL    HW229733   6.362   5.895   0.842
 9612SOL     OW29734   5.088   3.456   3.101
 9612SOL    HW129735   5.029   3.394   3.152
 9612SOL    HW229736   5.160   3.490   3.162
 9613SOL     OW29737   5.951   6.657   5.110
 9613SOL    HW129738   5.950   6.688   5.205
 9613SOL    HW229739   5.903   6.724   5.053
 9614SOL     OW29740   3.432   2.893   1.838
 9614SOL    HW129741   3.454   2.991   1.846
 9614SOL    HW229742   3.450   2.848   1.925
 9615SOL     OW29743   0.450   6.374   3.748
 9615SOL    HW129744   0.515   6.420   3.809
 9615SOL    HW229745   0.496   6.298   3.702
 9616SOL     OW29746   2.138   3.097   1.358
 9616SOL    HW129747   2.041   3.100   1.384
 9616SOL    HW229748   2.179   3.187   1.371
 9617SOL     OW29749   0.818   3.481   2.543
 9617SOL    HW129750   0.852   3.406   2.599
 9617SOL    HW229751   0.894   3.527   2.498
 9618SOL     OW29752   3.693   4.864   0.348
 9618SOL    HW129753   3.697   4.783   0.407
 9618SOL    HW229754   3.769   4.925   0.370
 9619SOL     OW29755   1.675   6.852   1.042
 9619SOL    HW129756   1.724   6.771   1.073
 9619SOL    HW229757   1.611   6.827   0.969
 9620SOL     OW29758   3.861   1.796   7.001
 9620SOL    HW129759   3.814   1.828   0.058
 9620SOL    HW229760   3.827   1.706   6.976
 9621SOL     OW29761   0.533   2.006   2.492
 9621SOL    HW129762   0.459   2.061   2.532
 9621SOL    HW229763   0.495   1.943   2.424
 9622SOL     OW29764   0.024   6.083   5.911
 9622SOL    HW129765   0.005   6.157   5.975
 9622SOL    HW229766   0.003   6.113   5.818
 9623SOL     OW29767   4.604   6.987   6.211
 9623SOL    HW129768   4.669   6.988   6.135
 9623SOL    HW229769   4.591   6.893   6.242
 9624SOL     OW29770   5.008   5.263   4.941
 9624SOL    HW129771   4.947   5.194   4.979
 9624SOL    HW229772   5.049   5.316   5.015
 9625SOL     OW29773   4.899   4.000   5.907
 9625SOL    HW129774   4.892   4.091   5.949
 9625SOL    HW229775   4.963   3.944   5.960
 9626SOL     OW29776   2.413   2.195   6.958
 9626SOL    HW129777   2.405   2.099   6.932
 9626SOL    HW229778   2.508   2.217   6.979
 9627SOL     OW29779   0.321   5.192   0.444
 9627SOL    HW129780   0.389   5.198   0.517
 9627SOL    HW229781   0.319   5.278   0.394
 9628SOL     OW29782   6.325   0.959   6.593
 9628SOL    HW129783   6.256   1.031   6.601
 9628SOL    HW229784   6.403   0.994   6.540
 9629SOL     OW29785   0.311   5.647   3.973
 9629SOL    HW129786   0.249   5.725   3.973
 9629SOL    HW229787   0.378   5.656   4.046
 9630SOL     OW29788   5.793   0.466   5.244
 9630SOL    HW129789   5.769   0.522   5.323
 9630SOL    HW229790   5.891   0.475   5.225
 9631SOL     OW29791   3.545   6.576   0.773
 9631SOL    HW129792   3.614   6.515   0.812
 9631SOL    HW229793   3.546   6.568   0.673
 9632SOL     OW29794   3.191   5.353   2.797
 9632SOL    HW129795   3.251   5.418   2.843
 9632SOL    HW229796   3.206   5.261   2.835
 9633SOL     OW29797   3.755   3.398   2.939
 9633SOL    HW129798   3.822   3.342   2.890
 9633SOL    HW229799   3.668   3.396   2.891
 9634SOL     OW29800   5.857   5.113   3.246
 9634SOL    HW129801   5.949   5.101   3.208
 9634SOL    HW229802   5.791   5.121   3.171
 9635SOL     OW29803   1.282   5.629   3.837
 9635SOL    HW129804   1.305   5.610   3.933
 9635SOL    HW229805   1.365   5.624   3.782
 9636SOL     OW29806   5.204   3.566   4.151
 9636SOL    HW129807   5.255   3.652   4.161
 9636SOL    HW229808   5.107   3.583   4.169
 9637SOL     OW29809   1.588   3.194   0.412
 9637SOL    HW129810   1.660   3.258   0.438
 9637SOL    HW229811   1.629   3.108   0.382
 9638SOL     OW29812   5.497   5.962   5.835
 9638SOL    HW129813   5.437   5.884   5.818
 9638SOL    HW229814   5.545   5.949   5.922
 9639SOL     OW29815   4.480   1.814   1.526
 9639SOL    HW129816   4.382   1.832   1.527
 9639SOL    HW229817   4.501   1.738   1.588
 9640SOL     OW29818   4.415   0.377   3.157
 9640SOL    HW129819   4.336   0.369   3.216
 9640SOL    HW229820   4.437   0.474   3.143
 9641SOL     OW29821   6.544   3.727   3.307
 9641SOL    HW129822   6.453   3.767   3.304
 9641SOL    HW229823   6.548   3.657   3.377
 9642SOL     OW29824   0.584   0.227   4.499
 9642SOL    HW129825   0.524   0.150   4.520
 9642SOL    HW229826   0.541   0.286   4.431
 9643SOL     OW29827   4.770   5.230   4.177
 9643SOL    HW129828   4.671   5.219   4.181
 9643SOL    HW229829   4.802   5.268   4.263
 9644SOL     OW29830   1.270   5.574   4.111
 9644SOL    HW129831   1.251   5.631   4.191
 9644SOL    HW229832   1.261   5.478   4.136
 9645SOL     OW29833   0.833   4.790   6.281
 9645SOL    HW129834   0.758   4.848   6.250
 9645SOL    HW229835   0.804   4.738   6.361
 9646SOL     OW29836   4.384   5.424   6.250
 9646SOL    HW129837   4.388   5.521   6.228
 9646SOL    HW229838   4.293   5.400   6.282
 9647SOL     OW29839   6.226   6.791   3.077
 9647SOL    HW129840   6.210   6.871   3.134
 9647SOL    HW229841   6.324   6.780   3.061
 9648SOL     OW29842   4.184   1.941   0.928
 9648SOL    HW129843   4.105   1.979   0.879
 9648SOL    HW229844   4.221   2.010   0.990
 9649SOL     OW29845   0.821   5.713   0.144
 9649SOL    HW129846   0.821   5.614   0.127
 9649SOL    HW229847   0.845   5.761   0.060
 9650SOL     OW29848   0.128   4.893   4.035
 9650SOL    HW129849   0.034   4.878   4.006
 9650SOL    HW229850   0.176   4.805   4.040
 9651SOL     OW29851   4.415   1.742   0.328
 9651SOL    HW129852   4.408   1.723   0.426
 9651SOL    HW229853   4.324   1.761   0.292
 9652SOL     OW29854   0.473   4.097   0.774
 9652SOL    HW129855   0.519   4.157   0.709
 9652SOL    HW229856   0.390   4.059   0.733
 9653SOL     OW29857   4.635   4.342   6.181
 9653SOL    HW129858   4.644   4.420   6.120
 9653SOL    HW229859   4.606   4.262   6.128
 9654SOL     OW29860   3.499   3.734   2.872
 9654SOL    HW129861   3.503   3.829   2.842
 9654SOL    HW229862   3.586   3.710   2.916
 9655SOL     OW29863   4.309   1.212   1.125
 9655SOL    HW129864   4.227   1.268   1.115
 9655SOL    HW229865   4.354   1.202   1.037
 9656SOL     OW29866   5.755   3.829   6.662
 9656SOL    HW129867   5.802   3.829   6.573
 9656SOL    HW229868   5.817   3.797   6.733
 9657SOL     OW29869   5.316   3.818   4.204
 9657SOL    HW129870   5.385   3.771   4.259
 9657SOL    HW229871   5.361   3.878   4.138
 9658SOL     OW29872   5.015   1.598   2.211
 9658SOL    HW129873   4.932   1.632   2.255
 9658SOL    HW229874   4.995   1.510   2.168
 9659SOL     OW29875   2.670   3.152   6.686
 9659SOL    HW129876   2.706   3.128   6.596
 9659SOL    HW229877   2.575   3.182   6.678
 9660SOL     OW29878   1.631   6.039   2.078
 9660SOL    HW129879   1.575   6.120   2.062
 9660SOL    HW229880   1.697   6.028   2.003
 9661SOL     OW29881   4.586   4.128   1.041
 9661SOL    HW129882   4.550   4.156   0.952
 9661SOL    HW229883   4.680   4.163   1.051
 9662SOL     OW29884   5.590   5.862   6.075
 9662SOL    HW129885   5.585   5.842   6.173
 9662SOL    HW229886   5.679   5.831   6.040
 9663SOL     OW29887   0.844   5.255   2.538
 9663SOL    HW129888   0.891   5.182   2.588
 9663SOL    HW229889   0.751   5.226   2.516
 9664SOL     OW29890   4.671   4.780   2.370
 9664SOL    HW129891   4.703   4.852   2.309
 9664SOL    HW229892   4.637   4.703   2.315
 9665SOL     OW29893   6.712   5.873   6.374
 9665SOL    HW129894   6.622   5.856   6.415
 9665SOL    HW229895   6.732   5.971   6.375
 9666SOL     OW29896   5.479   4.026   6.604
 9666SOL    HW129897   5.498   3.983   6.515
 9666SOL    HW229898   5.565   4.042   6.652
 9667SOL     OW29899   5.824   6.002   6.543
 9667SOL    HW129900   5.910   5.952   6.537
 9667SOL    HW229901   5.814   6.040   6.635
 9668SOL     OW29902   0.993   0.730   5.897
 9668SOL    HW129903   0.936   0.769   5.969
 9668SOL    HW229904   1.037   0.647   5.931
 9669SOL     OW29905   3.288   0.364   0.437
 9669SOL    HW129906   3.197   0.388   0.402
 9669SOL    HW229907   3.281   0.342   0.534
 9670SOL     OW29908   6.995   6.965   0.058
 9670SOL    HW129909   6.997   6.975   0.158
 9670SOL    HW229910   6.933   0.007   0.019
 9671SOL     OW29911   1.324   5.474   6.489
 9671SOL    HW129912   1.311   5.531   6.407
 9671SOL    HW229913   1.414   5.492   6.527
 9672SOL     OW29914   1.097   3.521   4.047
 9672SOL    HW129915   1.106   3.445   4.111
 9672SOL    HW229916   1.162   3.593   4.072
 9673SOL     OW29917   2.455   3.057   0.208
 9673SOL    HW129918   2.516   3.070   0.129
 9673SOL    HW229919   2.425   3.146   0.242
 9674SOL     OW29920   2.357   6.274   4.109
 9674SOL    HW129921   2.403   6.215   4.043
 9674SOL    HW229922   2.384   6.247   4.202
 9675SOL     OW29923   6.251   3.179   6.162
 9675SOL    HW129924   6.272   3.170   6.259
 9675SOL    HW229925   6.167   3.232   6.150
 9676SOL     OW29926   0.893   2.437   6.973
 9676SOL    HW129927   0.981   2.482   6.979
 9676SOL    HW229928   0.889   2.384   6.888
 9677SOL     OW29929   6.921   5.395   1.611
 9677SOL    HW129930   7.009   5.415   1.568
 9677SOL    HW229931   6.933   5.329   1.685
 9678SOL     OW29932   3.521   3.561   5.477
 9678SOL    HW129933   3.477   3.565   5.566
 9678SOL    HW229934   3.455   3.585   5.406
 9679SOL     OW29935   1.923   1.410   4.252
 9679SOL    HW129936   2.010   1.396   4.204
 9679SOL    HW229937   1.893   1.504   4.237
 9680SOL     OW29938   4.668   6.490   2.159
 9680SOL    HW129939   4.745   6.443   2.118
 9680SOL    HW229940   4.593   6.496   2.093
 9681SOL     OW29941   1.192   1.887   2.134
 9681SOL    HW129942   1.213   1.812   2.197
 9681SOL    HW229943   1.105   1.868   2.088
 9682SOL     OW29944   4.892   6.267   5.530
 9682SOL    HW129945   4.801   6.265   5.573
 9682SOL    HW229946   4.945   6.188   5.561
 9683SOL     OW29947   3.223   6.039   2.932
 9683SOL    HW129948   3.142   5.982   2.919
 9683SOL    HW229949   3.305   5.983   2.919
 9684SOL     OW29950   6.925   3.418   5.581
 9684SOL    HW129951   6.993   3.484   5.613
 9684SOL    HW229952   6.956   3.326   5.601
 9685SOL     OW29953   3.796   4.163   1.222
 9685SOL    HW129954   3.804   4.123   1.131
 9685SOL    HW229955   3.700   4.163   1.249
 9686SOL     OW29956   6.107   1.371   5.228
 9686SOL    HW129957   6.073   1.456   5.268
 9686SOL    HW229958   6.129   1.386   5.131
 9687SOL     OW29959   5.739   1.131   3.237
 9687SOL    HW129960   5.759   1.058   3.172
 9687SOL    HW229961   5.807   1.204   3.228
 9688SOL     OW29962   1.109   5.226   1.399
 9688SOL    HW129963   1.053   5.171   1.461
 9688SOL    HW229964   1.206   5.215   1.423
 9689SOL     OW29965   2.247   6.000   1.149
 9689SOL    HW129966   2.292   6.078   1.193
 9689SOL    HW229967   2.257   5.919   1.207
 9690SOL     OW29968   6.799   4.802   4.962
 9690SOL    HW129969   6.806   4.702   4.964
 9690SOL    HW229970   6.889   4.841   4.942
 9691SOL     OW29971   2.736   3.652   1.761
 9691SOL    HW129972   2.746   3.741   1.716
 9691SOL    HW229973   2.803   3.588   1.724
 9692SOL     OW29974   4.884   4.379   0.713
 9692SOL    HW129975   4.857   4.283   0.715
 9692SOL    HW229976   4.922   4.401   0.623
 9693SOL     OW29977   4.879   2.803   5.493
 9693SOL    HW129978   4.861   2.841   5.402
 9693SOL    HW229979   4.795   2.804   5.547
 9694SOL     OW29980   2.604   0.201   1.775
 9694SOL    HW129981   2.530   0.241   1.720
 9694SOL    HW229982   2.689   0.203   1.722
 9695SOL     OW29983   1.219   2.502   3.082
 9695SOL    HW129984   1.202   2.500   3.181
 9695SOL    HW229985   1.131   2.496   3.034
 9696SOL     OW29986   5.079   3.084   3.693
 9696SOL    HW129987   5.055   3.106   3.787
 9696SOL    HW229988   5.140   3.005   3.691
 9697SOL     OW29989   0.536   6.858   0.850
 9697SOL    HW129990   0.612   6.923   0.844
 9697SOL    HW229991   0.567   6.774   0.894
 9698SOL     OW29992   6.301   3.456   1.476
 9698SOL    HW129993   6.292   3.510   1.392
 9698SOL    HW229994   6.210   3.427   1.507
 9699SOL     OW29995   1.616   6.312   0.865
 9699SOL    HW129996   1.530   6.342   0.906
 9699SOL    HW229997   1.603   6.297   0.767
 9700SOL     OW29998   5.616   0.266   5.598
 9700SOL    HW129999   5.583   0.334   5.532
 9700SOL    HW230000   5.716   0.264   5.597
 9701SOL     OW30001   4.541   3.883   6.982
 9701SOL    HW130002   4.618   3.877   6.917
 9701SOL    HW230003   4.545   3.970   0.004
 9702SOL     OW30004   3.784   3.606   1.997
 9702SOL    HW130005   3.738   3.533   1.946
 9702SOL    HW230006   3.716   3.661   2.045
 9703SOL     OW30007   6.211   4.256   4.694
 9703SOL    HW130008   6.236   4.220   4.784
 9703SOL    HW230009   6.112   4.270   4.691
 9704SOL     OW30010   1.367   4.192   2.758
 9704SOL    HW130011   1.439   4.172   2.691
 9704SOL    HW230012   1.393   4.155   2.847
 9705SOL     OW30013   6.794   3.048   5.443
 9705SOL    HW130014   6.770   2.957   5.410
 9705SOL    HW230015   6.765   3.058   5.538
 9706SOL     OW30016   0.784   1.403   2.472
 9706SOL    HW130017   0.799   1.306   2.492
 9706SOL    HW230018   0.815   1.423   2.378
 9707SOL     OW30019   1.346   4.943   2.214
 9707SOL    HW130020   1.406   5.006   2.264
 9707SOL    HW230021   1.259   4.934   2.262
 9708SOL     OW30022   2.731   0.944   1.874
 9708SOL    HW130023   2.691   0.855   1.850
 9708SOL    HW230024   2.676   0.986   1.947
 9709SOL     OW30025   5.585   2.278   1.692
 9709SOL    HW130026   5.538   2.236   1.769
 9709SOL    HW230027   5.547   2.244   1.607
 9710SOL     OW30028   6.998   5.428   4.175
 9710SOL    HW130029   6.905   5.454   4.147
 9710SOL    HW230030   0.028   5.415   4.094
 9711SOL     OW30031   3.223   0.936   0.691
 9711SOL    HW130032   3.204   0.924   0.789
 9711SOL    HW230033   3.239   0.848   0.649
 9712SOL     OW30034   5.394   1.458   6.934
 9712SOL    HW130035   5.393   1.522   6.858
 9712SOL    HW230036   5.404   1.508   7.020
 9713SOL     OW30037   0.930   6.494   3.088
 9713SOL    HW130038   0.928   6.548   3.172
 9713SOL    HW230039   1.010   6.520   3.033
 9714SOL     OW30040   2.385   4.338   4.366
 9714SOL    HW130041   2.351   4.329   4.273
 9714SOL    HW230042   2.357   4.258   4.419
 9715SOL     OW30043   6.880   3.545   6.931
 9715SOL    HW130044   6.825   3.466   6.960
 9715SOL    HW230045   6.974   3.534   6.961
 9716SOL     OW30046   2.431   5.351   0.286
 9716SOL    HW130047   2.394   5.439   0.257
 9716SOL    HW230048   2.438   5.290   0.206
 9717SOL     OW30049   4.047   2.228   5.334
 9717SOL    HW130050   4.014   2.135   5.348
 9717SOL    HW230051   3.970   2.291   5.329
 9718SOL     OW30052   4.019   2.605   6.271
 9718SOL    HW130053   3.974   2.588   6.184
 9718SOL    HW230054   4.071   2.691   6.265
 9719SOL     OW30055   4.913   0.130   5.817
 9719SOL    HW130056   4.915   0.226   5.845
 9719SOL    HW230057   4.820   0.105   5.792
 9720SOL     OW30058   2.140   2.931   3.161
 9720SOL    HW130059   2.128   3.025   3.128
 9720SOL    HW230060   2.070   2.910   3.228
 9721SOL     OW30061   0.998   1.164   0.122
 9721SOL    HW130062   1.015   1.261   0.101
 9721SOL    HW230063   1.079   1.125   0.165
 9722SOL     OW30064   3.982   2.632   5.375
 9722SOL    HW130065   4.054   2.594   5.317
 9722SOL    HW230066   4.012   2.721   5.410
 9723SOL     OW30067   6.342   0.051   5.028
 9723SOL    HW130068   6.408   0.023   4.958
 9723SOL    HW230069   6.375   0.132   5.075
 9724SOL     OW30070   1.922   5.359   0.089
 9724SOL    HW130071   1.893   5.308   0.170
 9724SOL    HW230072   1.891   5.311   0.007
 9725SOL     OW30073   3.972   5.134   4.625
 9725SOL    HW130074   3.967   5.041   4.589
 9725SOL    HW230075   3.927   5.197   4.561
 9726SOL     OW30076   0.080   1.149   3.286
 9726SOL    HW130077   0.167   1.101   3.292
 9726SOL    HW230078   0.022   1.106   3.218
 9727SOL     OW30079   0.365   1.465   1.163
 9727SOL    HW130080   0.310   1.409   1.100
 9727SOL    HW230081   0.445   1.500   1.115
 9728SOL     OW30082   4.617   1.653   4.492
 9728SOL    HW130083   4.595   1.736   4.441
 9728SOL    HW230084   4.660   1.678   4.579
 9729SOL     OW30085   0.234   5.252   2.872
 9729SOL    HW130086   0.223   5.349   2.891
 9729SOL    HW230087   0.191   5.230   2.785
 9730SOL     OW30088   1.176   4.178   3.067
 9730SOL    HW130089   1.213   4.270   3.078
 9730SOL    HW230090   1.096   4.181   3.008
 9731SOL     OW30091   5.535   3.408   1.989
 9731SOL    HW130092   5.619   3.390   2.040
 9731SOL    HW230093   5.540   3.499   1.948
 9732SOL     OW30094   2.003   3.567   2.957
 9732SOL    HW130095   2.068   3.643   2.962
 9732SOL    HW230096   1.913   3.601   2.930
 9733SOL     OW30097   5.810   4.798   1.960
 9733SOL    HW130098   5.719   4.803   1.920
 9733SOL    HW230099   5.855   4.714   1.929
 9734SOL     OW30100   5.219   5.421   6.631
 9734SOL    HW130101   5.316   5.413   6.610
 9734SOL    HW230102   5.203   5.506   6.682
 9735SOL     OW30103   0.343   2.352   1.030
 9735SOL    HW130104   0.414   2.327   1.096
 9735SOL    HW230105   0.367   2.314   0.941
 9736SOL     OW30106   4.842   1.285   4.907
 9736SOL    HW130107   4.908   1.293   4.981
 9736SOL    HW230108   4.771   1.355   4.918
 9737SOL     OW30109   6.107   3.276   2.847
 9737SOL    HW130110   6.131   3.368   2.814
 9737SOL    HW230111   6.046   3.233   2.781
 9738SOL     OW30112   2.483   6.738   1.816
 9738SOL    HW130113   2.412   6.694   1.871
 9738SOL    HW230114   2.455   6.831   1.791
 9739SOL     OW30115   5.777   6.985   0.342
 9739SOL    HW130116   5.869   6.946   0.343
 9739SOL    HW230117   5.756   7.024   0.431
 9740SOL     OW30118   6.011   0.610   3.355
 9740SOL    HW130119   5.996   0.655   3.444
 9740SOL    HW230120   5.927   0.612   3.301
 9741SOL     OW30121   2.407   1.730   4.522
 9741SOL    HW130122   2.412   1.656   4.589
 9741SOL    HW230123   2.371   1.813   4.566
 9742SOL     OW30124   3.778   2.313   6.254
 9742SOL    HW130125   3.727   2.238   6.210
 9742SOL    HW230126   3.722   2.396   6.250
 9743SOL     OW30127   5.225   3.493   4.672
 9743SOL    HW130128   5.262   3.432   4.742
 9743SOL    HW230129   5.128   3.472   4.658
 9744SOL     OW30130   1.724   1.700   3.528
 9744SOL    HW130131   1.789   1.766   3.492
 9744SOL    HW230132   1.755   1.607   3.507
 9745SOL     OW30133   6.729   0.348   6.229
 9745SOL    HW130134   6.803   0.355   6.295
 9745SOL    HW230135   6.682   0.261   6.240
 9746SOL     OW30136   4.297   4.938   6.121
 9746SOL    HW130137   4.235   4.921   6.045
 9746SOL    HW230138   4.365   5.006   6.094
 9747SOL     OW30139   2.412   1.328   2.895
 9747SOL    HW130140   2.385   1.306   2.801
 9747SOL    HW230141   2.504   1.367   2.895
 9748SOL     OW30142   1.020   0.838   3.439
 9748SOL    HW130143   1.105   0.809   3.395
 9748SOL    HW230144   1.040   0.910   3.505
 9749SOL     OW30145   6.976   0.995   2.206
 9749SOL    HW130146   0.046   0.972   2.190
 9749SOL    HW230147   6.941   0.941   2.283
 9750SOL     OW30148   6.050   3.110   4.155
 9750SOL    HW130149   6.104   3.172   4.098
 9750SOL    HW230150   5.959   3.150   4.171
 9751SOL     OW30151   3.718   6.971   1.766
 9751SOL    HW130152   3.726   6.935   1.859
 9751SOL    HW230153   3.685   0.039   1.770
 9752SOL     OW30154   3.144   3.599   6.963
 9752SOL    HW130155   3.198   3.564   6.887
 9752SOL    HW230156   3.071   3.657   6.928
 9753SOL     OW30157   6.706   6.092   5.134
 9753SOL    HW130158   6.783   6.055   5.081
 9753SOL    HW230159   6.687   6.032   5.211
 9754SOL     OW30160   3.267   0.674   1.523
 9754SOL    HW130161   3.259   0.580   1.556
 9754SOL    HW230162   3.215   0.735   1.583
 9755SOL     OW30163   2.963   4.175   0.498
 9755SOL    HW130164   2.916   4.194   0.412
 9755SOL    HW230165   2.951   4.078   0.522
 9756SOL     OW30166   5.620   0.213   5.868
 9756SOL    HW130167   5.694   0.145   5.862
 9756SOL    HW230168   5.611   0.261   5.781
 9757SOL     OW30169   5.181   4.391   4.334
 9757SOL    HW130170   5.098   4.405   4.280
 9757SOL    HW230171   5.187   4.295   4.362
 9758SOL     OW30172   1.921   0.476   1.921
 9758SOL    HW130173   1.894   0.381   1.906
 9758SOL    HW230174   1.982   0.481   2.000
 9759SOL     OW30175   6.960   1.043   1.571
 9759SOL    HW130176   6.955   1.035   1.471
 9759SOL    HW230177   6.869   1.031   1.610
 9760SOL     OW30178   4.968   1.269   6.944
 9760SOL    HW130179   4.970   1.277   6.844
 9760SOL    HW230180   4.874   1.262   6.975
 9761SOL     OW30181   1.350   2.006   0.942
 9761SOL    HW130182   1.350   2.101   0.971
 9761SOL    HW230183   1.430   1.959   0.980
 9762SOL     OW30184   2.659   1.860   5.645
 9762SOL    HW130185   2.602   1.779   5.657
 9762SOL    HW230186   2.680   1.872   5.548
 9763SOL     OW30187   6.439   1.301   0.862
 9763SOL    HW130188   6.490   1.222   0.829
 9763SOL    HW230189   6.474   1.327   0.953
 9764SOL     OW30190   6.935   2.431   2.737
 9764SOL    HW130191   6.890   2.401   2.821
 9764SOL    HW230192   0.008   2.431   2.750
 9765SOL     OW30193   6.979   0.400   2.254
 9765SOL    HW130194   6.939   0.486   2.223
 9765SOL    HW230195   7.024   0.414   2.342
 9766SOL     OW30196   1.893   1.915   4.197
 9766SOL    HW130197   1.864   1.838   4.253
 9766SOL    HW230198   1.914   1.883   4.104
 9767SOL     OW30199   2.420   2.355   5.618
 9767SOL    HW130200   2.455   2.366   5.711
 9767SOL    HW230201   2.476   2.288   5.569
 9768SOL     OW30202   5.364   3.174   0.928
 9768SOL    HW130203   5.365   3.077   0.905
 9768SOL    HW230204   5.337   3.185   1.024
 9769SOL     OW30205   3.809   1.579   5.183
 9769SOL    HW130206   3.905   1.560   5.163
 9769SOL    HW230207   3.796   1.677   5.198
 9770SOL     OW30208   2.491   2.697   6.313
 9770SOL    HW130209   2.579   2.733   6.282
 9770SOL    HW230210   2.437   2.670   6.233
 9771SOL     OW30211   2.677   0.183   2.047
 9771SOL    HW130212   2.640   0.189   1.954
 9771SOL    HW230213   2.745   0.109   2.051
 9772SOL     OW30214   1.254   0.295   1.160
 9772SOL    HW130215   1.280   0.379   1.112
 9772SOL    HW230216   1.249   0.219   1.096
 9773SOL     OW30217   5.537   4.829   1.890
 9773SOL    HW130218   5.562   4.883   1.971
 9773SOL    HW230219   5.508   4.890   1.817
 9774SOL     OW30220   1.074   4.608   5.027
 9774SOL    HW130221   1.121   4.696   5.023
 9774SOL    HW230222   1.053   4.586   5.122
 9775SOL     OW30223   2.479   1.272   3.732
 9775SOL    HW130224   2.566   1.318   3.752
 9775SOL    HW230225   2.476   1.249   3.634
 9776SOL     OW30226   2.267   5.614   0.437
 9776SOL    HW130227   2.291   5.606   0.340
 9776SOL    HW230228   2.326   5.681   0.481
 9777SOL     OW30229   4.363   0.868   5.671
 9777SOL    HW130230   4.446   0.914   5.639
 9777SOL    HW230231   4.306   0.843   5.593
 9778SOL     OW30232   0.030   3.950   4.040
 9778SOL    HW130233   0.016   4.012   3.963
 9778SOL    HW230234   7.002   3.866   4.026
 9779SOL     OW30235   2.024   0.887   3.564
 9779SOL    HW130236   2.096   0.895   3.633
 9779SOL    HW230237   1.974   0.973   3.558
 9780SOL     OW30238   1.142   2.831   2.149
 9780SOL    HW130239   1.066   2.823   2.084
 9780SOL    HW230240   1.128   2.912   2.206
 9781SOL     OW30241   2.232   2.163   2.968
 9781SOL    HW130242   2.314   2.179   2.912
 9781SOL    HW230243   2.245   2.081   3.023
 9782SOL     OW30244   0.035   2.596   0.858
 9782SOL    HW130245   7.021   2.557   0.941
 9782SOL    HW230246   0.134   2.604   0.870
 9783SOL     OW30247   3.594   0.957   2.972
 9783SOL    HW130248   3.615   1.044   3.016
 9783SOL    HW230249   3.579   0.971   2.874
 9784SOL     OW30250   1.296   1.220   6.496
 9784SOL    HW130251   1.259   1.313   6.500
 9784SOL    HW230252   1.236   1.158   6.545
 9785SOL     OW30253   7.008   3.757   4.805
 9785SOL    HW130254   6.930   3.727   4.861
 9785SOL    HW230255   6.995   3.853   4.780
 9786SOL     OW30256   2.278   4.001   0.342
 9786SOL    HW130257   2.311   4.091   0.372
 9786SOL    HW230258   2.309   3.931   0.406
 9787SOL     OW30259   3.162   3.774   3.513
 9787SOL    HW130260   3.225   3.699   3.535
 9787SOL    HW230261   3.160   3.787   3.414
 9788SOL     OW30262   4.353   0.404   2.345
 9788SOL    HW130263   4.452   0.419   2.342
 9788SOL    HW230264   4.335   0.305   2.350
 9789SOL     OW30265   3.897   1.436   6.980
 9789SOL    HW130266   3.808   1.463   6.943
 9789SOL    HW230267   3.957   1.409   6.905
 9790SOL     OW30268   0.178   5.212   3.618
 9790SOL    HW130269   0.167   5.128   3.671
 9790SOL    HW230270   0.276   5.228   3.602
 9791SOL     OW30271   0.916   6.518   1.107
 9791SOL    HW130272   0.923   6.460   1.026
 9791SOL    HW230273   0.973   6.479   1.180
 9792SOL     OW30274   4.063   5.915   0.791
 9792SOL    HW130275   4.004   5.962   0.856
 9792SOL    HW230276   4.145   5.883   0.837
 9793SOL     OW30277   5.733   0.387   3.434
 9793SOL    HW130278   5.649   0.367   3.485
 9793SOL    HW230279   5.744   0.486   3.425
 9794SOL     OW30280   4.454   4.663   4.609
 9794SOL    HW130281   4.538   4.619   4.640
 9794SOL    HW230282   4.455   4.671   4.509
 9795SOL     OW30283   2.121   3.401   3.223
 9795SOL    HW130284   2.158   3.494   3.215
 9795SOL    HW230285   2.023   3.403   3.203
 9796SOL     OW30286   3.903   3.588   3.670
 9796SOL    HW130287   3.958   3.668   3.648
 9796SOL    HW230288   3.927   3.512   3.610
 9797SOL     OW30289   2.776   5.179   6.950
 9797SOL    HW130290   2.729   5.252   7.000
 9797SOL    HW230291   2.795   5.103   7.013
 9798SOL     OW30292   0.418   3.913   0.259
 9798SOL    HW130293   0.338   3.880   0.209
 9798SOL    HW230294   0.471   3.835   0.292
 9799SOL     OW30295   2.673   0.363   6.442
 9799SOL    HW130296   2.687   0.453   6.401
 9799SOL    HW230297   2.658   0.373   6.540
 9800SOL     OW30298   6.585   3.911   4.909
 9800SOL    HW130299   6.584   3.849   4.830
 9800SOL    HW230300   6.562   3.860   4.992
 9801SOL     OW30301   6.405   6.385   6.885
 9801SOL    HW130302   6.321   6.354   6.839
 9801SOL    HW230303   6.471   6.417   6.817
 9802SOL     OW30304   3.617   4.870   0.090
 9802SOL    HW130305   3.641   4.856   0.186
 9802SOL    HW230306   3.603   4.781   0.046
 9803SOL     OW30307   1.035   3.696   6.452
 9803SOL    HW130308   0.984   3.753   6.389
 9803SOL    HW230309   1.133   3.717   6.444
 9804SOL     OW30310   7.000   6.058   2.539
 9804SOL    HW130311   6.984   6.007   2.623
 9804SOL    HW230312   0.072   6.059   2.518
 9805SOL     OW30313   0.683   6.099   3.848
 9805SOL    HW130314   0.660   6.013   3.802
 9805SOL    HW230315   0.711   6.167   3.780
 9806SOL     OW30316   4.025   1.555   0.162
 9806SOL    HW130317   3.993   1.519   0.250
 9806SOL    HW230318   3.973   1.512   0.088
 9807SOL     OW30319   3.377   3.300   2.110
 9807SOL    HW130320   3.410   3.394   2.117
 9807SOL    HW230321   3.278   3.299   2.114
 9808SOL     OW30322   4.068   5.993   2.710
 9808SOL    HW130323   4.000   6.065   2.727
 9808SOL    HW230324   4.158   6.025   2.740
 9809SOL     OW30325   0.264   3.104   1.208
 9809SOL    HW130326   0.317   3.171   1.259
 9809SOL    HW230327   0.320   3.023   1.191
 9810SOL     OW30328   2.506   2.265   0.409
 9810SOL    HW130329   2.529   2.172   0.437
 9810SOL    HW230330   2.578   2.301   0.351
 9811SOL     OW30331   5.902   3.528   4.223
 9811SOL    HW130332   5.868   3.604   4.280
 9811SOL    HW230333   5.935   3.455   4.283
 9812SOL     OW30334   3.770   6.536   5.869
 9812SOL    HW130335   3.812   6.520   5.780
 9812SOL    HW230336   3.720   6.454   5.898
 9813SOL     OW30337   5.493   1.255   1.798
 9813SOL    HW130338   5.467   1.283   1.705
 9813SOL    HW230339   5.520   1.158   1.797
 9814SOL     OW30340   5.588   1.541   0.346
 9814SOL    HW130341   5.594   1.571   0.251
 9814SOL    HW230342   5.522   1.466   0.353
 9815SOL     OW30343   4.363   2.249   4.887
 9815SOL    HW130344   4.312   2.211   4.810
 9815SOL    HW230345   4.303   2.308   4.941
 9816SOL     OW30346   2.140   0.269   6.974
 9816SOL    HW130347   2.224   0.317   6.998
 9816SOL    HW230348   2.063   0.312   7.021
 9817SOL     OW30349   6.432   0.200   3.087
 9817SOL    HW130350   6.356   0.215   3.024
 9817SOL    HW230351   6.414   0.119   3.142
 9818SOL     OW30352   6.210   2.992   4.365
 9818SOL    HW130353   6.172   3.048   4.291
 9818SOL    HW230354   6.150   2.996   4.444
 9819SOL     OW30355   4.096   0.430   2.987
 9819SOL    HW130356   4.100   0.508   3.048
 9819SOL    HW230357   4.154   0.447   2.907
 9820SOL     OW30358   4.595   3.421   5.830
 9820SOL    HW130359   4.627   3.371   5.749
 9820SOL    HW230360   4.598   3.519   5.812
 9821SOL     OW30361   6.293   5.366   6.977
 9821SOL    HW130362   6.275   5.316   0.035
 9821SOL    HW230363   6.227   5.441   6.968
 9822SOL     OW30364   0.591   7.012   2.531
 9822SOL    HW130365   0.498   6.977   2.516
 9822SOL    HW230366   0.656   6.958   2.477
 9823SOL     OW30367   3.635   1.121   1.733
 9823SOL    HW130368   3.672   1.208   1.766
 9823SOL    HW230369   3.569   1.138   1.660
 9824SOL     OW30370   1.415   4.014   5.978
 9824SOL    HW130371   1.380   3.929   6.019
 9824SOL    HW230372   1.427   4.001   5.879
 9825SOL     OW30373   4.042   4.944   5.176
 9825SOL    HW130374   3.980   4.996   5.118
 9825SOL    HW230375   4.021   4.963   5.272
 9826SOL     OW30376   4.068   0.521   5.816
 9826SOL    HW130377   4.098   0.543   5.909
 9826SOL    HW230378   4.108   0.434   5.789
 9827SOL     OW30379   0.967   3.875   4.581
 9827SOL    HW130380   0.944   3.828   4.667
 9827SOL    HW230381   0.918   3.832   4.505
 9828SOL     OW30382   3.704   2.666   6.673
 9828SOL    HW130383   3.697   2.763   6.695
 9828SOL    HW230384   3.724   2.615   6.757
 9829SOL     OW30385   2.526   5.491   0.627
 9829SOL    HW130386   2.454   5.423   0.635
 9829SOL    HW230387   2.552   5.501   0.531
 9830SOL     OW30388   5.995   1.456   1.398
 9830SOL    HW130389   5.899   1.433   1.383
 9830SOL    HW230390   6.002   1.550   1.433
 9831SOL     OW30391   6.187   6.485   1.564
 9831SOL    HW130392   6.087   6.484   1.575
 9831SOL    HW230393   6.219   6.579   1.560
 9832SOL     OW30394   4.400   5.208   1.501
 9832SOL    HW130395   4.307   5.240   1.522
 9832SOL    HW230396   4.436   5.158   1.580
 9833SOL     OW30397   3.706   3.694   5.240
 9833SOL    HW130398   3.667   3.768   5.295
 9833SOL    HW230399   3.632   3.640   5.200
 9834SOL     OW30400   0.734   3.646   4.710
 9834SOL    HW130401   0.811   3.591   4.741
 9834SOL    HW230402   0.700   3.702   4.786
 9835SOL     OW30403   4.800   1.555   4.218
 9835SOL    HW130404   4.798   1.462   4.181
 9835SOL    HW230405   4.864   1.610   4.165
 9836SOL     OW30406   4.962   4.983   3.450
 9836SOL    HW130407   5.002   4.894   3.469
 9836SOL    HW230408   4.981   5.009   3.355
 9837SOL     OW30409   2.770   6.371   4.314
 9837SOL    HW130410   2.739   6.429   4.238
 9837SOL    HW230411   2.742   6.277   4.297
 9838SOL     OW30412   0.739   6.128   5.980
 9838SOL    HW130413   0.673   6.203   5.973
 9838SOL    HW230414   0.719   6.074   6.062
 9839SOL     OW30415   0.397   1.618   1.632
 9839SOL    HW130416   0.490   1.652   1.615
 9839SOL    HW230417   0.398   1.518   1.636
 9840SOL     OW30418   6.443   0.498   1.041
 9840SOL    HW130419   6.536   0.475   1.013
 9840SOL    HW230420   6.440   0.594   1.071
 9841SOL     OW30421   1.845   3.756   4.631
 9841SOL    HW130422   1.788   3.694   4.578
 9841SOL    HW230423   1.938   3.755   4.595
 9842SOL     OW30424   2.929   3.357   2.668
 9842SOL    HW130425   2.929   3.449   2.708
 9842SOL    HW230426   2.941   3.289   2.741
 9843SOL     OW30427   6.709   2.633   1.771
 9843SOL    HW130428   6.802   2.669   1.764
 9843SOL    HW230429   6.711   2.545   1.818
 9844SOL     OW30430   5.558   0.213   2.405
 9844SOL    HW130431   5.476   0.251   2.447
 9844SOL    HW230432   5.629   0.284   2.399
 9845SOL     OW30433   1.618   2.007   3.479
 9845SOL    HW130434   1.560   2.063   3.420
 9845SOL    HW230435   1.700   1.978   3.429
 9846SOL     OW30436   2.963   3.633   3.020
 9846SOL    HW130437   3.014   3.715   2.995
 9846SOL    HW230438   2.916   3.647   3.107
 9847SOL     OW30439   1.823   3.936   5.907
 9847SOL    HW130440   1.795   3.845   5.877
 9847SOL    HW230441   1.913   3.958   5.868
 9848SOL     OW30442   4.771   3.147   0.040
 9848SOL    HW130443   4.798   3.055   0.070
 9848SOL    HW230444   4.834   3.179   6.996
 9849SOL     OW30445   6.802   0.000   6.182
 9849SOL    HW130446   6.768   0.058   6.257
 9849SOL    HW230447   6.747   6.943   6.176
 9850SOL     OW30448   3.774   6.489   2.021
 9850SOL    HW130449   3.757   6.528   1.931
 9850SOL    HW230450   3.857   6.529   2.060
 9851SOL     OW30451   5.303   1.356   5.131
 9851SOL    HW130452   5.332   1.451   5.143
 9851SOL    HW230453   5.205   1.352   5.112
 9852SOL     OW30454   4.877   1.807   3.644
 9852SOL    HW130455   4.929   1.892   3.650
 9852SOL    HW230456   4.779   1.828   3.651
 9853SOL     OW30457   5.946   3.833   2.717
 9853SOL    HW130458   5.916   3.922   2.683
 9853SOL    HW230459   5.893   3.809   2.799
 9854SOL     OW30460   5.898   5.037   4.513
 9854SOL    HW130461   5.801   5.040   4.489
 9854SOL    HW230462   5.908   5.015   4.610
 9855SOL     OW30463   1.425   3.828   1.693
 9855SOL    HW130464   1.447   3.735   1.722
 9855SOL    HW230465   1.379   3.877   1.767
 9856SOL     OW30466   3.465   3.322   0.304
 9856SOL    HW130467   3.371   3.299   0.276
 9856SOL    HW230468   3.528   3.254   0.266
 9857SOL     OW30469   5.794   3.290   3.189
 9857SOL    HW130470   5.873   3.345   3.162
 9857SOL    HW230471   5.718   3.309   3.126
 9858SOL     OW30472   5.497   0.571   1.765
 9858SOL    HW130473   5.579   0.592   1.710
 9858SOL    HW230474   5.431   0.521   1.708
 9859SOL     OW30475   6.281   0.765   2.181
 9859SOL    HW130476   6.182   0.756   2.198
 9859SOL    HW230477   6.317   0.839   2.238
 9860SOL     OW30478   0.780   0.884   2.599
 9860SOL    HW130479   0.696   0.901   2.650
 9860SOL    HW230480   0.859   0.898   2.659
 9861SOL     OW30481   4.171   5.840   4.423
 9861SOL    HW130482   4.203   5.934   4.432
 9861SOL    HW230483   4.180   5.793   4.511
 9862SOL     OW30484   1.629   2.339   0.794
 9862SOL    HW130485   1.709   2.324   0.852
 9862SOL    HW230486   1.546   2.321   0.846
 9863SOL     OW30487   3.640   0.271   2.879
 9863SOL    HW130488   3.558   0.278   2.821
 9863SOL    HW230489   3.635   0.186   2.932
 9864SOL     OW30490   5.049   6.022   2.380
 9864SOL    HW130491   5.141   5.984   2.379
 9864SOL    HW230492   4.982   5.949   2.379
 9865SOL     OW30493   0.481   0.435   3.727
 9865SOL    HW130494   0.410   0.392   3.672
 9865SOL    HW230495   0.570   0.397   3.703
 9866SOL     OW30496   5.027   3.748   4.422
 9866SOL    HW130497   5.086   3.823   4.451
 9866SOL    HW230498   4.985   3.706   4.502
 9867SOL     OW30499   4.909   1.411   0.455
 9867SOL    HW130500   4.959   1.377   0.535
 9867SOL    HW230501   4.829   1.463   0.485
 9868SOL     OW30502   6.611   4.611   6.913
 9868SOL    HW130503   6.554   4.660   6.979
 9868SOL    HW230504   6.707   4.631   6.930
 9869SOL     OW30505   1.952   4.066   2.926
 9869SOL    HW130506   1.886   4.060   3.000
 9869SOL    HW230507   1.907   4.046   2.839
 9870SOL     OW30508   4.611   4.305   2.474
 9870SOL    HW130509   4.590   4.376   2.407
 9870SOL    HW230510   4.538   4.237   2.475
 9871SOL     OW30511   2.089   0.570   5.823
 9871SOL    HW130512   2.015   0.539   5.763
 9871SOL    HW230513   2.141   0.642   5.776
 9872SOL     OW30514   2.898   4.803   3.311
 9872SOL    HW130515   2.864   4.897   3.314
 9872SOL    HW230516   2.830   4.742   3.352
 9873SOL     OW30517   1.435   2.805   0.347
 9873SOL    HW130518   1.407   2.822   0.253
 9873SOL    HW230519   1.456   2.708   0.358
 9874SOL     OW30520   0.607   3.025   3.543
 9874SOL    HW130521   0.597   3.077   3.628
 9874SOL    HW230522   0.699   2.988   3.537
 9875SOL     OW30523   0.449   0.750   2.409
 9875SOL    HW130524   0.454   0.795   2.499
 9875SOL    HW230525   0.487   0.810   2.339
 9876SOL     OW30526   6.259   0.123   2.678
 9876SOL    HW130527   6.317   0.067   2.737
 9876SOL    HW230528   6.285   0.108   2.582
 9877SOL     OW30529   3.419   6.767   2.800
 9877SOL    HW130530   3.360   6.839   2.837
 9877SOL    HW230531   3.477   6.806   2.728
 9878SOL     OW30532   1.526   5.811   5.579
 9878SOL    HW130533   1.615   5.783   5.542
 9878SOL    HW230534   1.510   5.764   5.666
 9879SOL     OW30535   4.141   5.298   4.952
 9879SOL    HW130536   4.051   5.259   4.933
 9879SOL    HW230537   4.211   5.250   4.899
 9880SOL     OW30538   1.224   2.149   5.960
 9880SOL    HW130539   1.286   2.226   5.978
 9880SOL    HW230540   1.216   2.134   5.862
 9881SOL     OW30541   0.744   2.013   5.996
 9881SOL    HW130542   0.814   2.072   6.036
 9881SOL    HW230543   0.656   2.061   5.995
 9882SOL     OW30544   1.251   2.363   4.067
 9882SOL    HW130545   1.229   2.425   4.143
 9882SOL    HW230546   1.302   2.414   3.997
 9883SOL     OW30547   1.308   0.916   1.783
 9883SOL    HW130548   1.382   0.875   1.837
 9883SOL    HW230549   1.238   0.847   1.765
 9884SOL     OW30550   4.028   0.426   4.052
 9884SOL    HW130551   3.931   0.403   4.059
 9884SOL    HW230552   4.043   0.519   4.086
 9885SOL     OW30553   5.924   4.514   4.686
 9885SOL    HW130554   5.878   4.436   4.642
 9885SOL    HW230555   5.863   4.557   4.751
 9886SOL     OW30556   1.192   4.982   2.870
 9886SOL    HW130557   1.186   5.079   2.849
 9886SOL    HW230558   1.179   4.967   2.968
 9887SOL     OW30559   3.489   1.357   7.008
 9887SOL    HW130560   3.509   1.358   0.080
 9887SOL    HW230561   3.566   1.397   6.957
 9888SOL     OW30562   0.023   3.785   0.362
 9888SOL    HW130563   6.993   3.737   0.429
 9888SOL    HW230564   0.029   3.882   0.386
 9889SOL     OW30565   6.179   4.956   0.592
 9889SOL    HW130566   6.123   4.897   0.534
 9889SOL    HW230567   6.275   4.946   0.567
 9890SOL     OW30568   1.415   2.757   1.105
 9890SOL    HW130569   1.451   2.826   1.043
 9890SOL    HW230570   1.490   2.702   1.142
 9891SOL     OW30571   5.879   2.661   0.553
 9891SOL    HW130572   5.858   2.589   0.486
 9891SOL    HW230573   5.905   2.618   0.640
 9892SOL     OW30574   6.527   4.770   0.091
 9892SOL    HW130575   6.609   4.786   0.147
 9892SOL    HW230576   6.451   4.823   0.128
 9893SOL     OW30577   2.307   0.892   1.184
 9893SOL    HW130578   2.274   0.967   1.127
 9893SOL    HW230579   2.315   0.809   1.129
 9894SOL     OW30580   0.995   1.646   0.364
 9894SOL    HW130581   1.053   1.626   0.286
 9894SOL    HW230582   1.022   1.733   0.404
 9895SOL     OW30583   5.446   3.318   5.054
 9895SOL    HW130584   5.527   3.260   5.053
 9895SOL    HW230585   5.436   3.359   5.145
 9896SOL     OW30586   6.544   0.326   0.173
 9896SOL    HW130587   6.492   0.412   0.171
 9896SOL    HW230588   6.481   0.249   0.168
 9897SOL     OW30589   5.808   5.259   3.492
 9897SOL    HW130590   5.906   5.251   3.510
 9897SOL    HW230591   5.788   5.226   3.399
 9898SOL     OW30592   3.229   6.420   5.531
 9898SOL    HW130593   3.174   6.434   5.449
 9898SOL    HW230594   3.236   6.506   5.581
 9899SOL     OW30595   0.338   5.400   0.191
 9899SOL    HW130596   0.427   5.372   0.156
 9899SOL    HW230597   0.314   5.490   0.154
 9900SOL     OW30598   1.641   4.258   3.353
 9900SOL    HW130599   1.588   4.269   3.269
 9900SOL    HW230600   1.587   4.207   3.420
 9901SOL     OW30601   2.686   2.491   5.525
 9901SOL    HW130602   2.702   2.507   5.622
 9901SOL    HW230603   2.622   2.416   5.513
 9902SOL     OW30604   2.458   4.700   6.591
 9902SOL    HW130605   2.362   4.716   6.612
 9902SOL    HW230606   2.497   4.782   6.550
 9903SOL     OW30607   5.147   1.849   3.252
 9903SOL    HW130608   5.128   1.751   3.254
 9903SOL    HW230609   5.206   1.873   3.330
 9904SOL     OW30610   0.103   3.473   6.376
 9904SOL    HW130611   0.103   3.570   6.396
 9904SOL    HW230612   0.067   3.422   6.454
 9905SOL     OW30613   4.184   1.411   0.737
 9905SOL    HW130614   4.178   1.323   0.690
 9905SOL    HW230615   4.136   1.480   0.684
 9906SOL     OW30616   3.736   2.975   2.788
 9906SOL    HW130617   3.750   2.947   2.693
 9906SOL    HW230618   3.639   2.968   2.810
 9907SOL     OW30619   0.154   0.725   2.216
 9907SOL    HW130620   0.229   0.730   2.150
 9907SOL    HW230621   0.182   0.670   2.295
 9908SOL     OW30622   4.925   2.815   3.042
 9908SOL    HW130623   4.852   2.800   2.975
 9908SOL    HW230624   4.985   2.735   3.044
 9909SOL     OW30625   3.026   6.378   4.054
 9909SOL    HW130626   3.015   6.470   4.091
 9909SOL    HW230627   2.976   6.313   4.112
 9910SOL     OW30628   1.033   4.639   2.533
 9910SOL    HW130629   0.937   4.662   2.544
 9910SOL    HW230630   1.045   4.540   2.536
 9911SOL     OW30631   4.034   6.892   2.000
 9911SOL    HW130632   3.945   6.859   1.969
 9911SOL    HW230633   4.024   6.982   2.042
 9912SOL     OW30634   4.848   1.986   0.700
 9912SOL    HW130635   4.880   2.049   0.770
 9912SOL    HW230636   4.759   2.016   0.667
 9913SOL     OW30637   5.872   3.106   6.808
 9913SOL    HW130638   5.880   3.139   6.902
 9913SOL    HW230639   5.799   3.156   6.761
 9914SOL     OW30640   0.457   2.596   4.805
 9914SOL    HW130641   0.425   2.501   4.807
 9914SOL    HW230642   0.536   2.604   4.744
 9915SOL     OW30643   4.767   0.854   3.498
 9915SOL    HW130644   4.722   0.866   3.586
 9915SOL    HW230645   4.725   0.777   3.449
 9916SOL     OW30646   2.240   2.556   2.118
 9916SOL    HW130647   2.161   2.526   2.172
 9916SOL    HW230648   2.306   2.600   2.179
 9917SOL     OW30649   6.765   4.306   6.256
 9917SOL    HW130650   6.823   4.246   6.311
 9917SOL    HW230651   6.674   4.310   6.295
 9918SOL     OW30652   4.193   1.642   2.842
 9918SOL    HW130653   4.256   1.575   2.881
 9918SOL    HW230654   4.140   1.685   2.915
 9919SOL     OW30655   6.192   6.748   1.565
 9919SOL    HW130656   6.134   6.786   1.493
 9919SOL    HW230657   6.277   6.801   1.572
 9920SOL     OW30658   4.832   1.288   2.885
 9920SOL    HW130659   4.849   1.385   2.870
 9920SOL    HW230660   4.735   1.268   2.871
 9921SOL     OW30661   4.381   5.462   5.769
 9921SOL    HW130662   4.378   5.559   5.746
 9921SOL    HW230663   4.290   5.431   5.796
 9922SOL     OW30664   0.886   5.843   6.956
 9922SOL    HW130665   0.935   5.769   6.910
 9922SOL    HW230666   0.952   5.909   6.993
 9923SOL     OW30667   4.410   4.978   6.858
 9923SOL    HW130668   4.418   4.883   6.885
 9923SOL    HW230669   4.428   5.037   6.936
 9924SOL     OW30670   0.154   3.244   5.270
 9924SOL    HW130671   0.241   3.201   5.249
 9924SOL    HW230672   0.165   3.344   5.273
 9925SOL     OW30673   5.724   2.513   4.040
 9925SOL    HW130674   5.788   2.539   4.112
 9925SOL    HW230675   5.669   2.592   4.013
 9926SOL     OW30676   2.413   4.215   6.979
 9926SOL    HW130677   2.421   4.159   0.035
 9926SOL    HW230678   2.495   4.272   6.969
 9927SOL     OW30679   6.026   0.000   2.892
 9927SOL    HW130680   6.082   6.946   2.870
 9927SOL    HW230681   5.965   0.021   2.815
 9928SOL     OW30682   5.193   4.653   1.205
 9928SOL    HW130683   5.173   4.710   1.126
 9928SOL    HW230684   5.129   4.675   1.279
 9929SOL     OW30685   1.876   5.589   4.917
 9929SOL    HW130686   1.922   5.575   4.830
 9929SOL    HW230687   1.880   5.506   4.972
 9930SOL     OW30688   6.916   0.114   4.481
 9930SOL    HW130689   6.832   0.081   4.525
 9930SOL    HW230690   6.923   0.074   4.390
 9931SOL     OW30691   1.241   4.316   5.132
 9931SOL    HW130692   1.210   4.363   5.215
 9931SOL    HW230693   1.162   4.283   5.081
 9932SOL     OW30694   1.212   6.748   6.332
 9932SOL    HW130695   1.175   6.695   6.408
 9932SOL    HW230696   1.299   6.790   6.360
 9933SOL     OW30697   1.811   5.352   2.962
 9933SOL    HW130698   1.909   5.362   2.978
 9933SOL    HW230699   1.761   5.415   3.022
 9934SOL     OW30700   5.777   2.144   5.358
 9934SOL    HW130701   5.756   2.213   5.289
 9934SOL    HW230702   5.731   2.058   5.335
 9935SOL     OW30703   2.263   0.928   0.309
 9935SOL    HW130704   2.206   0.863   0.260
 9935SOL    HW230705   2.346   0.946   0.256
 9936SOL     OW30706   0.585   4.694   4.804
 9936SOL    HW130707   0.529   4.753   4.745
 9936SOL    HW230708   0.583   4.730   4.898
 9937SOL     OW30709   6.221   1.900   5.798
 9937SOL    HW130710   6.198   1.978   5.740
 9937SOL    HW230711   6.295   1.848   5.756
 9938SOL     OW30712   0.210   6.062   3.056
 9938SOL    HW130713   0.151   6.044   3.135
 9938SOL    HW230714   0.238   6.158   3.057
 9939SOL     OW30715   3.290   2.698   1.311
 9939SOL    HW130716   3.286   2.621   1.247
 9939SOL    HW230717   3.206   2.701   1.365
 9940SOL     OW30718   6.755   0.622   1.143
 9940SOL    HW130719   6.694   0.618   1.222
 9940SOL    HW230720   6.762   0.531   1.102
 9941SOL     OW30721   3.053   4.048   5.435
 9941SOL    HW130722   3.037   4.134   5.387
 9941SOL    HW230723   2.966   4.002   5.452
 9942SOL     OW30724   1.970   5.645   2.540
 9942SOL    HW130725   2.020   5.572   2.492
 9942SOL    HW230726   2.030   5.686   2.609
 9943SOL     OW30727   0.575   5.863   6.111
 9943SOL    HW130728   0.488   5.881   6.157
 9943SOL    HW230729   0.648   5.912   6.158
 9944SOL     OW30730   1.720   4.305   6.732
 9944SOL    HW130731   1.630   4.262   6.745
 9944SOL    HW230732   1.720   4.395   6.775
 9945SOL     OW30733   7.000   5.284   0.186
 9945SOL    HW130734   6.957   5.223   0.120
 9945SOL    HW230735   0.034   5.348   0.138
 9946SOL     OW30736   4.931   1.006   4.627
 9946SOL    HW130737   4.840   0.966   4.637
 9946SOL    HW230738   4.963   0.992   4.533
 9947SOL     OW30739   6.439   4.601   5.585
 9947SOL    HW130740   6.474   4.528   5.644
 9947SOL    HW230741   6.377   4.660   5.638
 9948SOL     OW30742   4.717   4.264   5.046
 9948SOL    HW130743   4.669   4.330   4.989
 9948SOL    HW230744   4.766   4.199   4.988
 9949SOL     OW30745   5.776   4.676   3.636
 9949SOL    HW130746   5.745   4.585   3.608
 9949SOL    HW230747   5.783   4.678   3.736
 9950SOL     OW30748   5.005   6.157   5.197
 9950SOL    HW130749   5.060   6.104   5.132
 9950SOL    HW230750   4.920   6.186   5.153
 9951SOL     OW30751   5.689   2.192   3.436
 9951SOL    HW130752   5.746   2.221   3.358
 9951SOL    HW230753   5.697   2.093   3.448
 9952SOL     OW30754   6.623   4.301   0.628
 9952SOL    HW130755   6.611   4.218   0.572
 9952SOL    HW230756   6.533   4.335   0.655
 9953SOL     OW30757   6.647   1.880   3.706
 9953SOL    HW130758   6.734   1.919   3.676
 9953SOL    HW230759   6.660   1.786   3.737
 9954SOL     OW30760   6.141   0.073   5.418
 9954SOL    HW130761   6.164   0.170   5.428
 9954SOL    HW230762   6.043   0.060   5.431
 9955SOL     OW30763   6.794   4.630   4.472
 9955SOL    HW130764   6.886   4.611   4.438
 9955SOL    HW230765   6.726   4.591   4.410
 9956SOL     OW30766   1.872   6.636   2.636
 9956SOL    HW130767   1.930   6.557   2.655
 9956SOL    HW230768   1.809   6.650   2.712
 9957SOL     OW30769   6.407   5.274   3.567
 9957SOL    HW130770   6.330   5.232   3.616
 9957SOL    HW230771   6.391   5.266   3.469
 9958SOL     OW30772   3.067   4.221   1.085
 9958SOL    HW130773   3.062   4.258   0.992
 9958SOL    HW230774   3.054   4.122   1.083
 9959SOL     OW30775   3.929   3.639   6.294
 9959SOL    HW130776   3.976   3.670   6.211
 9959SOL    HW230777   3.965   3.688   6.373
 9960SOL     OW30778   0.099   1.429   2.763
 9960SOL    HW130779   0.029   1.358   2.751
 9960SOL    HW230780   0.190   1.389   2.750
 9961SOL     OW30781   2.032   5.470   4.309
 9961SOL    HW130782   2.110   5.499   4.364
 9961SOL    HW230783   1.992   5.387   4.349
 9962SOL     OW30784   5.249   6.265   4.930
 9962SOL    HW130785   5.238   6.349   4.878
 9962SOL    HW230786   5.302   6.284   5.013
 9963SOL     OW30787   3.581   1.591   1.083
 9963SOL    HW130788   3.528   1.570   1.001
 9963SOL    HW230789   3.584   1.510   1.142
 9964SOL     OW30790   4.219   5.712   4.654
 9964SOL    HW130791   4.245   5.705   4.750
 9964SOL    HW230792   4.161   5.635   4.630
 9965SOL     OW30793   4.006   0.073   6.945
 9965SOL    HW130794   4.063   0.142   6.902
 9965SOL    HW230795   3.926   0.116   6.987
 9966SOL     OW30796   0.865   5.425   2.345
 9966SOL    HW130797   0.934   5.489   2.381
 9966SOL    HW230798   0.843   5.356   2.413
 9967SOL     OW30799   1.629   5.680   1.640
 9967SOL    HW130800   1.647   5.709   1.734
 9967SOL    HW230801   1.617   5.581   1.637
 9968SOL     OW30802   4.026   3.924   2.167
 9968SOL    HW130803   4.077   3.852   2.120
 9968SOL    HW230804   4.002   3.996   2.102
 9969SOL     OW30805   1.352   3.694   2.181
 9969SOL    HW130806   1.302   3.652   2.257
 9969SOL    HW230807   1.287   3.726   2.112
 9970SOL     OW30808   5.889   4.573   1.820
 9970SOL    HW130809   5.966   4.576   1.757
 9970SOL    HW230810   5.903   4.498   1.886
 9971SOL     OW30811   2.042   4.148   0.600
 9971SOL    HW130812   1.991   4.063   0.611
 9971SOL    HW230813   2.132   4.138   0.642
 9972SOL     OW30814   6.631   4.891   2.790
 9972SOL    HW130815   6.682   4.805   2.788
 9972SOL    HW230816   6.657   4.943   2.871
 9973SOL     OW30817   6.139   1.415   4.391
 9973SOL    HW130818   6.057   1.459   4.354
 9973SOL    HW230819   6.184   1.477   4.455
 9974SOL     OW30820   1.611   0.696   3.693
 9974SOL    HW130821   1.607   0.598   3.710
 9974SOL    HW230822   1.526   0.726   3.649
 9975SOL     OW30823   6.901   2.895   0.176
 9975SOL    HW130824   6.956   2.814   0.158
 9975SOL    HW230825   6.912   2.922   0.272
 9976SOL     OW30826   1.069   6.984   5.415
 9976SOL    HW130827   0.977   6.989   5.376
 9976SOL    HW230828   1.070   6.917   5.490
 9977SOL     OW30829   6.057   4.454   4.934
 9977SOL    HW130830   6.143   4.505   4.931
 9977SOL    HW230831   6.011   4.460   4.846
 9978SOL     OW30832   0.352   2.533   4.154
 9978SOL    HW130833   0.439   2.528   4.203
 9978SOL    HW230834   0.277   2.519   4.218
 9979SOL     OW30835   6.042   3.568   4.839
 9979SOL    HW130836   6.010   3.559   4.933
 9979SOL    HW230837   6.097   3.651   4.830
 9980SOL     OW30838   3.364   0.745   6.597
 9980SOL    HW130839   3.383   0.677   6.668
 9980SOL    HW230840   3.329   0.699   6.515
 9981SOL     OW30841   2.785   1.821   4.112
 9981SOL    HW130842   2.720   1.894   4.090
 9981SOL    HW230843   2.810   1.772   4.029
 9982SOL     OW30844   0.177   6.237   3.964
 9982SOL    HW130845   0.166   6.242   3.865
 9982SOL    HW230846   0.269   6.205   3.986
 9983SOL     OW30847   0.043   1.555   2.277
 9983SOL    HW130848   0.038   1.635   2.218
 9983SOL    HW230849   6.987   1.500   2.266
 9984SOL     OW30850   2.773   1.749   6.406
 9984SOL    HW130851   2.777   1.676   6.474
 9984SOL    HW230852   2.782   1.838   6.452
 9985SOL     OW30853   1.487   1.010   2.081
 9985SOL    HW130854   1.486   0.931   2.019
 9985SOL    HW230855   1.415   1.073   2.055
 9986SOL     OW30856   5.352   3.884   5.024
 9986SOL    HW130857   5.318   3.907   5.115
 9986SOL    HW230858   5.420   3.812   5.032
 9987SOL     OW30859   6.633   3.786   6.162
 9987SOL    HW130860   6.698   3.861   6.164
 9987SOL    HW230861   6.662   3.715   6.226
 9988SOL     OW30862   6.566   6.685   5.421
 9988SOL    HW130863   6.485   6.722   5.467
 9988SOL    HW230864   6.631   6.652   5.489
 9989SOL     OW30865   0.391   3.439   5.289
 9989SOL    HW130866   0.415   3.453   5.193
 9989SOL    HW230867   0.450   3.368   5.328
 9990SOL     OW30868   1.080   4.617   2.899
 9990SOL    HW130869   1.027   4.547   2.850
 9990SOL    HW230870   1.054   4.615   2.996
 9991SOL     OW30871   3.358   2.081   4.033
 9991SOL    HW130872   3.315   1.992   4.016
 9991SOL    HW230873   3.325   2.118   4.120
 9992SOL     OW30874   6.295   5.676   6.281
 9992SOL    HW130875   6.230   5.606   6.312
 9992SOL    HW230876   6.245   5.761   6.261
 9993SOL     OW30877   1.147   1.684   1.817
 9993SOL    HW130878   1.169   1.761   1.758
 9993SOL    HW230879   1.226   1.660   1.873
 9994SOL     OW30880   6.026   4.744   3.598
 9994SOL    HW130881   5.928   4.722   3.606
 9994SOL    HW230882   6.057   4.787   3.682
 9995SOL     OW30883   5.765   0.802   4.674
 9995SOL    HW130884   5.791   0.708   4.694
 9995SOL    HW230885   5.756   0.853   4.759
 9996SOL     OW30886   3.250   4.823   6.838
 9996SOL    HW130887   3.338   4.857   6.803
 9996SOL    HW230888   3.196   4.900   6.872
 9997SOL     OW30889   2.372   0.103   5.373
 9997SOL    HW130890   2.342   0.065   5.460
 9997SOL    HW230891   2.454   0.055   5.342
 9998SOL     OW30892   5.667   5.878   5.608
 9998SOL    HW130893   5.678   5.971   5.572
 9998SOL    HW230894   5.632   5.882   5.701
 9999SOL     OW30895   6.443   2.510   5.460
 9999SOL    HW130896   6.399   2.591   5.498
 9999SOL    HW230897   6.394   2.482   5.378
10000SOL     OW30898   6.943   2.496   6.528
10000SOL    HW130899   6.878   2.419   6.530
10000SOL    HW230900   7.012   2.480   6.458
10001SOL     OW30901   4.602   0.349   2.575
10001SOL    HW130902   4.664   0.270   2.583
10001SOL    HW230903   4.620   0.412   2.650
10002SOL     OW30904   1.126   0.330   1.897
10002SOL    HW130905   1.151   0.332   1.800
10002SOL    HW230906   1.051   0.394   1.914
10003SOL     OW30907   3.999   1.709   3.479
10003SOL    HW130908   3.910   1.683   3.516
10003SOL    HW230909   3.992   1.800   3.436
10004SOL     OW30910   6.852   2.339   2.978
10004SOL    HW130911   6.898   2.407   3.035
10004SOL    HW230912   6.880   2.247   3.006
10005SOL     OW30913   4.545   6.622   3.746
10005SOL    HW130914   4.547   6.646   3.843
10005SOL    HW230915   4.485   6.685   3.696
10006SOL     OW30916   3.584   6.690   4.520
10006SOL    HW130917   3.553   6.674   4.613
10006SOL    HW230918   3.518   6.651   4.455
10007SOL     OW30919   0.199   3.742   4.389
10007SOL    HW130920   0.106   3.774   4.405
10007SOL    HW230921   0.243   3.724   4.478
10008SOL     OW30922   2.801   0.261   3.902
10008SOL    HW130923   2.779   0.312   3.819
10008SOL    HW230924   2.841   0.323   3.970
10009SOL     OW30925   1.303   4.458   1.829
10009SOL    HW130926   1.330   4.460   1.733
10009SOL    HW230927   1.238   4.532   1.847
10010SOL     OW30928   0.746   1.430   6.038
10010SOL    HW130929   0.799   1.407   6.119
10010SOL    HW230930   0.803   1.483   5.974
10011SOL     OW30931   6.941   6.788   5.731
10011SOL    HW130932   6.997   6.724   5.678
10011SOL    HW230933   6.898   6.853   5.669
10012SOL     OW30934   6.064   1.214   3.816
10012SOL    HW130935   5.972   1.253   3.810
10012SOL    HW230936   6.074   1.168   3.904
10013SOL     OW30937   0.493   0.844   2.676
10013SOL    HW130938   0.473   0.748   2.697
10013SOL    HW230939   0.552   0.883   2.747
10014SOL     OW30940   0.744   4.587   6.060
10014SOL    HW130941   0.682   4.526   6.109
10014SOL    HW230942   0.781   4.655   6.123
10015SOL     OW30943   2.048   4.138   0.200
10015SOL    HW130944   1.967   4.106   0.249
10015SOL    HW230945   2.130   4.109   0.249
10016SOL     OW30946   2.335   0.937   5.529
10016SOL    HW130947   2.350   0.884   5.445
10016SOL    HW230948   2.423   0.972   5.562
10017SOL     OW30949   1.638   2.320   4.228
10017SOL    HW130950   1.652   2.417   4.247
10017SOL    HW230951   1.664   2.266   4.308
10018SOL     OW30952   4.978   6.913   5.686
10018SOL    HW130953   4.974   7.011   5.706
10018SOL    HW230954   4.911   6.865   5.742
10019SOL     OW30955   0.897   1.041   3.259
10019SOL    HW130956   0.905   0.949   3.297
10019SOL    HW230957   0.971   1.098   3.295
10020SOL     OW30958   0.439   2.860   0.925
10020SOL    HW130959   0.392   2.773   0.912
10020SOL    HW230960   0.391   2.932   0.875
10021SOL     OW30961   0.264   3.660   0.710
10021SOL    HW130962   0.296   3.584   0.653
10021SOL    HW230963   0.249   3.741   0.653
10022SOL     OW30964   1.450   2.161   6.158
10022SOL    HW130965   1.420   2.242   6.108
10022SOL    HW230966   1.528   2.120   6.111
10023SOL     OW30967   0.072   3.535   0.862
10023SOL    HW130968   0.148   3.570   0.807
10023SOL    HW230969   0.108   3.479   0.936
10024SOL     OW30970   1.857   4.746   3.736
10024SOL    HW130971   1.944   4.734   3.687
10024SOL    HW230972   1.852   4.840   3.772
10025SOL     OW30973   1.526   1.021   0.829
10025SOL    HW130974   1.440   1.054   0.789
10025SOL    HW230975   1.582   0.980   0.757
10026SOL     OW30976   6.910   0.554   3.358
10026SOL    HW130977   6.816   0.528   3.381
10026SOL    HW230978   6.922   0.652   3.372
10027SOL     OW30979   4.567   2.746   5.226
10027SOL    HW130980   4.640   2.684   5.197
10027SOL    HW230981   4.604   2.838   5.238
10028SOL     OW30982   2.114   0.727   0.207
10028SOL    HW130983   2.020   0.692   0.207
10028SOL    HW230984   2.163   0.692   0.127
10029SOL     OW30985   5.908   1.652   3.670
10029SOL    HW130986   5.946   1.593   3.741
10029SOL    HW230987   5.899   1.745   3.705
10030SOL     OW30988   2.236   0.225   3.308
10030SOL    HW130989   2.147   0.210   3.264
10030SOL    HW230990   2.270   0.138   3.344
10031SOL     OW30991   6.188   4.583   3.977
10031SOL    HW130992   6.152   4.490   3.984
10031SOL    HW230993   6.287   4.579   3.960
10032SOL     OW30994   2.757   1.584   4.685
10032SOL    HW130995   2.695   1.654   4.648
10032SOL    HW230996   2.740   1.572   4.782
10033SOL     OW30997   5.583   3.001   4.930
10033SOL    HW130998   5.513   2.979   4.998
10033SOL    HW230999   5.632   3.083   4.958
10034SOL     OW31000   5.205   0.620   5.431
10034SOL    HW131001   5.278   0.680   5.462
10034SOL    HW231002   5.121   0.641   5.480
10035SOL     OW31003   0.439   5.850   1.891
10035SOL    HW131004   0.402   5.779   1.830
10035SOL    HW231005   0.363   5.903   1.928
10036SOL     OW31006   6.807   0.756   0.483
10036SOL    HW131007   6.804   0.788   0.388
10036SOL    HW231008   6.880   0.804   0.532
10037SOL     OW31009   0.854   6.815   0.276
10037SOL    HW131010   0.824   6.735   0.224
10037SOL    HW231011   0.818   6.898   0.234
10038SOL     OW31012   6.524   0.230   1.350
10038SOL    HW131013   6.434   0.265   1.322
10038SOL    HW231014   6.551   0.155   1.290
10039SOL     OW31015   3.408   0.423   3.476
10039SOL    HW131016   3.317   0.412   3.435
10039SOL    HW231017   3.474   0.364   3.429
10040SOL     OW31018   0.915   3.136   1.255
10040SOL    HW131019   0.983   3.089   1.311
10040SOL    HW231020   0.924   3.108   1.159
10041SOL     OW31021   2.236   5.911   0.248
10041SOL    HW131022   2.143   5.923   0.285
10041SOL    HW231023   2.292   5.863   0.315
10042SOL     OW31024   5.977   3.153   2.657
10042SOL    HW131025   5.947   3.081   2.720
10042SOL    HW231026   5.970   3.120   2.563
10043SOL     OW31027   0.340   1.847   4.928
10043SOL    HW131028   0.277   1.772   4.911
10043SOL    HW231029   0.412   1.847   4.860
10044SOL     OW31030   3.023   2.063   6.123
10044SOL    HW131031   2.963   1.993   6.084
10044SOL    HW231032   2.992   2.086   6.215
10045SOL     OW31033   3.255   1.252   0.754
10045SOL    HW131034   3.162   1.224   0.776
10045SOL    HW231035   3.320   1.186   0.792
10046SOL     OW31036   1.612   5.564   0.783
10046SOL    HW131037   1.595   5.601   0.874
10046SOL    HW231038   1.547   5.490   0.764
10047SOL     OW31039   0.801   3.454   1.175
10047SOL    HW131040   0.827   3.472   1.080
10047SOL    HW231041   0.869   3.393   1.217
10048SOL     OW31042   5.981   5.485   3.384
10048SOL    HW131043   5.896   5.483   3.332
10048SOL    HW231044   6.013   5.391   3.397
10049SOL     OW31045   6.803   0.664   5.589
10049SOL    HW131046   6.816   0.759   5.619
10049SOL    HW231047   6.886   0.612   5.604
10050SOL     OW31048   0.009   3.151   0.042
10050SOL    HW131049   7.012   3.164   6.972
10050SOL    HW231050   7.019   3.055   0.068
10051SOL     OW31051   2.289   2.968   3.788
10051SOL    HW131052   2.285   2.967   3.689
10051SOL    HW231053   2.330   2.882   3.820
10052SOL     OW31054   1.184   6.680   3.448
10052SOL    HW131055   1.130   6.665   3.531
10052SOL    HW231056   1.122   6.706   3.373
10053SOL     OW31057   5.684   5.395   5.048
10053SOL    HW131058   5.764   5.404   5.108
10053SOL    HW231059   5.715   5.374   4.955
10054SOL     OW31060   6.340   4.033   5.150
10054SOL    HW131061   6.369   4.123   5.183
10054SOL    HW231062   6.413   3.966   5.168
10055SOL     OW31063   0.831   1.695   0.167
10055SOL    HW131064   0.872   1.673   0.255
10055SOL    HW231065   0.767   1.623   0.140
10056SOL     OW31066   6.148   1.833   3.632
10056SOL    HW131067   6.072   1.894   3.609
10056SOL    HW231068   6.213   1.880   3.691
10057SOL     OW31069   5.906   5.337   5.195
10057SOL    HW131070   5.997   5.373   5.175
10057SOL    HW231071   5.915   5.248   5.239
10058SOL     OW31072   0.450   3.849   5.454
10058SOL    HW131073   0.479   3.822   5.546
10058SOL    HW231074   0.412   3.941   5.457
10059SOL     OW31075   5.896   0.901   0.157
10059SOL    HW131076   5.881   0.824   0.220
10059SOL    HW231077   5.951   0.970   0.203
10060SOL     OW31078   2.327   1.699   1.346
10060SOL    HW131079   2.235   1.662   1.349
10060SOL    HW231080   2.323   1.797   1.326
10061SOL     OW31081   4.046   6.915   3.035
10061SOL    HW131082   4.113   6.983   3.004
10061SOL    HW231083   4.018   6.937   3.129
10062SOL     OW31084   6.988   0.244   4.881
10062SOL    HW131085   6.934   0.258   4.798
10062SOL    HW231086   6.935   0.191   4.947
10063SOL     OW31087   2.334   2.366   5.209
10063SOL    HW131088   2.248   2.388   5.162
10063SOL    HW231089   2.410   2.412   5.161
10064SOL     OW31090   2.812   6.902   0.283
10064SOL    HW131091   2.849   6.842   0.353
10064SOL    HW231092   2.764   6.978   0.326
10065SOL     OW31093   0.527   1.956   1.795
10065SOL    HW131094   0.626   1.952   1.810
10065SOL    HW231095   0.502   2.047   1.762
10066SOL     OW31096   6.220   3.731   3.923
10066SOL    HW131097   6.311   3.729   3.883
10066SOL    HW231098   6.153   3.698   3.856
10067SOL     OW31099   6.538   3.368   5.067
10067SOL    HW131100   6.586   3.291   5.024
10067SOL    HW231101   6.556   3.368   5.165
10068SOL     OW31102   2.074   3.169   3.077
10068SOL    HW131103   1.977   3.195   3.079
10068SOL    HW231104   2.130   3.250   3.092
10069SOL     OW31105   2.870   5.260   0.679
10069SOL    HW131106   2.807   5.249   0.602
10069SOL    HW231107   2.822   5.239   0.764
10070SOL     OW31108   4.327   6.280   6.477
10070SOL    HW131109   4.290   6.358   6.426
10070SOL    HW231110   4.427   6.284   6.477
10071SOL     OW31111   5.640   0.078   4.336
10071SOL    HW131112   5.708   0.147   4.310
10071SOL    HW231113   5.687   7.018   4.358
10072SOL     OW31114   6.548   3.429   1.614
10072SOL    HW131115   6.459   3.458   1.579
10072SOL    HW231116   6.554   3.329   1.610
10073SOL     OW31117   5.629   4.375   5.211
10073SOL    HW131118   5.714   4.424   5.191
10073SOL    HW231119   5.633   4.284   5.170
10074SOL     OW31120   1.201   5.313   0.495
10074SOL    HW131121   1.245   5.286   0.580
10074SOL    HW231122   1.271   5.332   0.425
10075SOL     OW31123   1.581   3.185   2.152
10075SOL    HW131124   1.482   3.193   2.144
10075SOL    HW231125   1.621   3.276   2.161
10076SOL     OW31126   5.222   5.114   4.682
10076SOL    HW131127   5.137   5.166   4.680
10076SOL    HW231128   5.216   5.038   4.617
10077SOL     OW31129   5.359   3.826   6.387
10077SOL    HW131130   5.312   3.826   6.476
10077SOL    HW231131   5.389   3.919   6.366
10078SOL     OW31132   6.597   5.337   5.053
10078SOL    HW131133   6.575   5.320   5.149
10078SOL    HW231134   6.552   5.421   5.022
10079SOL     OW31135   5.235   3.208   4.016
10079SOL    HW131136   5.259   3.298   3.981
10079SOL    HW231137   5.148   3.178   3.977
10080SOL     OW31138   5.124   1.485   5.768
10080SOL    HW131139   5.160   1.501   5.676
10080SOL    HW231140   5.182   1.418   5.815
10081SOL     OW31141   1.375   4.440   0.690
10081SOL    HW131142   1.291   4.425   0.744
10081SOL    HW231143   1.422   4.521   0.725
10082SOL     OW31144   0.663   4.660   1.305
10082SOL    HW131145   0.719   4.724   1.253
10082SOL    HW231146   0.581   4.637   1.253
10083SOL     OW31147   3.355   5.508   2.930
10083SOL    HW131148   3.364   5.607   2.939
10083SOL    HW231149   3.421   5.463   2.990
10084SOL     OW31150   0.927   1.155   4.707
10084SOL    HW131151   0.974   1.222   4.764
10084SOL    HW231152   0.981   1.071   4.703
10085SOL     OW31153   5.194   0.169   0.535
10085SOL    HW131154   5.151   0.244   0.584
10085SOL    HW231155   5.135   0.141   0.459
10086SOL     OW31156   5.057   6.738   3.536
10086SOL    HW131157   5.114   6.667   3.577
10086SOL    HW231158   4.961   6.719   3.555
10087SOL     OW31159   1.204   5.987   5.227
10087SOL    HW131160   1.265   6.000   5.306
10087SOL    HW231161   1.253   6.009   5.143
10088SOL     OW31162   6.569   3.113   1.578
10088SOL    HW131163   6.647   3.102   1.517
10088SOL    HW231164   6.584   3.057   1.660
10089SOL     OW31165   3.403   0.822   1.132
10089SOL    HW131166   3.437   0.841   1.224
10089SOL    HW231167   3.412   0.725   1.112
10090SOL     OW31168   2.482   6.454   3.193
10090SOL    HW131169   2.565   6.412   3.155
10090SOL    HW231170   2.447   6.397   3.267
10091SOL     OW31171   6.437   4.933   5.520
10091SOL    HW131172   6.412   4.886   5.605
10091SOL    HW231173   6.512   4.997   5.538
10092SOL     OW31174   1.239   2.555   4.257
10092SOL    HW131175   1.199   2.641   4.288
10092SOL    HW231176   1.267   2.500   4.336
10093SOL     OW31177   4.737   4.521   5.989
10093SOL    HW131178   4.811   4.550   6.050
10093SOL    HW231179   4.776   4.482   5.905
10094SOL     OW31180   3.847   1.861   1.382
10094SOL    HW131181   3.940   1.833   1.360
10094SOL    HW231182   3.848   1.945   1.435
10095SOL     OW31183   4.367   3.214   5.518
10095SOL    HW131184   4.375   3.151   5.441
10095SOL    HW231185   4.291   3.276   5.502
10096SOL     OW31186   6.650   3.489   1.900
10096SOL    HW131187   6.595   3.409   1.924
10096SOL    HW231188   6.596   3.550   1.842
10097SOL     OW31189   0.406   1.353   0.537
10097SOL    HW131190   0.332   1.299   0.497
10097SOL    HW231191   0.492   1.302   0.528
10098SOL     OW31192   2.659   5.328   4.168
10098SOL    HW131193   2.643   5.230   4.174
10098SOL    HW231194   2.586   5.377   4.216
10099SOL     OW31195   0.394   5.086   2.018
10099SOL    HW131196   0.475   5.064   2.073
10099SOL    HW231197   0.419   5.145   1.942
10100SOL     OW31198   5.421   4.858   4.413
10100SOL    HW131199   5.330   4.899   4.427
10100SOL    HW231200   5.480   4.923   4.365
10101SOL     OW31201   6.931   3.219   0.963
10101SOL    HW131202   6.851   3.196   1.017
10101SOL    HW231203   6.925   3.174   0.874
10102SOL     OW31204   0.229   5.519   3.292
10102SOL    HW131205   0.157   5.457   3.324
10102SOL    HW231206   0.188   5.595   3.241
10103SOL     OW31207   0.090   5.705   6.554
10103SOL    HW131208   0.131   5.620   6.589
10103SOL    HW231209   7.018   5.690   6.540
10104SOL     OW31210   2.432   0.482   4.726
10104SOL    HW131211   2.517   0.499   4.675
10104SOL    HW231212   2.366   0.555   4.707
10105SOL     OW31213   2.792   1.337   4.980
10105SOL    HW131214   2.878   1.361   5.026
10105SOL    HW231215   2.726   1.411   4.992
10106SOL     OW31216   5.460   4.184   1.339
10106SOL    HW131217   5.527   4.217   1.406
10106SOL    HW231218   5.369   4.215   1.366
10107SOL     OW31219   5.453   4.953   0.367
10107SOL    HW131220   5.457   5.018   0.291
10107SOL    HW231221   5.484   4.998   0.451
10108SOL     OW31222   1.917   2.307   5.864
10108SOL    HW131223   1.891   2.288   5.770
10108SOL    HW231224   2.011   2.343   5.866
10109SOL     OW31225   1.029   2.526   1.375
10109SOL    HW131226   0.989   2.592   1.439
10109SOL    HW231227   0.955   2.479   1.326
10110SOL     OW31228   5.952   5.561   2.645
10110SOL    HW131229   5.869   5.611   2.622
10110SOL    HW231230   5.964   5.560   2.744
10111SOL     OW31231   0.372   2.668   1.812
10111SOL    HW131232   0.346   2.586   1.864
10111SOL    HW231233   0.461   2.701   1.845
10112SOL     OW31234   0.419   2.755   2.769
10112SOL    HW131235   0.484   2.688   2.806
10112SOL    HW231236   0.352   2.779   2.839
10113SOL     OW31237   5.906   0.234   6.629
10113SOL    HW131238   5.886   0.168   6.701
10113SOL    HW231239   5.860   0.207   6.544
10114SOL     OW31240   6.014   2.789   1.754
10114SOL    HW131241   5.971   2.775   1.843
10114SOL    HW231242   6.114   2.788   1.764
10115SOL     OW31243   3.303   2.607   5.599
10115SOL    HW131244   3.244   2.609   5.518
10115SOL    HW231245   3.391   2.648   5.576
10116SOL     OW31246   6.815   0.248   5.685
10116SOL    HW131247   6.881   0.323   5.689
10116SOL    HW231248   6.744   0.262   5.755
10117SOL     OW31249   6.281   4.623   3.245
10117SOL    HW131250   6.281   4.593   3.340
10117SOL    HW231251   6.237   4.553   3.188
10118SOL     OW31252   4.136   5.393   3.927
10118SOL    HW131253   4.136   5.318   3.993
10118SOL    HW231254   4.203   5.462   3.954
10119SOL     OW31255   6.381   6.007   6.444
10119SOL    HW131256   6.380   6.057   6.358
10119SOL    HW231257   6.421   5.916   6.429
10120SOL     OW31258   2.465   2.552   3.504
10120SOL    HW131259   2.383   2.494   3.511
10120SOL    HW231260   2.448   2.626   3.439
10121SOL     OW31261   0.643   4.901   0.741
10121SOL    HW131262   0.617   4.818   0.790
10121SOL    HW231263   0.649   4.881   0.643
10122SOL     OW31264   1.969   0.181   3.242
10122SOL    HW131265   1.936   0.086   3.237
10122SOL    HW231266   1.911   0.239   3.185
10123SOL     OW31267   6.871   5.157   6.456
10123SOL    HW131268   6.893   5.059   6.448
10123SOL    HW231269   6.898   5.204   6.372
10124SOL     OW31270   2.230   5.173   2.787
10124SOL    HW131271   2.150   5.208   2.737
10124SOL    HW231272   2.313   5.192   2.735
10125SOL     OW31273   0.853   0.733   4.894
10125SOL    HW131274   0.883   0.670   4.967
10125SOL    HW231275   0.784   0.795   4.930
10126SOL     OW31276   6.585   6.397   6.022
10126SOL    HW131277   6.541   6.331   5.961
10126SOL    HW231278   6.536   6.484   6.018
10127SOL     OW31279   2.962   6.959   5.835
10127SOL    HW131280   3.037   7.024   5.842
10127SOL    HW231281   2.893   6.995   5.772
10128SOL     OW31282   2.100   2.711   0.449
10128SOL    HW131283   2.181   2.657   0.469
10128SOL    HW231284   2.066   2.754   0.533
10129SOL     OW31285   6.254   1.883   4.525
10129SOL    HW131286   6.292   1.968   4.561
10129SOL    HW231287   6.171   1.903   4.472
10130SOL     OW31288   0.602   1.617   4.506
10130SOL    HW131289   0.586   1.609   4.408
10130SOL    HW231290   0.698   1.638   4.523
10131SOL     OW31291   2.533   6.650   4.432
10131SOL    HW131292   2.459   6.584   4.417
10131SOL    HW231293   2.585   6.661   4.347
10132SOL     OW31294   5.483   6.946   2.127
10132SOL    HW131295   5.555   7.013   2.112
10132SOL    HW231296   5.409   6.987   2.180
10133SOL     OW31297   5.401   6.660   0.929
10133SOL    HW131298   5.396   6.733   0.998
10133SOL    HW231299   5.444   6.579   0.970
10134SOL     OW31300   6.680   0.398   3.375
10134SOL    HW131301   6.613   0.424   3.306
10134SOL    HW231302   6.684   0.298   3.383
10135SOL     OW31303   5.613   0.059   3.128
10135SOL    HW131304   5.639   7.021   3.056
10135SOL    HW231305   5.517   0.044   3.154
10136SOL     OW31306   4.572   1.557   2.885
10136SOL    HW131307   4.627   1.570   2.803
10136SOL    HW231308   4.494   1.497   2.863
10137SOL     OW31309   6.698   4.908   5.196
10137SOL    HW131310   6.624   4.846   5.223
10137SOL    HW231311   6.733   4.880   5.107
10138SOL     OW31312   6.948   2.802   1.655
10138SOL    HW131313   6.986   2.881   1.607
10138SOL    HW231314   7.019   2.761   1.712
10139SOL     OW31315   3.418   3.000   6.663
10139SOL    HW131316   3.382   3.072   6.604
10139SOL    HW231317   3.402   2.911   6.620
10140SOL     OW31318   0.935   5.962   5.336
10140SOL    HW131319   0.851   5.996   5.293
10140SOL    HW231320   1.014   5.992   5.283
10141SOL     OW31321   1.644   2.939   4.365
10141SOL    HW131322   1.704   2.977   4.294
10141SOL    HW231323   1.694   2.933   4.451
10142SOL     OW31324   4.595   6.194   2.845
10142SOL    HW131325   4.617   6.275   2.900
10142SOL    HW231326   4.586   6.221   2.749
10143SOL     OW31327   5.799   2.480   6.426
10143SOL    HW131328   5.712   2.453   6.467
10143SOL    HW231329   5.873   2.459   6.490
10144SOL     OW31330   3.313   6.557   0.876
10144SOL    HW131331   3.260   6.642   0.877
10144SOL    HW231332   3.399   6.572   0.828
10145SOL     OW31333   6.132   6.989   6.209
10145SOL    HW131334   6.134   0.003   6.301
10145SOL    HW231335   6.037   6.971   6.182
10146SOL     OW31336   1.047   2.739   5.073
10146SOL    HW131337   1.018   2.795   4.995
10146SOL    HW231338   1.071   2.799   5.150
10147SOL     OW31339   3.979   5.721   5.563
10147SOL    HW131340   3.942   5.628   5.574
10147SOL    HW231341   4.064   5.717   5.510
10148SOL     OW31342   0.829   4.124   0.219
10148SOL    HW131343   0.820   4.117   0.120
10148SOL    HW231344   0.742   4.099   0.262
10149SOL     OW31345   4.234   3.393   1.177
10149SOL    HW131346   4.195   3.465   1.234
10149SOL    HW231347   4.202   3.304   1.210
10150SOL     OW31348   4.663   4.443   1.112
10150SOL    HW131349   4.650   4.500   1.031
10150SOL    HW231350   4.745   4.387   1.099
10151SOL     OW31351   6.455   0.902   6.227
10151SOL    HW131352   6.515   0.884   6.149
10151SOL    HW231353   6.452   0.822   6.286
10152SOL     OW31354   3.848   6.760   2.283
10152SOL    HW131355   3.892   6.693   2.223
10152SOL    HW231356   3.896   6.762   2.371
10153SOL     OW31357   4.795   4.375   2.218
10153SOL    HW131358   4.697   4.384   2.239
10153SOL    HW231359   4.808   4.369   2.119
10154SOL     OW31360   4.205   5.063   5.479
10154SOL    HW131361   4.118   5.022   5.449
10154SOL    HW231362   4.277   4.994   5.471
10155SOL     OW31363   4.542   1.643   4.182
10155SOL    HW131364   4.634   1.605   4.193
10155SOL    HW231365   4.537   1.695   4.097
10156SOL     OW31366   4.211   1.734   6.897
10156SOL    HW131367   4.212   1.640   6.933
10156SOL    HW231368   4.194   1.731   6.799
10157SOL     OW31369   0.135   4.549   1.492
10157SOL    HW131370   0.153   4.614   1.566
10157SOL    HW231371   0.220   4.503   1.468
10158SOL     OW31372   5.946   5.385   6.785
10158SOL    HW131373   6.027   5.331   6.764
10158SOL    HW231374   5.929   5.382   6.883
10159SOL     OW31375   3.182   2.744   1.866
10159SOL    HW131376   3.249   2.810   1.833
10159SOL    HW231377   3.225   2.687   1.936
10160SOL     OW31378   0.076   4.493   2.961
10160SOL    HW131379   0.166   4.501   3.005
10160SOL    HW231380   0.087   4.452   2.870
10161SOL     OW31381   5.703   3.186   5.268
10161SOL    HW131382   5.697   3.254   5.342
10161SOL    HW231383   5.769   3.115   5.294
10162SOL     OW31384   1.423   2.461   1.906
10162SOL    HW131385   1.390   2.394   1.839
10162SOL    HW231386   1.446   2.415   1.991
10163SOL     OW31387   2.604   5.227   4.985
10163SOL    HW131388   2.703   5.243   4.986
10163SOL    HW231389   2.585   5.140   4.939
10164SOL     OW31390   0.291   1.538   3.884
10164SOL    HW131391   0.352   1.576   3.814
10164SOL    HW231392   0.332   1.455   3.922
10165SOL     OW31393   0.595   3.638   4.475
10165SOL    HW131394   0.642   3.628   4.563
10165SOL    HW231395   0.635   3.714   4.424
10166SOL     OW31396   2.059   6.187   2.667
10166SOL    HW131397   2.015   6.213   2.581
10166SOL    HW231398   2.145   6.141   2.648
10167SOL     OW31399   2.225   1.889   0.117
10167SOL    HW131400   2.144   1.836   0.141
10167SOL    HW231401   2.284   1.834   0.058
10168SOL     OW31402   6.590   0.115   6.739
10168SOL    HW131403   6.680   0.112   6.695
10168SOL    HW231404   6.594   0.175   6.819
10169SOL     OW31405   5.071   4.379   3.629
10169SOL    HW131406   5.023   4.332   3.555
10169SOL    HW231407   5.104   4.468   3.596
10170SOL     OW31408   5.356   5.751   0.137
10170SOL    HW131409   5.262   5.732   0.110
10170SOL    HW231410   5.391   5.828   0.085
10171SOL     OW31411   2.070   4.720   4.968
10171SOL    HW131412   2.021   4.698   5.052
10171SOL    HW231413   2.106   4.813   4.973
10172SOL     OW31414   6.689   0.981   3.260
10172SOL    HW131415   6.643   1.068   3.276
10172SOL    HW231416   6.635   0.906   3.297
10173SOL     OW31417   3.856   3.525   5.007
10173SOL    HW131418   3.858   3.582   4.925
10173SOL    HW231419   3.837   3.430   4.981
10174SOL     OW31420   4.148   5.331   1.243
10174SOL    HW131421   4.248   5.329   1.235
10174SOL    HW231422   4.121   5.299   1.334
10175SOL     OW31423   0.148   0.078   4.600
10175SOL    HW131424   0.054   0.075   4.567
10175SOL    HW231425   0.200   0.145   4.548
10176SOL     OW31426   6.647   0.666   4.620
10176SOL    HW131427   6.727   0.682   4.562
10176SOL    HW231428   6.649   0.730   4.697
10177SOL     OW31429   2.458   0.660   4.250
10177SOL    HW131430   2.534   0.607   4.214
10177SOL    HW231431   2.431   0.730   4.184
10178SOL     OW31432   0.785   1.578   1.152
10178SOL    HW131433   0.834   1.529   1.224
10178SOL    HW231434   0.816   1.674   1.152
10179SOL     OW31435   0.860   4.539   0.140
10179SOL    HW131436   0.825   4.455   0.099
10179SOL    HW231437   0.795   4.613   0.123
10180SOL     OW31438   3.640   0.126   6.091
10180SOL    HW131439   3.647   0.045   6.148
10180SOL    HW231440   3.725   0.178   6.096
10181SOL     OW31441   6.414   3.448   2.901
10181SOL    HW131442   6.430   3.459   2.802
10181SOL    HW231443   6.423   3.352   2.926
10182SOL     OW31444   4.368   0.904   1.112
10182SOL    HW131445   4.368   0.835   1.185
10182SOL    HW231446   4.316   0.984   1.142
10183SOL     OW31447   4.959   0.679   5.573
10183SOL    HW131448   4.970   0.775   5.546
10183SOL    HW231449   5.001   0.665   5.662
10184SOL     OW31450   5.326   1.784   5.743
10184SOL    HW131451   5.268   1.707   5.771
10184SOL    HW231452   5.268   1.861   5.716
10185SOL     OW31453   3.484   5.147   1.218
10185SOL    HW131454   3.459   5.145   1.315
10185SOL    HW231455   3.584   5.150   1.209
10186SOL     OW31456   3.581   3.380   6.585
10186SOL    HW131457   3.502   3.358   6.528
10186SOL    HW231458   3.633   3.297   6.603
10187SOL     OW31459   2.056   4.571   5.642
10187SOL    HW131460   2.066   4.507   5.566
10187SOL    HW231461   2.041   4.520   5.727
10188SOL     OW31462   2.985   0.167   6.161
10188SOL    HW131463   2.965   0.075   6.196
10188SOL    HW231464   2.899   0.215   6.144
10189SOL     OW31465   1.684   1.389   4.656
10189SOL    HW131466   1.626   1.412   4.734
10189SOL    HW231467   1.753   1.322   4.686
10190SOL     OW31468   4.558   4.550   0.870
10190SOL    HW131469   4.632   4.591   0.817
10190SOL    HW231470   4.521   4.471   0.820
10191SOL     OW31471   5.434   0.063   0.086
10191SOL    HW131472   5.501   0.104   0.023
10191SOL    HW231473   5.469   0.069   0.180
10192SOL     OW31474   1.814   1.204   4.428
10192SOL    HW131475   1.837   1.218   4.524
10192SOL    HW231476   1.873   1.262   4.371
10193SOL     OW31477   3.615   3.378   3.687
10193SOL    HW131478   3.715   3.384   3.698
10193SOL    HW231479   3.572   3.366   3.776
10194SOL     OW31480   3.189   0.221   2.787
10194SOL    HW131481   3.145   0.228   2.698
10194SOL    HW231482   3.207   0.125   2.809
10195SOL     OW31483   5.093   0.029   2.535
10195SOL    HW131484   5.021   7.019   2.594
10195SOL    HW231485   5.126   6.982   2.474
10196SOL     OW31486   5.293   3.291   4.828
10196SOL    HW131487   5.311   3.209   4.775
10196SOL    HW231488   5.347   3.289   4.912
10197SOL     OW31489   5.646   1.525   2.371
10197SOL    HW131490   5.677   1.433   2.349
10197SOL    HW231491   5.583   1.521   2.449
10198SOL     OW31492   2.474   0.289   1.206
10198SOL    HW131493   2.387   0.249   1.237
10198SOL    HW231494   2.465   0.388   1.203
10199SOL     OW31495   0.770   1.838   0.505
10199SOL    HW131496   0.854   1.869   0.460
10199SOL    HW231497   0.772   1.738   0.514
10200SOL     OW31498   5.829   5.196   5.573
10200SOL    HW131499   5.851   5.153   5.485
10200SOL    HW231500   5.822   5.125   5.643
10201SOL     OW31501   1.861   4.564   2.595
10201SOL    HW131502   1.793   4.491   2.591
10201SOL    HW231503   1.950   4.526   2.620
10202SOL     OW31504   0.660   2.892   2.952
10202SOL    HW131505   0.746   2.876   2.903
10202SOL    HW231506   0.604   2.957   2.901
10203SOL     OW31507   1.214   3.355   1.991
10203SOL    HW131508   1.156   3.434   2.008
10203SOL    HW231509   1.217   3.296   2.072
10204SOL     OW31510   2.924   4.952   4.208
10204SOL    HW131511   3.005   4.895   4.211
10204SOL    HW231512   2.851   4.911   4.263
10205SOL     OW31513   4.347   0.923   2.247
10205SOL    HW131514   4.393   0.835   2.263
10205SOL    HW231515   4.373   0.958   2.157
10206SOL     OW31516   4.127   0.360   6.142
10206SOL    HW131517   4.166   0.440   6.097
10206SOL    HW231518   4.190   0.283   6.134
10207SOL     OW31519   4.148   0.563   3.207
10207SOL    HW131520   4.132   0.490   3.274
10207SOL    HW231521   4.151   0.651   3.254
10208SOL     OW31522   5.803   3.848   4.855
10208SOL    HW131523   5.810   3.758   4.812
10208SOL    HW231524   5.878   3.906   4.823
10209SOL     OW31525   5.289   6.809   6.530
10209SOL    HW131526   5.265   6.783   6.437
10209SOL    HW231527   5.357   6.745   6.565
10210SOL     OW31528   5.091   5.511   1.604
10210SOL    HW131529   5.189   5.496   1.591
10210SOL    HW231530   5.054   5.437   1.660
10211SOL     OW31531   3.832   5.697   4.861
10211SOL    HW131532   3.764   5.660   4.797
10211SOL    HW231533   3.860   5.788   4.831
10212SOL     OW31534   6.260   6.649   5.133
10212SOL    HW131535   6.267   6.749   5.139
10212SOL    HW231536   6.216   6.614   5.215
10213SOL     OW31537   4.879   0.361   3.829
10213SOL    HW131538   4.877   0.289   3.898
10213SOL    HW231539   4.972   0.398   3.822
10214SOL     OW31540   7.016   0.664   1.903
10214SOL    HW131541   7.011   0.645   2.000
10214SOL    HW231542   0.058   0.736   1.886
10215SOL     OW31543   3.807   2.946   0.006
10215SOL    HW131544   3.891   2.919   0.053
10215SOL    HW231545   3.830   2.999   6.951
10216SOL     OW31546   4.792   0.181   2.521
10216SOL    HW131547   4.844   0.227   2.448
10216SOL    HW231548   4.728   0.117   2.480
10217SOL     OW31549   3.040   2.103   5.347
10217SOL    HW131550   3.108   2.080   5.278
10217SOL    HW231551   3.007   2.196   5.333
10218SOL     OW31552   2.186   2.257   1.088
10218SOL    HW131553   2.218   2.312   1.011
10218SOL    HW231554   2.263   2.213   1.133
10219SOL     OW31555   0.907   4.165   0.684
10219SOL    HW131556   1.000   4.165   0.722
10219SOL    HW231557   0.841   4.174   0.758
10220SOL     OW31558   3.967   2.685   0.795
10220SOL    HW131559   4.002   2.634   0.874
10220SOL    HW231560   3.897   2.631   0.749
10221SOL     OW31561   2.908   0.948   4.963
10221SOL    HW131562   2.915   1.005   4.881
10221SOL    HW231563   2.839   0.987   5.025
10222SOL     OW31564   1.993   4.997   5.917
10222SOL    HW131565   2.052   4.917   5.907
10222SOL    HW231566   1.909   4.971   5.965
10223SOL     OW31567   6.688   4.481   0.427
10223SOL    HW131568   6.720   4.572   0.456
10223SOL    HW231569   6.663   4.428   0.508
10224SOL     OW31570   2.280   6.976   4.885
10224SOL    HW131571   2.319   0.037   4.855
10224SOL    HW231572   2.353   6.911   4.903
10225SOL     OW31573   5.618   5.883   4.458
10225SOL    HW131574   5.631   5.876   4.556
10225SOL    HW231575   5.571   5.969   4.437
10226SOL     OW31576   6.620   2.743   0.147
10226SOL    HW131577   6.710   2.767   0.108
10226SOL    HW231578   6.633   2.682   0.224
10227SOL     OW31579   5.229   5.927   6.111
10227SOL    HW131580   5.246   5.903   6.015
10227SOL    HW231581   5.177   5.854   6.155
10228SOL     OW31582   0.844   3.761   3.030
10228SOL    HW131583   0.915   3.787   2.965
10228SOL    HW231584   0.782   3.838   3.045
10229SOL     OW31585   2.027   1.045   1.911
10229SOL    HW131586   1.968   1.096   1.847
10229SOL    HW231587   2.104   1.103   1.937
10230SOL     OW31588   6.361   6.715   4.734
10230SOL    HW131589   6.275   6.683   4.772
10230SOL    HW231590   6.436   6.699   4.799
10231SOL     OW31591   4.437   6.668   4.287
10231SOL    HW131592   4.500   6.700   4.357
10231SOL    HW231593   4.365   6.736   4.273
10232SOL     OW31594   3.773   2.161   4.228
10232SOL    HW131595   3.804   2.079   4.275
10232SOL    HW231596   3.852   2.220   4.209
10233SOL     OW31597   4.744   0.981   5.701
10233SOL    HW131598   4.833   0.961   5.742
10233SOL    HW231599   4.740   1.076   5.673
10234SOL     OW31600   5.432   6.180   1.630
10234SOL    HW131601   5.461   6.153   1.539
10234SOL    HW231602   5.452   6.106   1.695
10235SOL     OW31603   4.932   1.656   5.929
10235SOL    HW131604   4.947   1.671   6.027
10235SOL    HW231605   5.009   1.605   5.890
10236SOL     OW31606   2.165   5.773   2.694
10236SOL    HW131607   2.217   5.695   2.729
10236SOL    HW231608   2.228   5.840   2.654
10237SOL     OW31609   6.282   2.362   3.147
10237SOL    HW131610   6.256   2.425   3.073
10237SOL    HW231611   6.350   2.297   3.113
10238SOL     OW31612   4.609   5.522   4.502
10238SOL    HW131613   4.521   5.498   4.461
10238SOL    HW231614   4.608   5.617   4.531
10239SOL     OW31615   0.015   4.233   4.246
10239SOL    HW131616   0.103   4.236   4.200
10239SOL    HW231617   0.026   4.256   4.343
10240SOL     OW31618   6.455   3.667   3.743
10240SOL    HW131619   6.503   3.754   3.727
10240SOL    HW231620   6.513   3.591   3.714
10241SOL     OW31621   1.964   1.178   3.587
10241SOL    HW131622   1.897   1.126   3.640
10241SOL    HW231623   1.933   1.273   3.578
10242SOL     OW31624   0.971   6.572   6.058
10242SOL    HW131625   0.930   6.483   6.077
10242SOL    HW231626   0.945   6.637   6.129
10243SOL     OW31627   0.993   6.041   2.554
10243SOL    HW131628   0.943   5.957   2.575
10243SOL    HW231629   1.061   6.023   2.484
10244SOL     OW31630   1.745   6.159   0.199
10244SOL    HW131631   1.730   6.229   0.129
10244SOL    HW231632   1.842   6.149   0.216
10245SOL     OW31633   2.112   2.118   0.407
10245SOL    HW131634   2.152   2.033   0.373
10245SOL    HW231635   2.166   2.196   0.374
10246SOL     OW31636   3.841   3.911   4.175
10246SOL    HW131637   3.808   3.817   4.171
10246SOL    HW231638   3.769   3.974   4.147
10247SOL     OW31639   0.944   6.108   5.830
10247SOL    HW131640   0.866   6.121   5.891
10247SOL    HW231641   0.993   6.024   5.855
10248SOL     OW31642   4.826   0.662   2.262
10248SOL    HW131643   4.898   0.710   2.210
10248SOL    HW231644   4.738   0.677   2.218
10249SOL     OW31645   4.319   1.364   0.278
10249SOL    HW131646   4.296   1.272   0.248
10249SOL    HW231647   4.337   1.422   0.199
10250SOL     OW31648   5.695   0.153   0.170
10250SOL    HW131649   5.663   0.237   0.213
10250SOL    HW231650   5.738   0.095   0.239
10251SOL     OW31651   3.845   4.220   6.724
10251SOL    HW131652   3.875   4.169   6.644
10251SOL    HW231653   3.791   4.300   6.695
10252SOL     OW31654   6.299   5.160   2.267
10252SOL    HW131655   6.247   5.235   2.227
10252SOL    HW231656   6.299   5.082   2.205
10253SOL     OW31657   3.911   5.398   6.295
10253SOL    HW131658   3.843   5.349   6.239
10253SOL    HW231659   3.869   5.427   6.381
10254SOL     OW31660   2.476   1.442   4.345
10254SOL    HW131661   2.431   1.486   4.267
10254SOL    HW231662   2.410   1.386   4.394
10255SOL     OW31663   3.517   5.423   3.130
10255SOL    HW131664   3.546   5.506   3.177
10255SOL    HW231665   3.478   5.359   3.196
10256SOL     OW31666   5.805   6.210   6.941
10256SOL    HW131667   5.851   6.211   0.004
10256SOL    HW231668   5.707   6.218   6.955
10257SOL     OW31669   1.504   6.162   6.413
10257SOL    HW131670   1.476   6.186   6.320
10257SOL    HW231671   1.502   6.063   6.425
10258SOL     OW31672   4.181   0.296   3.319
10258SOL    HW131673   4.212   0.349   3.398
10258SOL    HW231674   4.152   0.205   3.349
10259SOL     OW31675   0.933   3.760   3.511
10259SOL    HW131676   0.945   3.693   3.585
10259SOL    HW231677   0.921   3.713   3.424
10260SOL     OW31678   6.973   6.510   1.033
10260SOL    HW131679   6.892   6.529   1.088
10260SOL    HW231680   0.026   6.499   1.093
10261SOL     OW31681   2.148   6.722   1.745
10261SOL    HW131682   2.053   6.689   1.745
10261SOL    HW231683   2.148   6.821   1.729
10262SOL     OW31684   1.712   5.168   4.975
10262SOL    HW131685   1.653   5.117   5.037
10262SOL    HW231686   1.658   5.199   4.896
10263SOL     OW31687   6.575   2.008   5.768
10263SOL    HW131688   6.622   1.982   5.684
10263SOL    HW231689   6.498   2.068   5.745
10264SOL     OW31690   0.350   6.567   6.575
10264SOL    HW131691   0.310   6.538   6.662
10264SOL    HW231692   0.334   6.496   6.506
10265SOL     OW31693   4.636   2.159   2.395
10265SOL    HW131694   4.562   2.225   2.408
10265SOL    HW231695   4.611   2.072   2.437
10266SOL     OW31696   4.149   4.071   6.120
10266SOL    HW131697   4.083   4.139   6.152
10266SOL    HW231698   4.225   4.065   6.185
10267SOL     OW31699   6.597   1.819   5.967
10267SOL    HW131700   6.513   1.831   6.020
10267SOL    HW231701   6.614   1.901   5.913
10268SOL     OW31702   6.183   4.450   1.702
10268SOL    HW131703   6.178   4.543   1.665
10268SOL    HW231704   6.095   4.405   1.692
10269SOL     OW31705   3.133   2.886   6.159
10269SOL    HW131706   3.204   2.954   6.141
10269SOL    HW231707   3.138   2.814   6.090
10270SOL     OW31708   3.050   6.189   0.912
10270SOL    HW131709   2.969   6.136   0.935
10270SOL    HW231710   3.029   6.287   0.918
10271SOL     OW31711   3.578   5.071   0.822
10271SOL    HW131712   3.572   5.068   0.722
10271SOL    HW231713   3.546   4.985   0.860
10272SOL     OW31714   0.566   0.815   6.004
10272SOL    HW131715   0.651   0.856   6.037
10272SOL    HW231716   0.488   0.866   6.040
10273SOL     OW31717   4.465   6.263   4.117
10273SOL    HW131718   4.559   6.232   4.127
10273SOL    HW231719   4.437   6.312   4.201
10274SOL     OW31720   2.120   6.184   6.054
10274SOL    HW131721   2.102   6.133   6.138
10274SOL    HW231722   2.033   6.210   6.013
10275SOL     OW31723   1.182   6.619   2.100
10275SOL    HW131724   1.186   6.706   2.148
10275SOL    HW231725   1.274   6.580   2.092
10276SOL     OW31726   6.986   6.224   6.501
10276SOL    HW131727   6.995   6.198   6.597
10276SOL    HW231728   6.894   6.260   6.484
10277SOL     OW31729   2.175   5.393   3.208
10277SOL    HW131730   2.194   5.479   3.256
10277SOL    HW231731   2.163   5.411   3.110
10278SOL     OW31732   6.032   0.302   6.156
10278SOL    HW131733   6.090   0.376   6.124
10278SOL    HW231734   6.088   0.227   6.190
10279SOL     OW31735   3.676   6.469   3.774
10279SOL    HW131736   3.647   6.556   3.733
10279SOL    HW231737   3.710   6.408   3.703
10280SOL     OW31738   3.069   2.623   6.628
10280SOL    HW131739   3.007   2.576   6.691
10280SOL    HW231740   3.088   2.564   6.550
10281SOL     OW31741   3.791   6.851   4.417
10281SOL    HW131742   3.718   6.806   4.468
10281SOL    HW231743   3.763   6.944   4.393
10282SOL     OW31744   1.091   2.327   4.866
10282SOL    HW131745   1.113   2.408   4.921
10282SOL    HW231746   1.163   2.311   4.799
10283SOL     OW31747   1.167   3.202   5.758
10283SOL    HW131748   1.207   3.117   5.791
10283SOL    HW231749   1.238   3.273   5.752
10284SOL     OW31750   5.722   3.674   6.240
10284SOL    HW131751   5.634   3.628   6.257
10284SOL    HW231752   5.789   3.606   6.210
10285SOL     OW31753   5.610   0.478   0.593
10285SOL    HW131754   5.543   0.404   0.603
10285SOL    HW231755   5.664   0.485   0.677
10286SOL     OW31756   4.435   0.188   3.586
10286SOL    HW131757   4.515   0.237   3.552
10286SOL    HW231758   4.386   0.245   3.651
10287SOL     OW31759   1.830   5.566   1.436
10287SOL    HW131760   1.888   5.610   1.505
10287SOL    HW231761   1.781   5.636   1.384
10288SOL     OW31762   5.157   6.026   3.775
10288SOL    HW131763   5.173   6.082   3.856
10288SOL    HW231764   5.062   6.039   3.744
10289SOL     OW31765   3.170   1.039   1.607
10289SOL    HW131766   3.121   1.126   1.602
10289SOL    HW231767   3.265   1.052   1.578
10290SOL     OW31768   2.995   3.576   2.483
10290SOL    HW131769   2.941   3.499   2.450
10290SOL    HW231770   2.961   3.604   2.573
10291SOL     OW31771   3.863   0.576   5.650
10291SOL    HW131772   3.947   0.545   5.694
10291SOL    HW231773   3.793   0.595   5.719
10292SOL     OW31774   6.594   0.850   4.835
10292SOL    HW131775   6.608   0.809   4.925
10292SOL    HW231776   6.499   0.880   4.826
10293SOL     OW31777   2.822   5.813   2.571
10293SOL    HW131778   2.787   5.719   2.570
10293SOL    HW231779   2.900   5.821   2.509
10294SOL     OW31780   5.755   1.364   3.033
10294SOL    HW131781   5.719   1.439   2.978
10294SOL    HW231782   5.850   1.383   3.058
10295SOL     OW31783   1.298   4.644   5.432
10295SOL    HW131784   1.376   4.666   5.373
10295SOL    HW231785   1.325   4.652   5.528
10296SOL     OW31786   6.336   2.610   1.242
10296SOL    HW131787   6.309   2.523   1.200
10296SOL    HW231788   6.276   2.683   1.209
10297SOL     OW31789   2.275   5.263   4.595
10297SOL    HW131790   2.255   5.252   4.692
10297SOL    HW231791   2.365   5.305   4.583
10298SOL     OW31792   5.454   3.748   3.549
10298SOL    HW131793   5.487   3.760   3.456
10298SOL    HW231794   5.491   3.821   3.607
10299SOL     OW31795   5.054   4.459   2.244
10299SOL    HW131796   4.954   4.454   2.245
10299SOL    HW231797   5.091   4.376   2.202
10300SOL     OW31798   1.915   4.960   2.733
10300SOL    HW131799   1.837   4.900   2.720
10300SOL    HW231800   1.886   5.055   2.728
10301SOL     OW31801   5.529   1.796   1.734
10301SOL    HW131802   5.610   1.853   1.720
10301SOL    HW231803   5.479   1.788   1.648
10302SOL     OW31804   1.365   4.831   3.321
10302SOL    HW131805   1.424   4.890   3.375
10302SOL    HW231806   1.416   4.796   3.242
10303SOL     OW31807   3.903   3.088   1.053
10303SOL    HW131808   3.835   3.068   1.123
10303SOL    HW231809   3.891   3.182   1.021
10304SOL     OW31810   5.911   6.367   3.617
10304SOL    HW131811   5.976   6.424   3.566
10304SOL    HW231812   5.883   6.290   3.560
10305SOL     OW31813   1.771   5.939   1.228
10305SOL    HW131814   1.740   5.994   1.151
10305SOL    HW231815   1.784   5.998   1.308
10306SOL     OW31816   4.372   4.999   0.492
10306SOL    HW131817   4.371   4.912   0.542
10306SOL    HW231818   4.280   5.018   0.457
10307SOL     OW31819   2.933   1.122   5.416
10307SOL    HW131820   2.994   1.155   5.345
10307SOL    HW231821   2.958   1.029   5.442
10308SOL     OW31822   3.287   5.481   3.874
10308SOL    HW131823   3.359   5.423   3.835
10308SOL    HW231824   3.320   5.575   3.881
10309SOL     OW31825   0.874   6.427   3.501
10309SOL    HW131826   0.907   6.422   3.407
10309SOL    HW231827   0.837   6.518   3.520
10310SOL     OW31828   3.699   3.319   4.514
10310SOL    HW131829   3.636   3.307   4.591
10310SOL    HW231830   3.657   3.281   4.431
10311SOL     OW31831   0.100   6.302   0.777
10311SOL    HW131832   0.122   6.222   0.833
10311SOL    HW231833   0.011   6.289   0.733
10312SOL     OW31834   2.050   5.168   0.805
10312SOL    HW131835   2.082   5.238   0.741
10312SOL    HW231836   2.127   5.110   0.831
10313SOL     OW31837   6.000   5.962   3.693
10313SOL    HW131838   5.961   5.963   3.601
10313SOL    HW231839   6.099   5.949   3.687
10314SOL     OW31840   6.321   5.312   5.729
10314SOL    HW131841   6.232   5.337   5.767
10314SOL    HW231842   6.384   5.389   5.735
10315SOL     OW31843   5.650   6.197   4.915
10315SOL    HW131844   5.600   6.128   4.968
10315SOL    HW231845   5.602   6.285   4.922
10316SOL     OW31846   0.109   3.823   3.168
10316SOL    HW131847   0.047   3.902   3.164
10316SOL    HW231848   0.204   3.856   3.168
10317SOL     OW31849   3.757   4.674   0.772
10317SOL    HW131850   3.848   4.677   0.813
10317SOL    HW231851   3.688   4.687   0.844
10318SOL     OW31852   6.637   5.707   2.480
10318SOL    HW131853   6.658   5.802   2.455
10318SOL    HW231854   6.589   5.663   2.405
10319SOL     OW31855   4.815   5.783   4.683
10319SOL    HW131856   4.808   5.697   4.733
10319SOL    HW231857   4.777   5.857   4.738
10320SOL     OW31858   4.611   6.526   1.137
10320SOL    HW131859   4.541   6.466   1.098
10320SOL    HW231860   4.571   6.583   1.209
10321SOL     OW31861   4.151   0.009   4.480
10321SOL    HW131862   4.218   0.045   4.544
10321SOL    HW231863   4.100   0.084   4.439
10322SOL     OW31864   6.628   2.395   0.080
10322SOL    HW131865   6.603   2.374   0.174
10322SOL    HW231866   6.719   2.437   0.078
10323SOL     OW31867   5.892   2.258   5.136
10323SOL    HW131868   5.969   2.285   5.195
10323SOL    HW231869   5.923   2.194   5.067
10324SOL     OW31870   2.937   3.627   3.884
10324SOL    HW131871   2.950   3.696   3.955
10324SOL    HW231872   2.896   3.545   3.923
10325SOL     OW31873   1.022   3.607   3.780
10325SOL    HW131874   1.070   3.580   3.863
10325SOL    HW231875   0.946   3.545   3.763
10326SOL     OW31876   5.001   1.502   1.476
10326SOL    HW131877   5.022   1.413   1.435
10326SOL    HW231878   4.935   1.550   1.419
10327SOL     OW31879   6.916   0.834   3.480
10327SOL    HW131880   6.878   0.896   3.411
10327SOL    HW231881   7.001   0.872   3.516
10328SOL     OW31882   6.151   3.382   2.273
10328SOL    HW131883   6.071   3.329   2.245
10328SOL    HW231884   6.163   3.375   2.372
10329SOL     OW31885   3.913   6.300   2.499
10329SOL    HW131886   3.998   6.350   2.513
10329SOL    HW231887   3.837   6.364   2.495
10330SOL     OW31888   3.561   4.328   1.021
10330SOL    HW131889   3.544   4.324   1.119
10330SOL    HW231890   3.657   4.310   1.002
10331SOL     OW31891   5.460   0.818   4.331
10331SOL    HW131892   5.363   0.837   4.318
10331SOL    HW231893   5.477   0.791   4.425
10332SOL     OW31894   0.288   1.798   0.230
10332SOL    HW131895   0.297   1.838   0.139
10332SOL    HW231896   0.239   1.861   0.290
10333SOL     OW31897   4.915   4.076   4.989
10333SOL    HW131898   4.995   4.132   5.009
10333SOL    HW231899   4.935   4.015   4.913
10334SOL     OW31900   1.211   4.746   4.717
10334SOL    HW131901   1.131   4.762   4.775
10334SOL    HW231902   1.181   4.701   4.633
10335SOL     OW31903   2.303   5.497   1.846
10335SOL    HW131904   2.208   5.477   1.872
10335SOL    HW231905   2.308   5.511   1.747
10336SOL     OW31906   4.254   6.147   2.838
10336SOL    HW131907   4.322   6.075   2.841
10336SOL    HW231908   4.295   6.233   2.868
10337SOL     OW31909   0.971   4.904   5.324
10337SOL    HW131910   0.944   4.979   5.384
10337SOL    HW231911   0.934   4.818   5.359
10338SOL     OW31912   3.852   5.019   3.597
10338SOL    HW131913   3.904   5.104   3.587
10338SOL    HW231914   3.879   4.973   3.682
10339SOL     OW31915   3.068   5.381   0.308
10339SOL    HW131916   3.062   5.288   0.346
10339SOL    HW231917   3.128   5.380   0.228
10340SOL     OW31918   2.111   0.003   0.054
10340SOL    HW131919   2.046   0.076   0.071
10340SOL    HW231920   2.181   0.034   7.015
10341SOL     OW31921   1.154   2.281   2.519
10341SOL    HW131922   1.096   2.201   2.502
10341SOL    HW231923   1.144   2.309   2.615
10342SOL     OW31924   2.809   6.879   3.756
10342SOL    HW131925   2.869   6.957   3.778
10342SOL    HW231926   2.714   6.909   3.757
10343SOL     OW31927   2.117   3.170   3.938
10343SOL    HW131928   2.135   3.193   4.034
10343SOL    HW231929   2.193   3.117   3.902
10344SOL     OW31930   4.329   3.972   0.351
10344SOL    HW131931   4.402   4.009   0.408
10344SOL    HW231932   4.362   3.891   0.303
10345SOL     OW31933   1.543   1.801   5.951
10345SOL    HW131934   1.523   1.707   5.924
10345SOL    HW231935   1.608   1.841   5.886
10346SOL     OW31936   5.782   5.313   0.325
10346SOL    HW131937   5.699   5.364   0.346
10346SOL    HW231938   5.766   5.255   0.245
10347SOL     OW31939   4.901   1.388   2.052
10347SOL    HW131940   4.866   1.408   1.960
10347SOL    HW231941   4.826   1.354   2.109
10348SOL     OW31942   6.817   5.059   5.776
10348SOL    HW131943   6.724   5.086   5.752
10348SOL    HW231944   6.871   5.049   5.693
10349SOL     OW31945   0.639   1.715   1.557
10349SOL    HW131946   0.679   1.791   1.505
10349SOL    HW231947   0.691   1.632   1.538
10350SOL     OW31948   2.177   4.366   4.695
10350SOL    HW131949   2.268   4.358   4.735
10350SOL    HW231950   2.182   4.422   4.612
10351SOL     OW31951   4.630   4.453   4.888
10351SOL    HW131952   4.538   4.481   4.917
10351SOL    HW231953   4.640   4.466   4.789
10352SOL     OW31954   5.743   1.015   6.834
10352SOL    HW131955   5.820   0.951   6.842
10352SOL    HW231956   5.661   0.972   6.871
10353SOL     OW31957   6.496   2.597   3.644
10353SOL    HW131958   6.546   2.528   3.593
10353SOL    HW231959   6.440   2.552   3.714
10354SOL     OW31960   6.035   3.187   1.098
10354SOL    HW131961   6.087   3.104   1.117
10354SOL    HW231962   5.976   3.173   1.019
10355SOL     OW31963   0.726   2.006   0.739
10355SOL    HW131964   0.741   2.055   0.653
10355SOL    HW231965   0.753   1.911   0.728
10356SOL     OW31966   6.286   3.345   5.377
10356SOL    HW131967   6.201   3.346   5.430
10356SOL    HW231968   6.339   3.264   5.402
10357SOL     OW31969   0.838   0.920   6.015
10357SOL    HW131970   0.871   0.952   6.103
10357SOL    HW231971   0.844   0.995   5.948
10358SOL     OW31972   1.139   2.836   3.085
10358SOL    HW131973   1.194   2.752   3.079
10358SOL    HW231974   1.186   2.909   3.035
10359SOL     OW31975   6.476   2.484   2.157
10359SOL    HW131976   6.544   2.428   2.204
10359SOL    HW231977   6.385   2.461   2.192
10360SOL     OW31978   5.661   4.250   1.546
10360SOL    HW131979   5.684   4.154   1.563
10360SOL    HW231980   5.634   4.294   1.632
10361SOL     OW31981   6.496   2.204   2.624
10361SOL    HW131982   6.415   2.263   2.620
10361SOL    HW231983   6.557   2.236   2.698
10362SOL     OW31984   1.352   6.180   1.863
10362SOL    HW131985   1.306   6.230   1.937
10362SOL    HW231986   1.308   6.203   1.776
10363SOL     OW31987   5.443   4.473   6.158
10363SOL    HW131988   5.410   4.401   6.098
10363SOL    HW231989   5.414   4.562   6.124
10364SOL     OW31990   5.909   4.768   2.228
10364SOL    HW131991   5.959   4.848   2.261
10364SOL    HW231992   5.850   4.795   2.152
10365SOL     OW31993   5.907   5.156   0.744
10365SOL    HW131994   5.950   5.066   0.748
10365SOL    HW231995   5.922   5.197   0.655
10366SOL     OW31996   3.030   5.839   2.979
10366SOL    HW131997   3.029   5.743   2.953
10366SOL    HW231998   2.950   5.885   2.942
10367SOL     OW31999   5.760   6.374   1.361
10367SOL    HW132000   5.661   6.383   1.361
10367SOL    HW232001   5.785   6.278   1.377
10368SOL     OW32002   1.999   6.571   1.501
10368SOL    HW132003   2.095   6.593   1.516
10368SOL    HW232004   1.992   6.476   1.469
10369SOL     OW32005   2.411   0.458   5.867
10369SOL    HW132006   2.421   0.400   5.948
10369SOL    HW232007   2.325   0.436   5.821
10370SOL     OW32008   1.044   1.203   5.360
10370SOL    HW132009   1.119   1.227   5.421
10370SOL    HW232010   1.066   1.233   5.267
10371SOL     OW32011   4.629   5.502   2.756
10371SOL    HW132012   4.548   5.515   2.813
10371SOL    HW232013   4.696   5.573   2.777
10372SOL     OW32014   2.824   6.260   2.016
10372SOL    HW132015   2.727   6.283   2.003
10372SOL    HW232016   2.847   6.270   2.113
10373SOL     OW32017   6.702   1.291   6.122
10373SOL    HW132018   6.709   1.282   6.022
10373SOL    HW232019   6.630   1.230   6.156
10374SOL     OW32020   3.447   5.634   3.454
10374SOL    HW132021   3.503   5.674   3.382
10374SOL    HW232022   3.370   5.586   3.413
10375SOL     OW32023   2.362   5.033   0.166
10375SOL    HW132024   2.311   5.074   0.091
10375SOL    HW232025   2.301   5.021   0.245
10376SOL     OW32026   2.249   5.268   3.982
10376SOL    HW132027   2.211   5.360   3.990
10376SOL    HW232028   2.180   5.201   4.009
10377SOL     OW32029   1.646   0.823   2.269
10377SOL    HW132030   1.579   0.873   2.215
10377SOL    HW232031   1.738   0.858   2.251
10378SOL     OW32032   0.157   5.819   4.422
10378SOL    HW132033   0.206   5.732   4.422
10378SOL    HW232034   0.085   5.816   4.353
10379SOL     OW32035   1.953   7.004   4.302
10379SOL    HW132036   1.961   0.031   4.386
10379SOL    HW232037   1.861   7.015   4.264
10380SOL     OW32038   3.028   2.172   4.415
10380SOL    HW132039   3.040   2.075   4.437
10380SOL    HW232040   2.974   2.217   4.487
10381SOL     OW32041   4.650   6.527   1.740
10381SOL    HW132042   4.581   6.526   1.812
10381SOL    HW232043   4.618   6.472   1.663
10382SOL     OW32044   4.310   5.791   1.496
10382SOL    HW132045   4.293   5.796   1.398
10382SOL    HW232046   4.316   5.883   1.534
10383SOL     OW32047   1.396   5.103   6.783
10383SOL    HW132048   1.343   5.187   6.787
10383SOL    HW232049   1.422   5.075   6.876
10384SOL     OW32050   5.629   5.947   1.525
10384SOL    HW132051   5.656   5.956   1.620
10384SOL    HW232052   5.577   5.862   1.512
10385SOL     OW32053   4.337   4.799   0.120
10385SOL    HW132054   4.397   4.875   0.144
10385SOL    HW232055   4.305   4.755   0.204
10386SOL     OW32056   0.184   1.078   0.778
10386SOL    HW132057   0.236   1.050   0.698
10386SOL    HW232058   0.194   1.011   0.851
10387SOL     OW32059   5.552   3.158   2.152
10387SOL    HW132060   5.538   3.227   2.223
10387SOL    HW232061   5.518   3.192   2.065
10388SOL     OW32062   2.707   6.929   4.741
10388SOL    HW132063   2.628   6.977   4.702
10388SOL    HW232064   2.682   6.833   4.757
10389SOL     OW32065   0.531   3.690   0.579
10389SOL    HW132066   0.511   3.603   0.622
10389SOL    HW232067   0.567   3.675   0.487
10390SOL     OW32068   2.302   2.344   1.545
10390SOL    HW132069   2.358   2.368   1.624
10390SOL    HW232070   2.216   2.302   1.576
10391SOL     OW32071   5.090   6.886   4.391
10391SOL    HW132072   5.142   6.932   4.463
10391SOL    HW232073   5.087   6.788   4.409
10392SOL     OW32074   6.536   4.074   4.388
10392SOL    HW132075   6.568   3.980   4.404
10392SOL    HW232076   6.601   4.121   4.328
10393SOL     OW32077   1.260   3.731   4.072
10393SOL    HW132078   1.359   3.737   4.063
10393SOL    HW232079   1.219   3.820   4.050
10394SOL     OW32080   3.132   0.368   4.143
10394SOL    HW132081   3.181   0.282   4.152
10394SOL    HW232082   3.168   0.435   4.208
10395SOL     OW32083   1.324   0.487   0.969
10395SOL    HW132084   1.264   0.564   0.990
10395SOL    HW232085   1.342   0.484   0.870
10396SOL     OW32086   2.769   2.305   4.571
10396SOL    HW132087   2.706   2.228   4.577
10396SOL    HW232088   2.721   2.384   4.531
10397SOL     OW32089   3.520   1.686   3.178
10397SOL    HW132090   3.560   1.639   3.257
10397SOL    HW232091   3.496   1.779   3.203
10398SOL     OW32092   6.309   2.730   1.534
10398SOL    HW132093   6.310   2.826   1.504
10398SOL    HW232094   6.349   2.673   1.462
10399SOL     OW32095   0.406   4.046   1.746
10399SOL    HW132096   0.388   3.962   1.797
10399SOL    HW232097   0.413   4.123   1.809
10400SOL     OW32098   3.894   6.440   0.284
10400SOL    HW132099   3.806   6.466   0.324
10400SOL    HW232100   3.968   6.470   0.344
10401SOL     OW32101   6.964   1.221   5.586
10401SOL    HW132102   0.018   1.280   5.576
10401SOL    HW232103   6.882   1.278   5.594
10402SOL     OW32104   6.968   3.076   4.735
10402SOL    HW132105   6.978   3.142   4.660
10402SOL    HW232106   0.032   3.050   4.769
10403SOL     OW32107   2.691   0.450   2.080
10403SOL    HW132108   2.760   0.465   2.150
10403SOL    HW232109   2.681   0.352   2.062
10404SOL     OW32110   0.218   6.793   6.497
10404SOL    HW132111   0.272   6.718   6.534
10404SOL    HW232112   0.147   6.757   6.437
10405SOL     OW32113   0.164   1.823   6.333
10405SOL    HW132114   0.192   1.885   6.406
10405SOL    HW232115   0.222   1.742   6.333
10406SOL     OW32116   2.752   4.705   1.577
10406SOL    HW132117   2.747   4.733   1.673
10406SOL    HW232118   2.680   4.752   1.526
10407SOL     OW32119   3.126   6.925   7.023
10407SOL    HW132120   3.183   6.921   0.078
10407SOL    HW232121   3.181   6.953   6.945
10408SOL     OW32122   3.653   1.031   7.013
10408SOL    HW132123   3.606   1.011   6.927
10408SOL    HW232124   3.682   0.945   0.029
10409SOL     OW32125   5.867   4.514   1.448
10409SOL    HW132126   5.952   4.550   1.410
10409SOL    HW232127   5.804   4.489   1.374
10410SOL     OW32128   5.865   0.630   1.012
10410SOL    HW132129   5.825   0.588   0.930
10410SOL    HW232130   5.799   0.624   1.087
10411SOL     OW32131   3.065   5.295   3.410
10411SOL    HW132132   3.135   5.308   3.481
10411SOL    HW232133   3.095   5.224   3.347
10412SOL     OW32134   6.326   0.640   0.563
10412SOL    HW132135   6.401   0.578   0.584
10412SOL    HW232136   6.362   0.731   0.544
10413SOL     OW32137   6.313   2.648   1.801
10413SOL    HW132138   6.281   2.635   1.707
10413SOL    HW232139   6.327   2.559   1.845
10414SOL     OW32140   4.662   2.636   4.137
10414SOL    HW132141   4.696   2.700   4.206
10414SOL    HW232142   4.659   2.682   4.048
10415SOL     OW32143   1.020   6.301   6.625
10415SOL    HW132144   1.099   6.324   6.567
10415SOL    HW232145   1.052   6.253   6.707
10416SOL     OW32146   5.917   2.614   4.269
10416SOL    HW132147   5.953   2.540   4.326
10416SOL    HW232148   5.922   2.700   4.320
10417SOL     OW32149   2.675   4.689   4.109
10417SOL    HW132150   2.613   4.614   4.133
10417SOL    HW232151   2.757   4.685   4.166
10418SOL     OW32152   1.093   4.756   6.201
10418SOL    HW132153   1.125   4.797   6.116
10418SOL    HW232154   0.994   4.766   6.207
10419SOL     OW32155   1.283   1.104   0.688
10419SOL    HW132156   1.250   1.048   0.613
10419SOL    HW232157   1.229   1.084   0.770
10420SOL     OW32158   0.254   3.300   3.496
10420SOL    HW132159   0.309   3.326   3.417
10420SOL    HW232160   0.308   3.241   3.556
10421SOL     OW32161   0.373   0.465   3.009
10421SOL    HW132162   0.348   0.368   3.005
10421SOL    HW232163   0.310   0.513   3.070
10422SOL     OW32164   6.139   2.779   6.367
10422SOL    HW132165   6.174   2.721   6.441
10422SOL    HW232166   6.209   2.788   6.296
10423SOL     OW32167   4.959   4.237   3.428
10423SOL    HW132168   5.034   4.178   3.458
10423SOL    HW232169   4.918   4.200   3.345
10424SOL     OW32170   5.230   1.599   6.529
10424SOL    HW132171   5.232   1.593   6.628
10424SOL    HW232172   5.294   1.669   6.498
10425SOL     OW32173   1.704   6.009   2.509
10425SOL    HW132174   1.681   6.080   2.575
10425SOL    HW232175   1.704   5.920   2.555
10426SOL     OW32176   6.496   4.513   0.241
10426SOL    HW132177   6.506   4.611   0.230
10426SOL    HW232178   6.561   4.480   0.310
10427SOL     OW32179   5.307   2.061   7.017
10427SOL    HW132180   5.282   2.156   0.007
10427SOL    HW232181   5.296   2.008   0.075
10428SOL     OW32182   5.101   0.251   4.362
10428SOL    HW132183   5.146   0.161   4.353
10428SOL    HW232184   5.122   0.290   4.451
10429SOL     OW32185   6.702   6.040   1.705
10429SOL    HW132186   6.729   6.037   1.609
10429SOL    HW232187   6.659   5.953   1.731
10430SOL     OW32188   4.012   6.598   2.112
10430SOL    HW132189   4.075   6.523   2.089
10430SOL    HW232190   4.062   6.685   2.106
10431SOL     OW32191   3.195   0.495   4.370
10431SOL    HW132192   3.171   0.555   4.445
10431SOL    HW232193   3.234   0.410   4.406
10432SOL     OW32194   5.702   0.765   5.410
10432SOL    HW132195   5.770   0.831   5.440
10432SOL    HW232196   5.656   0.799   5.328
10433SOL     OW32197   2.249   6.613   0.739
10433SOL    HW132198   2.179   6.645   0.675
10433SOL    HW232199   2.240   6.663   0.825
10434SOL     OW32200   2.327   0.364   4.056
10434SOL    HW132201   2.348   0.352   3.959
10434SOL    HW232202   2.303   0.460   4.073
10435SOL     OW32203   5.150   6.415   6.394
10435SOL    HW132204   5.248   6.400   6.401
10435SOL    HW232205   5.119   6.395   6.301
10436SOL     OW32206   1.682   5.169   3.748
10436SOL    HW132207   1.746   5.092   3.742
10436SOL    HW232208   1.691   5.212   3.838
10437SOL     OW32209   0.117   5.151   5.807
10437SOL    HW132210   0.106   5.186   5.900
10437SOL    HW232211   0.063   5.206   5.743
10438SOL     OW32212   3.726   6.681   0.356
10438SOL    HW132213   3.796   6.684   0.285
10438SOL    HW232214   3.768   6.700   0.445
10439SOL     OW32215   3.671   6.957   6.265
10439SOL    HW132216   3.650   6.860   6.279
10439SOL    HW232217   3.769   6.972   6.276
10440SOL     OW32218   1.922   6.414   0.517
10440SOL    HW132219   1.864   6.339   0.548
10440SOL    HW232220   1.888   6.500   0.554
10441SOL     OW32221   5.330   1.571   6.149
10441SOL    HW132222   5.384   1.492   6.121
10441SOL    HW232223   5.254   1.541   6.206
10442SOL     OW32224   3.768   4.909   5.778
10442SOL    HW132225   3.814   4.822   5.792
10442SOL    HW232226   3.675   4.904   5.815
10443SOL     OW32227   6.029   3.220   4.928
10443SOL    HW132228   6.075   3.244   4.843
10443SOL    HW232229   6.089   3.239   5.005
10444SOL     OW32230   3.867   5.319   4.483
10444SOL    HW132231   3.894   5.398   4.537
10444SOL    HW232232   3.808   5.348   4.408
10445SOL     OW32233   6.990   5.865   5.092
10445SOL    HW132234   0.038   5.815   5.047
10445SOL    HW232235   7.011   5.962   5.094
10446SOL     OW32236   1.150   5.402   6.182
10446SOL    HW132237   1.074   5.380   6.120
10446SOL    HW232238   1.196   5.485   6.150
10447SOL     OW32239   5.761   2.806   1.598
10447SOL    HW132240   5.792   2.900   1.585
10447SOL    HW232241   5.812   2.765   1.674
10448SOL     OW32242   3.883   3.806   2.399
10448SOL    HW132243   3.938   3.839   2.322
10448SOL    HW232244   3.796   3.855   2.400
10449SOL     OW32245   2.452   5.566   4.589
10449SOL    HW132246   2.429   5.645   4.646
10449SOL    HW232247   2.502   5.499   4.644
10450SOL     OW32248   6.831   2.099   0.796
10450SOL    HW132249   6.758   2.100   0.865
10450SOL    HW232250   6.918   2.120   0.840
10451SOL     OW32251   2.398   4.580   2.936
10451SOL    HW132252   2.482   4.579   2.991
10451SOL    HW232253   2.403   4.508   2.867
10452SOL     OW32254   1.099   3.253   4.246
10452SOL    HW132255   1.123   3.210   4.159
10452SOL    HW232256   1.145   3.205   4.321
10453SOL     OW32257   4.751   6.780   1.713
10453SOL    HW132258   4.745   6.681   1.710
10453SOL    HW232259   4.690   6.820   1.644
10454SOL     OW32260   5.197   3.085   2.137
10454SOL    HW132261   5.157   3.113   2.225
10454SOL    HW232262   5.127   3.038   2.083
10455SOL     OW32263   6.944   5.129   3.565
10455SOL    HW132264   6.879   5.138   3.640
10455SOL    HW232265   0.009   5.156   3.597
10456SOL     OW32266   4.498   5.802   1.221
10456SOL    HW132267   4.537   5.860   1.149
10456SOL    HW232268   4.402   5.826   1.235
10457SOL     OW32269   3.962   3.465   3.199
10457SOL    HW132270   3.880   3.428   3.156
10457SOL    HW232271   4.038   3.461   3.135
10458SOL     OW32272   1.250   6.527   0.825
10458SOL    HW132273   1.171   6.588   0.820
10458SOL    HW232274   1.268   6.488   0.734
10459SOL     OW32275   6.428   5.194   2.958
10459SOL    HW132276   6.435   5.175   3.056
10459SOL    HW232277   6.392   5.113   2.912
10460SOL     OW32278   2.009   5.124   2.528
10460SOL    HW132279   1.953   5.046   2.557
10460SOL    HW232280   1.953   5.186   2.472
10461SOL     OW32281   2.695   1.531   6.813
10461SOL    HW132282   2.785   1.550   6.772
10461SOL    HW232283   2.671   1.435   6.796
10462SOL     OW32284   6.947   0.242   0.771
10462SOL    HW132285   6.963   0.143   0.777
10462SOL    HW232286   6.988   0.286   0.851
10463SOL     OW32287   3.201   4.510   0.735
10463SOL    HW132288   3.190   4.576   0.809
10463SOL    HW232289   3.128   4.522   0.668
10464SOL     OW32290   4.908   0.812   1.287
10464SOL    HW132291   4.964   0.855   1.217
10464SOL    HW232292   4.827   0.868   1.305
10465SOL     OW32293   6.200   4.891   6.208
10465SOL    HW132294   6.217   4.799   6.245
10465SOL    HW232295   6.275   4.952   6.236
10466SOL     OW32296   4.976   6.011   5.647
10466SOL    HW132297   4.983   6.043   5.741
10466SOL    HW232298   4.897   5.950   5.638
10467SOL     OW32299   3.144   0.741   4.935
10467SOL    HW132300   3.086   0.823   4.938
10467SOL    HW232301   3.109   0.674   5.000
10468SOL     OW32302   3.661   6.457   3.275
10468SOL    HW132303   3.573   6.504   3.267
10468SOL    HW232304   3.646   6.359   3.282
10469SOL     OW32305   1.514   4.653   0.789
10469SOL    HW132306   1.532   4.746   0.819
10469SOL    HW232307   1.540   4.643   0.693
10470SOL     OW32308   2.323   1.529   4.119
10470SOL    HW132309   2.298   1.439   4.084
10470SOL    HW232310   2.411   1.557   4.080
10471SOL     OW32311   3.500   3.592   0.238
10471SOL    HW132312   3.496   3.498   0.272
10471SOL    HW232313   3.408   3.621   0.209
10472SOL     OW32314   4.560   1.073   2.642
10472SOL    HW132315   4.466   1.045   2.622
10472SOL    HW232316   4.616   1.062   2.560
10473SOL     OW32317   4.726   6.296   0.755
10473SOL    HW132318   4.733   6.388   0.794
10473SOL    HW232319   4.653   6.246   0.801
10474SOL     OW32320   3.796   0.661   5.008
10474SOL    HW132321   3.741   0.642   4.926
10474SOL    HW232322   3.751   0.733   5.061
10475SOL     OW32323   3.879   6.452   1.648
10475SOL    HW132324   3.904   6.367   1.693
10475SOL    HW232325   3.801   6.494   1.695
10476SOL     OW32326   0.084   5.060   0.370
10476SOL    HW132327   0.064   5.120   0.292
10476SOL    HW232328   0.169   5.090   0.413
10477SOL     OW32329   5.607   3.987   5.315
10477SOL    HW132330   5.661   4.054   5.366
10477SOL    HW232331   5.648   3.973   5.225
10478SOL     OW32332   0.308   6.667   0.995
10478SOL    HW132333   0.387   6.726   1.009
10478SOL    HW232334   0.331   6.597   0.927
10479SOL     OW32335   1.391   4.125   3.482
10479SOL    HW132336   1.303   4.167   3.461
10479SOL    HW232337   1.381   4.065   3.562
10480SOL     OW32338   6.173   0.062   1.933
10480SOL    HW132339   6.196   0.137   1.871
10480SOL    HW232340   6.116   7.021   1.884
10481SOL     OW32341   1.937   0.534   5.147
10481SOL    HW132342   1.945   0.601   5.073
10481SOL    HW232343   1.924   0.443   5.109
10482SOL     OW32344   1.383   5.429   5.818
10482SOL    HW132345   1.423   5.375   5.892
10482SOL    HW232346   1.426   5.520   5.816
10483SOL     OW32347   0.143   5.107   0.762
10483SOL    HW132348   0.159   5.182   0.827
10483SOL    HW232349   0.205   5.117   0.685
10484SOL     OW32350   6.204   1.400   1.590
10484SOL    HW132351   6.129   1.453   1.552
10484SOL    HW232352   6.281   1.460   1.611
10485SOL     OW32353   3.709   3.635   3.458
10485SOL    HW132354   3.770   3.630   3.537
10485SOL    HW232355   3.621   3.593   3.481
10486SOL     OW32356   6.195   6.359   5.471
10486SOL    HW132357   6.179   6.457   5.481
10486SOL    HW232358   6.219   6.338   5.376
10487SOL     OW32359   4.849   2.625   1.903
10487SOL    HW132360   4.940   2.602   1.937
10487SOL    HW232361   4.805   2.689   1.966
10488SOL     OW32362   6.006   2.614   5.816
10488SOL    HW132363   6.077   2.668   5.860
10488SOL    HW232364   5.958   2.558   5.884
10489SOL     OW32365   6.134   4.310   5.147
10489SOL    HW132366   6.124   4.378   5.074
10489SOL    HW232367   6.209   4.336   5.207
10490SOL     OW32368   5.574   6.296   6.713
10490SOL    HW132369   5.612   6.353   6.641
10490SOL    HW232370   5.494   6.247   6.679
10491SOL     OW32371   1.845   2.763   5.796
10491SOL    HW132372   1.913   2.780   5.725
10491SOL    HW232373   1.787   2.844   5.806
10492SOL     OW32374   3.616   0.376   0.101
10492SOL    HW132375   3.564   0.324   0.034
10492SOL    HW232376   3.593   0.473   0.093
10493SOL     OW32377   3.813   5.602   1.008
10493SOL    HW132378   3.749   5.609   1.084
10493SOL    HW232379   3.829   5.506   0.986
10494SOL     OW32380   1.103   4.469   5.344
10494SOL    HW132381   1.074   4.439   5.435
10494SOL    HW232382   1.177   4.537   5.354
10495SOL     OW32383   0.137   6.860   0.802
10495SOL    HW132384   0.147   6.762   0.785
10495SOL    HW232385   0.181   6.911   0.728
10496SOL     OW32386   0.243   3.663   5.385
10496SOL    HW132387   0.307   3.586   5.376
10496SOL    HW232388   0.294   3.749   5.391
10497SOL     OW32389   2.197   0.234   1.234
10497SOL    HW132390   2.164   0.298   1.164
10497SOL    HW232391   2.131   0.160   1.245
10498SOL     OW32392   4.358   4.465   0.333
10498SOL    HW132393   4.309   4.540   0.289
10498SOL    HW232394   4.344   4.380   0.282
10499SOL     OW32395   5.932   4.750   2.618
10499SOL    HW132396   5.947   4.849   2.622
10499SOL    HW232397   6.019   4.704   2.600
10500SOL     OW32398   0.584   3.238   5.353
10500SOL    HW132399   0.628   3.175   5.289
10500SOL    HW232400   0.650   3.307   5.382
10501SOL     OW32401   3.661   4.965   2.803
10501SOL    HW132402   3.605   4.958   2.885
10501SOL    HW232403   3.758   4.958   2.828
10502SOL     OW32404   3.415   3.600   2.175
10502SOL    HW132405   3.338   3.631   2.231
10502SOL    HW232406   3.497   3.651   2.201
10503SOL     OW32407   6.454   2.317   6.270
10503SOL    HW132408   6.545   2.295   6.306
10503SOL    HW232409   6.384   2.289   6.335
10504SOL     OW32410   1.156   2.833   6.107
10504SOL    HW132411   1.118   2.742   6.126
10504SOL    HW232412   1.084   2.893   6.074
10505SOL     OW32413   6.049   6.556   0.714
10505SOL    HW132414   6.063   6.598   0.804
10505SOL    HW232415   6.136   6.521   0.680
10506SOL     OW32416   1.227   2.305   6.858
10506SOL    HW132417   1.134   2.299   6.822
10506SOL    HW232418   1.260   2.399   6.850
10507SOL     OW32419   0.959   5.372   5.972
10507SOL    HW132420   0.877   5.326   6.007
10507SOL    HW232421   0.985   5.333   5.884
10508SOL     OW32422   1.616   4.756   4.908
10508SOL    HW132423   1.644   4.661   4.916
10508SOL    HW232424   1.552   4.767   4.832
10509SOL     OW32425   4.567   2.643   2.863
10509SOL    HW132426   4.560   2.627   2.962
10509SOL    HW232427   4.608   2.733   2.847
10510SOL     OW32428   5.820   5.764   3.770
10510SOL    HW132429   5.894   5.815   3.725
10510SOL    HW232430   5.738   5.821   3.772
10511SOL     OW32431   5.103   1.998   1.828
10511SOL    HW132432   5.161   2.024   1.905
10511SOL    HW232433   5.156   1.998   1.744
10512SOL     OW32434   4.622   0.892   5.005
10512SOL    HW132435   4.584   0.853   5.088
10512SOL    HW232436   4.616   0.825   4.931
10513SOL     OW32437   4.483   3.042   0.973
10513SOL    HW132438   4.553   3.082   1.034
10513SOL    HW232439   4.394   3.083   0.993
10514SOL     OW32440   1.526   3.371   1.716
10514SOL    HW132441   1.549   3.459   1.759
10514SOL    HW232442   1.428   3.366   1.700
10515SOL     OW32443   2.357   2.722   5.036
10515SOL    HW132444   2.268   2.706   5.080
10515SOL    HW232445   2.383   2.818   5.048
10516SOL     OW32446   3.937   1.979   1.805
10516SOL    HW132447   3.948   2.078   1.795
10516SOL    HW232448   4.024   1.938   1.831
10517SOL     OW32449   1.498   2.120   2.586
10517SOL    HW132450   1.442   2.124   2.502
10517SOL    HW232451   1.483   2.032   2.631
10518SOL     OW32452   0.576   5.095   2.849
10518SOL    HW132453   0.564   5.191   2.825
10518SOL    HW232454   0.535   5.037   2.778
10519SOL     OW32455   4.093   6.866   1.402
10519SOL    HW132456   4.105   6.946   1.460
10519SOL    HW232457   4.065   6.788   1.458
10520SOL     OW32458   0.327   2.642   5.489
10520SOL    HW132459   0.348   2.583   5.411
10520SOL    HW232460   0.277   2.722   5.458
10521SOL     OW32461   0.087   2.959   2.228
10521SOL    HW132462   0.049   2.922   2.143
10521SOL    HW232463   0.018   2.955   2.300
10522SOL     OW32464   5.019   2.481   3.597
10522SOL    HW132465   4.973   2.519   3.678
10522SOL    HW232466   5.103   2.435   3.625
10523SOL     OW32467   0.541   4.150   3.301
10523SOL    HW132468   0.615   4.082   3.301
10523SOL    HW232469   0.493   4.147   3.388
10524SOL     OW32470   0.030   6.122   5.116
10524SOL    HW132471   0.058   6.137   5.021
10524SOL    HW232472   0.055   6.201   5.172
10525SOL     OW32473   5.061   1.620   3.544
10525SOL    HW132474   4.984   1.681   3.565
10525SOL    HW232475   5.038   1.527   3.571
10526SOL     OW32476   1.161   4.788   0.402
10526SOL    HW132477   1.203   4.719   0.342
10526SOL    HW232478   1.063   4.794   0.382
10527SOL     OW32479   0.428   0.488   4.967
10527SOL    HW132480   0.332   0.509   4.950
10527SOL    HW232481   0.438   0.446   5.057
10528SOL     OW32482   1.616   3.510   5.399
10528SOL    HW132483   1.666   3.554   5.473
10528SOL    HW232484   1.525   3.552   5.391
10529SOL     OW32485   0.435   6.307   1.087
10529SOL    HW132486   0.482   6.246   1.150
10529SOL    HW232487   0.487   6.313   1.001
10530SOL     OW32488   0.528   5.356   0.853
10530SOL    HW132489   0.608   5.400   0.894
10530SOL    HW232490   0.449   5.417   0.861
10531SOL     OW32491   2.870   3.510   5.254
10531SOL    HW132492   2.793   3.448   5.275
10531SOL    HW232493   2.893   3.502   5.157
10532SOL     OW32494   5.258   6.500   6.727
10532SOL    HW132495   5.335   6.563   6.718
10532SOL    HW232496   5.283   6.411   6.690
10533SOL     OW32497   4.310   6.764   2.977
10533SOL    HW132498   4.408   6.745   2.967
10533SOL    HW232499   4.288   6.778   3.074
10534SOL     OW32500   1.277   6.434   4.242
10534SOL    HW132501   1.228   6.347   4.248
10534SOL    HW232502   1.304   6.451   4.147
10535SOL     OW32503   3.797   2.091   2.470
10535SOL    HW132504   3.818   2.177   2.424
10535SOL    HW232505   3.786   2.019   2.402
10536SOL     OW32506   4.960   2.693   4.569
10536SOL    HW132507   4.931   2.604   4.606
10536SOL    HW232508   4.879   2.751   4.556
10537SOL     OW32509   3.687   0.044   4.340
10537SOL    HW132510   3.774   0.043   4.291
10537SOL    HW232511   3.612   0.057   4.274
10538SOL     OW32512   0.353   3.485   2.847
10538SOL    HW132513   0.279   3.548   2.871
10538SOL    HW232514   0.411   3.470   2.927
10539SOL     OW32515   6.162   0.110   3.659
10539SOL    HW132516   6.105   0.191   3.646
10539SOL    HW232517   6.155   0.079   3.753
10540SOL     OW32518   1.699   3.404   6.012
10540SOL    HW132519   1.738   3.447   6.093
10540SOL    HW232520   1.764   3.410   5.936
10541SOL     OW32521   3.488   3.276   5.131
10541SOL    HW132522   3.482   3.374   5.117
10541SOL    HW232523   3.469   3.228   5.045
10542SOL     OW32524   4.610   0.432   4.250
10542SOL    HW132525   4.578   0.431   4.155
10542SOL    HW232526   4.710   0.425   4.251
10543SOL     OW32527   1.324   3.679   4.687
10543SOL    HW132528   1.272   3.661   4.603
10543SOL    HW232529   1.262   3.713   4.758
10544SOL     OW32530   2.306   1.932   3.144
10544SOL    HW132531   2.301   1.930   3.244
10544SOL    HW232532   2.353   1.850   3.111
10545SOL     OW32533   2.265   2.824   2.478
10545SOL    HW132534   2.218   2.849   2.393
10545SOL    HW232535   2.360   2.803   2.458
10546SOL     OW32536   3.248   6.588   6.726
10546SOL    HW132537   3.174   6.652   6.748
10546SOL    HW232538   3.335   6.636   6.724
10547SOL     OW32539   4.327   6.912   4.804
10547SOL    HW132540   4.338   6.820   4.767
10547SOL    HW232541   4.408   6.967   4.781
10548SOL     OW32542   0.046   5.949   3.257
10548SOL    HW132543   0.112   5.901   3.316
10548SOL    HW232544   7.020   5.882   3.204
10549SOL     OW32545   0.036   0.570   1.628
10549SOL    HW132546   0.014   0.570   1.725
10549SOL    HW232547   7.026   0.653   1.585
10550SOL     OW32548   4.634   5.472   3.526
10550SOL    HW132549   4.644   5.462   3.625
10550SOL    HW232550   4.605   5.385   3.487
10551SOL     OW32551   2.639   1.366   5.818
10551SOL    HW132552   2.736   1.340   5.823
10551SOL    HW232553   2.586   1.306   5.877
10552SOL     OW32554   2.922   0.536   4.131
10552SOL    HW132555   2.961   0.618   4.089
10552SOL    HW232556   2.995   0.472   4.153
10553SOL     OW32557   6.928   5.724   1.161
10553SOL    HW132558   6.999   5.658   1.187
10553SOL    HW232559   6.970   5.813   1.146
10554SOL     OW32560   6.080   6.092   2.453
10554SOL    HW132561   6.103   6.116   2.359
10554SOL    HW232562   6.034   6.169   2.497
10555SOL     OW32563   3.922   3.510   1.060
10555SOL    HW132564   3.869   3.460   0.992
10555SOL    HW232565   4.000   3.554   1.016
10556SOL     OW32566   2.493   1.289   2.440
10556SOL    HW132567   2.462   1.384   2.427
10556SOL    HW232568   2.443   1.229   2.378
10557SOL     OW32569   2.668   4.647   3.386
10557SOL    HW132570   2.719   4.678   3.466
10557SOL    HW232571   2.625   4.559   3.406
10558SOL     OW32572   3.603   5.567   5.396
10558SOL    HW132573   3.673   5.534   5.334
10558SOL    HW232574   3.629   5.545   5.490
10559SOL     OW32575   4.024   6.618   0.921
10559SOL    HW132576   4.024   6.523   0.953
10559SOL    HW232577   3.935   6.660   0.938
10560SOL     OW32578   5.669   0.137   2.094
10560SOL    HW132579   5.643   0.214   2.036
10560SOL    HW232580   5.702   0.172   2.182
10561SOL     OW32581   6.270   4.829   0.190
10561SOL    HW132582   6.206   4.902   0.170
10561SOL    HW232583   6.230   4.741   0.167
10562SOL     OW32584   4.281   5.742   2.563
10562SOL    HW132585   4.379   5.761   2.572
10562SOL    HW232586   4.249   5.696   2.645
10563SOL     OW32587   0.302   6.773   1.986
10563SOL    HW132588   0.315   6.823   2.072
10563SOL    HW232589   0.232   6.703   1.998
10564SOL     OW32590   5.509   4.560   3.845
10564SOL    HW132591   5.442   4.488   3.859
10564SOL    HW232592   5.490   4.607   3.758
10565SOL     OW32593   0.289   0.441   6.082
10565SOL    HW132594   0.243   0.411   5.998
10565SOL    HW232595   0.374   0.487   6.058
10566SOL     OW32596   3.364   2.887   0.516
10566SOL    HW132597   3.409   2.934   0.440
10566SOL    HW232598   3.296   2.823   0.479
10567SOL     OW32599   1.558   2.240   6.427
10567SOL    HW132600   1.483   2.278   6.481
10567SOL    HW232601   1.522   2.205   6.341
10568SOL     OW32602   4.762   2.414   5.951
10568SOL    HW132603   4.840   2.353   5.967
10568SOL    HW232604   4.707   2.420   6.035
10569SOL     OW32605   5.632   6.364   0.323
10569SOL    HW132606   5.614   6.347   0.420
10569SOL    HW232607   5.617   6.279   0.271
10570SOL     OW32608   1.148   4.253   3.373
10570SOL    HW132609   1.173   4.285   3.281
10570SOL    HW232610   1.071   4.190   3.366
10571SOL     OW32611   6.482   4.308   6.303
10571SOL    HW132612   6.431   4.225   6.280
10571SOL    HW232613   6.468   4.376   6.230
10572SOL     OW32614   6.046   4.136   0.701
10572SOL    HW132615   6.136   4.149   0.659
10572SOL    HW232616   5.977   4.127   0.630
10573SOL     OW32617   5.900   1.606   3.262
10573SOL    HW132618   5.987   1.644   3.293
10573SOL    HW232619   5.866   1.540   3.330
10574SOL     OW32620   6.309   2.783   3.218
10574SOL    HW132621   6.392   2.825   3.253
10574SOL    HW232622   6.332   2.699   3.170
10575SOL     OW32623   6.400   6.913   1.562
10575SOL    HW132624   6.381   7.001   1.604
10575SOL    HW232625   6.477   6.869   1.608
10576SOL     OW32626   1.509   4.208   4.436
10576SOL    HW132627   1.519   4.304   4.460
10576SOL    HW232628   1.492   4.198   4.338
10577SOL     OW32629   3.681   4.464   0.289
10577SOL    HW132630   3.582   4.482   0.286
10577SOL    HW232631   3.715   4.481   0.381
10578SOL     OW32632   0.197   3.404   4.963
10578SOL    HW132633   0.188   3.449   4.874
10578SOL    HW232634   0.289   3.418   4.998
10579SOL     OW32635   1.080   3.774   6.711
10579SOL    HW132636   1.080   3.746   6.615
10579SOL    HW232637   1.123   3.703   6.767
10580SOL     OW32638   6.047   6.781   0.249
10580SOL    HW132639   6.019   6.712   0.315
10580SOL    HW232640   6.136   6.758   0.210
10581SOL     OW32641   4.831   6.795   3.237
10581SOL    HW132642   4.757   6.856   3.265
10581SOL    HW232643   4.909   6.849   3.206
10582SOL     OW32644   5.535   4.044   6.335
10582SOL    HW132645   5.546   4.141   6.318
10582SOL    HW232646   5.583   3.991   6.265
10583SOL     OW32647   2.995   1.893   5.037
10583SOL    HW132648   2.943   1.946   4.971
10583SOL    HW232649   3.074   1.946   5.068
10584SOL     OW32650   1.073   0.007   4.390
10584SOL    HW132651   1.107   0.042   4.302
10584SOL    HW232652   0.990   6.979   4.374
10585SOL     OW32653   0.928   0.192   5.154
10585SOL    HW132654   0.907   0.102   5.191
10585SOL    HW232655   0.887   0.263   5.212
10586SOL     OW32656   4.062   4.313   5.264
10586SOL    HW132657   4.089   4.237   5.324
10586SOL    HW232658   4.138   4.335   5.203
10587SOL     OW32659   2.557   5.086   5.528
10587SOL    HW132660   2.464   5.054   5.512
10587SOL    HW232661   2.583   5.069   5.623
10588SOL     OW32662   1.116   4.006   4.360
10588SOL    HW132663   1.125   4.104   4.343
10588SOL    HW232664   1.039   3.990   4.422
10589SOL     OW32665   5.496   5.771   4.071
10589SOL    HW132666   5.545   5.857   4.085
10589SOL    HW232667   5.428   5.782   3.998
10590SOL     OW32668   1.023   5.087   2.668
10590SOL    HW132669   1.087   5.011   2.665
10590SOL    HW232670   0.962   5.077   2.747
10591SOL     OW32671   6.672   2.711   1.525
10591SOL    HW132672   6.749   2.764   1.558
10591SOL    HW232673   6.624   2.669   1.602
10592SOL     OW32674   6.404   2.041   5.330
10592SOL    HW132675   6.372   2.096   5.253
10592SOL    HW232676   6.504   2.036   5.328
10593SOL     OW32677   3.275   5.339   3.583
10593SOL    HW132678   3.295   5.436   3.570
10593SOL    HW232679   3.331   5.302   3.657
10594SOL     OW32680   2.999   6.133   3.827
10594SOL    HW132681   3.096   6.158   3.834
10594SOL    HW232682   2.974   6.124   3.731
10595SOL     OW32683   5.076   6.477   0.061
10595SOL    HW132684   5.003   6.413   0.084
10595SOL    HW232685   5.062   6.510   6.993
10596SOL     OW32686   4.945   3.324   0.297
10596SOL    HW132687   4.846   3.314   0.302
10596SOL    HW232688   4.982   3.331   0.390
10597SOL     OW32689   2.330   0.250   5.135
10597SOL    HW132690   2.247   0.221   5.087
10597SOL    HW232691   2.349   0.188   5.211
10598SOL     OW32692   2.749   1.240   6.156
10598SOL    HW132693   2.801   1.314   6.114
10598SOL    HW232694   2.765   1.240   6.255
10599SOL     OW32695   0.225   2.016   6.794
10599SOL    HW132696   0.227   2.060   6.704
10599SOL    HW232697   0.233   1.917   6.783
10600SOL     OW32698   2.607   2.485   1.231
10600SOL    HW132699   2.688   2.530   1.269
10600SOL    HW232700   2.586   2.403   1.283
10601SOL     OW32701   1.349   0.958   5.826
10601SOL    HW132702   1.255   0.964   5.791
10601SOL    HW232703   1.372   1.042   5.874
10602SOL     OW32704   6.722   6.615   1.100
10602SOL    HW132705   6.710   6.676   1.178
10602SOL    HW232706   6.716   6.668   1.015
10603SOL     OW32707   5.282   0.647   2.675
10603SOL    HW132708   5.336   0.594   2.740
10603SOL    HW232709   5.276   0.597   2.588
10604SOL     OW32710   4.938   6.998   5.022
10604SOL    HW132711   4.962   6.972   4.928
10604SOL    HW232712   5.021   7.004   5.077
10605SOL     OW32713   2.048   1.696   1.350
10605SOL    HW132714   2.049   1.779   1.294
10605SOL    HW232715   2.013   1.717   1.441
10606SOL     OW32716   5.911   0.387   0.458
10606SOL    HW132717   5.874   0.317   0.520
10606SOL    HW232718   5.889   0.362   0.364
10607SOL     OW32719   3.098   5.128   6.532
10607SOL    HW132720   3.067   5.121   6.437
10607SOL    HW232721   3.064   5.049   6.583
10608SOL     OW32722   5.873   3.967   3.683
10608SOL    HW132723   5.864   3.870   3.662
10608SOL    HW232724   5.950   4.006   3.632
10609SOL     OW32725   4.751   1.446   6.553
10609SOL    HW132726   4.727   1.498   6.471
10609SOL    HW232727   4.786   1.509   6.623
10610SOL     OW32728   0.668   1.493   3.537
10610SOL    HW132729   0.736   1.563   3.559
10610SOL    HW232730   0.706   1.430   3.470
10611SOL     OW32731   3.811   5.644   4.438
10611SOL    HW132732   3.730   5.589   4.421
10611SOL    HW232733   3.840   5.689   4.353
10612SOL     OW32734   6.183   1.684   3.408
10612SOL    HW132735   6.280   1.709   3.408
10612SOL    HW232736   6.138   1.726   3.487
10613SOL     OW32737   4.225   6.118   4.284
10613SOL    HW132738   4.291   6.150   4.215
10613SOL    HW232739   4.134   6.151   4.260
10614SOL     OW32740   3.750   1.682   6.178
10614SOL    HW132741   3.832   1.636   6.210
10614SOL    HW232742   3.746   1.774   6.215
10615SOL     OW32743   1.653   1.687   5.348
10615SOL    HW132744   1.713   1.762   5.374
10615SOL    HW232745   1.695   1.636   5.273
10616SOL     OW32746   2.630   6.409   0.037
10616SOL    HW132747   2.661   6.442   0.126
10616SOL    HW232748   2.647   6.310   0.030
10617SOL     OW32749   2.233   3.346   1.430
10617SOL    HW132750   2.167   3.421   1.442
10617SOL    HW232751   2.245   3.298   1.517
10618SOL     OW32752   1.736   5.615   3.613
10618SOL    HW132753   1.789   5.555   3.673
10618SOL    HW232754   1.798   5.658   3.547
10619SOL     OW32755   2.056   2.449   2.420
10619SOL    HW132756   1.984   2.397   2.466
10619SOL    HW232757   2.040   2.547   2.432
10620SOL     OW32758   3.168   1.425   6.044
10620SOL    HW132759   3.069   1.422   6.040
10620SOL    HW232760   3.199   1.518   6.067
10621SOL     OW32761   0.387   3.892   3.182
10621SOL    HW132762   0.447   3.972   3.174
10621SOL    HW232763   0.441   3.813   3.210
10622SOL     OW32764   4.497   2.180   0.117
10622SOL    HW132765   4.460   2.130   0.196
10622SOL    HW232766   4.448   2.152   0.034
10623SOL     OW32767   4.848   0.024   6.055
10623SOL    HW132768   4.869   0.066   5.967
10623SOL    HW232769   4.910   6.974   6.071
10624SOL     OW32770   0.395   1.990   0.020
10624SOL    HW132771   0.353   1.990   6.955
10624SOL    HW232772   0.483   1.943   0.016
10625SOL     OW32773   5.416   4.456   6.930
10625SOL    HW132774   5.399   4.548   6.966
10625SOL    HW232775   5.350   4.436   6.858
10626SOL     OW32776   5.262   2.982   1.244
10626SOL    HW132777   5.242   2.937   1.331
10626SOL    HW232778   5.177   2.995   1.193
10627SOL     OW32779   5.769   5.337   5.844
10627SOL    HW132780   5.690   5.325   5.904
10627SOL    HW232781   5.739   5.339   5.749
10628SOL     OW32782   3.779   6.730   1.012
10628SOL    HW132783   3.770   6.802   1.080
10628SOL    HW232784   3.689   6.687   0.999
10629SOL     OW32785   3.251   5.434   4.601
10629SOL    HW132786   3.292   5.509   4.652
10629SOL    HW232787   3.238   5.461   4.506
10630SOL     OW32788   4.099   0.800   2.366
10630SOL    HW132789   4.030   0.872   2.356
10630SOL    HW232790   4.188   0.835   2.336
10631SOL     OW32791   3.787   5.987   0.507
10631SOL    HW132792   3.812   6.079   0.536
10631SOL    HW232793   3.769   5.930   0.587
10632SOL     OW32794   5.083   6.027   3.302
10632SOL    HW132795   5.065   5.936   3.265
10632SOL    HW232796   5.152   6.073   3.246
10633SOL     OW32797   1.419   3.360   1.012
10633SOL    HW132798   1.415   3.296   0.936
10633SOL    HW232799   1.327   3.373   1.050
10634SOL     OW32800   0.645   3.573   6.901
10634SOL    HW132801   0.583   3.561   6.823
10634SOL    HW232802   0.663   3.670   6.915
10635SOL     OW32803   2.542   4.869   6.001
10635SOL    HW132804   2.465   4.855   6.063
10635SOL    HW232805   2.625   4.830   6.042
10636SOL     OW32806   6.996   2.140   6.491
10636SOL    HW132807   6.936   2.169   6.565
10636SOL    HW232808   0.023   2.060   6.520
10637SOL     OW32809   2.828   0.727   6.913
10637SOL    HW132810   2.750   0.720   6.850
10637SOL    HW232811   2.884   0.806   6.887
10638SOL     OW32812   6.384   5.717   1.560
10638SOL    HW132813   6.298   5.698   1.606
10638SOL    HW232814   6.450   5.755   1.625
10639SOL     OW32815   1.310   4.930   1.845
10639SOL    HW132816   1.308   5.029   1.860
10639SOL    HW232817   1.377   4.888   1.907
10640SOL     OW32818   4.308   6.559   3.395
10640SOL    HW132819   4.244   6.542   3.470
10640SOL    HW232820   4.333   6.472   3.352
10641SOL     OW32821   1.495   1.002   3.549
10641SOL    HW132822   1.426   0.933   3.572
10641SOL    HW232823   1.585   0.960   3.545
10642SOL     OW32824   6.231   2.212   6.422
10642SOL    HW132825   6.162   2.273   6.382
10642SOL    HW232826   6.210   2.118   6.397
10643SOL     OW32827   2.645   5.138   5.816
10643SOL    HW132828   2.732   5.177   5.787
10643SOL    HW232829   2.661   5.049   5.859
10644SOL     OW32830   6.428   3.437   2.622
10644SOL    HW132831   6.398   3.533   2.624
10644SOL    HW232832   6.368   3.385   2.562
10645SOL     OW32833   2.651   2.419   3.696
10645SOL    HW132834   2.701   2.345   3.651
10645SOL    HW232835   2.612   2.480   3.626
10646SOL     OW32836   5.534   0.372   3.636
10646SOL    HW132837   5.615   0.368   3.695
10646SOL    HW232838   5.483   0.287   3.645
10647SOL     OW32839   3.296   5.173   4.715
10647SOL    HW132840   3.239   5.106   4.666
10647SOL    HW232841   3.282   5.264   4.676
10648SOL     OW32842   4.865   4.945   5.966
10648SOL    HW132843   4.919   4.872   5.925
10648SOL    HW232844   4.870   4.938   6.066
10649SOL     OW32845   6.498   3.761   2.864
10649SOL    HW132846   6.551   3.697   2.919
10649SOL    HW232847   6.560   3.822   2.815
10650SOL     OW32848   0.239   0.346   3.643
10650SOL    HW132849   0.142   0.343   3.618
10650SOL    HW232850   0.267   0.256   3.676
10651SOL     OW32851   4.046   5.861   5.968
10651SOL    HW132852   4.069   5.957   5.985
10651SOL    HW232853   3.995   5.824   6.046
10652SOL     OW32854   1.808   0.438   6.893
10652SOL    HW132855   1.716   0.453   6.929
10652SOL    HW232856   1.806   0.361   6.828
10653SOL     OW32857   4.291   5.612   3.998
10653SOL    HW132858   4.293   5.684   4.067
10653SOL    HW232859   4.369   5.623   3.936
10654SOL     OW32860   5.953   1.636   3.972
10654SOL    HW132861   5.965   1.710   4.039
10654SOL    HW232862   5.865   1.591   3.988
10655SOL     OW32863   0.194   4.793   1.196
10655SOL    HW132864   0.190   4.849   1.113
10655SOL    HW232865   0.101   4.764   1.220
10656SOL     OW32866   5.930   2.501   3.436
10656SOL    HW132867   5.892   2.440   3.506
10656SOL    HW232868   5.889   2.592   3.446
10657SOL     OW32869   5.021   6.577   4.405
10657SOL    HW132870   4.933   6.602   4.367
10657SOL    HW232871   5.054   6.493   4.362
10658SOL     OW32872   0.735   3.049   5.207
10658SOL    HW132873   0.706   2.965   5.161
10658SOL    HW232874   0.814   3.029   5.265
10659SOL     OW32875   1.233   5.471   0.836
10659SOL    HW132876   1.260   5.566   0.851
10659SOL    HW232877   1.139   5.468   0.802
10660SOL     OW32878   5.829   2.905   5.347
10660SOL    HW132879   5.923   2.939   5.340
10660SOL    HW232880   5.823   2.815   5.305
10661SOL     OW32881   2.388   5.233   5.894
10661SOL    HW132882   2.485   5.212   5.879
10661SOL    HW232883   2.352   5.176   5.968
10662SOL     OW32884   2.777   1.234   2.331
10662SOL    HW132885   2.794   1.255   2.235
10662SOL    HW232886   2.698   1.287   2.363
10663SOL     OW32887   1.384   1.717   3.916
10663SOL    HW132888   1.416   1.788   3.979
10663SOL    HW232889   1.353   1.759   3.831
10664SOL     OW32890   0.949   4.998   4.607
10664SOL    HW132891   0.910   5.045   4.686
10664SOL    HW232892   0.930   4.900   4.614
10665SOL     OW32893   2.332   3.011   6.363
10665SOL    HW132894   2.301   2.966   6.279
10665SOL    HW232895   2.425   3.045   6.350
10666SOL     OW32896   3.362   3.598   1.909
10666SOL    HW132897   3.450   3.588   1.863
10666SOL    HW232898   3.376   3.604   2.008
10667SOL     OW32899   5.419   2.413   3.757
10667SOL    HW132900   5.419   2.393   3.855
10667SOL    HW232901   5.511   2.404   3.720
10668SOL     OW32902   3.153   2.596   5.351
10668SOL    HW132903   3.156   2.675   5.290
10668SOL    HW232904   3.159   2.512   5.297
10669SOL     OW32905   6.541   1.426   1.094
10669SOL    HW132906   6.552   1.442   1.192
10669SOL    HW232907   6.466   1.481   1.059
10670SOL     OW32908   4.935   3.601   4.191
10670SOL    HW132909   4.964   3.648   4.274
10670SOL    HW232910   4.872   3.659   4.140
10671SOL     OW32911   1.327   2.984   4.308
10671SOL    HW132912   1.392   3.019   4.376
10671SOL    HW232913   1.376   2.960   4.224
10672SOL     OW32914   6.071   3.362   1.321
10672SOL    HW132915   6.092   3.453   1.286
10672SOL    HW232916   6.059   3.299   1.245
10673SOL     OW32917   2.077   1.083   1.051
10673SOL    HW132918   2.034   1.013   1.108
10673SOL    HW232919   2.067   1.058   0.954
10674SOL     OW32920   3.493   3.748   3.791
10674SOL    HW132921   3.426   3.692   3.742
10674SOL    HW232922   3.531   3.695   3.867
10675SOL     OW32923   3.763   7.017   5.769
10675SOL    HW132924   3.839   7.015   5.704
10675SOL    HW232925   3.769   6.940   5.831
10676SOL     OW32926   1.769   6.632   5.645
10676SOL    HW132927   1.867   6.651   5.651
10676SOL    HW232928   1.753   6.556   5.581
10677SOL     OW32929   0.669   1.472   0.725
10677SOL    HW132930   0.689   1.375   0.741
10677SOL    HW232931   0.611   1.506   0.798
10678SOL     OW32932   4.363   5.523   3.425
10678SOL    HW132933   4.281   5.492   3.472
10678SOL    HW232934   4.436   5.538   3.492
10679SOL     OW32935   3.943   3.151   6.871
10679SOL    HW132936   3.925   3.128   6.775
10679SOL    HW232937   3.891   3.232   6.897
10680SOL     OW32938   4.212   0.819   3.821
10680SOL    HW132939   4.251   0.902   3.782
10680SOL    HW232940   4.112   0.828   3.825
10681SOL     OW32941   1.088   2.568   5.748
10681SOL    HW132942   1.002   2.550   5.700
10681SOL    HW232943   1.073   2.557   5.847
10682SOL     OW32944   5.137   3.007   6.322
10682SOL    HW132945   5.219   3.060   6.345
10682SOL    HW232946   5.088   3.052   6.247
10683SOL     OW32947   3.284   0.697   3.509
10683SOL    HW132948   3.337   0.612   3.516
10683SOL    HW232949   3.195   0.677   3.469
10684SOL     OW32950   4.434   4.815   1.809
10684SOL    HW132951   4.401   4.720   1.810
10684SOL    HW232952   4.500   4.827   1.883
10685SOL     OW32953   0.748   5.807   1.538
10685SOL    HW132954   0.795   5.725   1.508
10685SOL    HW232955   0.811   5.862   1.594
10686SOL     OW32956   2.222   2.661   6.754
10686SOL    HW132957   2.251   2.738   6.697
10686SOL    HW232958   2.151   2.692   6.817
10687SOL     OW32959   0.726   4.316   3.513
10687SOL    HW132960   0.634   4.282   3.531
10687SOL    HW232961   0.786   4.295   3.590
10688SOL     OW32962   5.535   1.523   2.668
10688SOL    HW132963   5.436   1.532   2.673
10688SOL    HW232964   5.572   1.514   2.760
10689SOL     OW32965   6.595   7.001   2.392
10689SOL    HW132966   6.627   6.959   2.476
10689SOL    HW232967   6.496   7.012   2.396
10690SOL     OW32968   0.126   6.903   4.051
10690SOL    HW132969   0.073   6.942   3.975
10690SOL    HW232970   0.098   6.809   4.066
10691SOL     OW32971   3.222   0.977   2.887
10691SOL    HW132972   3.178   1.028   2.813
10691SOL    HW232973   3.292   0.917   2.849
10692SOL     OW32974   2.652   0.517   4.124
10692SOL    HW132975   2.627   0.493   4.031
10692SOL    HW232976   2.751   0.530   4.129
10693SOL     OW32977   1.367   5.889   0.646
10693SOL    HW132978   1.310   5.885   0.563
10693SOL    HW232979   1.454   5.843   0.628
10694SOL     OW32980   4.571   6.406   5.531
10694SOL    HW132981   4.639   6.476   5.509
10694SOL    HW232982   4.585   6.376   5.626
10695SOL     OW32983   0.121   4.217   1.754
10695SOL    HW132984   0.170   4.303   1.739
10695SOL    HW232985   0.141   4.183   1.846
10696SOL     OW32986   0.202   5.051   4.638
10696SOL    HW132987   0.128   5.029   4.574
10696SOL    HW232988   0.242   5.140   4.615
10697SOL     OW32989   1.513   4.856   5.975
10697SOL    HW132990   1.510   4.876   5.877
10697SOL    HW232991   1.471   4.767   5.992
10698SOL     OW32992   4.432   3.307   0.177
10698SOL    HW132993   4.437   3.363   0.094
10698SOL    HW232994   4.348   3.329   0.227
10699SOL     OW32995   3.328   4.002   0.367
10699SOL    HW132996   3.237   3.996   0.328
10699SOL    HW232997   3.392   4.034   0.298
10700SOL     OW32998   4.826   0.051   0.668
10700SOL    HW132999   4.866   0.139   0.695
10700SOL    HW233000   4.733   0.044   0.705
10701SOL     OW33001   2.740   0.603   6.285
10701SOL    HW133002   2.763   0.668   6.357
10701SOL    HW233003   2.680   0.648   6.218
10702SOL     OW33004   5.189   2.630   2.471
10702SOL    HW133005   5.120   2.686   2.425
10702SOL    HW233006   5.159   2.609   2.564
10703SOL     OW33007   1.315   2.596   6.397
10703SOL    HW133008   1.384   2.668   6.409
10703SOL    HW233009   1.226   2.631   6.426
10704SOL     OW33010   6.820   6.689   2.032
10704SOL    HW133011   6.816   6.600   1.987
10704SOL    HW233012   6.727   6.720   2.052
10705SOL     OW33013   5.742   4.600   1.021
10705SOL    HW133014   5.763   4.503   1.010
10705SOL    HW233015   5.822   4.654   0.993
10706SOL     OW33016   5.205   0.357   2.068
10706SOL    HW133017   5.294   0.396   2.093
10706SOL    HW233018   5.148   0.429   2.026
10707SOL     OW33019   5.733   6.726   4.216
10707SOL    HW133020   5.766   6.752   4.125
10707SOL    HW233021   5.773   6.638   4.241
10708SOL     OW33022   4.417   2.346   2.408
10708SOL    HW133023   4.327   2.302   2.403
10708SOL    HW233024   4.435   2.396   2.324
10709SOL     OW33025   5.959   5.210   4.077
10709SOL    HW133026   6.036   5.169   4.027
10709SOL    HW233027   5.928   5.292   4.029
10710SOL     OW33028   5.445   1.166   3.244
10710SOL    HW133029   5.432   1.229   3.167
10710SOL    HW233030   5.542   1.142   3.251
10711SOL     OW33031   3.656   6.558   1.751
10711SOL    HW133032   3.620   6.641   1.708
10711SOL    HW233033   3.581   6.492   1.763
10712SOL     OW33034   4.237   0.030   2.885
10712SOL    HW133035   4.316   0.044   2.946
10712SOL    HW233036   4.235   0.103   2.817
10713SOL     OW33037   1.431   3.463   0.591
10713SOL    HW133038   1.510   3.485   0.650
10713SOL    HW233039   1.416   3.364   0.591
10714SOL     OW33040   3.928   3.101   3.981
10714SOL    HW133041   3.832   3.126   3.963
10714SOL    HW233042   3.932   3.047   4.065
10715SOL     OW33043   5.886   0.573   1.821
10715SOL    HW133044   5.911   0.485   1.779
10715SOL    HW233045   5.802   0.608   1.779
10716SOL     OW33046   6.628   2.565   2.622
10716SOL    HW133047   6.670   2.655   2.639
10716SOL    HW233048   6.530   2.576   2.607
10717SOL     OW33049   1.007   2.686   0.374
10717SOL    HW133050   1.072   2.628   0.325
10717SOL    HW233051   1.057   2.754   0.428
10718SOL     OW33052   1.114   4.902   5.965
10718SOL    HW133053   1.118   4.861   5.874
10718SOL    HW233054   1.176   4.981   5.969
10719SOL     OW33055   6.755   5.977   3.915
10719SOL    HW133056   6.673   6.013   3.871
10719SOL    HW233057   6.750   5.878   3.920
10720SOL     OW33058   5.733   5.470   4.388
10720SOL    HW133059   5.799   5.395   4.379
10720SOL    HW233060   5.778   5.556   4.365
10721SOL     OW33061   5.052   3.797   5.337
10721SOL    HW133062   5.015   3.820   5.427
10721SOL    HW233063   5.135   3.741   5.349
10722SOL     OW33064   6.763   3.508   6.254
10722SOL    HW133065   6.842   3.502   6.192
10722SOL    HW233066   6.796   3.520   6.348
10723SOL     OW33067   0.122   0.422   0.364
10723SOL    HW133068   0.093   0.518   0.364
10723SOL    HW233069   0.095   0.379   0.450
10724SOL     OW33070   0.079   6.704   0.282
10724SOL    HW133071   0.171   6.734   0.307
10724SOL    HW233072   0.018   6.718   0.360
10725SOL     OW33073   2.880   5.471   5.354
10725SOL    HW133074   2.948   5.405   5.322
10725SOL    HW233075   2.927   5.542   5.407
10726SOL     OW33076   5.153   1.194   3.804
10726SOL    HW133077   5.137   1.149   3.892
10726SOL    HW233078   5.189   1.128   3.738
10727SOL     OW33079   0.921   5.622   6.209
10727SOL    HW133080   0.961   5.657   6.124
10727SOL    HW233081   0.973   5.543   6.241
10728SOL     OW33082   6.442   5.276   0.540
10728SOL    HW133083   6.463   5.259   0.637
10728SOL    HW233084   6.527   5.299   0.492
10729SOL     OW33085   6.475   2.339   1.366
10729SOL    HW133086   6.505   2.405   1.297
10729SOL    HW233087   6.421   2.268   1.322
10730SOL     OW33088   4.009   0.398   1.550
10730SOL    HW133089   3.985   0.426   1.643
10730SOL    HW233090   4.096   0.349   1.551
10731SOL     OW33091   3.906   1.138   0.775
10731SOL    HW133092   3.869   1.231   0.767
10731SOL    HW233093   3.988   1.130   0.717
10732SOL     OW33094   0.160   5.316   5.181
10732SOL    HW133095   0.082   5.254   5.187
10732SOL    HW233096   0.193   5.337   5.274
10733SOL     OW33097   5.793   1.638   6.884
10733SOL    HW133098   5.802   1.567   6.815
10733SOL    HW233099   5.842   1.720   6.853
10734SOL     OW33100   0.836   1.147   1.050
10734SOL    HW133101   0.836   1.118   1.146
10734SOL    HW233102   0.899   1.223   1.039
10735SOL     OW33103   0.039   3.470   1.952
10735SOL    HW133104   7.025   3.378   1.957
10735SOL    HW233105   0.139   3.462   1.952
10736SOL     OW33106   2.338   0.093   3.977
10736SOL    HW133107   2.350   0.165   4.045
10736SOL    HW233108   2.415   0.094   3.913
10737SOL     OW33109   0.178   2.457   1.711
10737SOL    HW133110   0.225   2.383   1.661
10737SOL    HW233111   0.105   2.494   1.653
10738SOL     OW33112   4.114   6.590   2.838
10738SOL    HW133113   4.020   6.617   2.856
10738SOL    HW233114   4.177   6.648   2.890
10739SOL     OW33115   1.532   2.647   1.749
10739SOL    HW133116   1.485   2.601   1.824
10739SOL    HW233117   1.465   2.687   1.687
10740SOL     OW33118   5.655   4.709   5.082
10740SOL    HW133119   5.575   4.651   5.062
10740SOL    HW233120   5.624   4.801   5.106
10741SOL     OW33121   3.614   0.438   2.290
10741SOL    HW133122   3.618   0.519   2.231
10741SOL    HW233123   3.606   0.356   2.233
10742SOL     OW33124   5.889   5.304   1.108
10742SOL    HW133125   5.908   5.359   1.189
10742SOL    HW233126   5.974   5.261   1.077
10743SOL     OW33127   1.988   2.400   4.073
10743SOL    HW133128   2.040   2.481   4.046
10743SOL    HW233129   2.041   2.318   4.052
10744SOL     OW33130   3.310   1.821   1.424
10744SOL    HW133131   3.355   1.732   1.438
10744SOL    HW233132   3.315   1.847   1.328
10745SOL     OW33133   6.886   5.879   5.653
10745SOL    HW133134   6.835   5.953   5.695
10745SOL    HW233135   6.977   5.873   5.695
10746SOL     OW33136   1.160   3.856   5.330
10746SOL    HW133137   1.212   3.923   5.278
10746SOL    HW233138   1.062   3.868   5.314
10747SOL     OW33139   2.747   1.033   4.515
10747SOL    HW133140   2.694   1.014   4.433
10747SOL    HW233141   2.769   0.947   4.561
10748SOL     OW33142   6.136   1.066   2.250
10748SOL    HW133143   6.088   1.009   2.317
10748SOL    HW233144   6.232   1.037   2.245
10749SOL     OW33145   0.809   6.531   5.094
10749SOL    HW133146   0.779   6.462   5.160
10749SOL    HW233147   0.732   6.589   5.070
10750SOL     OW33148   3.500   0.780   5.108
10750SOL    HW133149   3.411   0.793   5.150
10750SOL    HW233150   3.489   0.727   5.023
10751SOL     OW33151   2.380   4.745   3.611
10751SOL    HW133152   2.462   4.710   3.657
10751SOL    HW233153   2.395   4.747   3.512
10752SOL     OW33154   5.180   5.101   5.175
10752SOL    HW133155   5.145   5.137   5.261
10752SOL    HW233156   5.200   5.177   5.113
10753SOL     OW33157   0.264   3.632   3.893
10753SOL    HW133158   0.186   3.683   3.856
10753SOL    HW233159   0.294   3.673   3.979
10754SOL     OW33160   0.746   0.155   2.989
10754SOL    HW133161   0.767   0.238   2.938
10754SOL    HW233162   0.829   0.099   2.997
10755SOL     OW33163   6.732   6.992   2.165
10755SOL    HW133164   6.682   6.985   2.251
10755SOL    HW233165   6.785   6.907   2.151
10756SOL     OW33166   6.853   5.522   5.304
10756SOL    HW133167   6.851   5.492   5.208
10756SOL    HW233168   6.912   5.602   5.312
10757SOL     OW33169   1.962   2.546   0.004
10757SOL    HW133170   2.011   2.471   6.985
10757SOL    HW233171   2.029   2.611   0.042
10758SOL     OW33172   0.390   6.362   3.437
10758SOL    HW133173   0.440   6.447   3.419
10758SOL    HW233174   0.446   6.303   3.495
10759SOL     OW33175   0.441   3.100   0.648
10759SOL    HW133176   0.427   3.172   0.716
10759SOL    HW233177   0.485   3.140   0.567
10760SOL     OW33178   5.842   0.942   3.709
10760SOL    HW133179   5.760   0.992   3.681
10760SOL    HW233180   5.834   0.846   3.679
10761SOL     OW33181   1.804   5.179   6.321
10761SOL    HW133182   1.713   5.169   6.282
10761SOL    HW233183   1.862   5.104   6.290
10762SOL     OW33184   2.638   0.311   5.107
10762SOL    HW133185   2.642   0.411   5.107
10762SOL    HW233186   2.711   0.275   5.167
10763SOL     OW33187   3.773   0.668   3.627
10763SOL    HW133188   3.861   0.712   3.646
10763SOL    HW233189   3.779   0.619   3.540
10764SOL     OW33190   4.532   1.383   4.390
10764SOL    HW133191   4.549   1.371   4.487
10764SOL    HW233192   4.550   1.478   4.364
10765SOL     OW33193   5.044   2.971   1.064
10765SOL    HW133194   5.018   2.956   0.969
10765SOL    HW233195   5.049   2.883   1.111
10766SOL     OW33196   3.794   4.220   0.933
10766SOL    HW133197   3.863   4.293   0.932
10766SOL    HW233198   3.767   4.199   0.839
10767SOL     OW33199   2.590   6.765   1.181
10767SOL    HW133200   2.678   6.803   1.151
10767SOL    HW233201   2.533   6.746   1.101
10768SOL     OW33202   6.532   4.864   0.956
10768SOL    HW133203   6.529   4.782   0.899
10768SOL    HW233204   6.610   4.920   0.930
10769SOL     OW33205   2.300   3.456   6.098
10769SOL    HW133206   2.395   3.474   6.122
10769SOL    HW233207   2.243   3.534   6.124
10770SOL     OW33208   4.909   5.355   2.815
10770SOL    HW133209   4.839   5.322   2.752
10770SOL    HW233210   4.889   5.324   2.907
10771SOL     OW33211   3.235   0.097   4.023
10771SOL    HW133212   3.240   7.023   4.033
10771SOL    HW233213   3.267   0.122   3.931
10772SOL     OW33214   6.756   5.558   4.058
10772SOL    HW133215   6.679   5.592   4.111
10772SOL    HW233216   6.755   5.600   3.967
10773SOL     OW33217   5.945   4.160   4.941
10773SOL    HW133218   5.993   4.227   4.997
10773SOL    HW233219   5.989   4.071   4.951
10774SOL     OW33220   1.556   1.206   3.834
10774SOL    HW133221   1.526   1.301   3.837
10774SOL    HW233222   1.584   1.178   3.926
10775SOL     OW33223   1.094   4.279   1.662
10775SOL    HW133224   0.999   4.300   1.638
10775SOL    HW233225   1.134   4.356   1.712
10776SOL     OW33226   1.859   1.067   6.054
10776SOL    HW133227   1.930   1.006   6.018
10776SOL    HW233228   1.888   1.162   6.042
10777SOL     OW33229   3.634   5.150   1.447
10777SOL    HW133230   3.679   5.071   1.488
10777SOL    HW233231   3.702   5.217   1.420
10778SOL     OW33232   5.480   6.230   4.028
10778SOL    HW133233   5.536   6.147   4.033
10778SOL    HW233234   5.389   6.207   3.996
10779SOL     OW33235   6.066   2.891   3.454
10779SOL    HW133236   5.989   2.827   3.463
10779SOL    HW233237   6.081   2.913   3.358
10780SOL     OW33238   1.083   1.025   3.593
10780SOL    HW133239   1.090   1.104   3.532
10780SOL    HW233240   1.170   1.013   3.641
10781SOL     OW33241   4.016   0.225   4.399
10781SOL    HW133242   3.954   0.176   4.338
10781SOL    HW233243   3.968   0.299   4.444
10782SOL     OW33244   6.149   6.813   4.069
10782SOL    HW133245   6.061   6.792   4.027
10782SOL    HW233246   6.167   6.749   4.144
10783SOL     OW33247   6.828   2.575   3.337
10783SOL    HW133248   6.777   2.659   3.352
10783SOL    HW233249   6.764   2.499   3.321
10784SOL     OW33250   2.747   1.341   4.090
10784SOL    HW133251   2.657   1.297   4.088
10784SOL    HW233252   2.738   1.433   4.129
10785SOL     OW33253   0.796   4.111   6.965
10785SOL    HW133254   0.888   4.087   6.933
10785SOL    HW233255   0.746   4.027   6.987
10786SOL     OW33256   6.403   5.876   2.821
10786SOL    HW133257   6.492   5.831   2.820
10786SOL    HW233258   6.346   5.836   2.893
10787SOL     OW33259   0.569   1.109   5.300
10787SOL    HW133260   0.648   1.141   5.352
10787SOL    HW233261   0.556   1.012   5.316
10788SOL     OW33262   0.614   3.859   6.979
10788SOL    HW133263   0.559   3.845   6.896
10788SOL    HW233264   0.552   3.870   0.032
10789SOL     OW33265   6.910   2.458   7.009
10789SOL    HW133266   6.949   2.517   0.054
10789SOL    HW233267   6.961   2.472   6.924
10790SOL     OW33268   0.330   6.743   1.583
10790SOL    HW133269   0.290   6.818   1.636
10790SOL    HW233270   0.369   6.675   1.646
10791SOL     OW33271   6.383   6.353   2.358
10791SOL    HW133272   6.337   6.266   2.339
10791SOL    HW233273   6.321   6.413   2.408
10792SOL     OW33274   3.999   3.617   5.458
10792SOL    HW133275   3.965   3.527   5.484
10792SOL    HW233276   4.059   3.652   5.530
10793SOL     OW33277   5.740   3.262   5.523
10793SOL    HW133278   5.672   3.312   5.576
10793SOL    HW233279   5.819   3.242   5.581
10794SOL     OW33280   3.222   3.464   4.003
10794SOL    HW133281   3.185   3.556   4.004
10794SOL    HW233282   3.288   3.453   4.077
10795SOL     OW33283   0.912   4.178   2.923
10795SOL    HW133284   0.857   4.181   3.007
10795SOL    HW233285   0.865   4.122   2.855
10796SOL     OW33286   0.740   6.315   5.235
10796SOL    HW133287   0.793   6.284   5.314
10796SOL    HW233288   0.759   6.255   5.157
10797SOL     OW33289   4.139   2.779   0.439
10797SOL    HW133290   4.162   2.741   0.350
10797SOL    HW233291   4.166   2.875   0.443
10798SOL     OW33292   1.728   1.099   1.216
10798SOL    HW133293   1.668   1.032   1.260
10798SOL    HW233294   1.757   1.064   1.127
10799SOL     OW33295   3.904   0.513   2.688
10799SOL    HW133296   3.987   0.458   2.694
10799SOL    HW233297   3.903   0.564   2.602
10800SOL     OW33298   0.956   6.462   0.371
10800SOL    HW133299   1.011   6.545   0.365
10800SOL    HW233300   1.010   6.389   0.412
10801SOL     OW33301   1.549   0.563   0.222
10801SOL    HW133302   1.450   0.563   0.208
10801SOL    HW233303   1.594   0.522   0.143
10802SOL     OW33304   6.152   6.724   3.625
10802SOL    HW133305   6.102   6.803   3.660
10802SOL    HW233306   6.093   6.673   3.561
10803SOL     OW33307   1.195   5.700   6.618
10803SOL    HW133308   1.172   5.621   6.561
10803SOL    HW233309   1.175   5.784   6.568
10804SOL     OW33310   0.445   3.222   3.739
10804SOL    HW133311   0.352   3.208   3.774
10804SOL    HW233312   0.486   3.300   3.786
10805SOL     OW33313   5.995   0.634   4.871
10805SOL    HW133314   5.898   0.649   4.888
10805SOL    HW233315   6.049   0.685   4.939
10806SOL     OW33316   2.672   4.828   6.855
10806SOL    HW133317   2.726   4.762   6.906
10806SOL    HW233318   2.614   4.880   6.919
10807SOL     OW33319   2.528   5.831   3.863
10807SOL    HW133320   2.603   5.822   3.797
10807SOL    HW233321   2.450   5.777   3.832
10808SOL     OW33322   6.747   2.093   6.022
10808SOL    HW133323   6.808   2.159   6.066
10808SOL    HW233324   6.663   2.139   5.994
10809SOL     OW33325   2.533   5.098   4.275
10809SOL    HW133326   2.435   5.113   4.281
10809SOL    HW233327   2.551   5.014   4.223
10810SOL     OW33328   0.631   0.318   4.095
10810SOL    HW133329   0.699   0.254   4.130
10810SOL    HW233330   0.675   0.404   4.070
10811SOL     OW33331   5.049   5.742   5.085
10811SOL    HW133332   4.975   5.693   5.039
10811SOL    HW233333   5.068   5.827   5.035
10812SOL     OW33334   0.310   3.289   6.666
10812SOL    HW133335   0.211   3.296   6.670
10812SOL    HW233336   0.335   3.211   6.609
10813SOL     OW33337   0.613   3.733   6.145
10813SOL    HW133338   0.626   3.671   6.069
10813SOL    HW233339   0.623   3.683   6.231
10814SOL     OW33340   2.426   0.274   6.995
10814SOL    HW133341   2.391   0.281   0.063
10814SOL    HW233342   2.501   0.339   6.982
10815SOL     OW33343   5.448   1.084   3.937
10815SOL    HW133344   5.502   1.118   3.860
10815SOL    HW233345   5.386   1.156   3.968
10816SOL     OW33346   3.461   2.864   3.793
10816SOL    HW133347   3.400   2.940   3.772
10816SOL    HW233348   3.504   2.831   3.709
10817SOL     OW33349   2.570   0.211   2.945
10817SOL    HW133350   2.627   0.250   2.873
10817SOL    HW233351   2.622   0.141   2.994
10818SOL     OW33352   4.702   5.264   5.929
10818SOL    HW133353   4.771   5.192   5.942
10818SOL    HW233354   4.652   5.247   5.844
10819SOL     OW33355   0.126   5.433   6.604
10819SOL    HW133356   0.129   5.351   6.662
10819SOL    HW233357   0.109   5.406   6.509
10820SOL     OW33358   1.438   4.983   5.724
10820SOL    HW133359   1.397   5.017   5.809
10820SOL    HW233360   1.441   5.056   5.657
10821SOL     OW33361   4.741   5.311   2.603
10821SOL    HW133362   4.696   5.379   2.661
10821SOL    HW233363   4.701   5.314   2.511
10822SOL     OW33364   5.586   2.612   0.820
10822SOL    HW133365   5.647   2.581   0.893
10822SOL    HW233366   5.609   2.707   0.796
10823SOL     OW33367   6.982   6.640   3.360
10823SOL    HW133368   6.982   6.660   3.458
10823SOL    HW233369   0.027   6.572   3.340
10824SOL     OW33370   1.236   1.194   4.536
10824SOL    HW133371   1.184   1.201   4.451
10824SOL    HW233372   1.273   1.284   4.560
10825SOL     OW33373   1.546   1.708   0.689
10825SOL    HW133374   1.596   1.687   0.605
10825SOL    HW233375   1.581   1.793   0.729
10826SOL     OW33376   1.672   2.009   2.362
10826SOL    HW133377   1.592   1.949   2.359
10826SOL    HW233378   1.645   2.097   2.401
10827SOL     OW33379   6.653   3.368   5.356
10827SOL    HW133380   6.685   3.273   5.351
10827SOL    HW233381   6.728   3.427   5.384
10828SOL     OW33382   6.575   3.743   6.567
10828SOL    HW133383   6.504   3.699   6.623
10828SOL    HW233384   6.532   3.794   6.493
10829SOL     OW33385   4.684   3.373   6.104
10829SOL    HW133386   4.614   3.439   6.133
10829SOL    HW233387   4.660   3.337   6.014
10830SOL     OW33388   4.993   1.346   3.601
10830SOL    HW133389   4.938   1.289   3.540
10830SOL    HW233390   5.068   1.291   3.639
10831SOL     OW33391   3.808   0.845   2.588
10831SOL    HW133392   3.722   0.895   2.593
10831SOL    HW233393   3.870   0.878   2.659
10832SOL     OW33394   6.588   3.345   0.565
10832SOL    HW133395   6.635   3.327   0.479
10832SOL    HW233396   6.592   3.443   0.585
10833SOL     OW33397   0.528   0.872   0.700
10833SOL    HW133398   0.563   0.911   0.786
10833SOL    HW233399   0.601   0.871   0.632
10834SOL     OW33400   6.647   6.841   0.578
10834SOL    HW133401   6.654   6.934   0.615
10834SOL    HW233402   6.573   6.838   0.511
10835SOL     OW33403   6.489   2.847   5.771
10835SOL    HW133404   6.485   2.833   5.870
10835SOL    HW233405   6.542   2.930   5.751
10836SOL     OW33406   0.308   2.220   3.423
10836SOL    HW133407   0.380   2.252   3.484
10836SOL    HW233408   0.285   2.125   3.446
10837SOL     OW33409   6.883   4.132   2.673
10837SOL    HW133410   6.884   4.157   2.576
10837SOL    HW233411   6.912   4.037   2.683
10838SOL     OW33412   5.939   5.525   3.731
10838SOL    HW133413   5.952   5.521   3.632
10838SOL    HW233414   5.885   5.606   3.754
10839SOL     OW33415   4.829   3.975   0.375
10839SOL    HW133416   4.787   3.890   0.342
10839SOL    HW233417   4.885   4.015   0.302
10840SOL     OW33418   3.176   0.491   0.933
10840SOL    HW133419   3.214   0.550   1.004
10840SOL    HW233420   3.081   0.516   0.916
10841SOL     OW33421   1.075   4.611   4.498
10841SOL    HW133422   1.021   4.550   4.557
10841SOL    HW233423   1.022   4.635   4.417
10842SOL     OW33424   4.869   4.248   1.039
10842SOL    HW133425   4.835   4.232   0.946
10842SOL    HW233426   4.957   4.203   1.051
10843SOL     OW33427   1.602   1.927   1.033
10843SOL    HW133428   1.651   1.840   1.023
10843SOL    HW233429   1.668   2.002   1.038
10844SOL     OW33430   1.051   5.508   4.863
10844SOL    HW133431   1.064   5.556   4.950
10844SOL    HW233432   1.042   5.576   4.789
10845SOL     OW33433   4.392   6.467   4.920
10845SOL    HW133434   4.331   6.387   4.920
10845SOL    HW233435   4.368   6.527   4.996
10846SOL     OW33436   5.368   6.741   0.536
10846SOL    HW133437   5.440   6.691   0.486
10846SOL    HW233438   5.288   6.749   0.477
10847SOL     OW33439   1.788   1.835   0.276
10847SOL    HW133440   1.770   1.878   0.188
10847SOL    HW233441   1.853   1.760   0.264
10848SOL     OW33442   1.777   4.451   0.835
10848SOL    HW133443   1.774   4.550   0.848
10848SOL    HW233444   1.792   4.431   0.738
10849SOL     OW33445   2.642   5.845   4.397
10849SOL    HW133446   2.713   5.859   4.328
10849SOL    HW233447   2.685   5.832   4.487
10850SOL     OW33448   3.547   6.547   0.507
10850SOL    HW133449   3.571   6.612   0.435
10850SOL    HW233450   3.575   6.455   0.480
10851SOL     OW33451   2.580   4.817   2.096
10851SOL    HW133452   2.651   4.768   2.147
10851SOL    HW233453   2.532   4.879   2.158
10852SOL     OW33454   1.983   1.515   1.164
10852SOL    HW133455   1.934   1.441   1.210
10852SOL    HW233456   2.008   1.585   1.231
10853SOL     OW33457   2.234   2.114   6.526
10853SOL    HW133458   2.248   2.205   6.565
10853SOL    HW233459   2.142   2.083   6.549
10854SOL     OW33460   4.283   6.484   5.168
10854SOL    HW133461   4.196   6.434   5.160
10854SOL    HW233462   4.340   6.440   5.238
10855SOL     OW33463   3.025   1.452   1.021
10855SOL    HW133464   2.981   1.420   1.105
10855SOL    HW233465   2.994   1.398   0.943
10856SOL     OW33466   6.878   0.571   0.024
10856SOL    HW133467   6.837   0.544   6.964
10856SOL    HW233468   6.849   0.508   0.096
10857SOL     OW33469   6.395   1.344   2.263
10857SOL    HW133470   6.335   1.306   2.334
10857SOL    HW233471   6.486   1.359   2.301
10858SOL     OW33472   1.978   5.685   1.630
10858SOL    HW133473   2.013   5.752   1.695
10858SOL    HW233474   2.044   5.672   1.556
10859SOL     OW33475   0.910   5.731   3.985
10859SOL    HW133476   1.009   5.736   4.001
10859SOL    HW233477   0.862   5.757   4.069
10860SOL     OW33478   0.016   2.760   2.677
10860SOL    HW133479   6.988   2.712   2.745
10860SOL    HW233480   0.076   2.695   2.629
10861SOL     OW33481   3.550   2.951   4.576
10861SOL    HW133482   3.649   2.959   4.566
10861SOL    HW233483   3.510   2.916   4.492
10862SOL     OW33484   1.371   0.099   5.075
10862SOL    HW133485   1.311   0.023   5.099
10862SOL    HW233486   1.440   0.068   5.009
10863SOL     OW33487   3.218   5.851   4.754
10863SOL    HW133488   3.247   5.757   4.736
10863SOL    HW233489   3.176   5.890   4.672
10864SOL     OW33490   3.643   6.164   2.720
10864SOL    HW133491   3.690   6.083   2.684
10864SOL    HW233492   3.595   6.210   2.646
10865SOL     OW33493   6.449   1.895   6.346
10865SOL    HW133494   6.548   1.895   6.329
10865SOL    HW233495   6.406   1.823   6.291
10866SOL     OW33496   5.607   4.749   0.222
10866SOL    HW133497   5.574   4.749   0.128
10866SOL    HW233498   5.557   4.818   0.275
10867SOL     OW33499   3.114   3.552   0.562
10867SOL    HW133500   3.168   3.484   0.612
10867SOL    HW233501   3.176   3.616   0.516
10868SOL     OW33502   3.174   1.808   3.205
10868SOL    HW133503   3.235   1.813   3.284
10868SOL    HW233504   3.216   1.853   3.127
10869NA      NA33505   6.032   2.160   5.481
10870NA      NA33506   4.429   4.591   5.201
10871NA      NA33507   2.154   3.717   1.358
10872NA      NA33508   4.927   3.717   5.159
10873NA      NA33509   4.245   2.327   5.267
10874NA      NA33510   3.901   4.533   1.531
10875NA      NA33511   6.677   5.661   5.435
10876NA      NA33512   3.923   3.581   5.222
10877NA      NA33513   4.856   6.667   6.811
10878NA      NA33514   3.574   0.086   5.693
10879NA      NA33515   6.471   4.801   2.210
10880NA      NA33516   2.267   0.474   3.294
10881NA      NA33517   3.150   4.803   1.122
10882NA      NA33518   3.381   3.566   2.743
   7.02614   7.02614   7.02614
