Generated by trjconv : CNT in water t= 488.00000
33518
    1C        C    1   2.849   2.772   4.750
    1C        C    2   2.898   2.715   4.869
    1C        C    3   2.847   2.775   4.985
    1C        C    4   2.841   2.766   4.262
    1C        C    5   2.898   2.724   4.384
    1C        C    6   2.846   2.772   4.506
    1C        C    7   3.014   2.641   4.629
    1C        C    8   2.899   2.723   4.627
    1C        C    9   3.080   2.604   4.748
    1C        C   10   3.015   2.635   4.869
    1C        C   11   3.186   2.491   4.981
    1C        C   12   3.063   2.559   4.976
    1C        C   13   2.846   2.769   3.774
    1C        C   14   2.899   2.722   3.896
    1C        C   15   2.847   2.770   4.018
    1C        C   16   3.017   2.645   4.140
    1C        C   17   2.899   2.722   4.141
    1C        C   18   3.081   2.615   4.263
    1C        C   19   3.017   2.647   4.385
    1C        C   20   3.208   2.554   4.505
    1C        C   21   3.079   2.611   4.506
    1C        C   22   3.276   2.531   4.626
    1C        C   23   3.209   2.544   4.749
    1C        C   24   3.415   2.478   4.862
    1C        C   25   3.273   2.499   4.868
    1C        C   26   3.491   2.474   4.980
    1C        C   27   2.844   2.767   3.283
    1C        C   28   2.902   2.725   3.405
    1C        C   29   2.850   2.772   3.528
    1C        C   30   3.019   2.648   3.649
    1C        C   31   2.902   2.727   3.651
    1C        C   32   3.075   2.606   3.772
    1C        C   33   3.013   2.638   3.895
    1C        C   34   3.207   2.554   4.016
    1C        C   35   3.076   2.606   4.018
    1C        C   36   3.278   2.538   4.137
    1C        C   37   3.211   2.560   4.259
    1C        C   38   3.416   2.515   4.380
    1C        C   39   3.277   2.540   4.382
    1C        C   40   3.487   2.508   4.502
    1C        C   41   3.415   2.502   4.623
    1C        C   42   3.631   2.487   4.745
    1C        C   43   3.489   2.481   4.741
    1C        C   44   3.707   2.491   4.864
    1C        C   45   3.630   2.482   4.980
    1C        C   46   2.837   2.750   2.793
    1C        C   47   2.893   2.712   2.917
    1C        C   48   2.841   2.761   3.039
    1C        C   49   3.015   2.640   3.162
    1C        C   50   2.896   2.718   3.161
    1C        C   51   3.078   2.608   3.284
    1C        C   52   3.016   2.642   3.407
    1C        C   53   3.208   2.547   3.527
    1C        C   54   3.081   2.610   3.528
    1C        C   55   3.274   2.531   3.651
    1C        C   56   3.206   2.554   3.772
    1C        C   57   3.414   2.508   3.894
    1C        C   58   3.274   2.530   3.894
    1C        C   59   3.489   2.503   4.013
    1C        C   60   3.417   2.512   4.135
    1C        C   61   3.628   2.506   4.259
    1C        C   62   3.486   2.506   4.258
    1C        C   63   3.699   2.511   4.380
    1C        C   64   3.628   2.509   4.502
    1C        C   65   3.837   2.541   4.619
    1C        C   66   3.701   2.505   4.623
    1C        C   67   3.907   2.562   4.740
    1C        C   68   3.843   2.530   4.862
    1C        C   69   4.054   2.589   4.978
    1C        C   70   3.926   2.533   4.974
    1C        C   71   2.824   2.734   2.305
    1C        C   72   2.883   2.692   2.426
    1C        C   73   2.829   2.741   2.547
    1C        C   74   3.005   2.625   2.672
    1C        C   75   2.887   2.702   2.670
    1C        C   76   3.070   2.597   2.794
    1C        C   77   3.009   2.632   2.917
    1C        C   78   3.202   2.544   3.039
    1C        C   79   3.073   2.601   3.039
    1C        C   80   3.273   2.526   3.160
    1C        C   81   3.208   2.553   3.282
    1C        C   82   3.413   2.505   3.404
    1C        C   83   3.274   2.528   3.404
    1C        C   84   3.483   2.505   3.527
    1C        C   85   3.414   2.510   3.651
    1C        C   86   3.627   2.505   3.769
    1C        C   87   3.486   2.503   3.772
    1C        C   88   3.697   2.519   3.891
    1C        C   89   3.630   2.504   4.015
    1C        C   90   3.836   2.551   4.135
    1C        C   91   3.699   2.516   4.137
    1C        C   92   3.902   2.577   4.257
    1C        C   93   3.834   2.552   4.378
    1C        C   94   4.030   2.636   4.497
    1C        C   95   3.905   2.570   4.499
    1C        C   96   4.091   2.671   4.619
    1C        C   97   4.034   2.626   4.740
    1C        C   98   4.196   2.765   4.865
    1C        C   99   4.101   2.658   4.861
    1C        C  100   4.212   2.843   4.980
    1C        C  101   2.829   2.736   2.066
    1C        C  102   2.992   2.593   2.190
    1C        C  103   2.878   2.680   2.185
    1C        C  104   3.064   2.574   2.311
    1C        C  105   3.000   2.614   2.431
    1C        C  106   3.200   2.536   2.550
    1C        C  107   3.069   2.588   2.551
    1C        C  108   3.269   2.520   2.672
    1C        C  109   3.202   2.546   2.794
    1C        C  110   3.408   2.500   2.916
    1C        C  111   3.269   2.522   2.916
    1C        C  112   3.481   2.497   3.037
    1C        C  113   3.413   2.509   3.160
    1C        C  114   3.625   2.506   3.280
    1C        C  115   3.484   2.500   3.282
    1C        C  116   3.695   2.512   3.403
    1C        C  117   3.624   2.508   3.525
    1C        C  118   3.833   2.554   3.644
    1C        C  119   3.696   2.519   3.646
    1C        C  120   3.897   2.579   3.768
    1C        C  121   3.833   2.554   3.892
    1C        C  122   4.029   2.637   4.012
    1C        C  123   3.903   2.574   4.013
    1C        C  124   4.092   2.673   4.133
    1C        C  125   4.031   2.635   4.255
    1C        C  126   4.201   2.765   4.378
    1C        C  127   4.092   2.676   4.376
    1C        C  128   4.248   2.818   4.500
    1C        C  129   4.194   2.768   4.621
    1C        C  130   4.327   2.934   4.741
    1C        C  131   4.245   2.818   4.742
    1C        C  132   4.356   3.002   4.861
    1C        C  133   4.289   2.960   4.976
    1C        C  134   3.172   2.464   2.082
    1C        C  135   3.040   2.510   2.083
    1C        C  136   3.259   2.474   2.192
    1C        C  137   3.192   2.513   2.310
    1C        C  138   3.406   2.480   2.429
    1C        C  139   3.266   2.504   2.429
    1C        C  140   3.478   2.481   2.550
    1C        C  141   3.407   2.491   2.672
    1C        C  142   3.620   2.500   2.792
    1C        C  143   3.479   2.491   2.794
    1C        C  144   3.692   2.508   2.913
    1C        C  145   3.623   2.500   3.036
    1C        C  146   3.832   2.542   3.155
    1C        C  147   3.695   2.508   3.157
    1C        C  148   3.898   2.568   3.277
    1C        C  149   3.833   2.542   3.400
    1C        C  150   4.027   2.629   3.524
    1C        C  151   3.901   2.566   3.521
    1C        C  152   4.089   2.666   3.645
    1C        C  153   4.027   2.635   3.768
    1C        C  154   4.201   2.759   3.888
    1C        C  155   4.090   2.671   3.889
    1C        C  156   4.252   2.809   4.010
    1C        C  157   4.201   2.763   4.133
    1C        C  158   4.341   2.924   4.255
    1C        C  159   4.250   2.816   4.255
    1C        C  160   4.382   2.982   4.377
    1C        C  161   4.337   2.927   4.499
    1C        C  162   4.445   3.113   4.617
    1C        C  163   4.371   2.992   4.620
    1C        C  164   4.474   3.181   4.737
    1C        C  165   4.435   3.119   4.858
    1C        C  166   4.504   3.320   4.976
    1C        C  167   4.475   3.184   4.976
    1C        C  168   3.475   2.441   2.072
    1C        C  169   3.399   2.459   2.189
    1C        C  170   3.618   2.469   2.306
    1C        C  171   3.476   2.466   2.307
    1C        C  172   3.689   2.487   2.427
    1C        C  173   3.619   2.485   2.549
    1C        C  174   3.827   2.541   2.667
    1C        C  175   3.690   2.506   2.670
    1C        C  176   3.896   2.564   2.789
    1C        C  177   3.830   2.538   2.911
    1C        C  178   4.026   2.623   3.032
    1C        C  179   3.899   2.560   3.032
    1C        C  180   4.087   2.661   3.153
    1C        C  181   4.027   2.628   3.277
    1C        C  182   4.199   2.749   3.396
    1C        C  183   4.085   2.665   3.400
    1C        C  184   4.248   2.801   3.518
    1C        C  185   4.200   2.754   3.642
    1C        C  186   4.342   2.912   3.765
    1C        C  187   4.252   2.803   3.764
    1C        C  188   4.381   2.975   3.885
    1C        C  189   4.341   2.919   4.009
    1C        C  190   4.446   3.104   4.130
    1C        C  191   4.381   2.978   4.131
    1C        C  192   4.469   3.173   4.251
    1C        C  193   4.446   3.108   4.375
    1C        C  194   4.502   3.316   4.495
    1C        C  195   4.473   3.178   4.495
    1C        C  196   4.516   3.389   4.615
    1C        C  197   4.510   3.318   4.738
    1C        C  198   4.549   3.533   4.854
    1C        C  199   4.526   3.392   4.858
    1C        C  200   4.584   3.621   4.961
    1C        C  201   3.613   2.415   2.075
    1C        C  202   3.824   2.516   2.183
    1C        C  203   3.690   2.465   2.184
    1C        C  204   3.896   2.542   2.303
    1C        C  205   3.825   2.524   2.424
    1C        C  206   4.021   2.618   2.543
    1C        C  207   3.893   2.557   2.544
    1C        C  208   4.084   2.656   2.664
    1C        C  209   4.023   2.625   2.788
    1C        C  210   4.197   2.746   2.907
    1C        C  211   4.087   2.657   2.909
    1C        C  212   4.250   2.795   3.029
    1C        C  213   4.199   2.747   3.151
    1C        C  214   4.337   2.907   3.271
    1C        C  215   4.250   2.796   3.274
    1C        C  216   4.374   2.968   3.393
    1C        C  217   4.333   2.913   3.516
    1C        C  218   4.438   3.094   3.639
    1C        C  219   4.377   2.966   3.639
    1C        C  220   4.461   3.164   3.759
    1C        C  221   4.446   3.100   3.884
    1C        C  222   4.502   3.305   4.004
    1C        C  223   4.470   3.167   4.006
    1C        C  224   4.512   3.377   4.126
    1C        C  225   4.503   3.310   4.250
    1C        C  226   4.513   3.524   4.367
    1C        C  227   4.508   3.383   4.371
    1C        C  228   4.515   3.597   4.488
    1C        C  229   4.528   3.529   4.611
    1C        C  230   4.505   3.743   4.726
    1C        C  231   4.531   3.604   4.731
    1C        C  232   4.499   3.820   4.844
    1C        C  233   4.543   3.755   4.960
    1C        C  234   4.015   2.615   2.062
    1C        C  235   3.899   2.538   2.067
    1C        C  236   4.084   2.645   2.180
    1C        C  237   4.023   2.606   2.301
    1C        C  238   4.201   2.731   2.422
    1C        C  239   4.084   2.649   2.421
    1C        C  240   4.258   2.779   2.542
    1C        C  241   4.199   2.737   2.663
    1C        C  242   4.330   2.908   2.782
    1C        C  243   4.246   2.794   2.784
    1C        C  244   4.379   2.960   2.904
    1C        C  245   4.341   2.903   3.027
    1C        C  246   4.441   3.092   3.149
    1C        C  247   4.378   2.966   3.148
    1C        C  248   4.457   3.163   3.271
    1C        C  249   4.433   3.097   3.394
    1C        C  250   4.492   3.299   3.514
    1C        C  251   4.460   3.161   3.517
    1C        C  252   4.505   3.370   3.635
    1C        C  253   4.491   3.303   3.758
    1C        C  254   4.515   3.513   3.878
    1C        C  255   4.508   3.372   3.880
    1C        C  256   4.512   3.587   3.998
    1C        C  257   4.510   3.518   4.122
    1C        C  258   4.485   3.731   4.242
    1C        C  259   4.507   3.591   4.243
    1C        C  260   4.470   3.804   4.362
    1C        C  261   4.489   3.735   4.484
    1C        C  262   4.427   3.940   4.601
    1C        C  263   4.481   3.810   4.604
    1C        C  264   4.407   4.012   4.721
    1C        C  265   4.444   3.950   4.842
    1C        C  266   4.323   4.133   4.954
    1C        C  267   4.400   4.018   4.957
    1C        C  268   4.259   2.772   2.061
    1C        C  269   4.201   2.724   2.180
    1C        C  270   4.344   2.888   2.298
    1C        C  271   4.252   2.779   2.300
    1C        C  272   4.379   2.953   2.418
    1C        C  273   4.343   2.891   2.540
    1C        C  274   4.444   3.083   2.661
    1C        C  275   4.380   2.957   2.660
    1C        C  276   4.466   3.152   2.782
    1C        C  277   4.443   3.086   2.905
    1C        C  278   4.507   3.291   3.025
    1C        C  279   4.471   3.154   3.026
    1C        C  280   4.509   3.365   3.145
    1C        C  281   4.490   3.300   3.269
    1C        C  282   4.516   3.510   3.391
    1C        C  283   4.505   3.369   3.391
    1C        C  284   4.517   3.582   3.512
    1C        C  285   4.515   3.511   3.635
    1C        C  286   4.491   3.723   3.753
    1C        C  287   4.511   3.583   3.756
    1C        C  288   4.473   3.794   3.874
    1C        C  289   4.489   3.727   3.998
    1C        C  290   4.424   3.931   4.115
    1C        C  291   4.473   3.799   4.119
    1C        C  292   4.392   3.997   4.236
    1C        C  293   4.423   3.937   4.360
    1C        C  294   4.324   4.128   4.477
    1C        C  295   4.394   4.005   4.480
    1C        C  296   4.283   4.189   4.598
    1C        C  297   4.330   4.131   4.718
    1C        C  298   4.205   4.316   4.838
    1C        C  299   4.286   4.198   4.836
    1C        C  300   4.170   4.402   4.948
    1C        C  301   4.344   2.882   2.063
    1C        C  302   4.463   3.069   2.176
    1C        C  303   4.396   2.942   2.178
    1C        C  304   4.482   3.142   2.296
    1C        C  305   4.445   3.078   2.417
    1C        C  306   4.505   3.283   2.536
    1C        C  307   4.472   3.145   2.538
    1C        C  308   4.509   3.356   2.657
    1C        C  309   4.496   3.290   2.781
    1C        C  310   4.521   3.501   2.899
    1C        C  311   4.518   3.360   2.902
    1C        C  312   4.513   3.574   3.020
    1C        C  313   4.511   3.506   3.144
    1C        C  314   4.486   3.715   3.264
    1C        C  315   4.509   3.576   3.267
    1C        C  316   4.468   3.787   3.385
    1C        C  317   4.488   3.720   3.508
    1C        C  318   4.421   3.921   3.630
    1C        C  319   4.471   3.789   3.630
    1C        C  320   4.391   3.989   3.750
    1C        C  321   4.424   3.926   3.873
    1C        C  322   4.323   4.117   3.991
    1C        C  323   4.395   3.995   3.993
    1C        C  324   4.280   4.176   4.111
    1C        C  325   4.324   4.121   4.234
    1C        C  326   4.183   4.284   4.353
    1C        C  327   4.280   4.181   4.354
    1C        C  328   4.138   4.342   4.474
    1C        C  329   4.191   4.297   4.596
    1C        C  330   4.028   4.437   4.714
    1C        C  331   4.144   4.355   4.716
    1C        C  332   3.969   4.489   4.832
    1C        C  333   4.053   4.478   4.943
    1C        C  334   4.552   3.266   2.063
    1C        C  335   4.533   3.128   2.066
    1C        C  336   4.543   3.351   2.175
    1C        C  337   4.517   3.280   2.294
    1C        C  338   4.519   3.495   2.413
    1C        C  339   4.520   3.354   2.415
    1C        C  340   4.521   3.569   2.533
    1C        C  341   4.517   3.497   2.655
    1C        C  342   4.490   3.709   2.774
    1C        C  343   4.514   3.570   2.776
    1C        C  344   4.474   3.781   2.895
    1C        C  345   4.488   3.713   3.018
    1C        C  346   4.424   3.915   3.139
    1C        C  347   4.468   3.780   3.140
    1C        C  348   4.395   3.984   3.259
    1C        C  349   4.422   3.920   3.382
    1C        C  350   4.325   4.106   3.504
    1C        C  351   4.392   3.982   3.506
    1C        C  352   4.282   4.169   3.623
    1C        C  353   4.320   4.111   3.747
    1C        C  354   4.178   4.269   3.866
    1C        C  355   4.280   4.172   3.868
    1C        C  356   4.122   4.318   3.986
    1C        C  357   4.181   4.277   4.108
    1C        C  358   4.011   4.402   4.230
    1C        C  359   4.131   4.328   4.230
    1C        C  360   3.950   4.444   4.351
    1C        C  361   4.019   4.419   4.472
    1C        C  362   3.826   4.508   4.593
    1C        C  363   3.958   4.458   4.593
    1C        C  364   3.758   4.541   4.712
    1C        C  365   3.835   4.532   4.830
    1C        C  366   3.627   4.592   4.947
    1C        C  367   3.765   4.575   4.944
    1C        C  368   4.512   3.567   2.055
    1C        C  369   4.528   3.491   2.171
    1C        C  370   4.503   3.706   2.286
    1C        C  371   4.518   3.566   2.291
    1C        C  372   4.480   3.773   2.408
    1C        C  373   4.499   3.709   2.533
    1C        C  374   4.423   3.910   2.648
    1C        C  375   4.479   3.781   2.653
    1C        C  376   4.397   3.976   2.771
    1C        C  377   4.431   3.915   2.894
    1C        C  378   4.322   4.096   3.012
    1C        C  379   4.401   3.979   3.016
    1C        C  380   4.272   4.153   3.131
    1C        C  381   4.315   4.101   3.255
    1C        C  382   4.179   4.256   3.377
    1C        C  383   4.280   4.156   3.380
    1C        C  384   4.121   4.302   3.497
    1C        C  385   4.180   4.266   3.621
    1C        C  386   4.006   4.389   3.742
    1C        C  387   4.124   4.312   3.742
    1C        C  388   3.940   4.425   3.862
    1C        C  389   4.001   4.391   3.984
    1C        C  390   3.813   4.480   4.109
    1C        C  391   3.946   4.432   4.108
    1C        C  392   3.746   4.507   4.230
    1C        C  393   3.818   4.493   4.351
    1C        C  394   3.615   4.553   4.473
    1C        C  395   3.753   4.521   4.473
    1C        C  396   3.543   4.563   4.594
    1C        C  397   3.618   4.557   4.714
    1C        C  398   3.406   4.556   4.841
    1C        C  399   3.546   4.571   4.834
    1C        C  400   3.339   4.524   4.960
    1C        C  401   4.497   3.705   2.049
    1C        C  402   4.455   3.917   2.166
    1C        C  403   4.495   3.781   2.167
    1C        C  404   4.418   3.980   2.287
    1C        C  405   4.440   3.908   2.407
    1C        C  406   4.329   4.095   2.525
    1C        C  407   4.406   3.977   2.525
    1C        C  408   4.284   4.155   2.645
    1C        C  409   4.324   4.097   2.768
    1C        C  410   4.173   4.246   2.889
    1C        C  411   4.280   4.154   2.890
    1C        C  412   4.122   4.297   3.010
    1C        C  413   4.174   4.254   3.134
    1C        C  414   4.002   4.377   3.252
    1C        C  415   4.119   4.298   3.256
    1C        C  416   3.941   4.411   3.375
    1C        C  417   4.002   4.378   3.498
    1C        C  418   3.810   4.469   3.619
    1C        C  419   3.941   4.415   3.620
    1C        C  420   3.743   4.498   3.739
    1C        C  421   3.810   4.480   3.862
    1C        C  422   3.607   4.527   3.985
    1C        C  423   3.746   4.502   3.987
    1C        C  424   3.538   4.541   4.108
    1C        C  425   3.607   4.534   4.231
    1C        C  426   3.398   4.550   4.358
    1C        C  427   3.539   4.549   4.354
    1C        C  428   3.328   4.546   4.481
    1C        C  429   3.402   4.560   4.601
    1C        C  430   3.191   4.520   4.722
    1C        C  431   3.331   4.547   4.722
    1C        C  432   3.125   4.495   4.846
    1C        C  433   3.201   4.501   4.963
    1C        C  434   4.385   4.120   2.051
    1C        C  435   4.450   3.996   2.051
    1C        C  436   4.303   4.158   2.162
    1C        C  437   4.336   4.096   2.285
    1C        C  438   4.187   4.254   2.403
    1C        C  439   4.283   4.150   2.404
    1C        C  440   4.132   4.303   2.523
    1C        C  441   4.183   4.253   2.645
    1C        C  442   4.005   4.372   2.766
    1C        C  443   4.121   4.292   2.766
    1C        C  444   3.939   4.405   2.886
    1C        C  445   4.001   4.371   3.009
    1C        C  446   3.811   4.467   3.129
    1C        C  447   3.940   4.410   3.130
    1C        C  448   3.746   4.489   3.252
    1C        C  449   3.811   4.467   3.376
    1C        C  450   3.604   4.520   3.497
    1C        C  451   3.743   4.493   3.497
    1C        C  452   3.533   4.535   3.618
    1C        C  453   3.606   4.533   3.739
    1C        C  454   3.397   4.541   3.866
    1C        C  455   3.538   4.539   3.862
    1C        C  456   3.327   4.537   3.989
    1C        C  457   3.397   4.540   4.112
    1C        C  458   3.189   4.515   4.236
    1C        C  459   3.329   4.538   4.236
    1C        C  460   3.122   4.493   4.358
    1C        C  461   3.191   4.513   4.480
    1C        C  462   2.992   4.440   4.606
    1C        C  463   3.122   4.495   4.602
    1C        C  464   2.927   4.407   4.727
    1C        C  465   2.990   4.447   4.848
    1C        C  466   2.796   4.343   4.960
    1C        C  467   2.901   4.436   4.960
    1C        C  468   4.125   4.283   2.042
    1C        C  469   4.188   4.245   2.161
    1C        C  470   4.007   4.367   2.279
    1C        C  471   4.130   4.296   2.280
    1C        C  472   3.942   4.398   2.400
    1C        C  473   4.009   4.373   2.522
    1C        C  474   3.814   4.461   2.642
    1C        C  475   3.945   4.408   2.643
    1C        C  476   3.744   4.488   2.763
    1C        C  477   3.812   4.467   2.885
    1C        C  478   3.604   4.515   3.006
    1C        C  479   3.743   4.490   3.007
    1C        C  480   3.537   4.523   3.130
    1C        C  481   3.607   4.516   3.253
    1C        C  482   3.394   4.538   3.376
    1C        C  483   3.535   4.528   3.374
    1C        C  484   3.322   4.535   3.497
    1C        C  485   3.392   4.539   3.620
    1C        C  486   3.186   4.513   3.746
    1C        C  487   3.325   4.537   3.745
    1C        C  488   3.121   4.493   3.870
    1C        C  489   3.188   4.511   3.993
    1C        C  490   2.996   4.425   4.116
    1C        C  491   3.120   4.493   4.115
    1C        C  492   2.939   4.388   4.239
    1C        C  493   2.996   4.428   4.362
    1C        C  494   2.832   4.301   4.484
    1C        C  495   2.932   4.400   4.484
    1C        C  496   2.774   4.256   4.605
    1C        C  497   2.816   4.317   4.725
    1C        C  498   2.666   4.166   4.846
    1C        C  499   2.755   4.276   4.845
    1C        C  500   2.603   4.115   4.960
    1C        C  501   4.006   4.355   2.042
    1C        C  502   3.814   4.458   2.157
    1C        C  503   3.942   4.400   2.158
    1C        C  504   3.743   4.479   2.278
    1C        C  505   3.810   4.448   2.398
    1C        C  506   3.606   4.503   2.520
    1C        C  507   3.744   4.475   2.520
    1C        C  508   3.533   4.516   2.641
    1C        C  509   3.606   4.516   2.762
    1C        C  510   3.393   4.524   2.885
    1C        C  511   3.534   4.521   2.884
    1C        C  512   3.325   4.519   3.008
    1C        C  513   3.396   4.527   3.130
    1C        C  514   3.188   4.498   3.255
    1C        C  515   3.326   4.527   3.253
    1C        C  516   3.119   4.477   3.377
    1C        C  517   3.184   4.504   3.500
    1C        C  518   2.996   4.418   3.625
    1C        C  519   3.119   4.486   3.624
    1C        C  520   2.941   4.374   3.748
    1C        C  521   2.998   4.423   3.868
    1C        C  522   2.837   4.290   3.996
    1C        C  523   2.943   4.383   3.991
    1C        C  524   2.786   4.243   4.119
    1C        C  525   2.832   4.295   4.242
    1C        C  526   2.696   4.132   4.365
    1C        C  527   2.783   4.244   4.364
    1C        C  528   2.656   4.075   4.487
    1C        C  529   2.691   4.142   4.606
    1C        C  530   2.585   3.960   4.729
    1C        C  531   2.643   4.090   4.729
    1C        C  532   2.539   3.904   4.852
    1C        C  533   2.532   3.995   4.963
    1C        C  534   3.618   4.555   2.041
    1C        C  535   3.750   4.508   2.042
    1C        C  536   3.535   4.534   2.156
    1C        C  537   3.604   4.509   2.277
    1C        C  538   3.392   4.516   2.401
    1C        C  539   3.533   4.513   2.400
    1C        C  540   3.319   4.513   2.521
    1C        C  541   3.392   4.511   2.642
    1C        C  542   3.181   4.494   2.768
    1C        C  543   3.320   4.515   2.764
    1C        C  544   3.117   4.468   2.891
    1C        C  545   3.188   4.486   3.012
    1C        C  546   2.994   4.407   3.135
    1C        C  547   3.120   4.470   3.134
    1C        C  548   2.934   4.372   3.258
    1C        C  549   2.993   4.414   3.379
    1C        C  550   2.829   4.286   3.505
    1C        C  551   2.933   4.382   3.503
    1C        C  552   2.781   4.236   3.628
    1C        C  553   2.833   4.284   3.750
    1C        C  554   2.702   4.124   3.876
    1C        C  555   2.787   4.236   3.875
    1C        C  556   2.666   4.064   3.999
    1C        C  557   2.705   4.128   4.119
    1C        C  558   2.599   3.946   4.246
    1C        C  559   2.663   4.072   4.242
    1C        C  560   2.575   3.879   4.368
    1C        C  561   2.596   3.947   4.490
    1C        C  562   2.533   3.746   4.616
    1C        C  563   2.562   3.884   4.612
    1C        C  564   2.524   3.681   4.741
    1C        C  565   2.521   3.762   4.858
    1C        C  566   2.534   3.547   4.975
    1C        C  567   2.525   3.686   4.975
    1C        C  568   3.324   4.478   2.042
    1C        C  569   3.394   4.516   2.157
    1C        C  570   3.182   4.482   2.281
    1C        C  571   3.321   4.514   2.279
    1C        C  572   3.114   4.459   2.402
    1C        C  573   3.181   4.482   2.524
    1C        C  574   2.983   4.414   2.648
    1C        C  575   3.111   4.473   2.647
    1C        C  576   2.925   4.373   2.771
    1C        C  577   2.991   4.404   2.892
    1C        C  578   2.822   4.278   3.016
    1C        C  579   2.931   4.368   3.014
    1C        C  580   2.774   4.228   3.139
    1C        C  581   2.828   4.278   3.259
    1C        C  582   2.701   4.114   3.386
    1C        C  583   2.785   4.228   3.384
    1C        C  584   2.662   4.058   3.509
    1C        C  585   2.699   4.121   3.630
    1C        C  586   2.605   3.935   3.757
    1C        C  587   2.662   4.064   3.754
    1C        C  588   2.578   3.871   3.880
    1C        C  589   2.609   3.935   4.003
    1C        C  590   2.544   3.736   4.129
    1C        C  591   2.582   3.872   4.127
    1C        C  592   2.531   3.669   4.253
    1C        C  593   2.539   3.742   4.373
    1C        C  594   2.517   3.533   4.500
    1C        C  595   2.521   3.674   4.495
    1C        C  596   2.517   3.461   4.622
    1C        C  597   2.517   3.539   4.739
    1C        C  598   2.534   3.326   4.865
    1C        C  599   2.526   3.467   4.861
    1C        C  600   2.536   3.246   4.980
    1C        C  601   3.192   4.440   2.042
    1C        C  602   2.983   4.396   2.160
    1C        C  603   3.116   4.448   2.160
    1C        C  604   2.926   4.357   2.285
    1C        C  605   2.986   4.399   2.405
    1C        C  606   2.821   4.270   2.528
    1C        C  607   2.927   4.364   2.528
    1C        C  608   2.771   4.225   2.652
    1C        C  609   2.822   4.277   2.773
    1C        C  610   2.684   4.115   2.898
    1C        C  611   2.774   4.223   2.895
    1C        C  612   2.650   4.054   3.021
    1C        C  613   2.688   4.115   3.143
    1C        C  614   2.596   3.926   3.267
    1C        C  615   2.655   4.055   3.266
    1C        C  616   2.575   3.865   3.393
    1C        C  617   2.601   3.931   3.515
    1C        C  618   2.539   3.729   3.639
    1C        C  619   2.580   3.864   3.637
    1C        C  620   2.522   3.663   3.763
    1C        C  621   2.535   3.737   3.883
    1C        C  622   2.516   3.527   4.011
    1C        C  623   2.532   3.668   4.006
    1C        C  624   2.519   3.456   4.133
    1C        C  625   2.527   3.528   4.254
    1C        C  626   2.540   3.320   4.380
    1C        C  627   2.523   3.460   4.378
    1C        C  628   2.557   3.251   4.502
    1C        C  629   2.542   3.322   4.623
    1C        C  630   2.594   3.117   4.746
    1C        C  631   2.556   3.254   4.746
    1C        C  632   2.614   3.046   4.867
    1C        C  633   2.562   3.109   4.985
    1C        C  634   2.781   4.301   2.054
    1C        C  635   2.893   4.386   2.050
    1C        C  636   2.745   4.230   2.170
    1C        C  637   2.810   4.274   2.287
    1C        C  638   2.676   4.109   2.410
    1C        C  639   2.764   4.219   2.409
    1C        C  640   2.641   4.051   2.534
    1C        C  641   2.684   4.114   2.653
    1C        C  642   2.590   3.925   2.778
    1C        C  643   2.647   4.054   2.776
    1C        C  644   2.565   3.859   2.900
    1C        C  645   2.591   3.926   3.022
    1C        C  646   2.532   3.724   3.149
    1C        C  647   2.569   3.861   3.145
    1C        C  648   2.521   3.656   3.273
    1C        C  649   2.540   3.727   3.393
    1C        C  650   2.512   3.520   3.519
    1C        C  651   2.529   3.660   3.516
    1C        C  652   2.513   3.451   3.643
    1C        C  653   2.519   3.522   3.765
    1C        C  654   2.535   3.315   3.890
    1C        C  655   2.520   3.455   3.890
    1C        C  656   2.557   3.249   4.013
    1C        C  657   2.543   3.317   4.136
    1C        C  658   2.607   3.117   4.260
    1C        C  659   2.555   3.248   4.259
    1C        C  660   2.631   3.050   4.383
    1C        C  661   2.598   3.115   4.504
    1C        C  662   2.710   2.935   4.627
    1C        C  663   2.630   3.052   4.626
    1C        C  664   2.755   2.879   4.749
    1C        C  665   2.702   2.933   4.869
    1C        C  666   2.745   2.869   4.986
    1C        C  667   2.681   4.023   2.054
    1C        C  668   2.685   4.103   2.168
    1C        C  669   2.589   3.913   2.295
    1C        C  670   2.641   4.045   2.289
    1C        C  671   2.565   3.846   2.417
    1C        C  672   2.590   3.919   2.536
    1C        C  673   2.526   3.718   2.661
    1C        C  674   2.562   3.855   2.658
    1C        C  675   2.514   3.649   2.783
    1C        C  676   2.536   3.720   2.903
    1C        C  677   2.508   3.514   3.030
    1C        C  678   2.526   3.654   3.027
    1C        C  679   2.506   3.443   3.153
    1C        C  680   2.510   3.515   3.274
    1C        C  681   2.531   3.307   3.399
    1C        C  682   2.511   3.447   3.398
    1C        C  683   2.551   3.242   3.523
    1C        C  684   2.533   3.311   3.645
    1C        C  685   2.599   3.112   3.771
    1C        C  686   2.547   3.243   3.768
    1C        C  687   2.630   3.049   3.894
    1C        C  688   2.605   3.116   4.016
    1C        C  689   2.713   2.934   4.139
    1C        C  690   2.636   3.052   4.138
    1C        C  691   2.749   2.874   4.261
    1C        C  692   2.708   2.932   4.383
    1C        C  693   2.750   2.876   4.505
    1C        C  694   2.628   3.893   2.057
    1C        C  695   2.523   3.708   2.178
    1C        C  696   2.580   3.837   2.176
    1C        C  697   2.505   3.639   2.300
    1C        C  698   2.522   3.712   2.420
    1C        C  699   2.491   3.503   2.543
    1C        C  700   2.506   3.644   2.543
    1C        C  701   2.507   3.435   2.665
    1C        C  702   2.506   3.508   2.786
    1C        C  703   2.530   3.299   2.912
    1C        C  704   2.509   3.439   2.910
    1C        C  705   2.546   3.232   3.035
    1C        C  706   2.532   3.305   3.155
    1C        C  707   2.599   3.105   3.279
    1C        C  708   2.549   3.237   3.278
    1C        C  709   2.630   3.044   3.402
    1C        C  710   2.605   3.111   3.524
    1C        C  711   2.713   2.935   3.650
    1C        C  712   2.633   3.051   3.649
    1C        C  713   2.756   2.877   3.772
    1C        C  714   2.709   2.932   3.894
    1C        C  715   2.754   2.876   4.016
    1C        C  716   2.445   3.500   2.064
    1C        C  717   2.487   3.634   2.065
    1C        C  718   2.469   3.423   2.182
    1C        C  719   2.486   3.498   2.302
    1C        C  720   2.519   3.289   2.424
    1C        C  721   2.490   3.427   2.424
    1C        C  722   2.544   3.224   2.547
    1C        C  723   2.535   3.296   2.668
    1C        C  724   2.588   3.093   2.789
    1C        C  725   2.546   3.228   2.791
    1C        C  726   2.621   3.032   2.912
    1C        C  727   2.593   3.098   3.033
    1C        C  728   2.700   2.919   3.159
    1C        C  729   2.621   3.037   3.157
    1C        C  730   2.746   2.869   3.282
    1C        C  731   2.703   2.923   3.406
    1C        C  732   2.754   2.875   3.528
    1C        C  733   2.491   3.197   2.073
    1C        C  734   2.493   3.282   2.184
    1C        C  735   2.589   3.086   2.305
    1C        C  736   2.530   3.215   2.304
    1C        C  737   2.610   3.018   2.427
    1C        C  738   2.586   3.089   2.547
    1C        C  739   2.694   2.905   2.669
    1C        C  740   2.620   3.025   2.669
    1C        C  741   2.739   2.852   2.792
    1C        C  742   2.702   2.916   2.912
    1C        C  743   2.744   2.864   3.037
    1C        C  744   2.546   3.070   2.073
    1C        C  745   2.689   2.899   2.184
    1C        C  746   2.615   3.019   2.184
    1C        C  747   2.728   2.839   2.306
    1C        C  748   2.680   2.895   2.426
    1C        C  749   2.737   2.848   2.547
    1C        C  750   2.736   2.839   2.066
    1C        C  751   3.666   2.311   1.983
    1C        O  752   3.755   2.231   2.022
    1C        O  753   3.670   2.334   1.845
    1C        C  754   4.626   3.046   1.986
    1C        O  755   4.631   3.056   1.860
    1C        O  756   4.758   3.019   2.025
    1C        C  757   4.426   4.219   1.949
    1C        O  758   4.522   4.296   1.978
    1C        O  759   4.420   4.207   1.809
    1C        C  760   3.592   4.674   1.957
    1C        O  761   3.582   4.789   2.007
    1C        O  762   3.599   4.671   1.817
    1C        C  763   2.880   4.497   1.952
    1C        O  764   2.934   4.486   1.838
    1C        O  765   2.823   4.620   1.987
    1C        C  766   2.332   3.462   1.978
    1C        O  767   2.348   3.477   1.854
    1C        O  768   2.197   3.471   2.017
    1C        C  769   4.688   3.576   5.057
    1C        O  770   4.655   3.547   5.175
    1C        O  771   4.812   3.640   5.063
    1C        C  772   4.266   4.428   5.058
    1C        O  773   4.240   4.407   5.180
    1C        O  774   4.352   4.537   5.048
    1C        C  775   4.145   2.527   5.077
    1C        O  776   4.240   2.458   5.034
    1C        O  777   4.171   2.591   5.199
    1C        C  778   2.864   4.563   5.027
    1C        O  779   2.750   4.612   5.009
    1C        O  780   2.933   4.609   5.141
    1C        C  781   2.451   3.038   5.054
    1C        O  782   2.333   3.043   5.010
    1C        O  783   2.455   3.000   5.187
    1C        C  784   2.406   3.999   5.039
    1C        O  785   2.290   3.980   4.993
    1C        O  786   2.403   3.985   5.178
    1C        C  787   2.947   2.428   2.002
    1C        O  788   2.940   2.435   1.876
    1C        O  789   2.909   2.300   2.038
    1C        C  790   3.182   2.375   5.073
    1C        O  791   3.176   2.254   5.040
    1C        O  792   3.225   2.392   5.206
    1C        H  793   4.304   3.012   5.068
    1C        H  794   4.143   2.838   5.061
    1C        H  795   4.523   3.126   5.052
    1C        H  796   4.552   3.356   5.065
    1C        H  797   4.588   3.815   5.037
    1C        H  798   4.381   3.955   5.042
    1C        H  799   4.260   4.150   5.040
    1C        H  800   4.030   4.542   5.026
    1C        H  801   3.820   4.642   5.006
    1C        H  802   3.577   4.632   5.033
    1C        H  803   3.399   4.471   5.031
    1C        H  804   3.151   4.533   5.051
    1C        H  805   3.896   2.465   5.051
    1C        H  806   3.673   2.508   5.075
    1C        H  807   3.000   2.554   5.062
    1C        H  808   3.444   2.442   5.071
    1C        H  809   2.868   2.725   5.078
    1C        H  810   2.676   2.861   5.068
    1C        H  811   2.486   3.288   5.066
    1C        H  812   2.577   3.509   5.066
    1C        H  813   2.530   3.739   5.068
    1C        H  814   2.614   4.163   5.055
    1C        H  815   2.746   4.327   5.053
    1C        H  816   2.672   2.848   1.981
    1C        H  817   2.905   2.744   1.992
    1C        H  818   3.201   2.395   2.006
    1C        H  819   3.442   2.493   1.985
    1C        H  820   3.891   2.465   1.989
    1C        H  821   4.059   2.626   1.966
    1C        H  822   4.269   2.701   1.982
    1C        H  823   4.341   2.947   1.978
    1C        H  824   4.602   3.302   1.976
    1C        H  825   4.468   3.517   1.971
    1C        H  826   4.537   3.754   1.962
    1C        H  827   3.797   4.490   1.947
    1C        H  828   3.955   4.369   1.949
    1C        H  829   4.191   4.293   1.958
    1C        H  830   4.538   3.992   1.990
    1C        H  831   2.653   3.825   1.978
    1C        H  832   2.761   4.032   1.983
    1C        H  833   2.738   4.270   1.961
    1C        H  834   3.370   4.487   1.945
    1C        H  835   3.154   4.389   1.955
    1C        H  836   2.504   3.009   1.995
    1C        H  837   2.479   3.236   1.974
    1C        H  838   2.490   3.683   1.970
    2V3OU   H29  839   2.799   3.552   5.412
    2V3OU   C27  840   2.779   3.505   5.512
    2V3OU   H27  841   2.724   3.571   5.584
    2V3OU   H28  842   2.720   3.411   5.494
    2V3OU   O11  843   2.907   3.476   5.568
    2V3OU   C15  844   2.920   3.396   5.679
    2V3OU   C13  845   3.049   3.373   5.731
    2V3OU   C14  846   3.074   3.268   5.820
    2V3OU   C16  847   2.971   3.187   5.867
    2V3OU    H6  848   2.991   3.102   5.934
    2V3OU   C12  849   3.212   3.232   5.856
    2V3OU    O2  850   3.233   3.122   5.912
    2V3OU   C10  851   3.325   3.314   5.811
    2V3OU    C8  852   3.455   3.275   5.839
    2V3OU   O10  853   3.487   3.161   5.908
    2V3OU   H26  854   3.403   3.119   5.931
    2V3OU    C6  855   3.565   3.353   5.790
    2V3OU    C5  856   3.538   3.467   5.716
    2V3OU    C4  857   3.702   3.294   5.786
    2V3OU    H4  858   3.723   3.228   5.875
    2V3OU    H5  859   3.717   3.228   5.696
    2V3OU    C2  860   3.815   3.397   5.787
    2V3OU    O6  861   3.807   3.474   5.907
    2V3OU   H21  862   3.759   3.551   5.872
    2V3OU    C3  863   3.781   3.497   5.676
    2V3OU    H2  864   3.861   3.575   5.670
    2V3OU    H3  865   3.785   3.437   5.581
    2V3OU   C25  866   3.948   3.323   5.770
    2V3OU    O7  867   3.997   3.308   5.659
    2V3OU   C26  868   4.029   3.291   5.895
    2V3OU   H22  869   4.068   3.385   5.942
    2V3OU   H23  870   4.116   3.225   5.869
    2V3OU    O8  871   3.953   3.214   5.985
    2V3OU   H24  872   3.923   3.271   6.057
    2V3OU    C1  873   3.647   3.567   5.687
    2V3OU    H1  874   3.626   3.620   5.590
    2V3OU    O3  875   3.660   3.656   5.798
    2V3OU   C19  876   3.616   3.792   5.785
    2V3OU    H9  877   3.519   3.793   5.729
    2V3OU    O4  878   3.712   3.848   5.698
    2V3OU   C20  879   3.842   3.874   5.752
    2V3OU   H10  880   3.896   3.777   5.775
    2V3OU   C24  881   3.608   3.856   5.924
    2V3OU   H16  882   3.536   3.800   5.988
    2V3OU   H17  883   3.567   3.958   5.903
    2V3OU   C23  884   3.749   3.871   5.983
    2V3OU   H15  885   3.797   3.769   5.992
    2V3OU    N1  886   3.737   3.944   6.108
    2V3OU   H19  887   3.814   3.917   6.166
    2V3OU   H20  888   3.645   3.930   6.145
    2V3OU   C21  889   3.842   3.950   5.885
    2V3OU   H11  890   3.943   3.923   5.928
    2V3OU    O5  891   3.825   4.090   5.894
    2V3OU   H18  892   3.789   4.109   5.982
    2V3OU   C22  893   3.913   3.946   5.639
    2V3OU   H12  894   3.860   4.042   5.616
    2V3OU   H13  895   3.908   3.886   5.544
    2V3OU   H14  896   4.019   3.966   5.668
    2V3OU   C11  897   3.158   3.467   5.700
    2V3OU    O1  898   3.135   3.587   5.674
    2V3OU    C9  899   3.297   3.427   5.729
    2V3OU    C7  900   3.404   3.507   5.688
    2V3OU    O9  901   3.389   3.616   5.605
    2V3OU   H25  902   3.293   3.628   5.605
    2V3OU   C17  903   2.820   3.315   5.738
    2V3OU    H7  904   2.717   3.351   5.738
    2V3OU   C18  905   2.839   3.212   5.828
    2V3OU    H8  906   2.758   3.154   5.876
    3SOL     OW  907   3.336   3.263   3.631
    3SOL    HW1  908   3.365   3.172   3.660
    3SOL    HW2  909   3.408   3.304   3.574
    4SOL     OW  910   6.601   6.205   0.681
    4SOL    HW1  911   6.597   6.255   0.595
    4SOL    HW2  912   6.543   6.124   0.675
    5SOL     OW  913   5.514   1.682   0.810
    5SOL    HW1  914   5.530   1.595   0.857
    5SOL    HW2  915   5.554   1.757   0.864
    6SOL     OW  916   5.317   1.352   2.736
    6SOL    HW1  917   5.397   1.412   2.738
    6SOL    HW2  918   5.237   1.402   2.769
    7SOL     OW  919   2.006   4.314   3.919
    7SOL    HW1  920   2.076   4.249   3.890
    7SOL    HW2  921   1.972   4.288   4.010
    8SOL     OW  922   0.846   3.130   4.657
    8SOL    HW1  923   0.909   3.124   4.734
    8SOL    HW2  924   0.892   3.173   4.579
    9SOL     OW  925   6.962   0.682   6.730
    9SOL    HW1  926   6.952   0.596   6.781
    9SOL    HW2  927   6.879   0.698   6.675
   10SOL     OW  928   5.186   4.537   1.953
   10SOL    HW1  929   5.217   4.479   1.878
   10SOL    HW2  930   5.258   4.542   2.023
   11SOL     OW  931   1.864   2.358   0.646
   11SOL    HW1  932   1.807   2.348   0.564
   11SOL    HW2  933   1.825   2.305   0.721
   12SOL     OW  934   3.999   5.288   2.501
   12SOL    HW1  935   3.960   5.342   2.575
   12SOL    HW2  936   4.063   5.221   2.540
   13SOL     OW  937   6.159   6.005   1.380
   13SOL    HW1  938   6.111   6.093   1.388
   13SOL    HW2  939   6.233   6.001   1.447
   14SOL     OW  940   4.493   6.672   6.021
   14SOL    HW1  941   4.467   6.739   6.091
   14SOL    HW2  942   4.410   6.628   5.985
   15SOL     OW  943   1.237   6.233   5.961
   15SOL    HW1  944   1.223   6.332   5.958
   15SOL    HW2  945   1.258   6.200   5.869
   16SOL     OW  946   2.096   4.670   4.810
   16SOL    HW1  947   2.016   4.671   4.869
   16SOL    HW2  948   2.068   4.677   4.714
   17SOL     OW  949   6.168   0.908   5.398
   17SOL    HW1  950   6.183   0.809   5.393
   17SOL    HW2  951   6.170   0.936   5.494
   18SOL     OW  952   3.189   1.476   6.100
   18SOL    HW1  953   3.192   1.448   6.004
   18SOL    HW2  954   3.249   1.555   6.113
   19SOL     OW  955   2.707   6.749   2.869
   19SOL    HW1  956   2.793   6.704   2.845
   19SOL    HW2  957   2.669   6.705   2.950
   20SOL     OW  958   6.224   1.544   5.256
   20SOL    HW1  959   6.163   1.483   5.205
   20SOL    HW2  960   6.292   1.583   5.193
   21SOL     OW  961   2.367   4.479   2.515
   21SOL    HW1  962   2.332   4.413   2.448
   21SOL    HW2  963   2.443   4.531   2.474
   22SOL     OW  964   1.206   0.803   6.784
   22SOL    HW1  965   1.179   0.713   6.750
   22SOL    HW2  966   1.138   0.871   6.756
   23SOL     OW  967   5.468   4.800   1.299
   23SOL    HW1  968   5.384   4.771   1.252
   23SOL    HW2  969   5.527   4.848   1.233
   24SOL     OW  970   4.606   1.432   0.532
   24SOL    HW1  971   4.678   1.364   0.521
   24SOL    HW2  972   4.646   1.523   0.538
   25SOL     OW  973   2.325   0.544   4.563
   25SOL    HW1  974   2.241   0.570   4.612
   25SOL    HW2  975   2.331   0.445   4.557
   26SOL     OW  976   0.506   2.364   6.384
   26SOL    HW1  977   0.560   2.353   6.301
   26SOL    HW2  978   0.492   2.275   6.426
   27SOL     OW  979   6.419   0.456   2.352
   27SOL    HW1  980   6.411   0.360   2.378
   27SOL    HW2  981   6.511   0.489   2.373
   28SOL     OW  982   2.269   0.450   4.877
   28SOL    HW1  983   2.310   0.360   4.861
   28SOL    HW2  984   2.227   0.451   4.968
   29SOL     OW  985   0.064   6.711   1.106
   29SOL    HW1  986   0.109   6.775   1.168
   29SOL    HW2  987   0.094   6.617   1.127
   30SOL     OW  988   4.717   0.247   5.004
   30SOL    HW1  989   4.632   0.199   5.027
   30SOL    HW2  990   4.795   0.188   5.024
   31SOL     OW  991   0.652   3.764   5.055
   31SOL    HW1  992   0.667   3.697   4.982
   31SOL    HW2  993   0.603   3.843   5.019
   32SOL     OW  994   3.967   0.702   1.153
   32SOL    HW1  995   3.883   0.650   1.136
   32SOL    HW2  996   3.952   0.798   1.133
   33SOL     OW  997   1.923   5.497   5.948
   33SOL    HW1  998   1.977   5.494   5.864
   33SOL    HW2  999   1.945   5.418   6.005
   34SOL     OW 1000   3.197   5.704   5.097
   34SOL    HW1 1001   3.198   5.743   5.189
   34SOL    HW2 1002   3.290   5.686   5.067
   35SOL     OW 1003   1.923   3.231   6.818
   35SOL    HW1 1004   1.878   3.189   6.898
   35SOL    HW2 1005   2.005   3.280   6.849
   36SOL     OW 1006   4.158   1.000   3.703
   36SOL    HW1 1007   4.234   0.940   3.676
   36SOL    HW2 1008   4.115   1.038   3.621
   37SOL     OW 1009   2.533   0.168   4.058
   37SOL    HW1 1010   2.527   0.187   3.960
   37SOL    HW2 1011   2.499   0.077   4.077
   38SOL     OW 1012   1.021   3.768   2.967
   38SOL    HW1 1013   1.024   3.845   3.031
   38SOL    HW2 1014   1.040   3.801   2.875
   39SOL     OW 1015   6.452   4.153   1.140
   39SOL    HW1 1016   6.435   4.093   1.219
   39SOL    HW2 1017   6.452   4.248   1.170
   40SOL     OW 1018   4.574   1.839   0.720
   40SOL    HW1 1019   4.512   1.803   0.650
   40SOL    HW2 1020   4.522   1.855   0.804
   41SOL     OW 1021   4.839   4.318   1.429
   41SOL    HW1 1022   4.741   4.332   1.416
   41SOL    HW2 1023   4.854   4.238   1.488
   42SOL     OW 1024   2.465   4.783   6.632
   42SOL    HW1 1025   2.482   4.818   6.540
   42SOL    HW2 1026   2.428   4.856   6.689
   43SOL     OW 1027   4.374   0.017   4.805
   43SOL    HW1 1028   4.367   0.117   4.807
   43SOL    HW2 1029   4.424   7.013   4.723
   44SOL     OW 1030   6.406   0.982   5.980
   44SOL    HW1 1031   6.317   1.020   5.953
   44SOL    HW2 1032   6.393   0.892   6.022
   45SOL     OW 1033   2.027   4.567   5.873
   45SOL    HW1 1034   1.932   4.593   5.887
   45SOL    HW2 1035   2.087   4.630   5.923
   46SOL     OW 1036   1.329   3.660   4.698
   46SOL    HW1 1037   1.389   3.630   4.623
   46SOL    HW2 1038   1.319   3.759   4.695
   47SOL     OW 1039   5.708   3.832   0.602
   47SOL    HW1 1040   5.764   3.913   0.589
   47SOL    HW2 1041   5.762   3.750   0.582
   48SOL     OW 1042   6.353   3.777   0.361
   48SOL    HW1 1043   6.262   3.747   0.330
   48SOL    HW2 1044   6.398   3.701   0.409
   49SOL     OW 1045   2.831   3.826   6.969
   49SOL    HW1 1046   2.903   3.843   6.902
   49SOL    HW2 1047   2.851   3.741   7.018
   50SOL     OW 1048   5.772   2.102   0.526
   50SOL    HW1 1049   5.786   2.139   0.434
   50SOL    HW2 1050   5.827   2.019   0.537
   51SOL     OW 1051   1.206   5.372   2.434
   51SOL    HW1 1052   1.158   5.355   2.520
   51SOL    HW2 1053   1.259   5.292   2.409
   52SOL     OW 1054   5.815   2.801   1.739
   52SOL    HW1 1055   5.716   2.794   1.726
   52SOL    HW2 1056   5.854   2.709   1.744
   53SOL     OW 1057   3.719   0.990   1.868
   53SOL    HW1 1058   3.716   0.932   1.950
   53SOL    HW2 1059   3.738   1.084   1.895
   54SOL     OW 1060   5.629   0.025   6.665
   54SOL    HW1 1061   5.604   6.992   6.587
   54SOL    HW2 1062   5.719   7.022   6.698
   55SOL     OW 1063   1.133   3.477   6.130
   55SOL    HW1 1064   1.118   3.470   6.032
   55SOL    HW2 1065   1.122   3.572   6.159
   56SOL     OW 1066   0.519   2.185   6.775
   56SOL    HW1 1067   0.496   2.282   6.765
   56SOL    HW2 1068   0.514   2.141   6.686
   57SOL     OW 1069   4.303   6.408   0.840
   57SOL    HW1 1070   4.224   6.360   0.879
   57SOL    HW2 1071   4.275   6.500   0.811
   58SOL     OW 1072   1.075   0.689   0.230
   58SOL    HW1 1073   1.131   0.772   0.225
   58SOL    HW2 1074   1.052   0.660   0.137
   59SOL     OW 1075   4.314   3.323   5.577
   59SOL    HW1 1076   4.364   3.345   5.494
   59SOL    HW2 1077   4.374   3.272   5.640
   60SOL     OW 1078   6.143   2.265   1.811
   60SOL    HW1 1079   6.108   2.301   1.725
   60SOL    HW2 1080   6.163   2.340   1.873
   61SOL     OW 1081   1.244   5.914   4.489
   61SOL    HW1 1082   1.198   5.910   4.578
   61SOL    HW2 1083   1.333   5.957   4.500
   62SOL     OW 1084   6.103   3.409   2.862
   62SOL    HW1 1085   6.029   3.351   2.830
   62SOL    HW2 1086   6.189   3.357   2.863
   63SOL     OW 1087   3.708   0.722   6.269
   63SOL    HW1 1088   3.772   0.730   6.345
   63SOL    HW2 1089   3.711   0.805   6.214
   64SOL     OW 1090   1.368   3.414   5.302
   64SOL    HW1 1091   1.408   3.446   5.388
   64SOL    HW2 1092   1.423   3.446   5.225
   65SOL     OW 1093   0.710   5.280   4.417
   65SOL    HW1 1094   0.694   5.256   4.513
   65SOL    HW2 1095   0.705   5.379   4.407
   66SOL     OW 1096   3.821   1.234   1.878
   66SOL    HW1 1097   3.839   1.231   1.780
   66SOL    HW2 1098   3.891   1.182   1.927
   67SOL     OW 1099   6.854   3.271   1.295
   67SOL    HW1 1100   6.854   3.229   1.386
   67SOL    HW2 1101   6.762   3.306   1.276
   68SOL     OW 1102   6.739   1.362   6.814
   68SOL    HW1 1103   6.838   1.354   6.825
   68SOL    HW2 1104   6.702   1.415   6.890
   69SOL     OW 1105   1.110   6.021   6.464
   69SOL    HW1 1106   1.159   6.108   6.463
   69SOL    HW2 1107   1.100   5.987   6.371
   70SOL     OW 1108   5.174   4.085   3.897
   70SOL    HW1 1109   5.182   4.135   3.810
   70SOL    HW2 1110   5.084   4.042   3.903
   71SOL     OW 1111   5.175   2.054   4.089
   71SOL    HW1 1112   5.206   1.988   4.021
   71SOL    HW2 1113   5.233   2.048   4.171
   72SOL     OW 1114   0.897   1.463   3.131
   72SOL    HW1 1115   0.848   1.394   3.185
   72SOL    HW2 1116   0.898   1.436   3.035
   73SOL     OW 1117   2.711   0.089   0.428
   73SOL    HW1 1118   2.648   0.143   0.373
   73SOL    HW2 1119   2.792   0.067   0.375
   74SOL     OW 1120   2.821   2.406   0.836
   74SOL    HW1 1121   2.859   2.495   0.809
   74SOL    HW2 1122   2.787   2.358   0.756
   75SOL     OW 1123   2.671   3.141   0.390
   75SOL    HW1 1124   2.708   3.103   0.305
   75SOL    HW2 1125   2.737   3.206   0.428
   76SOL     OW 1126   3.871   5.262   5.535
   76SOL    HW1 1127   3.791   5.259   5.595
   76SOL    HW2 1128   3.951   5.228   5.584
   77SOL     OW 1129   1.001   5.578   4.355
   77SOL    HW1 1130   1.033   5.642   4.285
   77SOL    HW2 1131   1.051   5.492   4.345
   78SOL     OW 1132   4.818   1.795   1.566
   78SOL    HW1 1133   4.876   1.823   1.642
   78SOL    HW2 1134   4.834   1.855   1.487
   79SOL     OW 1135   1.276   4.576   3.504
   79SOL    HW1 1136   1.305   4.579   3.408
   79SOL    HW2 1137   1.182   4.608   3.512
   80SOL     OW 1138   3.747   1.339   4.639
   80SOL    HW1 1139   3.763   1.334   4.738
   80SOL    HW2 1140   3.771   1.252   4.596
   81SOL     OW 1141   4.028   4.795   1.525
   81SOL    HW1 1142   4.047   4.704   1.490
   81SOL    HW2 1143   3.970   4.788   1.606
   82SOL     OW 1144   2.357   6.134   2.117
   82SOL    HW1 1145   2.285   6.164   2.180
   82SOL    HW2 1146   2.317   6.109   2.029
   83SOL     OW 1147   4.950   1.364   3.725
   83SOL    HW1 1148   4.988   1.288   3.776
   83SOL    HW2 1149   4.883   1.412   3.782
   84SOL     OW 1150   5.517   3.036   2.346
   84SOL    HW1 1151   5.561   3.078   2.266
   84SOL    HW2 1152   5.479   3.108   2.404
   85SOL     OW 1153   2.632   6.803   3.857
   85SOL    HW1 1154   2.711   6.864   3.860
   85SOL    HW2 1155   2.653   6.719   3.907
   86SOL     OW 1156   5.307   6.769   0.010
   86SOL    HW1 1157   5.392   6.790   6.986
   86SOL    HW2 1158   5.242   6.726   6.971
   87SOL     OW 1159   2.172   4.200   6.432
   87SOL    HW1 1160   2.152   4.287   6.387
   87SOL    HW2 1161   2.234   4.215   6.509
   88SOL     OW 1162   2.743   3.549   1.330
   88SOL    HW1 1163   2.803   3.629   1.329
   88SOL    HW2 1164   2.663   3.566   1.274
   89SOL     OW 1165   3.295   3.538   3.568
   89SOL    HW1 1166   3.273   3.442   3.587
   89SOL    HW2 1167   3.288   3.590   3.653
   90SOL     OW 1168   5.198   3.840   1.996
   90SOL    HW1 1169   5.149   3.839   1.908
   90SOL    HW2 1170   5.148   3.786   2.062
   91SOL     OW 1171   4.626   5.844   6.030
   91SOL    HW1 1172   4.622   5.819   5.933
   91SOL    HW2 1173   4.607   5.942   6.039
   92SOL     OW 1174   5.013   4.461   0.046
   92SOL    HW1 1175   5.002   4.516   6.987
   92SOL    HW2 1176   4.965   4.374   0.034
   93SOL     OW 1177   3.005   3.660   1.917
   93SOL    HW1 1178   3.035   3.661   2.012
   93SOL    HW2 1179   2.984   3.566   1.891
   94SOL     OW 1180   3.060   2.217   4.452
   94SOL    HW1 1181   3.113   2.288   4.499
   94SOL    HW2 1182   2.984   2.258   4.403
   95SOL     OW 1183   0.157   0.293   4.144
   95SOL    HW1 1184   0.199   0.383   4.135
   95SOL    HW2 1185   0.096   0.277   4.067
   96SOL     OW 1186   6.744   5.164   0.137
   96SOL    HW1 1187   6.671   5.233   0.136
   96SOL    HW2 1188   6.811   5.185   0.066
   97SOL     OW 1189   2.228   4.263   5.723
   97SOL    HW1 1190   2.315   4.308   5.743
   97SOL    HW2 1191   2.167   4.328   5.677
   98SOL     OW 1192   0.975   2.103   3.672
   98SOL    HW1 1193   0.907   2.062   3.611
   98SOL    HW2 1194   1.029   2.170   3.622
   99SOL     OW 1195   3.412   4.210   5.206
   99SOL    HW1 1196   3.454   4.287   5.253
   99SOL    HW2 1197   3.331   4.180   5.257
  100SOL     OW 1198   6.889   0.662   5.080
  100SOL    HW1 1199   6.799   0.641   5.042
  100SOL    HW2 1200   6.911   0.594   5.151
  101SOL     OW 1201   5.550   4.015   2.496
  101SOL    HW1 1202   5.528   4.041   2.590
  101SOL    HW2 1203   5.481   4.052   2.434
  102SOL     OW 1204   4.192   0.680   0.023
  102SOL    HW1 1205   4.159   0.774   0.010
  102SOL    HW2 1206   4.115   0.617   0.019
  103SOL     OW 1207   1.835   1.424   1.834
  103SOL    HW1 1208   1.814   1.486   1.910
  103SOL    HW2 1209   1.891   1.348   1.868
  104SOL     OW 1210   6.285   4.757   2.238
  104SOL    HW1 1211   6.199   4.791   2.276
  104SOL    HW2 1212   6.303   4.803   2.151
  105SOL     OW 1213   6.692   1.114   5.558
  105SOL    HW1 1214   6.684   1.182   5.486
  105SOL    HW2 1215   6.783   1.073   5.555
  106SOL     OW 1216   4.580   3.055   1.439
  106SOL    HW1 1217   4.552   2.965   1.405
  106SOL    HW2 1218   4.501   3.116   1.441
  107SOL     OW 1219   5.828   0.050   1.778
  107SOL    HW1 1220   5.918   0.090   1.765
  107SOL    HW2 1221   5.836   6.974   1.785
  108SOL     OW 1222   3.074   1.345   4.420
  108SOL    HW1 1223   3.090   1.320   4.516
  108SOL    HW2 1224   3.078   1.444   4.410
  109SOL     OW 1225   1.827   1.249   4.808
  109SOL    HW1 1226   1.925   1.232   4.818
  109SOL    HW2 1227   1.789   1.274   4.897
  110SOL     OW 1228   3.624   4.229   5.748
  110SOL    HW1 1229   3.690   4.167   5.790
  110SOL    HW2 1230   3.618   4.210   5.650
  111SOL     OW 1231   5.933   2.796   0.544
  111SOL    HW1 1232   5.948   2.715   0.488
  111SOL    HW2 1233   5.977   2.784   0.633
  112SOL     OW 1234   5.187   6.654   6.835
  112SOL    HW1 1235   5.239   6.720   6.780
  112SOL    HW2 1236   5.235   6.567   6.837
  113SOL     OW 1237   0.293   5.236   2.390
  113SOL    HW1 1238   0.297   5.331   2.357
  113SOL    HW2 1239   0.281   5.236   2.490
  114SOL     OW 1240   6.987   2.263   1.989
  114SOL    HW1 1241   0.047   2.219   1.957
  114SOL    HW2 1242   6.983   2.356   1.954
  115SOL     OW 1243   5.716   6.596   3.694
  115SOL    HW1 1244   5.643   6.632   3.636
  115SOL    HW2 1245   5.805   6.628   3.660
  116SOL     OW 1246   0.190   5.105   0.616
  116SOL    HW1 1247   0.274   5.050   0.610
  116SOL    HW2 1248   0.208   5.197   0.582
  117SOL     OW 1249   2.369   2.840   0.209
  117SOL    HW1 1250   2.375   2.744   0.237
  117SOL    HW2 1251   2.358   2.844   0.109
  118SOL     OW 1252   0.448   2.119   2.599
  118SOL    HW1 1253   0.439   2.161   2.508
  118SOL    HW2 1254   0.363   2.131   2.649
  119SOL     OW 1255   5.952   0.004   4.906
  119SOL    HW1 1256   6.031   0.003   4.967
  119SOL    HW2 1257   5.971   6.973   4.825
  120SOL     OW 1258   4.610   1.393   4.282
  120SOL    HW1 1259   4.635   1.311   4.230
  120SOL    HW2 1260   4.584   1.466   4.218
  121SOL     OW 1261   0.426   5.184   0.185
  121SOL    HW1 1262   0.337   5.145   0.206
  121SOL    HW2 1263   0.434   5.274   0.227
  122SOL     OW 1264   6.846   4.772   6.136
  122SOL    HW1 1265   6.823   4.869   6.139
  122SOL    HW2 1266   6.946   4.762   6.134
  123SOL     OW 1267   0.801   2.486   1.604
  123SOL    HW1 1268   0.708   2.517   1.582
  123SOL    HW2 1269   0.868   2.546   1.561
  124SOL     OW 1270   1.113   3.139   6.877
  124SOL    HW1 1271   1.055   3.060   6.858
  124SOL    HW2 1272   1.189   3.142   6.812
  125SOL     OW 1273   4.665   3.271   0.402
  125SOL    HW1 1274   4.652   3.259   0.304
  125SOL    HW2 1275   4.702   3.187   0.441
  126SOL     OW 1276   3.809   2.973   4.063
  126SOL    HW1 1277   3.756   2.951   4.144
  126SOL    HW2 1278   3.764   2.937   3.982
  127SOL     OW 1279   0.758   5.457   5.604
  127SOL    HW1 1280   0.701   5.421   5.530
  127SOL    HW2 1281   0.841   5.497   5.565
  128SOL     OW 1282   4.963   3.775   6.894
  128SOL    HW1 1283   5.030   3.736   6.958
  128SOL    HW2 1284   4.996   3.865   6.863
  129SOL     OW 1285   0.413   5.466   2.280
  129SOL    HW1 1286   0.419   5.438   2.375
  129SOL    HW2 1287   0.503   5.496   2.248
  130SOL     OW 1288   5.749   2.970   4.026
  130SOL    HW1 1289   5.658   2.947   3.990
  130SOL    HW2 1290   5.748   3.065   4.059
  131SOL     OW 1291   0.799   2.435   3.399
  131SOL    HW1 1292   0.864   2.489   3.346
  131SOL    HW2 1293   0.815   2.450   3.497
  132SOL     OW 1294   3.411   2.656   1.017
  132SOL    HW1 1295   3.487   2.593   1.032
  132SOL    HW2 1296   3.370   2.681   1.105
  133SOL     OW 1297   5.386   5.951   6.297
  133SOL    HW1 1298   5.356   6.037   6.338
  133SOL    HW2 1299   5.423   5.891   6.368
  134SOL     OW 1300   5.728   1.710   1.619
  134SOL    HW1 1301   5.776   1.776   1.561
  134SOL    HW2 1302   5.692   1.757   1.700
  135SOL     OW 1303   4.918   3.969   3.943
  135SOL    HW1 1304   4.927   3.872   3.921
  135SOL    HW2 1305   4.900   3.979   4.041
  136SOL     OW 1306   3.598   0.802   6.819
  136SOL    HW1 1307   3.511   0.773   6.778
  136SOL    HW2 1308   3.635   0.729   6.875
  137SOL     OW 1309   2.568   4.189   5.917
  137SOL    HW1 1310   2.496   4.129   5.953
  137SOL    HW2 1311   2.613   4.144   5.840
  138SOL     OW 1312   1.193   5.181   6.382
  138SOL    HW1 1313   1.187   5.227   6.471
  138SOL    HW2 1314   1.102   5.153   6.353
  139SOL     OW 1315   1.442   0.009   0.949
  139SOL    HW1 1316   1.507   6.988   0.888
  139SOL    HW2 1317   1.442   0.108   0.932
  140SOL     OW 1318   4.279   0.789   1.367
  140SOL    HW1 1319   4.190   0.818   1.403
  140SOL    HW2 1320   4.273   0.694   1.336
  141SOL     OW 1321   0.476   2.928   0.716
  141SOL    HW1 1322   0.504   2.940   0.811
  141SOL    HW2 1323   0.381   2.957   0.706
  142SOL     OW 1324   1.768   3.684   0.882
  142SOL    HW1 1325   1.746   3.670   0.786
  142SOL    HW2 1326   1.866   3.676   0.896
  143SOL     OW 1327   4.240   6.186   2.460
  143SOL    HW1 1328   4.234   6.272   2.410
  143SOL    HW2 1329   4.274   6.203   2.552
  144SOL     OW 1330   3.162   5.973   2.989
  144SOL    HW1 1331   3.221   5.893   2.987
  144SOL    HW2 1332   3.179   6.025   3.073
  145SOL     OW 1333   0.428   4.758   3.665
  145SOL    HW1 1334   0.502   4.826   3.666
  145SOL    HW2 1335   0.359   4.786   3.598
  146SOL     OW 1336   5.012   0.898   6.355
  146SOL    HW1 1337   5.103   0.906   6.315
  146SOL    HW2 1338   5.012   0.828   6.427
  147SOL     OW 1339   4.505   0.649   4.925
  147SOL    HW1 1340   4.442   0.634   4.849
  147SOL    HW2 1341   4.489   0.581   4.996
  148SOL     OW 1342   1.524   6.192   1.479
  148SOL    HW1 1343   1.547   6.253   1.404
  148SOL    HW2 1344   1.605   6.174   1.534
  149SOL     OW 1345   2.151   2.456   4.518
  149SOL    HW1 1346   2.105   2.468   4.430
  149SOL    HW2 1347   2.211   2.377   4.514
  150SOL     OW 1348   4.173   1.669   4.871
  150SOL    HW1 1349   4.144   1.582   4.911
  150SOL    HW2 1350   4.212   1.653   4.780
  151SOL     OW 1351   4.833   2.633   0.903
  151SOL    HW1 1352   4.782   2.580   0.836
  151SOL    HW2 1353   4.778   2.645   0.985
  152SOL     OW 1354   0.410   2.374   1.341
  152SOL    HW1 1355   0.410   2.400   1.438
  152SOL    HW2 1356   0.392   2.276   1.333
  153SOL     OW 1357   2.270   1.422   3.864
  153SOL    HW1 1358   2.190   1.361   3.867
  153SOL    HW2 1359   2.332   1.392   3.791
  154SOL     OW 1360   6.332   2.740   2.676
  154SOL    HW1 1361   6.322   2.695   2.588
  154SOL    HW2 1362   6.255   2.802   2.691
  155SOL     OW 1363   0.043   5.435   3.012
  155SOL    HW1 1364   6.978   5.418   2.970
  155SOL    HW2 1365   0.074   5.353   3.059
  156SOL     OW 1366   5.311   2.787   0.125
  156SOL    HW1 1367   5.288   2.880   0.154
  156SOL    HW2 1368   5.234   2.726   0.144
  157SOL     OW 1369   5.264   6.411   1.313
  157SOL    HW1 1370   5.307   6.333   1.360
  157SOL    HW2 1371   5.221   6.379   1.229
  158SOL     OW 1372   0.878   2.760   3.554
  158SOL    HW1 1373   0.884   2.733   3.651
  158SOL    HW2 1374   0.964   2.735   3.508
  159SOL     OW 1375   5.885   5.385   0.618
  159SOL    HW1 1376   5.952   5.317   0.648
  159SOL    HW2 1377   5.832   5.348   0.542
  160SOL     OW 1378   5.546   0.271   0.937
  160SOL    HW1 1379   5.460   0.230   0.908
  160SOL    HW2 1380   5.546   0.282   1.036
  161SOL     OW 1381   6.809   6.691   1.315
  161SOL    HW1 1382   6.887   6.639   1.282
  161SOL    HW2 1383   6.737   6.692   1.245
  162SOL     OW 1384   4.446   6.770   6.463
  162SOL    HW1 1385   4.451   6.671   6.455
  162SOL    HW2 1386   4.350   6.799   6.468
  163SOL     OW 1387   0.888   3.884   2.494
  163SOL    HW1 1388   0.854   3.921   2.408
  163SOL    HW2 1389   0.828   3.912   2.569
  164SOL     OW 1390   2.570   1.690   3.864
  164SOL    HW1 1391   2.578   1.620   3.936
  164SOL    HW2 1392   2.564   1.645   3.775
  165SOL     OW 1393   0.127   6.775   3.815
  165SOL    HW1 1394   0.083   6.692   3.781
  165SOL    HW2 1395   0.227   6.764   3.808
  166SOL     OW 1396   6.733   4.077   3.576
  166SOL    HW1 1397   6.660   4.016   3.543
  166SOL    HW2 1398   6.721   4.168   3.535
  167SOL     OW 1399   2.745   1.618   6.268
  167SOL    HW1 1400   2.699   1.578   6.348
  167SOL    HW2 1401   2.761   1.546   6.200
  168SOL     OW 1402   3.936   3.633   1.659
  168SOL    HW1 1403   3.968   3.680   1.741
  168SOL    HW2 1404   4.015   3.607   1.603
  169SOL     OW 1405   4.602   1.912   1.117
  169SOL    HW1 1406   4.581   1.956   1.205
  169SOL    HW2 1407   4.537   1.944   1.048
  170SOL     OW 1408   6.454   5.335   1.591
  170SOL    HW1 1409   6.397   5.410   1.623
  170SOL    HW2 1410   6.510   5.367   1.514
  171SOL     OW 1411   3.493   3.251   0.865
  171SOL    HW1 1412   3.423   3.181   0.848
  171SOL    HW2 1413   3.560   3.216   0.931
  172SOL     OW 1414   0.806   1.958   6.502
  172SOL    HW1 1415   0.783   1.952   6.405
  172SOL    HW2 1416   0.772   1.876   6.549
  173SOL     OW 1417   6.066   1.406   3.944
  173SOL    HW1 1418   6.139   1.446   3.888
  173SOL    HW2 1419   6.003   1.478   3.973
  174SOL     OW 1420   5.566   4.298   4.596
  174SOL    HW1 1421   5.528   4.291   4.504
  174SOL    HW2 1422   5.620   4.381   4.605
  175SOL     OW 1423   0.382   0.247   2.750
  175SOL    HW1 1424   0.345   0.194   2.827
  175SOL    HW2 1425   0.306   0.282   2.695
  176SOL     OW 1426   5.862   3.849   1.883
  176SOL    HW1 1427   5.878   3.750   1.877
  176SOL    HW2 1428   5.908   3.895   1.807
  177SOL     OW 1429   5.920   2.058   3.720
  177SOL    HW1 1430   5.895   2.152   3.740
  177SOL    HW2 1431   5.965   2.018   3.800
  178SOL     OW 1432   2.818   5.997   4.506
  178SOL    HW1 1433   2.741   6.037   4.457
  178SOL    HW2 1434   2.792   5.906   4.540
  179SOL     OW 1435   3.384   4.261   1.365
  179SOL    HW1 1436   3.350   4.167   1.359
  179SOL    HW2 1437   3.347   4.305   1.447
  180SOL     OW 1438   4.411   1.040   0.102
  180SOL    HW1 1439   4.410   1.105   0.026
  180SOL    HW2 1440   4.466   1.077   0.176
  181SOL     OW 1441   3.686   2.198   5.708
  181SOL    HW1 1442   3.779   2.182   5.740
  181SOL    HW2 1443   3.686   2.265   5.634
  182SOL     OW 1444   3.124   2.702   6.097
  182SOL    HW1 1445   3.131   2.632   6.026
  182SOL    HW2 1446   3.214   2.739   6.117
  183SOL     OW 1447   3.121   0.375   3.263
  183SOL    HW1 1448   3.219   0.392   3.270
  183SOL    HW2 1449   3.105   0.296   3.203
  184SOL     OW 1450   4.982   5.667   3.891
  184SOL    HW1 1451   4.938   5.687   3.803
  184SOL    HW2 1452   5.021   5.575   3.888
  185SOL     OW 1453   6.770   0.429   4.731
  185SOL    HW1 1454   6.737   0.335   4.721
  185SOL    HW2 1455   6.849   0.443   4.671
  186SOL     OW 1456   3.941   5.880   4.822
  186SOL    HW1 1457   3.853   5.893   4.869
  186SOL    HW2 1458   4.003   5.954   4.848
  187SOL     OW 1459   4.014   6.253   1.357
  187SOL    HW1 1460   3.973   6.344   1.359
  187SOL    HW2 1461   4.107   6.260   1.322
  188SOL     OW 1462   1.635   2.735   3.029
  188SOL    HW1 1463   1.610   2.831   3.019
  188SOL    HW2 1464   1.551   2.680   3.036
  189SOL     OW 1465   5.516   5.084   5.573
  189SOL    HW1 1466   5.423   5.074   5.610
  189SOL    HW2 1467   5.554   4.993   5.555
  190SOL     OW 1468   5.944   0.207   0.309
  190SOL    HW1 1469   5.954   0.262   0.226
  190SOL    HW2 1470   5.959   0.265   0.389
  191SOL     OW 1471   0.308   1.175   5.547
  191SOL    HW1 1472   0.355   1.246   5.600
  191SOL    HW2 1473   0.226   1.214   5.504
  192SOL     OW 1474   0.382   5.416   1.142
  192SOL    HW1 1475   0.323   5.492   1.168
  192SOL    HW2 1476   0.358   5.386   1.049
  193SOL     OW 1477   2.591   6.382   0.449
  193SOL    HW1 1478   2.525   6.326   0.500
  193SOL    HW2 1479   2.557   6.475   0.442
  194SOL     OW 1480   4.054   6.107   2.186
  194SOL    HW1 1481   4.128   6.043   2.165
  194SOL    HW2 1482   3.977   6.056   2.224
  195SOL     OW 1483   3.588   1.117   1.400
  195SOL    HW1 1484   3.620   1.064   1.478
  195SOL    HW2 1485   3.594   1.061   1.317
  196SOL     OW 1486   3.148   2.172   0.559
  196SOL    HW1 1487   3.145   2.264   0.596
  196SOL    HW2 1488   3.222   2.121   0.603
  197SOL     OW 1489   1.697   6.217   0.068
  197SOL    HW1 1490   1.624   6.277   0.036
  197SOL    HW2 1491   1.748   6.263   0.142
  198SOL     OW 1492   4.085   6.991   6.862
  198SOL    HW1 1493   4.169   6.991   6.916
  198SOL    HW2 1494   4.046   0.060   6.860
  199SOL     OW 1495   0.655   0.302   2.800
  199SOL    HW1 1496   0.566   0.262   2.780
  199SOL    HW2 1497   0.665   0.389   2.752
  200SOL     OW 1498   0.765   4.330   3.027
  200SOL    HW1 1499   0.767   4.409   3.089
  200SOL    HW2 1500   0.746   4.247   3.079
  201SOL     OW 1501   5.001   1.176   6.362
  201SOL    HW1 1502   4.942   1.234   6.305
  201SOL    HW2 1503   4.978   1.080   6.347
  202SOL     OW 1504   3.604   1.114   2.647
  202SOL    HW1 1505   3.597   1.189   2.713
  202SOL    HW2 1506   3.551   1.137   2.565
  203SOL     OW 1507   5.706   2.692   0.049
  203SOL    HW1 1508   5.673   2.671   6.981
  203SOL    HW2 1509   5.629   2.691   0.113
  204SOL     OW 1510   2.735   6.101   1.630
  204SOL    HW1 1511   2.698   6.009   1.626
  204SOL    HW2 1512   2.692   6.151   1.706
  205SOL     OW 1513   5.889   0.976   0.570
  205SOL    HW1 1514   5.824   1.016   0.505
  205SOL    HW2 1515   5.895   1.033   0.652
  206SOL     OW 1516   0.377   4.768   1.910
  206SOL    HW1 1517   0.410   4.696   1.972
  206SOL    HW2 1518   0.455   4.813   1.867
  207SOL     OW 1519   4.726   1.206   5.393
  207SOL    HW1 1520   4.662   1.201   5.317
  207SOL    HW2 1521   4.730   1.300   5.427
  208SOL     OW 1522   3.457   4.831   6.019
  208SOL    HW1 1523   3.416   4.896   5.955
  208SOL    HW2 1524   3.433   4.738   5.990
  209SOL     OW 1525   6.930   5.046   5.782
  209SOL    HW1 1526   6.940   5.069   5.685
  209SOL    HW2 1527   6.844   4.999   5.797
  210SOL     OW 1528   3.958   2.185   2.222
  210SOL    HW1 1529   4.039   2.244   2.222
  210SOL    HW2 1530   3.893   2.218   2.153
  211SOL     OW 1531   1.066   2.004   1.880
  211SOL    HW1 1532   1.017   2.025   1.796
  211SOL    HW2 1533   1.127   1.926   1.864
  212SOL     OW 1534   0.526   4.858   4.345
  212SOL    HW1 1535   0.438   4.811   4.345
  212SOL    HW2 1536   0.530   4.921   4.267
  213SOL     OW 1537   3.960   2.754   6.723
  213SOL    HW1 1538   3.984   2.795   6.811
  213SOL    HW2 1539   3.988   2.658   6.723
  214SOL     OW 1540   1.280   6.629   2.863
  214SOL    HW1 1541   1.366   6.648   2.816
  214SOL    HW2 1542   1.256   6.532   2.851
  215SOL     OW 1543   3.502   3.530   2.682
  215SOL    HW1 1544   3.545   3.450   2.724
  215SOL    HW2 1545   3.444   3.500   2.606
  216SOL     OW 1546   1.582   6.245   5.863
  216SOL    HW1 1547   1.557   6.324   5.918
  216SOL    HW2 1548   1.600   6.167   5.922
  217SOL     OW 1549   6.849   2.803   3.852
  217SOL    HW1 1550   6.944   2.806   3.821
  217SOL    HW2 1551   6.822   2.707   3.866
  218SOL     OW 1552   1.757   3.706   5.342
  218SOL    HW1 1553   1.760   3.805   5.328
  218SOL    HW2 1554   1.721   3.687   5.433
  219SOL     OW 1555   4.386   5.406   0.708
  219SOL    HW1 1556   4.308   5.385   0.767
  219SOL    HW2 1557   4.459   5.340   0.724
  220SOL     OW 1558   1.940   4.406   1.132
  220SOL    HW1 1559   1.988   4.474   1.075
  220SOL    HW2 1560   1.921   4.446   1.221
  221SOL     OW 1561   6.775   2.462   3.893
  221SOL    HW1 1562   6.689   2.449   3.844
  221SOL    HW2 1563   6.755   2.491   3.987
  222SOL     OW 1564   1.122   6.398   4.886
  222SOL    HW1 1565   1.097   6.465   4.816
  222SOL    HW2 1566   1.049   6.331   4.894
  223SOL     OW 1567   5.749   4.008   2.266
  223SOL    HW1 1568   5.710   4.049   2.184
  223SOL    HW2 1569   5.698   4.037   2.346
  224SOL     OW 1570   3.585   2.028   2.115
  224SOL    HW1 1571   3.520   2.053   2.043
  224SOL    HW2 1572   3.660   2.093   2.116
  225SOL     OW 1573   0.561   0.440   1.014
  225SOL    HW1 1574   0.565   0.351   0.967
  225SOL    HW2 1575   0.608   0.432   1.102
  226SOL     OW 1576   0.327   5.265   1.457
  226SOL    HW1 1577   0.382   5.348   1.452
  226SOL    HW2 1578   0.382   5.186   1.428
  227SOL     OW 1579   1.743   2.750   3.299
  227SOL    HW1 1580   1.734   2.705   3.210
  227SOL    HW2 1581   1.834   2.790   3.307
  228SOL     OW 1582   3.853   6.929   2.828
  228SOL    HW1 1583   3.859   7.017   2.875
  228SOL    HW2 1584   3.916   6.864   2.871
  229SOL     OW 1585   6.381   5.736   3.104
  229SOL    HW1 1586   6.479   5.727   3.085
  229SOL    HW2 1587   6.356   5.833   3.104
  230SOL     OW 1588   1.504   4.255   5.389
  230SOL    HW1 1589   1.446   4.336   5.389
  230SOL    HW2 1590   1.447   4.174   5.402
  231SOL     OW 1591   0.538   1.979   0.099
  231SOL    HW1 1592   0.443   1.986   0.066
  231SOL    HW2 1593   0.545   2.024   0.188
  232SOL     OW 1594   2.036   4.810   6.612
  232SOL    HW1 1595   2.103   4.738   6.595
  232SOL    HW2 1596   1.953   4.792   6.559
  233SOL     OW 1597   3.327   1.108   6.071
  233SOL    HW1 1598   3.258   1.163   6.117
  233SOL    HW2 1599   3.379   1.166   6.008
  234SOL     OW 1600   3.003   5.644   0.119
  234SOL    HW1 1601   3.078   5.707   0.098
  234SOL    HW2 1602   2.915   5.689   0.103
  235SOL     OW 1603   3.722   3.034   4.320
  235SOL    HW1 1604   3.811   3.062   4.354
  235SOL    HW2 1605   3.674   3.114   4.284
  236SOL     OW 1606   6.962   1.870   5.388
  236SOL    HW1 1607   0.037   1.869   5.405
  236SOL    HW2 1608   6.918   1.930   5.455
  237SOL     OW 1609   0.066   6.691   1.919
  237SOL    HW1 1610   6.995   6.700   1.949
  237SOL    HW2 1611   0.127   6.696   1.997
  238SOL     OW 1612   6.837   2.242   2.243
  238SOL    HW1 1613   6.904   2.181   2.200
  238SOL    HW2 1614   6.838   2.330   2.195
  239SOL     OW 1615   0.524   5.444   0.712
  239SOL    HW1 1616   0.598   5.383   0.737
  239SOL    HW2 1617   0.551   5.498   0.632
  240SOL     OW 1618   6.745   3.304   5.196
  240SOL    HW1 1619   6.730   3.288   5.294
  240SOL    HW2 1620   6.745   3.402   5.177
  241SOL     OW 1621   6.329   1.546   3.843
  241SOL    HW1 1622   6.402   1.551   3.775
  241SOL    HW2 1623   6.294   1.638   3.861
  242SOL     OW 1624   1.982   2.610   3.467
  242SOL    HW1 1625   1.923   2.650   3.538
  242SOL    HW2 1626   1.993   2.676   3.392
  243SOL     OW 1627   4.331   0.813   5.518
  243SOL    HW1 1628   4.358   0.854   5.430
  243SOL    HW2 1629   4.246   0.855   5.550
  244SOL     OW 1630   6.658   0.437   5.819
  244SOL    HW1 1631   6.726   0.443   5.892
  244SOL    HW2 1632   6.702   0.445   5.730
  245SOL     OW 1633   5.415   2.553   3.573
  245SOL    HW1 1634   5.357   2.590   3.501
  245SOL    HW2 1635   5.495   2.507   3.533
  246SOL     OW 1636   4.865   3.449   3.903
  246SOL    HW1 1637   4.869   3.528   3.842
  246SOL    HW2 1638   4.952   3.438   3.950
  247SOL     OW 1639   3.315   0.588   4.010
  247SOL    HW1 1640   3.388   0.656   4.003
  247SOL    HW2 1641   3.265   0.585   3.923
  248SOL     OW 1642   6.137   1.785   2.077
  248SOL    HW1 1643   6.135   1.877   2.039
  248SOL    HW2 1644   6.222   1.739   2.050
  249SOL     OW 1645   2.394   6.356   3.862
  249SOL    HW1 1646   2.453   6.411   3.803
  249SOL    HW2 1647   2.433   6.265   3.873
  250SOL     OW 1648   5.273   3.218   6.401
  250SOL    HW1 1649   5.364   3.197   6.368
  250SOL    HW2 1650   5.269   3.313   6.432
  251SOL     OW 1651   1.896   2.210   0.900
  251SOL    HW1 1652   1.847   2.126   0.926
  251SOL    HW2 1653   1.857   2.287   0.950
  252SOL     OW 1654   0.274   1.420   0.176
  252SOL    HW1 1655   0.185   1.398   0.135
  252SOL    HW2 1656   0.266   1.416   0.276
  253SOL     OW 1657   1.599   4.038   5.147
  253SOL    HW1 1658   1.545   4.013   5.227
  253SOL    HW2 1659   1.696   4.042   5.172
  254SOL     OW 1660   5.310   3.770   5.503
  254SOL    HW1 1661   5.251   3.704   5.549
  254SOL    HW2 1662   5.404   3.734   5.500
  255SOL     OW 1663   3.662   2.012   3.332
  255SOL    HW1 1664   3.644   1.917   3.357
  255SOL    HW2 1665   3.585   2.049   3.280
  256SOL     OW 1666   6.504   5.684   0.425
  256SOL    HW1 1667   6.543   5.765   0.468
  256SOL    HW2 1668   6.480   5.704   0.330
  257SOL     OW 1669   3.268   5.228   6.524
  257SOL    HW1 1670   3.286   5.326   6.521
  257SOL    HW2 1671   3.209   5.202   6.448
  258SOL     OW 1672   5.187   4.073   4.231
  258SOL    HW1 1673   5.232   4.009   4.293
  258SOL    HW2 1674   5.252   4.144   4.204
  259SOL     OW 1675   1.058   2.334   3.285
  259SOL    HW1 1676   1.022   2.409   3.230
  259SOL    HW2 1677   1.038   2.351   3.381
  260SOL     OW 1678   6.566   6.737   5.628
  260SOL    HW1 1679   6.557   6.782   5.716
  260SOL    HW2 1680   6.545   6.640   5.637
  261SOL     OW 1681   1.062   1.617   2.802
  261SOL    HW1 1682   1.019   1.701   2.835
  261SOL    HW2 1683   1.147   1.602   2.851
  262SOL     OW 1684   1.904   5.214   1.784
  262SOL    HW1 1685   1.950   5.198   1.871
  262SOL    HW2 1686   1.813   5.252   1.801
  263SOL     OW 1687   6.710   1.952   5.276
  263SOL    HW1 1688   6.676   1.932   5.183
  263SOL    HW2 1689   6.807   1.931   5.281
  264SOL     OW 1690   2.818   4.061   5.816
  264SOL    HW1 1691   2.846   4.106   5.732
  264SOL    HW2 1692   2.814   3.962   5.801
  265SOL     OW 1693   5.513   5.804   5.532
  265SOL    HW1 1694   5.584   5.737   5.554
  265SOL    HW2 1695   5.451   5.766   5.464
  266SOL     OW 1696   3.337   2.554   6.664
  266SOL    HW1 1697   3.372   2.629   6.722
  266SOL    HW2 1698   3.255   2.516   6.705
  267SOL     OW 1699   1.307   1.369   5.927
  267SOL    HW1 1700   1.359   1.283   5.922
  267SOL    HW2 1701   1.367   1.443   5.956
  268SOL     OW 1702   3.433   5.884   3.396
  268SOL    HW1 1703   3.440   5.926   3.305
  268SOL    HW2 1704   3.490   5.934   3.461
  269SOL     OW 1705   1.766   1.338   5.055
  269SOL    HW1 1706   1.834   1.345   5.127
  269SOL    HW2 1707   1.680   1.380   5.085
  270SOL     OW 1708   5.392   6.713   4.714
  270SOL    HW1 1709   5.363   6.621   4.688
  270SOL    HW2 1710   5.433   6.710   4.805
  271SOL     OW 1711   1.144   1.832   0.068
  271SOL    HW1 1712   1.081   1.765   0.029
  271SOL    HW2 1713   1.170   1.899   7.021
  272SOL     OW 1714   5.154   5.981   1.975
  272SOL    HW1 1715   5.249   6.002   1.951
  272SOL    HW2 1716   5.142   5.991   2.074
  273SOL     OW 1717   2.920   6.579   4.497
  273SOL    HW1 1718   2.948   6.652   4.560
  273SOL    HW2 1719   2.979   6.500   4.509
  274SOL     OW 1720   5.811   1.839   0.922
  274SOL    HW1 1721   5.856   1.758   0.886
  274SOL    HW2 1722   5.778   1.820   1.015
  275SOL     OW 1723   5.447   5.962   5.743
  275SOL    HW1 1724   5.404   6.042   5.701
  275SOL    HW2 1725   5.469   5.895   5.671
  276SOL     OW 1726   0.236   6.475   3.624
  276SOL    HW1 1727   0.236   6.397   3.562
  276SOL    HW2 1728   0.159   6.467   3.688
  277SOL     OW 1729   4.884   2.265   5.249
  277SOL    HW1 1730   4.919   2.355   5.275
  277SOL    HW2 1731   4.885   2.204   5.329
  278SOL     OW 1732   5.773   3.594   3.209
  278SOL    HW1 1733   5.823   3.647   3.278
  278SOL    HW2 1734   5.837   3.532   3.163
  279SOL     OW 1735   0.452   3.645   4.063
  279SOL    HW1 1736   0.483   3.625   4.156
  279SOL    HW2 1737   0.375   3.585   4.041
  280SOL     OW 1738   3.571   1.104   3.414
  280SOL    HW1 1739   3.607   1.014   3.388
  280SOL    HW2 1740   3.632   1.175   3.379
  281SOL     OW 1741   5.614   6.482   4.725
  281SOL    HW1 1742   5.693   6.541   4.707
  281SOL    HW2 1743   5.645   6.388   4.735
  282SOL     OW 1744   1.154   2.295   0.402
  282SOL    HW1 1745   1.131   2.390   0.382
  282SOL    HW2 1746   1.085   2.235   0.364
  283SOL     OW 1747   5.280   2.927   4.666
  283SOL    HW1 1748   5.304   3.019   4.698
  283SOL    HW2 1749   5.355   2.864   4.685
  284SOL     OW 1750   4.939   5.784   2.748
  284SOL    HW1 1751   4.960   5.699   2.700
  284SOL    HW2 1752   4.886   5.844   2.688
  285SOL     OW 1753   4.224   0.604   5.878
  285SOL    HW1 1754   4.212   0.609   5.779
  285SOL    HW2 1755   4.174   0.525   5.914
  286SOL     OW 1756   2.574   5.004   5.540
  286SOL    HW1 1757   2.665   4.970   5.564
  286SOL    HW2 1758   2.520   4.929   5.502
  287SOL     OW 1759   3.175   0.206   6.600
  287SOL    HW1 1760   3.190   0.248   6.689
  287SOL    HW2 1761   3.107   0.134   6.608
  288SOL     OW 1762   4.558   1.400   0.822
  288SOL    HW1 1763   4.562   1.419   0.724
  288SOL    HW2 1764   4.598   1.477   0.872
  289SOL     OW 1765   6.549   5.448   3.822
  289SOL    HW1 1766   6.463   5.488   3.793
  289SOL    HW2 1767   6.625   5.493   3.776
  290SOL     OW 1768   3.851   0.944   6.381
  290SOL    HW1 1769   3.873   0.967   6.286
  290SOL    HW2 1770   3.930   0.964   6.439
  291SOL     OW 1771   3.684   0.417   5.694
  291SOL    HW1 1772   3.658   0.328   5.657
  291SOL    HW2 1773   3.615   0.448   5.759
  292SOL     OW 1774   4.785   0.597   4.074
  292SOL    HW1 1775   4.864   0.640   4.120
  292SOL    HW2 1776   4.707   0.597   4.136
  293SOL     OW 1777   5.799   6.719   2.530
  293SOL    HW1 1778   5.729   6.757   2.590
  293SOL    HW2 1779   5.824   6.627   2.561
  294SOL     OW 1780   5.751   1.174   6.180
  294SOL    HW1 1781   5.668   1.181   6.235
  294SOL    HW2 1782   5.821   1.235   6.217
  295SOL     OW 1783   1.355   0.656   4.655
  295SOL    HW1 1784   1.349   0.745   4.701
  295SOL    HW2 1785   1.270   0.638   4.607
  296SOL     OW 1786   0.667   2.426   1.256
  296SOL    HW1 1787   0.689   2.333   1.284
  296SOL    HW2 1788   0.569   2.433   1.237
  297SOL     OW 1789   5.166   3.677   3.479
  297SOL    HW1 1790   5.088   3.616   3.464
  297SOL    HW2 1791   5.159   3.756   3.418
  298SOL     OW 1792   4.741   0.660   6.296
  298SOL    HW1 1793   4.678   0.715   6.351
  298SOL    HW2 1794   4.740   0.693   6.202
  299SOL     OW 1795   0.785   0.501   0.198
  299SOL    HW1 1796   0.843   0.544   0.129
  299SOL    HW2 1797   0.842   0.445   0.258
  300SOL     OW 1798   3.918   0.121   3.655
  300SOL    HW1 1799   3.996   0.094   3.599
  300SOL    HW2 1800   3.950   0.174   3.734
  301SOL     OW 1801   6.682   5.008   0.333
  301SOL    HW1 1802   6.699   5.073   0.258
  301SOL    HW2 1803   6.604   5.040   0.387
  302SOL     OW 1804   6.824   4.994   2.435
  302SOL    HW1 1805   6.884   5.066   2.470
  302SOL    HW2 1806   6.869   4.947   2.359
  303SOL     OW 1807   5.421   5.875   3.429
  303SOL    HW1 1808   5.371   5.790   3.410
  303SOL    HW2 1809   5.510   5.872   3.385
  304SOL     OW 1810   2.789   6.064   4.918
  304SOL    HW1 1811   2.739   6.034   4.838
  304SOL    HW2 1812   2.874   6.011   4.926
  305SOL     OW 1813   1.199   2.598   1.925
  305SOL    HW1 1814   1.142   2.520   1.953
  305SOL    HW2 1815   1.167   2.632   1.837
  306SOL     OW 1816   0.360   0.205   3.477
  306SOL    HW1 1817   0.429   0.182   3.545
  306SOL    HW2 1818   0.347   0.304   3.475
  307SOL     OW 1819   3.577   3.271   4.261
  307SOL    HW1 1820   3.579   3.332   4.339
  307SOL    HW2 1821   3.589   3.323   4.177
  308SOL     OW 1822   6.146   1.992   3.079
  308SOL    HW1 1823   6.125   2.087   3.058
  308SOL    HW2 1824   6.245   1.977   3.070
  309SOL     OW 1825   1.761   5.708   6.205
  309SOL    HW1 1826   1.839   5.729   6.145
  309SOL    HW2 1827   1.793   5.659   6.286
  310SOL     OW 1828   5.297   6.556   5.243
  310SOL    HW1 1829   5.260   6.591   5.329
  310SOL    HW2 1830   5.301   6.630   5.176
  311SOL     OW 1831   1.390   5.692   2.449
  311SOL    HW1 1832   1.417   5.597   2.464
  311SOL    HW2 1833   1.392   5.742   2.536
  312SOL     OW 1834   3.440   0.283   3.662
  312SOL    HW1 1835   3.365   0.278   3.597
  312SOL    HW2 1836   3.418   0.227   3.742
  313SOL     OW 1837   3.290   3.917   2.830
  313SOL    HW1 1838   3.286   4.003   2.880
  313SOL    HW2 1839   3.200   3.873   2.831
  314SOL     OW 1840   3.309   5.481   6.367
  314SOL    HW1 1841   3.228   5.540   6.369
  314SOL    HW2 1842   3.380   5.520   6.426
  315SOL     OW 1843   6.272   0.973   4.483
  315SOL    HW1 1844   6.178   0.971   4.447
  315SOL    HW2 1845   6.332   1.016   4.416
  316SOL     OW 1846   4.376   0.871   6.223
  316SOL    HW1 1847   4.440   0.853   6.298
  316SOL    HW2 1848   4.399   0.813   6.145
  317SOL     OW 1849   1.318   1.799   0.911
  317SOL    HW1 1850   1.263   1.723   0.945
  317SOL    HW2 1851   1.369   1.839   0.987
  318SOL     OW 1852   0.544   0.145   5.350
  318SOL    HW1 1853   0.444   0.157   5.346
  318SOL    HW2 1854   0.568   0.097   5.434
  319SOL     OW 1855   0.759   1.250   3.223
  319SOL    HW1 1856   0.815   1.167   3.213
  319SOL    HW2 1857   0.662   1.226   3.215
  320SOL     OW 1858   5.832   2.009   6.333
  320SOL    HW1 1859   5.815   2.003   6.235
  320SOL    HW2 1860   5.751   1.977   6.383
  321SOL     OW 1861   4.676   2.806   0.714
  321SOL    HW1 1862   4.754   2.809   0.776
  321SOL    HW2 1863   4.593   2.835   0.762
  322SOL     OW 1864   2.972   3.093   6.503
  322SOL    HW1 1865   2.966   3.033   6.583
  322SOL    HW2 1866   2.910   3.060   6.432
  323SOL     OW 1867   1.906   3.844   2.157
  323SOL    HW1 1868   1.882   3.832   2.253
  323SOL    HW2 1869   1.958   3.764   2.125
  324SOL     OW 1870   0.893   0.170   2.911
  324SOL    HW1 1871   0.972   0.229   2.899
  324SOL    HW2 1872   0.811   0.216   2.876
  325SOL     OW 1873   6.958   3.951   1.123
  325SOL    HW1 1874   6.983   3.867   1.172
  325SOL    HW2 1875   6.895   4.005   1.180
  326SOL     OW 1876   0.875   6.252   6.614
  326SOL    HW1 1877   0.856   6.169   6.561
  326SOL    HW2 1878   0.911   6.323   6.554
  327SOL     OW 1879   5.337   5.631   5.049
  327SOL    HW1 1880   5.384   5.638   4.961
  327SOL    HW2 1881   5.342   5.537   5.083
  328SOL     OW 1882   1.493   3.970   3.214
  328SOL    HW1 1883   1.537   3.891   3.173
  328SOL    HW2 1884   1.555   4.013   3.279
  329SOL     OW 1885   3.044   2.841   1.770
  329SOL    HW1 1886   3.118   2.902   1.741
  329SOL    HW2 1887   3.060   2.749   1.732
  330SOL     OW 1888   2.422   4.849   0.814
  330SOL    HW1 1889   2.452   4.944   0.819
  330SOL    HW2 1890   2.378   4.823   0.900
  331SOL     OW 1891   6.431   5.368   6.313
  331SOL    HW1 1892   6.462   5.449   6.264
  331SOL    HW2 1893   6.510   5.316   6.346
  332SOL     OW 1894   5.753   2.583   3.199
  332SOL    HW1 1895   5.841   2.606   3.242
  332SOL    HW2 1896   5.769   2.519   3.124
  333SOL     OW 1897   3.575   0.963   5.324
  333SOL    HW1 1898   3.554   0.904   5.247
  333SOL    HW2 1899   3.491   1.008   5.356
  334SOL     OW 1900   4.144   3.595   3.409
  334SOL    HW1 1901   4.090   3.559   3.333
  334SOL    HW2 1902   4.241   3.579   3.391
  335SOL     OW 1903   4.355   1.742   1.309
  335SOL    HW1 1904   4.399   1.694   1.233
  335SOL    HW2 1905   4.286   1.804   1.273
  336SOL     OW 1906   2.860   1.584   4.242
  336SOL    HW1 1907   2.954   1.586   4.277
  336SOL    HW2 1908   2.831   1.677   4.220
  337SOL     OW 1909   1.476   0.919   5.382
  337SOL    HW1 1910   1.378   0.901   5.374
  337SOL    HW2 1911   1.509   0.960   5.297
  338SOL     OW 1912   4.357   1.653   1.582
  338SOL    HW1 1913   4.347   1.690   1.489
  338SOL    HW2 1914   4.454   1.635   1.600
  339SOL     OW 1915   4.224   6.366   5.684
  339SOL    HW1 1916   4.205   6.269   5.696
  339SOL    HW2 1917   4.239   6.385   5.588
  340SOL     OW 1918   5.063   1.848   4.388
  340SOL    HW1 1919   5.018   1.920   4.335
  340SOL    HW2 1920   5.087   1.772   4.328
  341SOL     OW 1921   6.453   6.183   2.924
  341SOL    HW1 1922   6.430   6.280   2.916
  341SOL    HW2 1923   6.552   6.171   2.922
  342SOL     OW 1924   4.839   1.910   2.735
  342SOL    HW1 1925   4.861   1.981   2.668
  342SOL    HW2 1926   4.849   1.947   2.827
  343SOL     OW 1927   6.798   6.084   2.709
  343SOL    HW1 1928   6.790   6.063   2.807
  343SOL    HW2 1929   6.708   6.083   2.667
  344SOL     OW 1930   0.573   1.933   0.659
  344SOL    HW1 1931   0.482   1.903   0.687
  344SOL    HW2 1932   0.576   2.033   0.654
  345SOL     OW 1933   6.684   3.095   4.460
  345SOL    HW1 1934   6.625   3.098   4.541
  345SOL    HW2 1935   6.761   3.157   4.473
  346SOL     OW 1936   2.131   6.568   3.490
  346SOL    HW1 1937   2.164   6.615   3.408
  346SOL    HW2 1938   2.056   6.620   3.530
  347SOL     OW 1939   2.182   4.831   0.331
  347SOL    HW1 1940   2.123   4.855   0.408
  347SOL    HW2 1941   2.167   4.735   0.307
  348SOL     OW 1942   4.691   5.478   1.707
  348SOL    HW1 1943   4.773   5.455   1.655
  348SOL    HW2 1944   4.641   5.394   1.730
  349SOL     OW 1945   5.741   4.333   1.456
  349SOL    HW1 1946   5.817   4.332   1.391
  349SOL    HW2 1947   5.693   4.421   1.450
  350SOL     OW 1948   3.539   2.737   0.416
  350SOL    HW1 1949   3.619   2.793   0.395
  350SOL    HW2 1950   3.488   2.718   0.332
  351SOL     OW 1951   3.309   4.791   1.215
  351SOL    HW1 1952   3.315   4.692   1.204
  351SOL    HW2 1953   3.239   4.828   1.154
  352SOL     OW 1954   4.058   0.084   2.446
  352SOL    HW1 1955   4.085   7.013   2.459
  352SOL    HW2 1956   3.970   0.087   2.399
  353SOL     OW 1957   1.653   6.947   6.146
  353SOL    HW1 1958   1.713   6.892   6.088
  353SOL    HW2 1959   1.702   0.005   6.177
  354SOL     OW 1960   0.272   2.299   0.193
  354SOL    HW1 1961   0.347   2.364   0.182
  354SOL    HW2 1962   0.187   2.350   0.207
  355SOL     OW 1963   1.318   1.716   2.870
  355SOL    HW1 1964   1.392   1.722   2.937
  355SOL    HW2 1965   1.331   1.785   2.800
  356SOL     OW 1966   1.704   0.660   5.605
  356SOL    HW1 1967   1.645   0.634   5.529
  356SOL    HW2 1968   1.650   0.662   5.690
  357SOL     OW 1969   5.150   0.094   5.110
  357SOL    HW1 1970   5.141   0.055   5.018
  357SOL    HW2 1971   5.187   0.187   5.103
  358SOL     OW 1972   3.651   5.886   6.571
  358SOL    HW1 1973   3.586   5.835   6.628
  358SOL    HW2 1974   3.649   5.852   6.478
  359SOL     OW 1975   2.334   2.105   2.538
  359SOL    HW1 1976   2.367   2.141   2.451
  359SOL    HW2 1977   2.291   2.016   2.522
  360SOL     OW 1978   0.771   4.547   4.142
  360SOL    HW1 1979   0.696   4.569   4.203
  360SOL    HW2 1980   0.762   4.453   4.111
  361SOL     OW 1981   6.481   2.127   2.832
  361SOL    HW1 1982   6.544   2.202   2.847
  361SOL    HW2 1983   6.496   2.056   2.901
  362SOL     OW 1984   3.633   4.079   0.880
  362SOL    HW1 1985   3.561   4.053   0.944
  362SOL    HW2 1986   3.683   3.996   0.852
  363SOL     OW 1987   5.225   5.686   1.639
  363SOL    HW1 1988   5.167   5.738   1.576
  363SOL    HW2 1989   5.252   5.600   1.596
  364SOL     OW 1990   0.989   6.430   6.448
  364SOL    HW1 1991   0.957   6.458   6.357
  364SOL    HW2 1992   1.073   6.480   6.470
  365SOL     OW 1993   4.639   1.695   3.415
  365SOL    HW1 1994   4.604   1.718   3.505
  365SOL    HW2 1995   4.581   1.737   3.345
  366SOL     OW 1996   5.284   1.458   0.105
  366SOL    HW1 1997   5.264   1.497   0.015
  366SOL    HW2 1998   5.350   1.517   0.152
  367SOL     OW 1999   5.456   1.533   5.813
  367SOL    HW1 2000   5.386   1.598   5.783
  367SOL    HW2 2001   5.457   1.454   5.753
  368SOL     OW 2002   6.876   1.985   5.624
  368SOL    HW1 2003   6.905   2.079   5.640
  368SOL    HW2 2004   6.784   1.985   5.583
  369SOL     OW 2005   6.895   3.429   2.032
  369SOL    HW1 2006   6.813   3.476   2.000
  369SOL    HW2 2007   6.878   3.330   2.034
  370SOL     OW 2008   1.094   3.074   3.919
  370SOL    HW1 2009   1.184   3.074   3.876
  370SOL    HW2 2010   1.104   3.075   4.018
  371SOL     OW 2011   0.995   4.716   6.971
  371SOL    HW1 2012   1.058   4.638   6.974
  371SOL    HW2 2013   1.041   4.794   6.928
  372SOL     OW 2014   3.748   6.187   6.110
  372SOL    HW1 2015   3.675   6.252   6.089
  372SOL    HW2 2016   3.724   6.134   6.191
  373SOL     OW 2017   5.678   5.365   3.713
  373SOL    HW1 2018   5.636   5.430   3.776
  373SOL    HW2 2019   5.732   5.414   3.645
  374SOL     OW 2020   2.779   1.705   2.894
  374SOL    HW1 2021   2.775   1.770   2.818
  374SOL    HW2 2022   2.807   1.615   2.859
  375SOL     OW 2023   1.229   5.065   4.590
  375SOL    HW1 2024   1.274   5.077   4.501
  375SOL    HW2 2025   1.230   4.968   4.615
  376SOL     OW 2026   2.985   0.949   3.885
  376SOL    HW1 2027   3.035   1.031   3.856
  376SOL    HW2 2028   2.957   0.897   3.805
  377SOL     OW 2029   0.873   1.775   6.925
  377SOL    HW1 2030   0.830   1.687   6.909
  377SOL    HW2 2031   0.899   1.816   6.837
  378SOL     OW 2032   4.178   0.943   2.288
  378SOL    HW1 2033   4.167   0.995   2.373
  378SOL    HW2 2034   4.255   0.880   2.297
  379SOL     OW 2035   5.639   1.704   6.343
  379SOL    HW1 2036   5.734   1.673   6.345
  379SOL    HW2 2037   5.587   1.656   6.415
  380SOL     OW 2038   4.222   2.734   0.419
  380SOL    HW1 2039   4.126   2.756   0.430
  380SOL    HW2 2040   4.278   2.802   0.465
  381SOL     OW 2041   1.880   3.655   3.126
  381SOL    HW1 2042   1.962   3.687   3.078
  381SOL    HW2 2043   1.803   3.714   3.103
  382SOL     OW 2044   4.945   0.452   6.978
  382SOL    HW1 2045   4.875   0.514   7.015
  382SOL    HW2 2046   4.926   0.434   6.881
  383SOL     OW 2047   4.730   2.400   0.757
  383SOL    HW1 2048   4.674   2.407   0.676
  383SOL    HW2 2049   4.800   2.330   0.743
  384SOL     OW 2050   6.252   3.878   4.860
  384SOL    HW1 2051   6.218   3.873   4.766
  384SOL    HW2 2052   6.199   3.816   4.919
  385SOL     OW 2053   4.492   3.581   0.295
  385SOL    HW1 2054   4.570   3.587   0.357
  385SOL    HW2 2055   4.523   3.545   0.207
  386SOL     OW 2056   3.948   6.017   3.452
  386SOL    HW1 2057   3.898   6.062   3.377
  386SOL    HW2 2058   3.928   5.919   3.450
  387SOL     OW 2059   2.842   6.656   3.608
  387SOL    HW1 2060   2.783   6.602   3.668
  387SOL    HW2 2061   2.916   6.598   3.573
  388SOL     OW 2062   1.596   4.391   6.326
  388SOL    HW1 2063   1.602   4.291   6.331
  388SOL    HW2 2064   1.564   4.427   6.413
  389SOL     OW 2065   3.030   3.565   3.084
  389SOL    HW1 2066   3.092   3.561   3.162
  389SOL    HW2 2067   2.999   3.660   3.070
  390SOL     OW 2068   2.079   1.540   4.085
  390SOL    HW1 2069   2.162   1.513   4.036
  390SOL    HW2 2070   2.007   1.562   4.020
  391SOL     OW 2071   0.637   2.987   0.201
  391SOL    HW1 2072   0.631   2.940   0.113
  391SOL    HW2 2073   0.556   2.965   0.255
  392SOL     OW 2074   2.743   5.393   2.295
  392SOL    HW1 2075   2.711   5.305   2.332
  392SOL    HW2 2076   2.765   5.382   2.198
  393SOL     OW 2077   5.817   4.438   4.902
  393SOL    HW1 2078   5.732   4.394   4.930
  393SOL    HW2 2079   5.829   4.523   4.953
  394SOL     OW 2080   2.353   0.576   6.781
  394SOL    HW1 2081   2.363   0.574   6.881
  394SOL    HW2 2082   2.382   0.488   6.743
  395SOL     OW 2083   6.376   3.521   1.233
  395SOL    HW1 2084   6.417   3.611   1.221
  395SOL    HW2 2085   6.360   3.503   1.330
  396SOL     OW 2086   3.050   3.859   4.054
  396SOL    HW1 2087   3.113   3.794   4.012
  396SOL    HW2 2088   3.010   3.819   4.136
  397SOL     OW 2089   4.256   2.363   6.425
  397SOL    HW1 2090   4.218   2.360   6.332
  397SOL    HW2 2091   4.355   2.346   6.421
  398SOL     OW 2092   0.992   5.358   1.563
  398SOL    HW1 2093   1.061   5.313   1.507
  398SOL    HW2 2094   1.013   5.343   1.660
  399SOL     OW 2095   4.955   5.318   1.855
  399SOL    HW1 2096   4.884   5.299   1.923
  399SOL    HW2 2097   4.918   5.307   1.764
  400SOL     OW 2098   1.226   5.882   5.327
  400SOL    HW1 2099   1.194   5.890   5.421
  400SOL    HW2 2100   1.152   5.847   5.270
  401SOL     OW 2101   5.092   1.267   0.031
  401SOL    HW1 2102   5.017   1.208   0.062
  401SOL    HW2 2103   5.106   1.341   0.097
  402SOL     OW 2104   5.555   4.756   1.026
  402SOL    HW1 2105   5.523   4.669   0.987
  402SOL    HW2 2106   5.655   4.757   1.026
  403SOL     OW 2107   4.845   2.885   6.290
  403SOL    HW1 2108   4.919   2.921   6.346
  403SOL    HW2 2109   4.758   2.899   6.336
  404SOL     OW 2110   0.370   0.052   4.579
  404SOL    HW1 2111   0.307   6.999   4.569
  404SOL    HW2 2112   0.377   0.102   4.492
  405SOL     OW 2113   0.367   2.224   0.421
  405SOL    HW1 2114   0.340   2.251   0.329
  405SOL    HW2 2115   0.377   2.305   0.479
  406SOL     OW 2116   1.956   3.282   3.933
  406SOL    HW1 2117   1.986   3.349   4.001
  406SOL    HW2 2118   1.959   3.191   3.973
  407SOL     OW 2119   2.612   0.458   4.565
  407SOL    HW1 2120   2.519   0.473   4.532
  407SOL    HW2 2121   2.662   0.545   4.564
  408SOL     OW 2122   1.880   0.390   3.250
  408SOL    HW1 2123   1.928   0.316   3.202
  408SOL    HW2 2124   1.807   0.351   3.305
  409SOL     OW 2125   6.493   3.278   3.418
  409SOL    HW1 2126   6.553   3.209   3.377
  409SOL    HW2 2127   6.461   3.245   3.507
  410SOL     OW 2128   2.660   1.493   6.533
  410SOL    HW1 2129   2.661   1.541   6.620
  410SOL    HW2 2130   2.602   1.411   6.540
  411SOL     OW 2131   6.284   4.323   5.604
  411SOL    HW1 2132   6.198   4.272   5.613
  411SOL    HW2 2133   6.272   4.415   5.641
  412SOL     OW 2134   3.330   0.578   2.644
  412SOL    HW1 2135   3.295   0.528   2.564
  412SOL    HW2 2136   3.265   0.649   2.670
  413SOL     OW 2137   2.614   6.875   0.945
  413SOL    HW1 2138   2.565   6.946   0.997
  413SOL    HW2 2139   2.608   6.788   0.995
  414SOL     OW 2140   3.758   3.910   0.477
  414SOL    HW1 2141   3.756   3.850   0.557
  414SOL    HW2 2142   3.671   3.959   0.469
  415SOL     OW 2143   2.625   6.613   1.063
  415SOL    HW1 2144   2.701   6.589   1.124
  415SOL    HW2 2145   2.539   6.592   1.109
  416SOL     OW 2146   4.096   6.104   4.912
  416SOL    HW1 2147   4.071   6.170   4.842
  416SOL    HW2 2148   4.152   6.149   4.982
  417SOL     OW 2149   4.668   6.272   1.608
  417SOL    HW1 2150   4.704   6.359   1.572
  417SOL    HW2 2151   4.675   6.202   1.538
  418SOL     OW 2152   5.205   4.796   1.235
  418SOL    HW1 2153   5.155   4.726   1.286
  418SOL    HW2 2154   5.174   4.796   1.140
  419SOL     OW 2155   6.518   6.691   1.510
  419SOL    HW1 2156   6.491   6.598   1.534
  419SOL    HW2 2157   6.615   6.693   1.484
  420SOL     OW 2158   4.676   4.972   0.383
  420SOL    HW1 2159   4.766   5.005   0.412
  420SOL    HW2 2160   4.608   5.045   0.397
  421SOL     OW 2161   2.013   6.571   6.566
  421SOL    HW1 2162   2.042   6.664   6.589
  421SOL    HW2 2163   2.086   6.526   6.515
  422SOL     OW 2164   5.464   4.021   6.803
  422SOL    HW1 2165   5.405   4.097   6.777
  422SOL    HW2 2166   5.550   4.025   6.751
  423SOL     OW 2167   0.170   2.996   6.911
  423SOL    HW1 2168   0.235   2.991   6.835
  423SOL    HW2 2169   0.143   2.904   6.938
  424SOL     OW 2170   2.547   4.105   0.426
  424SOL    HW1 2171   2.527   4.198   0.458
  424SOL    HW2 2172   2.510   4.093   0.334
  425SOL     OW 2173   3.423   1.645   0.631
  425SOL    HW1 2174   3.519   1.647   0.659
  425SOL    HW2 2175   3.393   1.550   0.621
  426SOL     OW 2176   5.381   4.161   5.871
  426SOL    HW1 2177   5.286   4.135   5.857
  426SOL    HW2 2178   5.441   4.083   5.852
  427SOL     OW 2179   5.598   3.596   0.946
  427SOL    HW1 2180   5.670   3.646   0.898
  427SOL    HW2 2181   5.509   3.620   0.906
  428SOL     OW 2182   3.842   1.046   5.186
  428SOL    HW1 2183   3.876   1.020   5.095
  428SOL    HW2 2184   3.749   1.012   5.198
  429SOL     OW 2185   1.402   4.897   6.919
  429SOL    HW1 2186   1.397   4.993   6.946
  429SOL    HW2 2187   1.468   4.850   6.978
  430SOL     OW 2188   1.094   0.497   5.252
  430SOL    HW1 2189   0.995   0.487   5.264
  430SOL    HW2 2190   1.138   0.505   5.341
  431SOL     OW 2191   3.667   1.607   0.772
  431SOL    HW1 2192   3.739   1.672   0.798
  431SOL    HW2 2193   3.598   1.603   0.845
  432SOL     OW 2194   0.179   1.946   1.174
  432SOL    HW1 2195   0.178   1.884   1.252
  432SOL    HW2 2196   0.128   1.904   1.098
  433SOL     OW 2197   3.328   6.536   5.270
  433SOL    HW1 2198   3.250   6.554   5.330
  433SOL    HW2 2199   3.412   6.567   5.315
  434SOL     OW 2200   6.937   3.629   1.471
  434SOL    HW1 2201   6.909   3.709   1.524
  434SOL    HW2 2202   6.926   3.546   1.526
  435SOL     OW 2203   3.382   4.213   0.178
  435SOL    HW1 2204   3.332   4.172   0.255
  435SOL    HW2 2205   3.439   4.143   0.134
  436SOL     OW 2206   1.794   0.739   0.384
  436SOL    HW1 2207   1.717   0.773   0.438
  436SOL    HW2 2208   1.847   0.817   0.348
  437SOL     OW 2209   6.730   6.981   6.665
  437SOL    HW1 2210   6.680   6.998   6.750
  437SOL    HW2 2211   6.672   7.007   6.587
  438SOL     OW 2212   1.328   2.878   1.816
  438SOL    HW1 2213   1.319   2.846   1.910
  438SOL    HW2 2214   1.375   2.808   1.761
  439SOL     OW 2215   6.721   4.777   2.982
  439SOL    HW1 2216   6.784   4.706   2.949
  439SOL    HW2 2217   6.647   4.789   2.916
  440SOL     OW 2218   1.173   2.788   3.989
  440SOL    HW1 2219   1.138   2.880   3.968
  440SOL    HW2 2220   1.257   2.796   4.042
  441SOL     OW 2221   0.957   1.582   3.579
  441SOL    HW1 2222   0.966   1.676   3.546
  441SOL    HW2 2223   1.008   1.521   3.519
  442SOL     OW 2224   0.030   3.784   0.003
  442SOL    HW1 2225   0.080   3.856   0.051
  442SOL    HW2 2226   0.040   3.697   0.052
  443SOL     OW 2227   0.687   3.938   5.537
  443SOL    HW1 2228   0.686   3.894   5.446
  443SOL    HW2 2229   0.672   4.036   5.527
  444SOL     OW 2230   4.319   2.878   6.508
  444SOL    HW1 2231   4.300   2.785   6.475
  444SOL    HW2 2232   4.345   2.875   6.604
  445SOL     OW 2233   2.238   4.159   3.118
  445SOL    HW1 2234   2.236   4.090   3.046
  445SOL    HW2 2235   2.165   4.225   3.103
  446SOL     OW 2236   4.461   5.094   4.188
  446SOL    HW1 2237   4.439   5.105   4.091
  446SOL    HW2 2238   4.416   5.166   4.240
  447SOL     OW 2239   6.451   5.368   0.709
  447SOL    HW1 2240   6.541   5.358   0.750
  447SOL    HW2 2241   6.455   5.340   0.613
  448SOL     OW 2242   4.106   0.621   4.967
  448SOL    HW1 2243   4.155   0.684   5.027
  448SOL    HW2 2244   4.158   0.608   4.883
  449SOL     OW 2245   5.421   0.679   4.493
  449SOL    HW1 2246   5.452   0.635   4.578
  449SOL    HW2 2247   5.431   0.778   4.502
  450SOL     OW 2248   0.184   6.021   3.656
  450SOL    HW1 2249   0.247   6.061   3.723
  450SOL    HW2 2250   0.177   5.922   3.671
  451SOL     OW 2251   0.626   2.403   2.969
  451SOL    HW1 2252   0.691   2.354   3.027
  451SOL    HW2 2253   0.589   2.481   3.019
  452SOL     OW 2254   0.215   4.694   6.680
  452SOL    HW1 2255   0.147   4.623   6.658
  452SOL    HW2 2256   0.293   4.652   6.726
  453SOL     OW 2257   3.433   1.533   6.441
  453SOL    HW1 2258   3.470   1.446   6.409
  453SOL    HW2 2259   3.508   1.594   6.467
  454SOL     OW 2260   1.363   6.202   6.878
  454SOL    HW1 2261   1.295   6.148   6.926
  454SOL    HW2 2262   1.321   6.245   6.797
  455SOL     OW 2263   5.419   0.846   5.113
  455SOL    HW1 2264   5.377   0.926   5.071
  455SOL    HW2 2265   5.510   0.869   5.146
  456SOL     OW 2266   4.639   6.070   6.349
  456SOL    HW1 2267   4.737   6.089   6.344
  456SOL    HW2 2268   4.595   6.098   6.264
  457SOL     OW 2269   2.410   4.837   3.213
  457SOL    HW1 2270   2.419   4.786   3.298
  457SOL    HW2 2271   2.488   4.818   3.154
  458SOL     OW 2272   6.251   5.193   5.714
  458SOL    HW1 2273   6.245   5.094   5.703
  458SOL    HW2 2274   6.210   5.220   5.801
  459SOL     OW 2275   1.699   0.615   2.471
  459SOL    HW1 2276   1.634   0.688   2.496
  459SOL    HW2 2277   1.730   0.569   2.555
  460SOL     OW 2278   6.975   1.979   2.807
  460SOL    HW1 2279   6.950   2.076   2.813
  460SOL    HW2 2280   6.984   1.952   2.712
  461SOL     OW 2281   4.750   6.525   5.363
  461SOL    HW1 2282   4.837   6.514   5.313
  461SOL    HW2 2283   4.770   6.549   5.458
  462SOL     OW 2284   3.280   2.968   6.702
  462SOL    HW1 2285   3.279   2.939   6.606
  462SOL    HW2 2286   3.361   3.025   6.718
  463SOL     OW 2287   6.853   5.090   2.734
  463SOL    HW1 2288   6.829   5.187   2.727
  463SOL    HW2 2289   6.893   5.072   2.824
  464SOL     OW 2290   1.786   1.583   6.015
  464SOL    HW1 2291   1.737   1.555   5.933
  464SOL    HW2 2292   1.875   1.620   5.989
  465SOL     OW 2293   0.047   2.437   3.842
  465SOL    HW1 2294   6.971   2.437   3.852
  465SOL    HW2 2295   0.089   2.442   3.932
  466SOL     OW 2296   1.478   6.943   3.977
  466SOL    HW1 2297   1.566   6.899   3.990
  466SOL    HW2 2298   1.405   6.878   3.995
  467SOL     OW 2299   1.255   0.503   5.546
  467SOL    HW1 2300   1.232   0.600   5.547
  467SOL    HW2 2301   1.203   0.456   5.618
  468SOL     OW 2302   3.604   4.937   1.086
  468SOL    HW1 2303   3.577   5.031   1.106
  468SOL    HW2 2304   3.546   4.900   1.014
  469SOL     OW 2305   2.253   5.420   6.846
  469SOL    HW1 2306   2.199   5.502   6.834
  469SOL    HW2 2307   2.219   5.368   6.925
  470SOL     OW 2308   4.107   0.556   2.577
  470SOL    HW1 2309   4.186   0.509   2.537
  470SOL    HW2 2310   4.055   0.491   2.632
  471SOL     OW 2311   2.277   2.794   4.863
  471SOL    HW1 2312   2.307   2.888   4.848
  471SOL    HW2 2313   2.192   2.778   4.813
  472SOL     OW 2314   4.111   5.432   5.913
  472SOL    HW1 2315   4.131   5.507   5.977
  472SOL    HW2 2316   4.107   5.469   5.820
  473SOL     OW 2317   1.581   3.328   3.012
  473SOL    HW1 2318   1.577   3.315   2.913
  473SOL    HW2 2319   1.673   3.356   3.039
  474SOL     OW 2320   4.064   5.072   5.181
  474SOL    HW1 2321   4.075   5.038   5.275
  474SOL    HW2 2322   4.131   5.145   5.164
  475SOL     OW 2323   0.201   6.812   6.177
  475SOL    HW1 2324   0.133   6.873   6.218
  475SOL    HW2 2325   0.281   6.864   6.149
  476SOL     OW 2326   6.558   4.769   2.769
  476SOL    HW1 2327   6.597   4.752   2.678
  476SOL    HW2 2328   6.459   4.760   2.764
  477SOL     OW 2329   2.163   5.240   3.652
  477SOL    HW1 2330   2.135   5.325   3.608
  477SOL    HW2 2331   2.083   5.196   3.693
  478SOL     OW 2332   3.962   5.178   3.752
  478SOL    HW1 2333   3.904   5.107   3.790
  478SOL    HW2 2334   3.913   5.227   3.681
  479SOL     OW 2335   3.346   2.693   0.619
  479SOL    HW1 2336   3.408   2.729   0.549
  479SOL    HW2 2337   3.397   2.632   0.680
  480SOL     OW 2338   0.656   6.445   2.497
  480SOL    HW1 2339   0.738   6.441   2.441
  480SOL    HW2 2340   0.662   6.523   2.560
  481SOL     OW 2341   3.829   0.092   1.092
  481SOL    HW1 2342   3.877   0.079   1.178
  481SOL    HW2 2343   3.863   0.026   1.025
  482SOL     OW 2344   5.693   4.769   2.568
  482SOL    HW1 2345   5.778   4.811   2.538
  482SOL    HW2 2346   5.713   4.680   2.610
  483SOL     OW 2347   5.663   1.924   2.338
  483SOL    HW1 2348   5.734   1.873   2.289
  483SOL    HW2 2349   5.667   1.901   2.435
  484SOL     OW 2350   0.389   3.052   4.051
  484SOL    HW1 2351   0.388   3.033   3.953
  484SOL    HW2 2352   0.363   2.969   4.100
  485SOL     OW 2353   3.410   5.077   2.198
  485SOL    HW1 2354   3.430   5.124   2.284
  485SOL    HW2 2355   3.371   5.143   2.133
  486SOL     OW 2356   0.815   0.306   0.620
  486SOL    HW1 2357   0.810   0.397   0.661
  486SOL    HW2 2358   0.840   0.239   0.690
  487SOL     OW 2359   0.371   2.452   6.716
  487SOL    HW1 2360   0.356   2.493   6.805
  487SOL    HW2 2361   0.433   2.509   6.662
  488SOL     OW 2362   0.244   2.064   2.224
  488SOL    HW1 2363   0.321   2.002   2.240
  488SOL    HW2 2364   0.270   2.157   2.248
  489SOL     OW 2365   3.078   5.844   6.835
  489SOL    HW1 2366   3.032   5.795   6.761
  489SOL    HW2 2367   3.157   5.791   6.867
  490SOL     OW 2368   6.426   6.239   4.260
  490SOL    HW1 2369   6.408   6.331   4.224
  490SOL    HW2 2370   6.462   6.181   4.187
  491SOL     OW 2371   1.213   2.677   2.441
  491SOL    HW1 2372   1.197   2.630   2.354
  491SOL    HW2 2373   1.310   2.669   2.465
  492SOL     OW 2374   2.553   0.171   5.502
  492SOL    HW1 2375   2.459   0.154   5.472
  492SOL    HW2 2376   2.586   0.092   5.554
  493SOL     OW 2377   6.182   4.448   5.235
  493SOL    HW1 2378   6.229   4.508   5.170
  493SOL    HW2 2379   6.141   4.371   5.185
  494SOL     OW 2380   0.329   0.162   0.679
  494SOL    HW1 2381   0.268   0.113   0.741
  494SOL    HW2 2382   0.286   0.172   0.590
  495SOL     OW 2383   4.734   4.742   1.609
  495SOL    HW1 2384   4.767   4.648   1.623
  495SOL    HW2 2385   4.793   4.805   1.659
  496SOL     OW 2386   5.297   3.398   2.808
  496SOL    HW1 2387   5.330   3.395   2.902
  496SOL    HW2 2388   5.222   3.332   2.797
  497SOL     OW 2389   3.889   1.002   4.775
  497SOL    HW1 2390   3.889   0.931   4.845
  497SOL    HW2 2391   3.921   1.088   4.814
  498SOL     OW 2392   0.557   3.061   2.978
  498SOL    HW1 2393   0.508   3.136   2.934
  498SOL    HW2 2394   0.653   3.061   2.949
  499SOL     OW 2395   3.436   0.846   5.093
  499SOL    HW1 2396   3.351   0.796   5.107
  499SOL    HW2 2397   3.448   0.865   4.996
  500SOL     OW 2398   0.832   3.599   2.770
  500SOL    HW1 2399   0.773   3.557   2.701
  500SOL    HW2 2400   0.843   3.536   2.847
  501SOL     OW 2401   1.736   2.936   6.760
  501SOL    HW1 2402   1.743   2.845   6.802
  501SOL    HW2 2403   1.819   2.988   6.780
  502SOL     OW 2404   4.187   5.192   0.124
  502SOL    HW1 2405   4.102   5.152   0.091
  502SOL    HW2 2406   4.168   5.260   0.194
  503SOL     OW 2407   5.851   4.489   5.539
  503SOL    HW1 2408   5.890   4.543   5.465
  503SOL    HW2 2409   5.751   4.492   5.534
  504SOL     OW 2410   2.121   6.519   4.210
  504SOL    HW1 2411   2.183   6.548   4.137
  504SOL    HW2 2412   2.150   6.430   4.246
  505SOL     OW 2413   4.474   0.260   5.713
  505SOL    HW1 2414   4.477   0.160   5.705
  505SOL    HW2 2415   4.454   0.300   5.623
  506SOL     OW 2416   1.720   4.458   5.284
  506SOL    HW1 2417   1.656   4.384   5.261
  506SOL    HW2 2418   1.789   4.423   5.347
  507SOL     OW 2419   3.338   0.283   5.034
  507SOL    HW1 2420   3.392   0.220   5.090
  507SOL    HW2 2421   3.257   0.236   5.000
  508SOL     OW 2422   6.647   3.919   2.949
  508SOL    HW1 2423   6.675   3.954   2.860
  508SOL    HW2 2424   6.706   3.843   2.975
  509SOL     OW 2425   4.627   1.251   1.906
  509SOL    HW1 2426   4.556   1.315   1.934
  509SOL    HW2 2427   4.587   1.179   1.849
  510SOL     OW 2428   6.923   4.598   4.936
  510SOL    HW1 2429   6.846   4.556   4.888
  510SOL    HW2 2430   6.999   4.612   4.872
  511SOL     OW 2431   0.748   6.498   0.345
  511SOL    HW1 2432   0.810   6.450   0.283
  511SOL    HW2 2433   0.657   6.457   0.338
  512SOL     OW 2434   0.994   3.875   6.781
  512SOL    HW1 2435   1.082   3.919   6.801
  512SOL    HW2 2436   1.006   3.811   6.705
  513SOL     OW 2437   6.636   5.293   4.019
  513SOL    HW1 2438   6.604   5.350   3.943
  513SOL    HW2 2439   6.557   5.258   4.069
  514SOL     OW 2440   6.343   1.897   4.157
  514SOL    HW1 2441   6.356   1.817   4.215
  514SOL    HW2 2442   6.425   1.955   4.161
  515SOL     OW 2443   2.272   6.645   5.894
  515SOL    HW1 2444   2.227   6.730   5.867
  515SOL    HW2 2445   2.269   6.636   5.993
  516SOL     OW 2446   2.108   5.126   1.621
  516SOL    HW1 2447   2.102   5.043   1.676
  516SOL    HW2 2448   2.038   5.190   1.650
  517SOL     OW 2449   4.406   6.829   1.521
  517SOL    HW1 2450   4.368   6.876   1.441
  517SOL    HW2 2451   4.402   6.731   1.507
  518SOL     OW 2452   2.335   2.640   1.577
  518SOL    HW1 2453   2.395   2.648   1.656
  518SOL    HW2 2454   2.269   2.566   1.592
  519SOL     OW 2455   0.182   0.149   6.099
  519SOL    HW1 2456   0.113   0.098   6.048
  519SOL    HW2 2457   0.150   0.164   6.193
  520SOL     OW 2458   5.419   4.746   5.902
  520SOL    HW1 2459   5.357   4.679   5.861
  520SOL    HW2 2460   5.440   4.720   5.996
  521SOL     OW 2461   6.700   1.782   6.977
  521SOL    HW1 2462   6.710   1.832   6.891
  521SOL    HW2 2463   6.606   1.750   6.987
  522SOL     OW 2464   4.031   3.131   4.112
  522SOL    HW1 2465   3.962   3.061   4.094
  522SOL    HW2 2466   4.115   3.108   4.063
  523SOL     OW 2467   6.666   6.965   4.706
  523SOL    HW1 2468   6.744   6.952   4.767
  523SOL    HW2 2469   6.582   6.966   4.760
  524SOL     OW 2470   2.641   1.055   6.314
  524SOL    HW1 2471   2.590   1.050   6.228
  524SOL    HW2 2472   2.664   1.151   6.333
  525SOL     OW 2473   2.543   4.122   6.859
  525SOL    HW1 2474   2.582   4.208   6.890
  525SOL    HW2 2475   2.581   4.099   6.769
  526SOL     OW 2476   3.448   5.641   4.695
  526SOL    HW1 2477   3.388   5.561   4.705
  526SOL    HW2 2478   3.529   5.616   4.644
  527SOL     OW 2479   0.003   1.378   0.079
  527SOL    HW1 2480   6.933   1.357   0.104
  527SOL    HW2 2481   0.011   1.379   7.003
  528SOL     OW 2482   2.588   1.319   5.152
  528SOL    HW1 2483   2.506   1.374   5.137
  528SOL    HW2 2484   2.571   1.253   5.226
  529SOL     OW 2485   1.174   4.782   4.658
  529SOL    HW1 2486   1.243   4.722   4.618
  529SOL    HW2 2487   1.084   4.758   4.623
  530SOL     OW 2488   2.309   2.949   5.412
  530SOL    HW1 2489   2.293   2.851   5.425
  530SOL    HW2 2490   2.345   2.966   5.321
  531SOL     OW 2491   1.313   0.331   1.291
  531SOL    HW1 2492   1.278   0.241   1.315
  531SOL    HW2 2493   1.292   0.351   1.196
  532SOL     OW 2494   0.936   1.184   5.332
  532SOL    HW1 2495   0.936   1.208   5.429
  532SOL    HW2 2496   0.943   1.267   5.277
  533SOL     OW 2497   5.552   6.663   4.926
  533SOL    HW1 2498   5.639   6.689   4.968
  533SOL    HW2 2499   5.566   6.583   4.868
  534SOL     OW 2500   4.685   5.353   2.346
  534SOL    HW1 2501   4.609   5.292   2.320
  534SOL    HW2 2502   4.766   5.330   2.292
  535SOL     OW 2503   0.269   3.879   3.611
  535SOL    HW1 2504   0.265   3.788   3.571
  535SOL    HW2 2505   0.364   3.904   3.628
  536SOL     OW 2506   1.701   5.697   1.428
  536SOL    HW1 2507   1.735   5.665   1.517
  536SOL    HW2 2508   1.734   5.790   1.411
  537SOL     OW 2509   2.210   0.118   2.187
  537SOL    HW1 2510   2.271   0.150   2.115
  537SOL    HW2 2511   2.205   0.185   2.261
  538SOL     OW 2512   1.117   5.995   2.986
  538SOL    HW1 2513   1.031   6.041   3.008
  538SOL    HW2 2514   1.126   5.913   3.042
  539SOL     OW 2515   1.836   4.985   2.161
  539SOL    HW1 2516   1.812   4.952   2.070
  539SOL    HW2 2517   1.753   5.009   2.211
  540SOL     OW 2518   1.945   2.454   2.327
  540SOL    HW1 2519   1.950   2.546   2.366
  540SOL    HW2 2520   2.018   2.397   2.366
  541SOL     OW 2521   2.833   5.827   5.772
  541SOL    HW1 2522   2.737   5.841   5.796
  541SOL    HW2 2523   2.842   5.819   5.673
  542SOL     OW 2524   6.065   5.391   6.836
  542SOL    HW1 2525   6.139   5.403   6.769
  542SOL    HW2 2526   6.092   5.321   6.902
  543SOL     OW 2527   1.144   4.873   6.811
  543SOL    HW1 2528   1.131   4.801   6.742
  543SOL    HW2 2529   1.242   4.889   6.824
  544SOL     OW 2530   0.806   4.340   0.571
  544SOL    HW1 2531   0.778   4.353   0.476
  544SOL    HW2 2532   0.892   4.389   0.587
  545SOL     OW 2533   3.741   1.289   3.323
  545SOL    HW1 2534   3.740   1.382   3.287
  545SOL    HW2 2535   3.825   1.243   3.293
  546SOL     OW 2536   1.445   3.473   0.595
  546SOL    HW1 2537   1.447   3.483   0.495
  546SOL    HW2 2538   1.402   3.386   0.619
  547SOL     OW 2539   2.871   3.577   0.038
  547SOL    HW1 2540   2.774   3.556   0.020
  547SOL    HW2 2541   2.928   3.522   7.002
  548SOL     OW 2542   3.431   3.060   4.116
  548SOL    HW1 2543   3.500   3.008   4.066
  548SOL    HW2 2544   3.473   3.138   4.160
  549SOL     OW 2545   5.838   3.623   1.184
  549SOL    HW1 2546   5.934   3.612   1.212
  549SOL    HW2 2547   5.781   3.641   1.264
  550SOL     OW 2548   6.927   3.804   2.427
  550SOL    HW1 2549   7.009   3.760   2.390
  550SOL    HW2 2550   6.900   3.879   2.366
  551SOL     OW 2551   6.616   1.931   0.730
  551SOL    HW1 2552   6.626   1.955   0.826
  551SOL    HW2 2553   6.571   2.006   0.681
  552SOL     OW 2554   3.486   5.665   0.674
  552SOL    HW1 2555   3.553   5.593   0.653
  552SOL    HW2 2556   3.535   5.747   0.704
  553SOL     OW 2557   2.218   1.296   1.496
  553SOL    HW1 2558   2.187   1.202   1.483
  553SOL    HW2 2559   2.141   1.353   1.528
  554SOL     OW 2560   5.929   6.239   5.163
  554SOL    HW1 2561   5.953   6.335   5.176
  554SOL    HW2 2562   5.986   6.199   5.091
  555SOL     OW 2563   1.213   4.440   4.289
  555SOL    HW1 2564   1.222   4.485   4.379
  555SOL    HW2 2565   1.262   4.494   4.220
  556SOL     OW 2566   5.430   2.688   3.831
  556SOL    HW1 2567   5.418   2.617   3.761
  556SOL    HW2 2568   5.474   2.768   3.791
  557SOL     OW 2569   0.288   6.489   6.139
  557SOL    HW1 2570   0.353   6.565   6.144
  557SOL    HW2 2571   0.305   6.435   6.057
  558SOL     OW 2572   4.104   4.094   5.294
  558SOL    HW1 2573   4.091   4.061   5.200
  558SOL    HW2 2574   4.025   4.149   5.321
  559SOL     OW 2575   0.148   6.203   5.962
  559SOL    HW1 2576   0.109   6.170   6.048
  559SOL    HW2 2577   0.237   6.158   5.947
  560SOL     OW 2578   4.378   0.349   0.334
  560SOL    HW1 2579   4.421   0.267   0.371
  560SOL    HW2 2580   4.352   0.410   0.409
  561SOL     OW 2581   5.648   6.998   0.486
  561SOL    HW1 2582   5.610   0.050   0.539
  561SOL    HW2 2583   5.628   6.912   0.531
  562SOL     OW 2584   5.575   1.775   5.422
  562SOL    HW1 2585   5.509   1.795   5.349
  562SOL    HW2 2586   5.562   1.681   5.454
  563SOL     OW 2587   3.091   6.571   4.015
  563SOL    HW1 2588   3.173   6.593   3.962
  563SOL    HW2 2589   3.113   6.501   4.083
  564SOL     OW 2590   0.107   1.202   6.503
  564SOL    HW1 2591   0.138   1.208   6.598
  564SOL    HW2 2592   0.051   1.121   6.491
  565SOL     OW 2593   4.637   3.918   5.248
  565SOL    HW1 2594   4.621   4.013   5.276
  565SOL    HW2 2595   4.592   3.856   5.313
  566SOL     OW 2596   5.111   4.368   2.634
  566SOL    HW1 2597   5.044   4.422   2.684
  566SOL    HW2 2598   5.065   4.305   2.572
  567SOL     OW 2599   3.585   3.455   4.472
  567SOL    HW1 2600   3.578   3.455   4.572
  567SOL    HW2 2601   3.628   3.540   4.442
  568SOL     OW 2602   2.722   1.636   0.072
  568SOL    HW1 2603   2.696   1.652   0.167
  568SOL    HW2 2604   2.796   1.569   0.068
  569SOL     OW 2605   2.167   2.891   0.868
  569SOL    HW1 2606   2.084   2.856   0.912
  569SOL    HW2 2607   2.232   2.921   0.937
  570SOL     OW 2608   6.983   6.168   1.207
  570SOL    HW1 2609   6.903   6.118   1.173
  570SOL    HW2 2610   0.008   6.111   1.272
  571SOL     OW 2611   4.437   5.420   3.049
  571SOL    HW1 2612   4.499   5.409   2.972
  571SOL    HW2 2613   4.345   5.391   3.023
  572SOL     OW 2614   1.471   3.841   5.000
  572SOL    HW1 2615   1.517   3.917   5.046
  572SOL    HW2 2616   1.519   3.819   4.915
  573SOL     OW 2617   3.920   2.028   5.488
  573SOL    HW1 2618   3.957   1.943   5.453
  573SOL    HW2 2619   3.880   2.012   5.579
  574SOL     OW 2620   1.642   1.375   4.568
  574SOL    HW1 2621   1.654   1.283   4.529
  574SOL    HW2 2622   1.716   1.394   4.632
  575SOL     OW 2623   5.498   2.356   0.194
  575SOL    HW1 2624   5.471   2.355   0.098
  575SOL    HW2 2625   5.492   2.450   0.229
  576SOL     OW 2626   1.313   1.252   2.572
  576SOL    HW1 2627   1.364   1.338   2.572
  576SOL    HW2 2628   1.215   1.271   2.576
  577SOL     OW 2629   3.322   2.079   3.471
  577SOL    HW1 2630   3.295   2.144   3.543
  577SOL    HW2 2631   3.345   1.991   3.513
  578SOL     OW 2632   0.007   3.296   3.853
  578SOL    HW1 2633   6.993   3.335   3.937
  578SOL    HW2 2634   6.987   3.340   3.774
  579SOL     OW 2635   4.634   2.873   6.684
  579SOL    HW1 2636   4.614   2.917   6.771
  579SOL    HW2 2637   4.586   2.785   6.678
  580SOL     OW 2638   1.279   5.624   6.342
  580SOL    HW1 2639   1.364   5.598   6.388
  580SOL    HW2 2640   1.262   5.561   6.266
  581SOL     OW 2641   4.040   3.203   2.809
  581SOL    HW1 2642   3.960   3.142   2.799
  581SOL    HW2 2643   4.064   3.210   2.906
  582SOL     OW 2644   5.789   3.402   2.120
  582SOL    HW1 2645   5.782   3.415   2.219
  582SOL    HW2 2646   5.706   3.435   2.076
  583SOL     OW 2647   2.505   4.673   6.985
  583SOL    HW1 2648   2.551   4.657   6.897
  583SOL    HW2 2649   2.476   4.769   6.990
  584SOL     OW 2650   0.263   4.942   4.654
  584SOL    HW1 2651   0.362   4.936   4.670
  584SOL    HW2 2652   0.219   4.982   4.735
  585SOL     OW 2653   6.796   1.666   0.183
  585SOL    HW1 2654   6.779   1.673   0.084
  585SOL    HW2 2655   6.776   1.754   0.226
  586SOL     OW 2656   2.599   6.493   0.805
  586SOL    HW1 2657   2.647   6.556   0.744
  586SOL    HW2 2658   2.587   6.537   0.894
  587SOL     OW 2659   0.993   3.210   5.347
  587SOL    HW1 2660   1.031   3.287   5.397
  587SOL    HW2 2661   0.963   3.241   5.256
  588SOL     OW 2662   3.431   6.337   1.493
  588SOL    HW1 2663   3.454   6.362   1.587
  588SOL    HW2 2664   3.356   6.271   1.493
  589SOL     OW 2665   4.101   5.036   2.678
  589SOL    HW1 2666   4.015   5.062   2.722
  589SOL    HW2 2667   4.086   4.953   2.624
  590SOL     OW 2668   0.160   1.546   2.005
  590SOL    HW1 2669   0.202   1.635   1.991
  590SOL    HW2 2670   0.143   1.502   1.917
  591SOL     OW 2671   3.519   6.757   2.981
  591SOL    HW1 2672   3.468   6.783   3.063
  591SOL    HW2 2673   3.549   6.662   2.990
  592SOL     OW 2674   5.035   0.945   0.740
  592SOL    HW1 2675   4.975   0.893   0.801
  592SOL    HW2 2676   4.999   1.037   0.729
  593SOL     OW 2677   4.861   2.243   3.586
  593SOL    HW1 2678   4.937   2.277   3.532
  593SOL    HW2 2679   4.782   2.304   3.576
  594SOL     OW 2680   3.813   2.752   1.346
  594SOL    HW1 2681   3.722   2.771   1.310
  594SOL    HW2 2682   3.817   2.777   1.443
  595SOL     OW 2683   3.874   6.690   3.634
  595SOL    HW1 2684   3.832   6.776   3.603
  595SOL    HW2 2685   3.803   6.629   3.670
  596SOL     OW 2686   1.335   4.639   2.945
  596SOL    HW1 2687   1.354   4.562   2.884
  596SOL    HW2 2688   1.352   4.725   2.896
  597SOL     OW 2689   3.726   1.724   5.466
  597SOL    HW1 2690   3.782   1.676   5.398
  597SOL    HW2 2691   3.689   1.807   5.426
  598SOL     OW 2692   3.727   4.691   0.860
  598SOL    HW1 2693   3.644   4.746   0.872
  598SOL    HW2 2694   3.709   4.598   0.892
  599SOL     OW 2695   6.572   6.339   2.514
  599SOL    HW1 2696   6.550   6.270   2.583
  599SOL    HW2 2697   6.549   6.430   2.548
  600SOL     OW 2698   1.961   6.970   0.004
  600SOL    HW1 2699   1.894   0.018   7.011
  600SOL    HW2 2700   1.932   6.886   6.982
  601SOL     OW 2701   3.419   5.359   4.015
  601SOL    HW1 2702   3.362   5.282   4.044
  601SOL    HW2 2703   3.367   5.416   3.951
  602SOL     OW 2704   2.125   0.720   0.972
  602SOL    HW1 2705   2.148   0.690   0.879
  602SOL    HW2 2706   2.047   0.783   0.968
  603SOL     OW 2707   3.900   2.171   3.366
  603SOL    HW1 2708   3.876   2.193   3.460
  603SOL    HW2 2709   3.818   2.174   3.309
  604SOL     OW 2710   0.252   4.058   6.447
  604SOL    HW1 2711   0.190   3.980   6.434
  604SOL    HW2 2712   0.223   4.110   6.527
  605SOL     OW 2713   5.927   0.637   4.156
  605SOL    HW1 2714   5.863   0.652   4.231
  605SOL    HW2 2715   5.900   0.555   4.105
  606SOL     OW 2716   3.182   6.947   3.246
  606SOL    HW1 2717   3.198   6.865   3.192
  606SOL    HW2 2718   3.209   0.004   3.193
  607SOL     OW 2719   5.004   1.149   3.970
  607SOL    HW1 2720   4.949   1.099   4.037
  607SOL    HW2 2721   5.041   1.232   4.013
  608SOL     OW 2722   4.273   1.288   1.465
  608SOL    HW1 2723   4.260   1.332   1.376
  608SOL    HW2 2724   4.367   1.305   1.496
  609SOL     OW 2725   3.596   4.224   4.545
  609SOL    HW1 2726   3.506   4.211   4.586
  609SOL    HW2 2727   3.665   4.232   4.617
  610SOL     OW 2728   4.847   2.020   4.206
  610SOL    HW1 2729   4.881   2.100   4.156
  610SOL    HW2 2730   4.788   2.050   4.281
  611SOL     OW 2731   0.919   6.798   0.735
  611SOL    HW1 2732   0.956   6.891   0.740
  611SOL    HW2 2733   0.825   6.801   0.702
  612SOL     OW 2734   3.329   5.448   5.404
  612SOL    HW1 2735   3.317   5.385   5.482
  612SOL    HW2 2736   3.370   5.533   5.437
  613SOL     OW 2737   3.288   2.070   6.928
  613SOL    HW1 2738   3.382   2.094   6.954
  613SOL    HW2 2739   3.232   2.062   7.010
  614SOL     OW 2740   5.010   4.629   1.062
  614SOL    HW1 2741   5.003   4.617   1.161
  614SOL    HW2 2742   4.936   4.687   1.030
  615SOL     OW 2743   6.237   6.927   0.889
  615SOL    HW1 2744   6.243   6.836   0.848
  615SOL    HW2 2745   6.295   6.990   0.838
  616SOL     OW 2746   5.641   1.813   4.524
  616SOL    HW1 2747   5.691   1.732   4.496
  616SOL    HW2 2748   5.688   1.895   4.490
  617SOL     OW 2749   0.243   5.341   5.478
  617SOL    HW1 2750   0.236   5.424   5.534
  617SOL    HW2 2751   0.180   5.347   5.401
  618SOL     OW 2752   6.461   3.547   0.455
  618SOL    HW1 2753   6.433   3.552   0.551
  618SOL    HW2 2754   6.541   3.487   0.447
  619SOL     OW 2755   2.561   0.702   6.551
  619SOL    HW1 2756   2.467   0.718   6.521
  619SOL    HW2 2757   2.578   0.603   6.557
  620SOL     OW 2758   6.911   1.753   2.053
  620SOL    HW1 2759   6.872   1.679   2.108
  620SOL    HW2 2760   6.962   1.815   2.113
  621SOL     OW 2761   3.483   1.273   6.865
  621SOL    HW1 2762   3.383   1.277   6.858
  621SOL    HW2 2763   3.508   1.211   6.939
  622SOL     OW 2764   1.296   1.865   5.199
  622SOL    HW1 2765   1.238   1.898   5.124
  622SOL    HW2 2766   1.240   1.817   5.266
  623SOL     OW 2767   6.159   6.782   4.297
  623SOL    HW1 2768   6.195   6.696   4.333
  623SOL    HW2 2769   6.234   6.838   4.261
  624SOL     OW 2770   6.409   0.959   6.308
  624SOL    HW1 2771   6.418   1.047   6.261
  624SOL    HW2 2772   6.461   0.960   6.393
  625SOL     OW 2773   2.360   1.721   0.424
  625SOL    HW1 2774   2.270   1.760   0.407
  625SOL    HW2 2775   2.360   1.675   0.513
  626SOL     OW 2776   0.331   5.324   3.790
  626SOL    HW1 2777   0.267   5.372   3.850
  626SOL    HW2 2778   0.367   5.389   3.722
  627SOL     OW 2779   6.415   0.535   6.639
  627SOL    HW1 2780   6.494   0.596   6.642
  627SOL    HW2 2781   6.412   0.489   6.550
  628SOL     OW 2782   4.506   4.642   6.081
  628SOL    HW1 2783   4.568   4.570   6.114
  628SOL    HW2 2784   4.440   4.664   6.152
  629SOL     OW 2785   0.703   6.576   5.981
  629SOL    HW1 2786   0.757   6.657   5.958
  629SOL    HW2 2787   0.633   6.602   6.048
  630SOL     OW 2788   6.636   0.938   1.233
  630SOL    HW1 2789   6.593   0.965   1.319
  630SOL    HW2 2790   6.674   1.018   1.187
  631SOL     OW 2791   1.850   3.064   4.500
  631SOL    HW1 2792   1.948   3.063   4.519
  631SOL    HW2 2793   1.820   2.973   4.472
  632SOL     OW 2794   3.246   3.445   0.063
  632SOL    HW1 2795   3.221   3.393   0.144
  632SOL    HW2 2796   3.322   3.506   0.084
  633SOL     OW 2797   1.688   6.280   1.129
  633SOL    HW1 2798   1.658   6.185   1.121
  633SOL    HW2 2799   1.760   6.298   1.063
  634SOL     OW 2800   3.062   3.116   4.365
  634SOL    HW1 2801   3.033   3.022   4.348
  634SOL    HW2 2802   3.134   3.141   4.300
  635SOL     OW 2803   5.349   0.759   6.990
  635SOL    HW1 2804   5.327   0.810   0.049
  635SOL    HW2 2805   5.389   0.820   6.922
  636SOL     OW 2806   2.532   0.730   5.915
  636SOL    HW1 2807   2.623   0.771   5.906
  636SOL    HW2 2808   2.471   0.767   5.845
  637SOL     OW 2809   6.679   0.945   2.674
  637SOL    HW1 2810   6.633   0.932   2.586
  637SOL    HW2 2811   6.623   1.004   2.732
  638SOL     OW 2812   6.324   3.555   4.712
  638SOL    HW1 2813   6.345   3.469   4.758
  638SOL    HW2 2814   6.238   3.593   4.747
  639SOL     OW 2815   5.529   4.873   2.327
  639SOL    HW1 2816   5.604   4.829   2.376
  639SOL    HW2 2817   5.447   4.871   2.384
  640SOL     OW 2818   0.496   2.144   2.058
  640SOL    HW1 2819   0.492   2.228   2.111
  640SOL    HW2 2820   0.479   2.066   2.118
  641SOL     OW 2821   2.404   5.183   4.470
  641SOL    HW1 2822   2.446   5.264   4.510
  641SOL    HW2 2823   2.334   5.147   4.532
  642SOL     OW 2824   0.847   3.891   4.868
  642SOL    HW1 2825   0.891   3.802   4.882
  642SOL    HW2 2826   0.759   3.893   4.915
  643SOL     OW 2827   5.063   5.519   0.414
  643SOL    HW1 2828   5.016   5.571   0.485
  643SOL    HW2 2829   5.085   5.579   0.337
  644SOL     OW 2830   6.606   6.418   5.382
  644SOL    HW1 2831   6.641   6.414   5.476
  644SOL    HW2 2832   6.538   6.490   5.375
  645SOL     OW 2833   3.644   5.169   2.056
  645SOL    HW1 2834   3.657   5.231   2.134
  645SOL    HW2 2835   3.558   5.119   2.068
  646SOL     OW 2836   3.874   1.658   5.059
  646SOL    HW1 2837   3.916   1.747   5.075
  646SOL    HW2 2838   3.946   1.588   5.059
  647SOL     OW 2839   4.000   2.635   6.017
  647SOL    HW1 2840   4.071   2.670   5.955
  647SOL    HW2 2841   4.017   2.669   6.109
  648SOL     OW 2842   6.308   1.313   3.013
  648SOL    HW1 2843   6.249   1.240   2.976
  648SOL    HW2 2844   6.380   1.334   2.947
  649SOL     OW 2845   2.159   6.063   0.506
  649SOL    HW1 2846   2.196   6.094   0.419
  649SOL    HW2 2847   2.059   6.061   0.501
  650SOL     OW 2848   0.539   3.962   1.107
  650SOL    HW1 2849   0.472   4.034   1.086
  650SOL    HW2 2850   0.595   3.945   1.026
  651SOL     OW 2851   1.451   0.041   4.773
  651SOL    HW1 2852   1.460   6.978   4.821
  651SOL    HW2 2853   1.359   0.077   4.786
  652SOL     OW 2854   3.544   6.389   1.758
  652SOL    HW1 2855   3.630   6.372   1.711
  652SOL    HW2 2856   3.541   6.335   1.842
  653SOL     OW 2857   1.341   6.724   2.181
  653SOL    HW1 2858   1.287   6.652   2.223
  653SOL    HW2 2859   1.428   6.687   2.149
  654SOL     OW 2860   0.217   0.178   4.778
  654SOL    HW1 2861   0.295   0.170   4.715
  654SOL    HW2 2862   0.145   0.233   4.737
  655SOL     OW 2863   6.868   3.782   2.064
  655SOL    HW1 2864   6.827   3.730   1.989
  655SOL    HW2 2865   6.814   3.767   2.147
  656SOL     OW 2866   3.260   5.958   0.581
  656SOL    HW1 2867   3.283   5.975   0.677
  656SOL    HW2 2868   3.252   6.045   0.533
  657SOL     OW 2869   3.659   3.400   2.306
  657SOL    HW1 2870   3.741   3.406   2.250
  657SOL    HW2 2871   3.631   3.305   2.316
  658SOL     OW 2872   1.552   2.492   5.070
  658SOL    HW1 2873   1.533   2.437   5.151
  658SOL    HW2 2874   1.634   2.547   5.086
  659SOL     OW 2875   2.022   5.894   6.339
  659SOL    HW1 2876   1.935   5.857   6.372
  659SOL    HW2 2877   2.066   5.827   6.279
  660SOL     OW 2878   4.951   4.251   2.459
  660SOL    HW1 2879   4.883   4.186   2.492
  660SOL    HW2 2880   4.952   4.250   2.359
  661SOL     OW 2881   4.871   4.354   4.410
  661SOL    HW1 2882   4.806   4.412   4.360
  661SOL    HW2 2883   4.929   4.306   4.345
  662SOL     OW 2884   4.962   3.564   0.346
  662SOL    HW1 2885   4.980   3.502   0.270
  662SOL    HW2 2886   4.922   3.649   0.312
  663SOL     OW 2887   0.780   4.061   0.296
  663SOL    HW1 2888   0.711   4.083   0.227
  663SOL    HW2 2889   0.871   4.064   0.255
  664SOL     OW 2890   1.879   6.785   6.866
  664SOL    HW1 2891   1.841   6.697   6.839
  664SOL    HW2 2892   1.832   6.859   6.818
  665SOL     OW 2893   3.988   4.948   1.267
  665SOL    HW1 2894   4.058   4.900   1.214
  665SOL    HW2 2895   4.006   4.935   1.364
  666SOL     OW 2896   3.384   1.635   0.238
  666SOL    HW1 2897   3.336   1.552   0.267
  666SOL    HW2 2898   3.478   1.613   0.213
  667SOL     OW 2899   1.167   3.171   3.335
  667SOL    HW1 2900   1.173   3.102   3.263
  667SOL    HW2 2901   1.259   3.207   3.354
  668SOL     OW 2902   4.898   6.854   0.360
  668SOL    HW1 2903   4.941   6.944   0.353
  668SOL    HW2 2904   4.799   6.864   0.371
  669SOL     OW 2905   2.229   5.800   3.153
  669SOL    HW1 2906   2.275   5.801   3.064
  669SOL    HW2 2907   2.248   5.885   3.201
  670SOL     OW 2908   3.210   2.932   3.149
  670SOL    HW1 2909   3.230   2.928   3.051
  670SOL    HW2 2910   3.152   3.011   3.169
  671SOL     OW 2911   1.547   0.436   6.147
  671SOL    HW1 2912   1.463   0.464   6.193
  671SOL    HW2 2913   1.524   0.397   6.057
  672SOL     OW 2914   2.791   2.344   4.063
  672SOL    HW1 2915   2.844   2.292   3.995
  672SOL    HW2 2916   2.717   2.393   4.017
  673SOL     OW 2917   5.738   6.672   1.360
  673SOL    HW1 2918   5.697   6.712   1.278
  673SOL    HW2 2919   5.702   6.580   1.374
  674SOL     OW 2920   0.614   2.044   3.949
  674SOL    HW1 2921   0.533   2.089   3.987
  674SOL    HW2 2922   0.606   1.945   3.964
  675SOL     OW 2923   6.022   2.516   5.048
  675SOL    HW1 2924   6.114   2.524   5.087
  675SOL    HW2 2925   6.019   2.561   4.959
  676SOL     OW 2926   2.039   4.499   4.561
  676SOL    HW1 2927   1.996   4.455   4.639
  676SOL    HW2 2928   1.968   4.532   4.498
  677SOL     OW 2929   5.899   0.033   0.655
  677SOL    HW1 2930   5.868   0.129   0.653
  677SOL    HW2 2931   5.852   7.005   0.584
  678SOL     OW 2932   2.364   1.717   6.413
  678SOL    HW1 2933   2.322   1.801   6.448
  678SOL    HW2 2934   2.452   1.703   6.459
  679SOL     OW 2935   5.514   0.056   2.692
  679SOL    HW1 2936   5.443   0.126   2.689
  679SOL    HW2 2937   5.604   0.099   2.696
  680SOL     OW 2938   5.254   4.063   5.149
  680SOL    HW1 2939   5.283   3.969   5.135
  680SOL    HW2 2940   5.154   4.069   5.137
  681SOL     OW 2941   1.240   6.990   2.128
  681SOL    HW1 2942   1.248   6.894   2.152
  681SOL    HW2 2943   1.221   6.999   2.030
  682SOL     OW 2944   1.081   6.057   0.720
  682SOL    HW1 2945   1.141   6.088   0.793
  682SOL    HW2 2946   0.999   6.114   0.718
  683SOL     OW 2947   5.664   1.443   0.494
  683SOL    HW1 2948   5.695   1.402   0.408
  683SOL    HW2 2949   5.579   1.493   0.479
  684SOL     OW 2950   0.089   6.106   6.229
  684SOL    HW1 2951   0.030   6.088   6.308
  684SOL    HW2 2952   0.184   6.110   6.258
  685SOL     OW 2953   5.739   0.794   5.621
  685SOL    HW1 2954   5.772   0.875   5.668
  685SOL    HW2 2955   5.641   0.802   5.603
  686SOL     OW 2956   5.638   5.417   2.825
  686SOL    HW1 2957   5.690   5.338   2.858
  686SOL    HW2 2958   5.544   5.390   2.806
  687SOL     OW 2959   6.430   3.320   5.286
  687SOL    HW1 2960   6.464   3.366   5.204
  687SOL    HW2 2961   6.469   3.228   5.291
  688SOL     OW 2962   6.931   4.150   5.078
  688SOL    HW1 2963   6.906   4.246   5.091
  688SOL    HW2 2964   6.855   4.102   5.034
  689SOL     OW 2965   5.795   4.058   6.368
  689SOL    HW1 2966   5.862   4.118   6.325
  689SOL    HW2 2967   5.722   4.037   6.303
  690SOL     OW 2968   1.119   2.029   3.433
  690SOL    HW1 2969   1.207   2.072   3.454
  690SOL    HW2 2970   1.093   2.050   3.339
  691SOL     OW 2971   0.324   3.170   6.552
  691SOL    HW1 2972   0.244   3.230   6.546
  691SOL    HW2 2973   0.404   3.218   6.516
  692SOL     OW 2974   1.909   0.143   2.979
  692SOL    HW1 2975   1.903   0.243   2.985
  692SOL    HW2 2976   1.936   0.117   2.886
  693SOL     OW 2977   0.030   1.449   2.212
  693SOL    HW1 2978   0.067   1.476   2.123
  693SOL    HW2 2979   0.086   1.376   2.251
  694SOL     OW 2980   1.993   0.430   1.703
  694SOL    HW1 2981   1.941   0.358   1.656
  694SOL    HW2 2982   2.074   0.390   1.745
  695SOL     OW 2983   3.781   6.550   5.767
  695SOL    HW1 2984   3.790   6.647   5.747
  695SOL    HW2 2985   3.828   6.529   5.853
  696SOL     OW 2986   4.601   5.523   2.581
  696SOL    HW1 2987   4.532   5.589   2.552
  696SOL    HW2 2988   4.621   5.460   2.506
  697SOL     OW 2989   1.190   3.932   3.625
  697SOL    HW1 2990   1.224   3.849   3.669
  697SOL    HW2 2991   1.231   4.013   3.668
  698SOL     OW 2992   4.438   6.741   3.751
  698SOL    HW1 2993   4.433   6.816   3.817
  698SOL    HW2 2994   4.523   6.690   3.765
  699SOL     OW 2995   1.751   4.813   0.895
  699SOL    HW1 2996   1.834   4.760   0.884
  699SOL    HW2 2997   1.767   4.908   0.867
  700SOL     OW 2998   2.090   1.220   4.506
  700SOL    HW1 2999   2.147   1.184   4.579
  700SOL    HW2 3000   2.037   1.145   4.465
  701SOL     OW 3001   0.293   4.341   5.969
  701SOL    HW1 3002   0.262   4.306   6.058
  701SOL    HW2 3003   0.337   4.430   5.981
  702SOL     OW 3004   5.858   5.783   4.831
  702SOL    HW1 3005   5.882   5.701   4.883
  702SOL    HW2 3006   5.829   5.855   4.894
  703SOL     OW 3007   3.852   3.945   6.754
  703SOL    HW1 3008   3.897   3.892   6.826
  703SOL    HW2 3009   3.900   3.930   6.667
  704SOL     OW 3010   2.371   0.021   0.323
  704SOL    HW1 3011   2.446   6.978   0.322
  704SOL    HW2 3012   2.340   0.038   0.230
  705SOL     OW 3013   6.150   2.563   2.499
  705SOL    HW1 3014   6.119   2.648   2.541
  705SOL    HW2 3015   6.075   2.522   2.447
  706SOL     OW 3016   3.853   1.874   4.005
  706SOL    HW1 3017   3.783   1.855   3.936
  706SOL    HW2 3018   3.941   1.841   3.973
  707SOL     OW 3019   4.859   0.767   1.410
  707SOL    HW1 3020   4.877   0.834   1.483
  707SOL    HW2 3021   4.871   0.811   1.321
  708SOL     OW 3022   4.094   0.888   1.508
  708SOL    HW1 3023   4.072   0.978   1.472
  708SOL    HW2 3024   4.112   0.895   1.607
  709SOL     OW 3025   0.805   4.979   0.049
  709SOL    HW1 3026   0.852   5.023   6.998
  709SOL    HW2 3027   0.840   4.886   0.061
  710SOL     OW 3028   3.316   4.165   2.564
  710SOL    HW1 3029   3.238   4.226   2.551
  710SOL    HW2 3030   3.313   4.092   2.495
  711SOL     OW 3031   0.484   0.582   3.928
  711SOL    HW1 3032   0.491   0.505   3.864
  711SOL    HW2 3033   0.487   0.668   3.877
  712SOL     OW 3034   1.830   4.180   1.634
  712SOL    HW1 3035   1.909   4.231   1.599
  712SOL    HW2 3036   1.820   4.198   1.732
  713SOL     OW 3037   3.845   3.015   2.814
  713SOL    HW1 3038   3.825   2.968   2.900
  713SOL    HW2 3039   3.811   2.960   2.738
  714SOL     OW 3040   4.746   5.680   5.039
  714SOL    HW1 3041   4.669   5.656   4.979
  714SOL    HW2 3042   4.752   5.615   5.114
  715SOL     OW 3043   4.366   0.569   6.341
  715SOL    HW1 3044   4.424   0.640   6.379
  715SOL    HW2 3045   4.423   0.501   6.294
  716SOL     OW 3046   6.944   4.666   1.729
  716SOL    HW1 3047   6.979   4.577   1.759
  716SOL    HW2 3048   6.923   4.722   1.809
  717SOL     OW 3049   6.304   2.341   0.327
  717SOL    HW1 3050   6.277   2.270   0.392
  717SOL    HW2 3051   6.249   2.334   0.244
  718SOL     OW 3052   3.635   3.934   6.541
  718SOL    HW1 3053   3.698   3.957   6.615
  718SOL    HW2 3054   3.616   4.017   6.488
  719SOL     OW 3055   5.545   4.290   0.772
  719SOL    HW1 3056   5.619   4.244   0.821
  719SOL    HW2 3057   5.520   4.235   0.692
  720SOL     OW 3058   2.552   1.052   6.022
  720SOL    HW1 3059   2.634   1.007   5.987
  720SOL    HW2 3060   2.472   1.021   5.970
  721SOL     OW 3061   1.558   6.944   5.693
  721SOL    HW1 3062   1.506   6.966   5.776
  721SOL    HW2 3063   1.497   6.942   5.614
  722SOL     OW 3064   4.126   0.136   5.309
  722SOL    HW1 3065   4.184   0.125   5.228
  722SOL    HW2 3066   4.030   0.141   5.281
  723SOL     OW 3067   1.006   3.201   1.990
  723SOL    HW1 3068   0.949   3.282   2.004
  723SOL    HW2 3069   1.049   3.207   1.900
  724SOL     OW 3070   0.191   0.943   5.152
  724SOL    HW1 3071   0.111   0.998   5.176
  724SOL    HW2 3072   0.230   0.904   5.235
  725SOL     OW 3073   2.024   5.303   1.113
  725SOL    HW1 3074   1.988   5.293   1.206
  725SOL    HW2 3075   2.047   5.399   1.096
  726SOL     OW 3076   3.943   0.252   6.778
  726SOL    HW1 3077   3.934   0.350   6.796
  726SOL    HW2 3078   3.972   0.238   6.683
  727SOL     OW 3079   3.229   4.859   4.276
  727SOL    HW1 3080   3.268   4.778   4.234
  727SOL    HW2 3081   3.283   4.940   4.251
  728SOL     OW 3082   6.951   3.695   5.277
  728SOL    HW1 3083   7.023   3.709   5.345
  728SOL    HW2 3084   6.921   3.784   5.242
  729SOL     OW 3085   2.976   0.222   1.368
  729SOL    HW1 3086   2.960   0.320   1.372
  729SOL    HW2 3087   3.008   0.190   1.457
  730SOL     OW 3088   5.912   0.336   4.076
  730SOL    HW1 3089   5.939   0.286   4.158
  730SOL    HW2 3090   5.856   0.277   4.018
  731SOL     OW 3091   5.765   3.719   3.518
  731SOL    HW1 3092   5.743   3.671   3.603
  731SOL    HW2 3093   5.849   3.682   3.479
  732SOL     OW 3094   6.594   2.786   1.697
  732SOL    HW1 3095   6.635   2.701   1.728
  732SOL    HW2 3096   6.498   2.771   1.676
  733SOL     OW 3097   4.476   4.524   3.986
  733SOL    HW1 3098   4.519   4.591   3.926
  733SOL    HW2 3099   4.526   4.437   3.980
  734SOL     OW 3100   6.698   4.326   1.008
  734SOL    HW1 3101   6.690   4.276   0.921
  734SOL    HW2 3102   6.611   4.321   1.057
  735SOL     OW 3103   1.466   4.757   6.244
  735SOL    HW1 3104   1.406   4.820   6.195
  735SOL    HW2 3105   1.539   4.726   6.184
  736SOL     OW 3106   6.692   1.227   3.302
  736SOL    HW1 3107   6.616   1.293   3.300
  736SOL    HW2 3108   6.678   1.159   3.230
  737SOL     OW 3109   5.319   3.120   0.669
  737SOL    HW1 3110   5.356   3.197   0.722
  737SOL    HW2 3111   5.220   3.129   0.662
  738SOL     OW 3112   0.909   3.798   4.088
  738SOL    HW1 3113   0.849   3.723   4.061
  738SOL    HW2 3114   0.919   3.861   4.011
  739SOL     OW 3115   4.709   6.430   6.606
  739SOL    HW1 3116   4.631   6.437   6.544
  739SOL    HW2 3117   4.684   6.375   6.686
  740SOL     OW 3118   6.118   6.477   1.510
  740SOL    HW1 3119   6.212   6.452   1.485
  740SOL    HW2 3120   6.090   6.558   1.458
  741SOL     OW 3121   2.199   0.309   2.413
  741SOL    HW1 3122   2.146   0.392   2.427
  741SOL    HW2 3123   2.216   0.265   2.502
  742SOL     OW 3124   1.134   6.817   3.240
  742SOL    HW1 3125   1.181   6.830   3.153
  742SOL    HW2 3126   1.043   6.857   3.234
  743SOL     OW 3127   2.186   4.157   4.539
  743SOL    HW1 3128   2.112   4.172   4.606
  743SOL    HW2 3129   2.248   4.235   4.541
  744SOL     OW 3130   6.992   5.670   0.527
  744SOL    HW1 3131   6.980   5.711   0.436
  744SOL    HW2 3132   6.995   5.742   0.596
  745SOL     OW 3133   1.397   5.828   2.706
  745SOL    HW1 3134   1.493   5.830   2.732
  745SOL    HW2 3135   1.355   5.916   2.730
  746SOL     OW 3136   1.849   0.975   5.048
  746SOL    HW1 3137   1.855   0.908   5.122
  746SOL    HW2 3138   1.914   1.049   5.065
  747SOL     OW 3139   5.102   4.945   2.891
  747SOL    HW1 3140   5.046   4.883   2.836
  747SOL    HW2 3141   5.046   4.983   2.965
  748SOL     OW 3142   4.519   3.381   1.300
  748SOL    HW1 3143   4.440   3.421   1.255
  748SOL    HW2 3144   4.583   3.346   1.230
  749SOL     OW 3145   6.764   1.494   5.749
  749SOL    HW1 3146   6.784   1.546   5.665
  749SOL    HW2 3147   6.801   1.543   5.828
  750SOL     OW 3148   2.173   4.177   0.345
  750SOL    HW1 3149   2.221   4.234   0.279
  750SOL    HW2 3150   2.095   4.227   0.383
  751SOL     OW 3151   4.532   0.792   0.036
  751SOL    HW1 3152   4.497   0.884   0.050
  751SOL    HW2 3153   4.497   0.731   0.108
  752SOL     OW 3154   4.856   2.403   2.168
  752SOL    HW1 3155   4.877   2.497   2.197
  752SOL    HW2 3156   4.866   2.341   2.245
  753SOL     OW 3157   1.996   2.695   4.137
  753SOL    HW1 3158   2.021   2.610   4.183
  753SOL    HW2 3159   2.056   2.769   4.167
  754SOL     OW 3160   4.434   5.713   6.952
  754SOL    HW1 3161   4.392   5.755   6.872
  754SOL    HW2 3162   4.503   5.647   6.923
  755SOL     OW 3163   0.230   6.026   0.736
  755SOL    HW1 3164   0.306   6.076   0.778
  755SOL    HW2 3165   0.265   5.943   0.693
  756SOL     OW 3166   5.147   0.545   2.988
  756SOL    HW1 3167   5.177   0.618   3.049
  756SOL    HW2 3168   5.162   0.572   2.893
  757SOL     OW 3169   6.996   0.195   3.980
  757SOL    HW1 3170   7.012   0.136   3.900
  757SOL    HW2 3171   6.907   0.239   3.971
  758SOL     OW 3172   3.837   2.584   1.137
  758SOL    HW1 3173   3.932   2.554   1.131
  758SOL    HW2 3174   3.826   2.646   1.215
  759SOL     OW 3175   1.345   0.964   6.594
  759SOL    HW1 3176   1.312   0.910   6.672
  759SOL    HW2 3177   1.383   1.050   6.627
  760SOL     OW 3178   5.015   1.581   5.825
  760SOL    HW1 3179   5.074   1.515   5.871
  760SOL    HW2 3180   4.987   1.652   5.890
  761SOL     OW 3181   5.635   2.134   6.824
  761SOL    HW1 3182   5.699   2.099   6.892
  761SOL    HW2 3183   5.655   2.230   6.807
  762SOL     OW 3184   2.459   6.543   4.211
  762SOL    HW1 3185   2.430   6.625   4.260
  762SOL    HW2 3186   2.391   6.521   4.141
  763SOL     OW 3187   4.130   5.878   6.631
  763SOL    HW1 3188   4.045   5.927   6.613
  763SOL    HW2 3189   4.150   5.881   6.729
  764SOL     OW 3190   4.467   1.470   2.456
  764SOL    HW1 3191   4.533   1.448   2.528
  764SOL    HW2 3192   4.450   1.388   2.402
  765SOL     OW 3193   6.994   0.092   3.331
  765SOL    HW1 3194   7.014   0.054   3.421
  765SOL    HW2 3195   0.046   0.150   3.300
  766SOL     OW 3196   0.363   6.257   0.094
  766SOL    HW1 3197   0.294   6.278   0.163
  766SOL    HW2 3198   0.327   6.280   0.003
  767SOL     OW 3199   6.017   0.043   2.569
  767SOL    HW1 3200   6.116   0.045   2.555
  767SOL    HW2 3201   5.998   0.024   2.666
  768SOL     OW 3202   2.916   6.349   2.863
  768SOL    HW1 3203   2.950   6.440   2.840
  768SOL    HW2 3204   2.926   6.288   2.784
  769SOL     OW 3205   4.107   0.998   5.577
  769SOL    HW1 3206   4.088   1.062   5.651
  769SOL    HW2 3207   4.090   1.043   5.489
  770SOL     OW 3208   3.209   4.934   3.930
  770SOL    HW1 3209   3.231   4.953   3.834
  770SOL    HW2 3210   3.286   4.887   3.973
  771SOL     OW 3211   0.800   5.088   3.699
  771SOL    HW1 3212   0.847   5.057   3.617
  771SOL    HW2 3213   0.702   5.071   3.690
  772SOL     OW 3214   6.830   3.968   6.218
  772SOL    HW1 3215   6.762   3.898   6.198
  772SOL    HW2 3216   6.831   4.036   6.145
  773SOL     OW 3217   0.154   3.700   2.311
  773SOL    HW1 3218   0.093   3.621   2.306
  773SOL    HW2 3219   0.184   3.725   2.219
  774SOL     OW 3220   1.629   1.206   1.409
  774SOL    HW1 3221   1.663   1.269   1.340
  774SOL    HW2 3222   1.706   1.166   1.459
  775SOL     OW 3223   1.738   2.208   4.645
  775SOL    HW1 3224   1.780   2.264   4.716
  775SOL    HW2 3225   1.702   2.123   4.686
  776SOL     OW 3226   2.091   0.417   6.299
  776SOL    HW1 3227   2.157   0.492   6.291
  776SOL    HW2 3228   2.127   0.348   6.362
  777SOL     OW 3229   4.290   1.470   0.920
  777SOL    HW1 3230   4.210   1.461   0.860
  777SOL    HW2 3231   4.371   1.439   0.871
  778SOL     OW 3232   4.255   6.494   4.035
  778SOL    HW1 3233   4.350   6.491   4.005
  778SOL    HW2 3234   4.198   6.445   3.970
  779SOL     OW 3235   1.295   1.449   2.217
  779SOL    HW1 3236   1.321   1.407   2.130
  779SOL    HW2 3237   1.357   1.418   2.289
  780SOL     OW 3238   5.908   3.356   5.081
  780SOL    HW1 3239   5.993   3.308   5.105
  780SOL    HW2 3240   5.838   3.335   5.148
  781SOL     OW 3241   6.663   0.904   5.865
  781SOL    HW1 3242   6.713   0.903   5.952
  781SOL    HW2 3243   6.567   0.923   5.882
  782SOL     OW 3244   6.805   3.062   0.910
  782SOL    HW1 3245   6.739   3.136   0.917
  782SOL    HW2 3246   6.812   3.015   0.998
  783SOL     OW 3247   2.475   4.806   0.507
  783SOL    HW1 3248   2.469   4.859   0.423
  783SOL    HW2 3249   2.472   4.867   0.586
  784SOL     OW 3250   4.890   0.698   5.157
  784SOL    HW1 3251   4.978   0.717   5.201
  784SOL    HW2 3252   4.853   0.612   5.191
  785SOL     OW 3253   6.695   2.440   3.071
  785SOL    HW1 3254   6.676   2.535   3.096
  785SOL    HW2 3255   6.761   2.402   3.136
  786SOL     OW 3256   6.989   6.515   0.164
  786SOL    HW1 3257   0.028   6.542   0.091
  786SOL    HW2 3258   6.989   6.584   0.236
  787SOL     OW 3259   3.128   2.193   6.413
  787SOL    HW1 3260   3.053   2.213   6.476
  787SOL    HW2 3261   3.145   2.273   6.355
  788SOL     OW 3262   1.526   3.892   4.428
  788SOL    HW1 3263   1.621   3.882   4.399
  788SOL    HW2 3264   1.477   3.949   4.362
  789SOL     OW 3265   5.387   4.347   1.571
  789SOL    HW1 3266   5.390   4.284   1.493
  789SOL    HW2 3267   5.467   4.407   1.569
  790SOL     OW 3268   3.033   1.228   3.548
  790SOL    HW1 3269   3.015   1.190   3.457
  790SOL    HW2 3270   2.949   1.268   3.584
  791SOL     OW 3271   3.074   1.382   3.981
  791SOL    HW1 3272   3.103   1.464   3.932
  791SOL    HW2 3273   2.977   1.389   4.004
  792SOL     OW 3274   5.514   0.941   3.662
  792SOL    HW1 3275   5.516   1.036   3.630
  792SOL    HW2 3276   5.545   0.938   3.757
  793SOL     OW 3277   5.584   6.946   7.001
  793SOL    HW1 3278   5.659   7.012   6.992
  793SOL    HW2 3279   5.557   6.939   0.074
  794SOL     OW 3280   2.199   5.472   5.754
  794SOL    HW1 3281   2.277   5.463   5.816
  794SOL    HW2 3282   2.211   5.554   5.697
  795SOL     OW 3283   4.729   4.176   6.596
  795SOL    HW1 3284   4.692   4.269   6.604
  795SOL    HW2 3285   4.749   4.157   6.500
  796SOL     OW 3286   0.168   2.248   6.799
  796SOL    HW1 3287   0.247   2.299   6.765
  796SOL    HW2 3288   0.121   2.301   6.870
  797SOL     OW 3289   6.000   2.823   3.990
  797SOL    HW1 3290   5.923   2.879   4.019
  797SOL    HW2 3291   6.067   2.879   3.942
  798SOL     OW 3292   5.313   1.204   6.031
  798SOL    HW1 3293   5.312   1.274   6.103
  798SOL    HW2 3294   5.220   1.183   6.003
  799SOL     OW 3295   0.026   2.905   2.829
  799SOL    HW1 3296   6.964   2.854   2.836
  799SOL    HW2 3297   0.043   2.953   2.915
  800SOL     OW 3298   6.379   1.358   2.200
  800SOL    HW1 3299   6.364   1.454   2.226
  800SOL    HW2 3300   6.320   1.336   2.122
  801SOL     OW 3301   0.374   2.565   3.299
  801SOL    HW1 3302   0.319   2.489   3.263
  801SOL    HW2 3303   0.322   2.650   3.292
  802SOL     OW 3304   5.301   1.080   0.638
  802SOL    HW1 3305   5.372   1.118   0.578
  802SOL    HW2 3306   5.215   1.073   0.587
  803SOL     OW 3307   6.437   6.607   4.938
  803SOL    HW1 3308   6.517   6.647   4.983
  803SOL    HW2 3309   6.379   6.563   5.007
  804SOL     OW 3310   0.448   6.707   0.330
  804SOL    HW1 3311   0.486   6.614   0.333
  804SOL    HW2 3312   0.397   6.725   0.413
  805SOL     OW 3313   2.806   3.074   6.266
  805SOL    HW1 3314   2.894   3.050   6.223
  805SOL    HW2 3315   2.757   2.990   6.289
  806SOL     OW 3316   5.127   0.872   0.463
  806SOL    HW1 3317   5.099   0.897   0.556
  806SOL    HW2 3318   5.054   0.896   0.399
  807SOL     OW 3319   1.470   0.147   3.399
  807SOL    HW1 3320   1.531   0.186   3.467
  807SOL    HW2 3321   1.498   0.053   3.380
  808SOL     OW 3322   5.212   3.315   5.744
  808SOL    HW1 3323   5.268   3.378   5.797
  808SOL    HW2 3324   5.122   3.305   5.787
  809SOL     OW 3325   0.153   4.223   6.625
  809SOL    HW1 3326   0.129   4.197   6.719
  809SOL    HW2 3327   0.220   4.298   6.628
  810SOL     OW 3328   5.700   4.140   0.267
  810SOL    HW1 3329   5.619   4.194   0.291
  810SOL    HW2 3330   5.704   4.130   0.167
  811SOL     OW 3331   5.087   5.187   3.806
  811SOL    HW1 3332   5.046   5.125   3.873
  811SOL    HW2 3333   5.186   5.174   3.804
  812SOL     OW 3334   0.123   6.915   1.768
  812SOL    HW1 3335   0.074   6.998   1.793
  812SOL    HW2 3336   0.105   6.843   1.835
  813SOL     OW 3337   5.003   5.551   2.619
  813SOL    HW1 3338   5.037   5.467   2.578
  813SOL    HW2 3339   4.936   5.594   2.559
  814SOL     OW 3340   6.069   6.362   1.880
  814SOL    HW1 3341   6.106   6.341   1.789
  814SOL    HW2 3342   6.048   6.460   1.886
  815SOL     OW 3343   6.652   1.990   1.001
  815SOL    HW1 3344   6.750   2.001   1.015
  815SOL    HW2 3345   6.602   2.023   1.082
  816SOL     OW 3346   6.602   6.393   0.938
  816SOL    HW1 3347   6.689   6.391   0.986
  816SOL    HW2 3348   6.613   6.351   0.847
  817SOL     OW 3349   1.732   2.913   2.449
  817SOL    HW1 3350   1.804   2.959   2.397
  817SOL    HW2 3351   1.651   2.972   2.453
  818SOL     OW 3352   6.238   1.235   0.972
  818SOL    HW1 3353   6.213   1.142   0.999
  818SOL    HW2 3354   6.337   1.246   0.979
  819SOL     OW 3355   6.601   3.378   3.833
  819SOL    HW1 3356   6.655   3.295   3.822
  819SOL    HW2 3357   6.537   3.366   3.909
  820SOL     OW 3358   1.054   3.272   4.869
  820SOL    HW1 3359   1.120   3.200   4.849
  820SOL    HW2 3360   1.078   3.354   4.817
  821SOL     OW 3361   1.064   3.404   6.888
  821SOL    HW1 3362   1.101   3.311   6.895
  821SOL    HW2 3363   0.969   3.405   6.918
  822SOL     OW 3364   1.442   4.125   4.602
  822SOL    HW1 3365   1.424   4.154   4.508
  822SOL    HW2 3366   1.419   4.029   4.613
  823SOL     OW 3367   3.753   4.102   0.132
  823SOL    HW1 3368   3.748   4.145   0.222
  823SOL    HW2 3369   3.830   4.038   0.130
  824SOL     OW 3370   5.231   2.375   5.704
  824SOL    HW1 3371   5.318   2.329   5.720
  824SOL    HW2 3372   5.211   2.374   5.606
  825SOL     OW 3373   2.117   4.000   2.306
  825SOL    HW1 3374   2.197   4.053   2.279
  825SOL    HW2 3375   2.081   3.951   2.227
  826SOL     OW 3376   6.963   3.894   6.642
  826SOL    HW1 3377   6.869   3.860   6.650
  826SOL    HW2 3378   6.987   3.945   6.725
  827SOL     OW 3379   3.450   6.266   0.048
  827SOL    HW1 3380   3.385   6.335   0.015
  827SOL    HW2 3381   3.433   6.179   0.001
  828SOL     OW 3382   5.623   0.551   5.683
  828SOL    HW1 3383   5.583   0.565   5.774
  828SOL    HW2 3384   5.691   0.622   5.665
  829SOL     OW 3385   3.318   3.206   4.487
  829SOL    HW1 3386   3.359   3.115   4.481
  829SOL    HW2 3387   3.219   3.199   4.479
  830SOL     OW 3388   4.613   4.176   5.368
  830SOL    HW1 3389   4.670   4.232   5.309
  830SOL    HW2 3390   4.517   4.199   5.354
  831SOL     OW 3391   6.629   1.229   4.992
  831SOL    HW1 3392   6.589   1.137   4.987
  831SOL    HW2 3393   6.697   1.240   4.919
  832SOL     OW 3394   2.373   1.666   6.094
  832SOL    HW1 3395   2.302   1.730   6.123
  832SOL    HW2 3396   2.395   1.605   6.170
  833SOL     OW 3397   6.502   6.914   6.198
  833SOL    HW1 3398   6.425   6.974   6.220
  833SOL    HW2 3399   6.468   6.834   6.148
  834SOL     OW 3400   2.985   3.677   4.606
  834SOL    HW1 3401   2.933   3.598   4.575
  834SOL    HW2 3402   2.939   3.719   4.684
  835SOL     OW 3403   3.473   6.774   3.256
  835SOL    HW1 3404   3.489   6.872   3.268
  835SOL    HW2 3405   3.556   6.724   3.279
  836SOL     OW 3406   2.761   0.971   0.407
  836SOL    HW1 3407   2.776   1.052   0.351
  836SOL    HW2 3408   2.680   0.922   0.374
  837SOL     OW 3409   5.055   1.166   5.937
  837SOL    HW1 3410   5.035   1.188   5.841
  837SOL    HW2 3411   5.063   1.067   5.947
  838SOL     OW 3412   2.066   5.457   3.509
  838SOL    HW1 3413   2.020   5.378   3.469
  838SOL    HW2 3414   2.101   5.516   3.437
  839SOL     OW 3415   2.794   2.081   2.802
  839SOL    HW1 3416   2.866   2.049   2.741
  839SOL    HW2 3417   2.809   2.043   2.893
  840SOL     OW 3418   1.083   1.535   6.833
  840SOL    HW1 3419   0.998   1.564   6.878
  840SOL    HW2 3420   1.068   1.529   6.735
  841SOL     OW 3421   0.841   3.392   0.006
  841SOL    HW1 3422   0.765   3.448   6.999
  841SOL    HW2 3423   0.807   3.317   0.063
  842SOL     OW 3424   3.552   4.976   3.163
  842SOL    HW1 3425   3.545   4.956   3.260
  842SOL    HW2 3426   3.646   4.960   3.133
  843SOL     OW 3427   6.528   1.954   2.199
  843SOL    HW1 3428   6.553   2.036   2.249
  843SOL    HW2 3429   6.452   1.974   2.137
  844SOL     OW 3430   4.899   5.735   0.553
  844SOL    HW1 3431   4.967   5.726   0.626
  844SOL    HW2 3432   4.870   5.830   0.547
  845SOL     OW 3433   0.699   4.860   5.025
  845SOL    HW1 3434   0.626   4.792   5.025
  845SOL    HW2 3435   0.672   4.938   4.969
  846SOL     OW 3436   6.307   1.296   6.636
  846SOL    HW1 3437   6.340   1.389   6.654
  846SOL    HW2 3438   6.361   1.255   6.563
  847SOL     OW 3439   4.894   3.356   2.212
  847SOL    HW1 3440   4.833   3.319   2.143
  847SOL    HW2 3441   4.936   3.441   2.178
  848SOL     OW 3442   6.146   0.916   5.677
  848SOL    HW1 3443   6.073   0.975   5.712
  848SOL    HW2 3444   6.235   0.955   5.701
  849SOL     OW 3445   0.434   5.245   4.668
  849SOL    HW1 3446   0.461   5.339   4.692
  849SOL    HW2 3447   0.440   5.188   4.750
  850SOL     OW 3448   3.797   0.822   2.838
  850SOL    HW1 3449   3.711   0.778   2.814
  850SOL    HW2 3450   3.860   0.755   2.878
  851SOL     OW 3451   1.437   0.433   6.661
  851SOL    HW1 3452   1.498   0.354   6.651
  851SOL    HW2 3453   1.419   0.449   6.758
  852SOL     OW 3454   1.856   3.755   6.385
  852SOL    HW1 3455   1.921   3.830   6.393
  852SOL    HW2 3456   1.905   3.672   6.355
  853SOL     OW 3457   1.263   4.048   1.560
  853SOL    HW1 3458   1.229   3.956   1.541
  853SOL    HW2 3459   1.223   4.082   1.645
  854SOL     OW 3460   5.154   5.486   1.921
  854SOL    HW1 3461   5.080   5.422   1.900
  854SOL    HW2 3462   5.127   5.578   1.894
  855SOL     OW 3463   5.032   0.099   1.706
  855SOL    HW1 3464   5.121   0.135   1.732
  855SOL    HW2 3465   5.043   0.006   1.669
  856SOL     OW 3466   1.729   6.792   5.199
  856SOL    HW1 3467   1.749   6.867   5.262
  856SOL    HW2 3468   1.807   6.729   5.196
  857SOL     OW 3469   6.366   3.169   1.814
  857SOL    HW1 3470   6.303   3.124   1.751
  857SOL    HW2 3471   6.314   3.219   1.883
  858SOL     OW 3472   3.343   4.510   1.176
  858SOL    HW1 3473   3.398   4.440   1.130
  858SOL    HW2 3474   3.247   4.483   1.174
  859SOL     OW 3475   6.647   4.740   0.118
  859SOL    HW1 3476   6.625   4.793   0.036
  859SOL    HW2 3477   6.738   4.767   0.151
  860SOL     OW 3478   2.058   4.979   1.131
  860SOL    HW1 3479   2.124   5.015   1.197
  860SOL    HW2 3480   2.050   5.042   1.054
  861SOL     OW 3481   3.691   5.717   5.454
  861SOL    HW1 3482   3.664   5.722   5.550
  861SOL    HW2 3483   3.719   5.623   5.432
  862SOL     OW 3484   4.555   4.437   4.522
  862SOL    HW1 3485   4.483   4.387   4.474
  862SOL    HW2 3486   4.622   4.470   4.455
  863SOL     OW 3487   5.830   1.543   1.180
  863SOL    HW1 3488   5.838   1.540   1.081
  863SOL    HW2 3489   5.900   1.603   1.218
  864SOL     OW 3490   5.808   3.966   2.878
  864SOL    HW1 3491   5.761   4.032   2.937
  864SOL    HW2 3492   5.821   4.005   2.788
  865SOL     OW 3493   1.845   6.591   4.518
  865SOL    HW1 3494   1.896   6.644   4.451
  865SOL    HW2 3495   1.812   6.651   4.590
  866SOL     OW 3496   3.150   1.918   1.870
  866SOL    HW1 3497   3.194   1.829   1.887
  866SOL    HW2 3498   3.154   1.939   1.773
  867SOL     OW 3499   2.091   2.909   6.147
  867SOL    HW1 3500   2.108   3.008   6.154
  867SOL    HW2 3501   2.065   2.887   6.053
  868SOL     OW 3502   5.283   2.680   3.327
  868SOL    HW1 3503   5.189   2.664   3.355
  868SOL    HW2 3504   5.294   2.775   3.298
  869SOL     OW 3505   6.438   5.162   2.799
  869SOL    HW1 3506   6.455   5.115   2.885
  869SOL    HW2 3507   6.474   5.255   2.804
  870SOL     OW 3508   6.938   1.405   1.010
  870SOL    HW1 3509   6.898   1.404   1.102
  870SOL    HW2 3510   6.867   1.430   0.944
  871SOL     OW 3511   6.215   3.061   0.950
  871SOL    HW1 3512   6.163   3.101   0.874
  871SOL    HW2 3513   6.302   3.025   0.915
  872SOL     OW 3514   5.921   2.205   3.386
  872SOL    HW1 3515   5.859   2.129   3.404
  872SOL    HW2 3516   5.919   2.228   3.288
  873SOL     OW 3517   4.517   6.803   5.235
  873SOL    HW1 3518   4.501   6.866   5.159
  873SOL    HW2 3519   4.587   6.841   5.296
  874SOL     OW 3520   0.646   3.201   5.850
  874SOL    HW1 3521   0.609   3.115   5.815
  874SOL    HW2 3522   0.584   3.276   5.825
  875SOL     OW 3523   6.347   4.565   6.885
  875SOL    HW1 3524   6.347   4.586   6.983
  875SOL    HW2 3525   6.439   4.577   6.848
  876SOL     OW 3526   0.776   3.136   2.512
  876SOL    HW1 3527   0.800   3.213   2.571
  876SOL    HW2 3528   0.707   3.165   2.446
  877SOL     OW 3529   5.851   5.659   0.658
  877SOL    HW1 3530   5.761   5.692   0.687
  877SOL    HW2 3531   5.849   5.560   0.652
  878SOL     OW 3532   3.157   4.733   0.275
  878SOL    HW1 3533   3.156   4.798   0.350
  878SOL    HW2 3534   3.252   4.707   0.254
  879SOL     OW 3535   4.785   2.505   1.821
  879SOL    HW1 3536   4.690   2.503   1.853
  879SOL    HW2 3537   4.788   2.539   1.727
  880SOL     OW 3538   3.737   5.306   0.768
  880SOL    HW1 3539   3.780   5.368   0.833
  880SOL    HW2 3540   3.724   5.353   0.680
  881SOL     OW 3541   4.294   5.288   5.194
  881SOL    HW1 3542   4.306   5.330   5.104
  881SOL    HW2 3543   4.382   5.276   5.238
  882SOL     OW 3544   1.325   0.897   4.784
  882SOL    HW1 3545   1.349   0.969   4.719
  882SOL    HW2 3546   1.229   0.906   4.809
  883SOL     OW 3547   3.119   5.151   6.331
  883SOL    HW1 3548   3.026   5.168   6.361
  883SOL    HW2 3549   3.119   5.119   6.236
  884SOL     OW 3550   4.470   3.770   1.196
  884SOL    HW1 3551   4.409   3.849   1.185
  884SOL    HW2 3552   4.537   3.789   1.267
  885SOL     OW 3553   4.490   6.165   0.215
  885SOL    HW1 3554   4.452   6.083   0.259
  885SOL    HW2 3555   4.416   6.227   0.191
  886SOL     OW 3556   4.593   1.558   6.055
  886SOL    HW1 3557   4.672   1.535   6.113
  886SOL    HW2 3558   4.559   1.475   6.011
  887SOL     OW 3559   4.551   0.784   6.422
  887SOL    HW1 3560   4.626   0.843   6.393
  887SOL    HW2 3561   4.553   0.772   6.521
  888SOL     OW 3562   6.573   6.083   3.498
  888SOL    HW1 3563   6.621   6.170   3.510
  888SOL    HW2 3564   6.611   6.015   3.561
  889SOL     OW 3565   0.507   6.757   4.599
  889SOL    HW1 3566   0.557   6.775   4.514
  889SOL    HW2 3567   0.568   6.772   4.677
  890SOL     OW 3568   2.569   4.668   2.118
  890SOL    HW1 3569   2.501   4.636   2.053
  890SOL    HW2 3570   2.660   4.657   2.079
  891SOL     OW 3571   5.398   3.382   6.840
  891SOL    HW1 3572   5.391   3.296   6.789
  891SOL    HW2 3573   5.452   3.448   6.787
  892SOL     OW 3574   2.335   4.765   1.659
  892SOL    HW1 3575   2.393   4.700   1.610
  892SOL    HW2 3576   2.385   4.802   1.737
  893SOL     OW 3577   1.628   0.222   0.234
  893SOL    HW1 3578   1.579   0.136   0.250
  893SOL    HW2 3579   1.608   0.286   0.308
  894SOL     OW 3580   0.958   5.795   3.782
  894SOL    HW1 3581   1.053   5.785   3.812
  894SOL    HW2 3582   0.899   5.744   3.845
  895SOL     OW 3583   2.225   6.587   5.168
  895SOL    HW1 3584   2.132   6.608   5.138
  895SOL    HW2 3585   2.234   6.489   5.184
  896SOL     OW 3586   5.443   6.968   3.031
  896SOL    HW1 3587   5.510   0.016   3.048
  896SOL    HW2 3588   5.489   6.881   3.017
  897SOL     OW 3589   5.378   2.532   6.010
  897SOL    HW1 3590   5.478   2.534   6.019
  897SOL    HW2 3591   5.344   2.626   6.008
  898SOL     OW 3592   5.897   6.366   3.969
  898SOL    HW1 3593   5.939   6.402   3.886
  898SOL    HW2 3594   5.798   6.361   3.957
  899SOL     OW 3595   0.433   4.910   6.024
  899SOL    HW1 3596   0.364   4.885   6.092
  899SOL    HW2 3597   0.436   5.009   6.015
  900SOL     OW 3598   0.764   5.862   3.475
  900SOL    HW1 3599   0.863   5.853   3.484
  900SOL    HW2 3600   0.730   5.794   3.411
  901SOL     OW 3601   6.222   2.602   3.182
  901SOL    HW1 3602   6.214   2.694   3.219
  901SOL    HW2 3603   6.261   2.541   3.251
  902SOL     OW 3604   7.016   6.255   0.030
  902SOL    HW1 3605   0.074   6.268   6.998
  902SOL    HW2 3606   7.012   6.326   0.100
  903SOL     OW 3607   1.311   4.825   0.295
  903SOL    HW1 3608   1.343   4.798   0.385
  903SOL    HW2 3609   1.212   4.820   0.292
  904SOL     OW 3610   1.848   1.356   3.362
  904SOL    HW1 3611   1.876   1.263   3.337
  904SOL    HW2 3612   1.904   1.388   3.439
  905SOL     OW 3613   5.186   2.070   5.154
  905SOL    HW1 3614   5.186   2.169   5.168
  905SOL    HW2 3615   5.097   2.032   5.179
  906SOL     OW 3616   6.118   4.218   5.386
  906SOL    HW1 3617   6.157   4.306   5.362
  906SOL    HW2 3618   6.177   4.145   5.351
  907SOL     OW 3619   6.623   3.367   1.755
  907SOL    HW1 3620   6.683   3.287   1.750
  907SOL    HW2 3621   6.529   3.340   1.733
  908SOL     OW 3622   2.055   0.645   3.735
  908SOL    HW1 3623   2.084   0.703   3.659
  908SOL    HW2 3624   2.082   0.687   3.821
  909SOL     OW 3625   3.490   1.147   1.766
  909SOL    HW1 3626   3.462   1.236   1.803
  909SOL    HW2 3627   3.532   1.092   1.838
  910SOL     OW 3628   2.103   2.047   1.060
  910SOL    HW1 3629   2.141   2.135   1.035
  910SOL    HW2 3630   2.009   2.039   1.026
  911SOL     OW 3631   0.342   4.139   1.052
  911SOL    HW1 3632   0.307   4.229   1.029
  911SOL    HW2 3633   0.303   4.109   1.139
  912SOL     OW 3634   1.125   0.327   5.707
  912SOL    HW1 3635   1.106   0.230   5.695
  912SOL    HW2 3636   1.169   0.343   5.795
  913SOL     OW 3637   2.934   1.352   1.980
  913SOL    HW1 3638   2.837   1.343   2.000
  913SOL    HW2 3639   2.946   1.385   1.886
  914SOL     OW 3640   3.486   6.371   2.851
  914SOL    HW1 3641   3.552   6.411   2.787
  914SOL    HW2 3642   3.413   6.326   2.799
  915SOL     OW 3643   0.618   2.667   0.051
  915SOL    HW1 3644   0.579   2.755   0.023
  915SOL    HW2 3645   0.672   2.680   0.134
  916SOL     OW 3646   2.169   3.167   2.984
  916SOL    HW1 3647   2.171   3.258   2.941
  916SOL    HW2 3648   2.075   3.133   2.984
  917SOL     OW 3649   3.262   2.374   6.959
  917SOL    HW1 3650   3.190   2.428   6.915
  917SOL    HW2 3651   3.250   2.278   6.936
  918SOL     OW 3652   0.876   0.657   6.164
  918SOL    HW1 3653   0.883   0.752   6.192
  918SOL    HW2 3654   0.786   0.640   6.124
  919SOL     OW 3655   2.273   6.141   1.864
  919SOL    HW1 3656   2.297   6.186   1.778
  919SOL    HW2 3657   2.175   6.149   1.880
  920SOL     OW 3658   2.336   0.442   3.892
  920SOL    HW1 3659   2.422   0.392   3.893
  920SOL    HW2 3660   2.321   0.485   3.981
  921SOL     OW 3661   5.657   4.861   5.811
  921SOL    HW1 3662   5.562   4.854   5.841
  921SOL    HW2 3663   5.661   4.869   5.712
  922SOL     OW 3664   1.962   3.906   6.686
  922SOL    HW1 3665   1.965   3.931   6.590
  922SOL    HW2 3666   1.881   3.946   6.729
  923SOL     OW 3667   3.892   0.549   6.694
  923SOL    HW1 3668   3.989   0.541   6.672
  923SOL    HW2 3669   3.838   0.545   6.611
  924SOL     OW 3670   5.909   3.405   3.048
  924SOL    HW1 3671   5.994   3.442   3.009
  924SOL    HW2 3672   5.926   3.376   3.143
  925SOL     OW 3673   6.553   1.918   2.991
  925SOL    HW1 3674   6.594   1.845   2.937
  925SOL    HW2 3675   6.572   1.903   3.088
  926SOL     OW 3676   5.407   6.147   0.934
  926SOL    HW1 3677   5.437   6.057   0.965
  926SOL    HW2 3678   5.349   6.137   0.853
  927SOL     OW 3679   3.946   4.981   5.692
  927SOL    HW1 3680   3.868   4.962   5.751
  927SOL    HW2 3681   4.009   5.043   5.738
  928SOL     OW 3682   0.427   1.050   1.383
  928SOL    HW1 3683   0.466   1.018   1.296
  928SOL    HW2 3684   0.334   1.084   1.367
  929SOL     OW 3685   1.018   2.566   2.746
  929SOL    HW1 3686   0.962   2.566   2.829
  929SOL    HW2 3687   0.963   2.597   2.669
  930SOL     OW 3688   4.788   6.382   3.426
  930SOL    HW1 3689   4.846   6.325   3.484
  930SOL    HW2 3690   4.765   6.332   3.342
  931SOL     OW 3691   1.438   2.886   2.112
  931SOL    HW1 3692   1.490   2.962   2.074
  931SOL    HW2 3693   1.341   2.911   2.117
  932SOL     OW 3694   4.449   6.550   1.297
  932SOL    HW1 3695   4.472   6.559   1.394
  932SOL    HW2 3696   4.522   6.588   1.241
  933SOL     OW 3697   2.092   6.067   3.010
  933SOL    HW1 3698   2.101   6.109   2.920
  933SOL    HW2 3699   2.001   6.027   3.019
  934SOL     OW 3700   2.998   1.429   5.327
  934SOL    HW1 3701   3.087   1.399   5.293
  934SOL    HW2 3702   3.007   1.459   5.422
  935SOL     OW 3703   3.001   3.355   6.447
  935SOL    HW1 3704   2.943   3.389   6.373
  935SOL    HW2 3705   2.998   3.255   6.449
  936SOL     OW 3706   0.272   1.513   1.435
  936SOL    HW1 3707   0.355   1.564   1.456
  936SOL    HW2 3708   0.295   1.433   1.379
  937SOL     OW 3709   4.840   2.314   4.033
  937SOL    HW1 3710   4.764   2.256   4.062
  937SOL    HW2 3711   4.882   2.275   3.951
  938SOL     OW 3712   0.027   2.393   7.006
  938SOL    HW1 3713   0.048   2.413   0.078
  938SOL    HW2 3714   0.073   2.460   6.947
  939SOL     OW 3715   6.142   1.060   5.934
  939SOL    HW1 3716   6.146   1.144   5.988
  939SOL    HW2 3717   6.061   1.007   5.961
  940SOL     OW 3718   0.631   0.855   4.401
  940SOL    HW1 3719   0.726   0.843   4.431
  940SOL    HW2 3720   0.628   0.925   4.330
  941SOL     OW 3721   5.509   2.831   4.770
  941SOL    HW1 3722   5.464   2.845   4.859
  941SOL    HW2 3723   5.527   2.734   4.756
  942SOL     OW 3724   5.477   0.085   5.156
  942SOL    HW1 3725   5.485   0.166   5.215
  942SOL    HW2 3726   5.391   0.090   5.105
  943SOL     OW 3727   5.347   1.813   0.664
  943SOL    HW1 3728   5.413   1.760   0.717
  943SOL    HW2 3729   5.395   1.876   0.603
  944SOL     OW 3730   6.489   3.983   4.931
  944SOL    HW1 3731   6.446   4.057   4.982
  944SOL    HW2 3732   6.419   3.918   4.901
  945SOL     OW 3733   5.539   3.986   4.905
  945SOL    HW1 3734   5.457   3.963   4.852
  945SOL    HW2 3735   5.516   3.991   5.002
  946SOL     OW 3736   5.599   2.536   5.715
  946SOL    HW1 3737   5.551   2.465   5.768
  946SOL    HW2 3738   5.590   2.516   5.618
  947SOL     OW 3739   1.854   3.182   5.518
  947SOL    HW1 3740   1.835   3.271   5.477
  947SOL    HW2 3741   1.932   3.139   5.472
  948SOL     OW 3742   3.605   2.021   0.011
  948SOL    HW1 3743   3.637   2.085   0.081
  948SOL    HW2 3744   3.528   1.968   0.047
  949SOL     OW 3745   5.172   5.853   6.147
  949SOL    HW1 3746   5.250   5.897   6.192
  949SOL    HW2 3747   5.203   5.804   6.066
  950SOL     OW 3748   3.834   5.394   1.706
  950SOL    HW1 3749   3.934   5.395   1.717
  950SOL    HW2 3750   3.810   5.410   1.611
  951SOL     OW 3751   1.333   2.127   3.055
  951SOL    HW1 3752   1.360   2.178   3.137
  951SOL    HW2 3753   1.235   2.139   3.040
  952SOL     OW 3754   5.018   2.050   2.080
  952SOL    HW1 3755   5.115   2.070   2.062
  952SOL    HW2 3756   4.961   2.106   2.019
  953SOL     OW 3757   3.933   0.182   6.511
  953SOL    HW1 3758   3.969   0.127   6.436
  953SOL    HW2 3759   3.834   0.171   6.516
  954SOL     OW 3760   6.361   6.016   0.661
  954SOL    HW1 3761   6.343   5.994   0.756
  954SOL    HW2 3762   6.411   5.940   0.618
  955SOL     OW 3763   0.084   6.894   2.818
  955SOL    HW1 3764   0.125   6.810   2.781
  955SOL    HW2 3765   0.022   6.871   2.892
  956SOL     OW 3766   0.567   2.363   0.885
  956SOL    HW1 3767   0.503   2.437   0.906
  956SOL    HW2 3768   0.543   2.282   0.938
  957SOL     OW 3769   2.816   6.499   5.220
  957SOL    HW1 3770   2.780   6.592   5.226
  957SOL    HW2 3771   2.909   6.501   5.183
  958SOL     OW 3772   5.205   2.598   0.490
  958SOL    HW1 3773   5.145   2.556   0.559
  958SOL    HW2 3774   5.271   2.657   0.536
  959SOL     OW 3775   1.408   4.438   2.753
  959SOL    HW1 3776   1.360   4.361   2.711
  959SOL    HW2 3777   1.507   4.425   2.745
  960SOL     OW 3778   1.742   5.503   5.344
  960SOL    HW1 3779   1.736   5.404   5.340
  960SOL    HW2 3780   1.797   5.530   5.424
  961SOL     OW 3781   3.833   6.756   1.929
  961SOL    HW1 3782   3.915   6.810   1.944
  961SOL    HW2 3783   3.769   6.807   1.871
  962SOL     OW 3784   1.591   6.925   4.519
  962SOL    HW1 3785   1.638   6.900   4.434
  962SOL    HW2 3786   1.542   7.011   4.505
  963SOL     OW 3787   6.314   0.103   1.101
  963SOL    HW1 3788   6.301   0.060   1.012
  963SOL    HW2 3789   6.227   0.139   1.134
  964SOL     OW 3790   5.141   4.352   1.730
  964SOL    HW1 3791   5.221   4.325   1.676
  964SOL    HW2 3792   5.096   4.270   1.765
  965SOL     OW 3793   0.508   2.149   1.046
  965SOL    HW1 3794   0.479   2.062   1.006
  965SOL    HW2 3795   0.543   2.132   1.138
  966SOL     OW 3796   0.312   1.765   1.961
  966SOL    HW1 3797   0.406   1.784   1.990
  966SOL    HW2 3798   0.309   1.758   1.861
  967SOL     OW 3799   0.536   5.862   2.337
  967SOL    HW1 3800   0.594   5.848   2.257
  967SOL    HW2 3801   0.576   5.933   2.395
  968SOL     OW 3802   5.472   3.500   2.632
  968SOL    HW1 3803   5.446   3.466   2.542
  968SOL    HW2 3804   5.428   3.444   2.702
  969SOL     OW 3805   4.502   6.014   5.632
  969SOL    HW1 3806   4.580   5.956   5.610
  969SOL    HW2 3807   4.431   6.003   5.563
  970SOL     OW 3808   4.424   2.251   5.205
  970SOL    HW1 3809   4.413   2.162   5.247
  970SOL    HW2 3810   4.494   2.246   5.133
  971SOL     OW 3811   6.671   1.927   1.735
  971SOL    HW1 3812   6.744   1.934   1.803
  971SOL    HW2 3813   6.601   1.996   1.755
  972SOL     OW 3814   6.832   5.328   1.100
  972SOL    HW1 3815   6.738   5.330   1.134
  972SOL    HW2 3816   6.882   5.255   1.146
  973SOL     OW 3817   5.756   4.023   5.951
  973SOL    HW1 3818   5.757   3.935   5.999
  973SOL    HW2 3819   5.847   4.065   5.958
  974SOL     OW 3820   2.806   1.458   3.999
  974SOL    HW1 3821   2.829   1.516   4.077
  974SOL    HW2 3822   2.708   1.437   4.001
  975SOL     OW 3823   3.633   6.839   5.773
  975SOL    HW1 3824   3.575   6.782   5.714
  975SOL    HW2 3825   3.628   6.805   5.867
  976SOL     OW 3826   0.137   4.988   4.034
  976SOL    HW1 3827   0.224   4.968   3.988
  976SOL    HW2 3828   0.147   5.072   4.089
  977SOL     OW 3829   1.543   1.126   3.718
  977SOL    HW1 3830   1.508   1.141   3.810
  977SOL    HW2 3831   1.548   1.214   3.670
  978SOL     OW 3832   6.043   3.553   4.750
  978SOL    HW1 3833   6.044   3.597   4.840
  978SOL    HW2 3834   6.038   3.454   4.761
  979SOL     OW 3835   5.865   0.537   3.395
  979SOL    HW1 3836   5.869   0.496   3.486
  979SOL    HW2 3837   5.954   0.579   3.374
  980SOL     OW 3838   5.987   0.907   4.917
  980SOL    HW1 3839   5.954   0.815   4.896
  980SOL    HW2 3840   6.078   0.919   4.879
  981SOL     OW 3841   7.000   2.658   5.925
  981SOL    HW1 3842   0.076   2.666   5.924
  981SOL    HW2 3843   6.959   2.739   5.881
  982SOL     OW 3844   1.662   2.758   1.231
  982SOL    HW1 3845   1.742   2.735   1.287
  982SOL    HW2 3846   1.693   2.802   1.147
  983SOL     OW 3847   5.741   1.404   3.153
  983SOL    HW1 3848   5.741   1.395   3.054
  983SOL    HW2 3849   5.833   1.428   3.184
  984SOL     OW 3850   4.933   0.977   4.328
  984SOL    HW1 3851   4.952   0.951   4.423
  984SOL    HW2 3852   4.956   0.901   4.267
  985SOL     OW 3853   3.200   5.440   0.101
  985SOL    HW1 3854   3.123   5.501   0.118
  985SOL    HW2 3855   3.222   5.390   0.185
  986SOL     OW 3856   4.525   5.120   6.115
  986SOL    HW1 3857   4.445   5.177   6.132
  986SOL    HW2 3858   4.600   5.176   6.080
  987SOL     OW 3859   3.698   0.190   2.775
  987SOL    HW1 3860   3.657   0.158   2.860
  987SOL    HW2 3861   3.654   0.143   2.698
  988SOL     OW 3862   3.272   3.992   1.609
  988SOL    HW1 3863   3.198   3.987   1.676
  988SOL    HW2 3864   3.339   4.061   1.637
  989SOL     OW 3865   0.729   6.823   5.737
  989SOL    HW1 3866   0.721   6.728   5.707
  989SOL    HW2 3867   0.744   6.826   5.836
  990SOL     OW 3868   4.655   6.651   3.441
  990SOL    HW1 3869   4.688   6.559   3.421
  990SOL    HW2 3870   4.715   6.695   3.507
  991SOL     OW 3871   6.385   1.690   5.084
  991SOL    HW1 3872   6.325   1.698   5.005
  991SOL    HW2 3873   6.480   1.699   5.055
  992SOL     OW 3874   0.656   3.359   0.927
  992SOL    HW1 3875   0.639   3.407   0.840
  992SOL    HW2 3876   0.718   3.283   0.911
  993SOL     OW 3877   3.168   5.368   3.584
  993SOL    HW1 3878   3.165   5.441   3.516
  993SOL    HW2 3879   3.215   5.288   3.546
  994SOL     OW 3880   2.868   3.470   2.793
  994SOL    HW1 3881   2.850   3.448   2.889
  994SOL    HW2 3882   2.943   3.412   2.759
  995SOL     OW 3883   1.114   1.393   4.848
  995SOL    HW1 3884   1.165   1.456   4.790
  995SOL    HW2 3885   1.171   1.367   4.927
  996SOL     OW 3886   1.630   3.759   2.676
  996SOL    HW1 3887   1.560   3.689   2.688
  996SOL    HW2 3888   1.587   3.849   2.674
  997SOL     OW 3889   6.475   1.027   1.457
  997SOL    HW1 3890   6.442   1.118   1.479
  997SOL    HW2 3891   6.565   1.013   1.500
  998SOL     OW 3892   5.352   0.200   2.970
  998SOL    HW1 3893   5.319   0.208   2.876
  998SOL    HW2 3894   5.364   0.104   2.993
  999SOL     OW 3895   0.418   4.829   1.514
  999SOL    HW1 3896   0.324   4.848   1.541
  999SOL    HW2 3897   0.474   4.813   1.595
 1000SOL     OW 3898   3.733   1.680   3.827
 1000SOL    HW1 3899   3.644   1.649   3.859
 1000SOL    HW2 3900   3.804   1.616   3.859
 1001SOL     OW 3901   4.776   0.545   5.491
 1001SOL    HW1 3902   4.738   0.452   5.494
 1001SOL    HW2 3903   4.859   0.545   5.435
 1002SOL     OW 3904   6.310   1.473   1.332
 1002SOL    HW1 3905   6.239   1.539   1.306
 1002SOL    HW2 3906   6.397   1.500   1.290
 1003SOL     OW 3907   4.150   5.671   2.480
 1003SOL    HW1 3908   4.146   5.620   2.566
 1003SOL    HW2 3909   4.177   5.610   2.406
 1004SOL     OW 3910   6.094   6.025   0.043
 1004SOL    HW1 3911   6.178   5.988   0.002
 1004SOL    HW2 3912   6.102   6.022   0.143
 1005SOL     OW 3913   0.104   6.763   3.415
 1005SOL    HW1 3914   0.158   6.847   3.410
 1005SOL    HW2 3915   0.093   6.725   3.324
 1006SOL     OW 3916   2.209   4.776   0.990
 1006SOL    HW1 3917   2.157   4.849   1.034
 1006SOL    HW2 3918   2.250   4.717   1.060
 1007SOL     OW 3919   0.132   1.095   3.566
 1007SOL    HW1 3920   0.034   1.080   3.555
 1007SOL    HW2 3921   0.177   1.090   3.477
 1008SOL     OW 3922   2.046   3.350   3.478
 1008SOL    HW1 3923   2.065   3.432   3.425
 1008SOL    HW2 3924   2.068   3.269   3.424
 1009SOL     OW 3925   1.445   6.293   5.352
 1009SOL    HW1 3926   1.377   6.293   5.425
 1009SOL    HW2 3927   1.483   6.385   5.342
 1010SOL     OW 3928   4.848   1.685   0.313
 1010SOL    HW1 3929   4.828   1.760   0.376
 1010SOL    HW2 3930   4.768   1.667   0.257
 1011SOL     OW 3931   3.350   6.339   3.144
 1011SOL    HW1 3932   3.396   6.394   3.214
 1011SOL    HW2 3933   3.414   6.323   3.069
 1012SOL     OW 3934   4.695   5.637   6.865
 1012SOL    HW1 3935   4.748   5.719   6.886
 1012SOL    HW2 3936   4.676   5.634   6.767
 1013SOL     OW 3937   0.689   1.101   1.490
 1013SOL    HW1 3938   0.747   1.046   1.429
 1013SOL    HW2 3939   0.594   1.096   1.458
 1014SOL     OW 3940   4.605   0.094   5.924
 1014SOL    HW1 3941   4.631   0.191   5.921
 1014SOL    HW2 3942   4.670   0.044   5.981
 1015SOL     OW 3943   3.409   6.044   3.871
 1015SOL    HW1 3944   3.321   6.091   3.882
 1015SOL    HW2 3945   3.417   5.973   3.941
 1016SOL     OW 3946   4.232   2.687   1.355
 1016SOL    HW1 3947   4.261   2.735   1.438
 1016SOL    HW2 3948   4.136   2.661   1.364
 1017SOL     OW 3949   4.226   1.833   6.484
 1017SOL    HW1 3950   4.205   1.930   6.476
 1017SOL    HW2 3951   4.271   1.801   6.400
 1018SOL     OW 3952   1.872   3.388   3.051
 1018SOL    HW1 3953   1.913   3.408   2.962
 1018SOL    HW2 3954   1.867   3.472   3.105
 1019SOL     OW 3955   6.305   0.936   0.407
 1019SOL    HW1 3956   6.403   0.949   0.419
 1019SOL    HW2 3957   6.258   0.951   0.494
 1020SOL     OW 3958   2.867   1.707   1.741
 1020SOL    HW1 3959   2.797   1.770   1.708
 1020SOL    HW2 3960   2.900   1.738   1.830
 1021SOL     OW 3961   6.732   1.158   1.124
 1021SOL    HW1 3962   6.731   1.242   1.178
 1021SOL    HW2 3963   6.673   1.169   1.044
 1022SOL     OW 3964   4.083   3.242   6.674
 1022SOL    HW1 3965   4.182   3.235   6.673
 1022SOL    HW2 3966   4.050   3.274   6.585
 1023SOL     OW 3967   5.577   0.989   2.812
 1023SOL    HW1 3968   5.503   0.999   2.746
 1023SOL    HW2 3969   5.558   1.047   2.892
 1024SOL     OW 3970   6.830   1.473   3.251
 1024SOL    HW1 3971   6.919   1.450   3.212
 1024SOL    HW2 3972   6.780   1.389   3.272
 1025SOL     OW 3973   3.120   4.858   1.037
 1025SOL    HW1 3974   3.116   4.819   0.945
 1025SOL    HW2 3975   3.029   4.851   1.079
 1026SOL     OW 3976   0.910   2.471   0.445
 1026SOL    HW1 3977   0.973   2.541   0.477
 1026SOL    HW2 3978   0.877   2.495   0.354
 1027SOL     OW 3979   2.721   4.771   2.567
 1027SOL    HW1 3980   2.737   4.738   2.660
 1027SOL    HW2 3981   2.793   4.836   2.542
 1028SOL     OW 3982   1.713   6.620   0.560
 1028SOL    HW1 3983   1.761   6.573   0.486
 1028SOL    HW2 3984   1.641   6.561   0.597
 1029SOL     OW 3985   2.686   0.654   6.306
 1029SOL    HW1 3986   2.665   0.670   6.402
 1029SOL    HW2 3987   2.737   0.732   6.270
 1030SOL     OW 3988   3.987   3.984   5.051
 1030SOL    HW1 3989   4.014   3.983   4.955
 1030SOL    HW2 3990   3.892   4.015   5.058
 1031SOL     OW 3991   2.007   5.747   1.511
 1031SOL    HW1 3992   2.033   5.843   1.505
 1031SOL    HW2 3993   1.996   5.709   1.419
 1032SOL     OW 3994   2.036   0.552   4.251
 1032SOL    HW1 3995   2.064   0.473   4.305
 1032SOL    HW2 3996   1.992   0.620   4.311
 1033SOL     OW 3997   2.542   5.914   2.690
 1033SOL    HW1 3998   2.592   5.930   2.775
 1033SOL    HW2 3999   2.567   5.825   2.653
 1034SOL     OW 4000   1.376   4.837   4.141
 1034SOL    HW1 4001   1.414   4.791   4.061
 1034SOL    HW2 4002   1.370   4.772   4.217
 1035SOL     OW 4003   2.186   1.514   4.616
 1035SOL    HW1 4004   2.186   1.512   4.716
 1035SOL    HW2 4005   2.123   1.444   4.582
 1036SOL     OW 4006   4.673   2.187   0.281
 1036SOL    HW1 4007   4.601   2.194   0.212
 1036SOL    HW2 4008   4.758   2.224   0.245
 1037SOL     OW 4009   2.033   2.196   6.872
 1037SOL    HW1 4010   2.123   2.232   6.849
 1037SOL    HW2 4011   1.994   2.150   6.793
 1038SOL     OW 4012   2.188   0.919   4.797
 1038SOL    HW1 4013   2.173   0.822   4.783
 1038SOL    HW2 4014   2.227   0.960   4.715
 1039SOL     OW 4015   3.894   1.754   3.636
 1039SOL    HW1 4016   3.846   1.731   3.721
 1039SOL    HW2 4017   3.931   1.671   3.595
 1040SOL     OW 4018   6.313   4.243   3.219
 1040SOL    HW1 4019   6.317   4.229   3.120
 1040SOL    HW2 4020   6.280   4.160   3.264
 1041SOL     OW 4021   1.002   0.439   4.369
 1041SOL    HW1 4022   1.064   0.363   4.351
 1041SOL    HW2 4023   0.917   0.426   4.319
 1042SOL     OW 4024   5.418   4.515   0.869
 1042SOL    HW1 4025   5.465   4.458   0.802
 1042SOL    HW2 4026   5.320   4.512   0.853
 1043SOL     OW 4027   3.445   1.264   6.405
 1043SOL    HW1 4028   3.354   1.246   6.369
 1043SOL    HW2 4029   3.498   1.180   6.405
 1044SOL     OW 4030   4.206   3.294   1.794
 1044SOL    HW1 4031   4.234   3.381   1.834
 1044SOL    HW2 4032   4.123   3.261   1.841
 1045SOL     OW 4033   3.151   1.500   3.119
 1045SOL    HW1 4034   3.057   1.473   3.138
 1045SOL    HW2 4035   3.178   1.573   3.182
 1046SOL     OW 4036   4.269   0.360   1.718
 1046SOL    HW1 4037   4.347   0.349   1.780
 1046SOL    HW2 4038   4.287   0.436   1.655
 1047SOL     OW 4039   1.027   4.757   2.438
 1047SOL    HW1 4040   1.014   4.819   2.515
 1047SOL    HW2 4041   0.944   4.756   2.382
 1048SOL     OW 4042   5.119   4.396   5.492
 1048SOL    HW1 4043   5.143   4.300   5.506
 1048SOL    HW2 4044   5.197   4.446   5.455
 1049SOL     OW 4045   0.266   3.382   4.698
 1049SOL    HW1 4046   0.223   3.299   4.733
 1049SOL    HW2 4047   0.316   3.427   4.771
 1050SOL     OW 4048   2.802   0.596   6.997
 1050SOL    HW1 4049   2.705   0.590   7.020
 1050SOL    HW2 4050   2.856   0.563   0.051
 1051SOL     OW 4051   4.553   4.330   1.366
 1051SOL    HW1 4052   4.572   4.284   1.280
 1051SOL    HW2 4053   4.480   4.283   1.415
 1052SOL     OW 4054   3.454   0.208   4.512
 1052SOL    HW1 4055   3.394   0.288   4.518
 1052SOL    HW2 4056   3.527   0.216   4.579
 1053SOL     OW 4057   4.200   4.760   3.780
 1053SOL    HW1 4058   4.280   4.729   3.729
 1053SOL    HW2 4059   4.221   4.759   3.878
 1054SOL     OW 4060   3.768   5.915   4.372
 1054SOL    HW1 4061   3.841   5.876   4.429
 1054SOL    HW2 4062   3.807   5.982   4.309
 1055SOL     OW 4063   4.642   5.145   4.767
 1055SOL    HW1 4064   4.668   5.208   4.840
 1055SOL    HW2 4065   4.716   5.139   4.700
 1056SOL     OW 4066   1.550   6.577   5.359
 1056SOL    HW1 4067   1.539   6.562   5.261
 1056SOL    HW2 4068   1.647   6.594   5.380
 1057SOL     OW 4069   3.467   4.150   1.971
 1057SOL    HW1 4070   3.387   4.113   2.019
 1057SOL    HW2 4071   3.439   4.189   1.884
 1058SOL     OW 4072   3.839   1.236   1.601
 1058SOL    HW1 4073   3.928   1.217   1.559
 1058SOL    HW2 4074   3.773   1.167   1.572
 1059SOL     OW 4075   3.470   1.585   0.968
 1059SOL    HW1 4076   3.428   1.503   1.006
 1059SOL    HW2 4077   3.448   1.663   1.026
 1060SOL     OW 4078   2.680   2.433   5.544
 1060SOL    HW1 4079   2.695   2.472   5.454
 1060SOL    HW2 4080   2.591   2.386   5.546
 1061SOL     OW 4081   2.954   5.903   1.743
 1061SOL    HW1 4082   2.941   5.966   1.820
 1061SOL    HW2 4083   2.899   5.933   1.665
 1062SOL     OW 4084   5.672   4.912   4.715
 1062SOL    HW1 4085   5.647   4.883   4.622
 1062SOL    HW2 4086   5.614   4.865   4.781
 1063SOL     OW 4087   1.997   2.476   6.773
 1063SOL    HW1 4088   2.061   2.549   6.746
 1063SOL    HW2 4089   2.024   2.440   6.862
 1064SOL     OW 4090   6.921   2.864   1.447
 1064SOL    HW1 4091   6.915   2.773   1.486
 1064SOL    HW2 4092   6.834   2.912   1.460
 1065SOL     OW 4093   6.424   6.150   4.996
 1065SOL    HW1 4094   6.395   6.153   4.900
 1065SOL    HW2 4095   6.502   6.210   5.010
 1066SOL     OW 4096   3.725   0.448   3.375
 1066SOL    HW1 4097   3.689   0.529   3.422
 1066SOL    HW2 4098   3.723   0.371   3.439
 1067SOL     OW 4099   1.944   3.014   1.268
 1067SOL    HW1 4100   1.890   3.007   1.352
 1067SOL    HW2 4101   2.035   2.975   1.284
 1068SOL     OW 4102   0.771   3.376   1.992
 1068SOL    HW1 4103   0.771   3.464   2.038
 1068SOL    HW2 4104   0.690   3.324   2.019
 1069SOL     OW 4105   3.686   3.756   1.688
 1069SOL    HW1 4106   3.635   3.750   1.774
 1069SOL    HW2 4107   3.758   3.686   1.687
 1070SOL     OW 4108   2.122   0.981   6.950
 1070SOL    HW1 4109   2.105   0.939   0.015
 1070SOL    HW2 4110   2.049   0.956   6.887
 1071SOL     OW 4111   3.943   6.623   3.225
 1071SOL    HW1 4112   4.035   6.646   3.260
 1071SOL    HW2 4113   3.877   6.689   3.262
 1072SOL     OW 4114   3.832   5.829   2.882
 1072SOL    HW1 4115   3.764   5.782   2.939
 1072SOL    HW2 4116   3.908   5.860   2.940
 1073SOL     OW 4117   2.528   4.794   2.853
 1073SOL    HW1 4118   2.627   4.781   2.851
 1073SOL    HW2 4119   2.484   4.711   2.887
 1074SOL     OW 4120   1.436   5.505   2.126
 1074SOL    HW1 4121   1.345   5.516   2.166
 1074SOL    HW2 4122   1.427   5.463   2.036
 1075SOL     OW 4123   0.193   4.162   3.778
 1075SOL    HW1 4124   0.256   4.091   3.747
 1075SOL    HW2 4125   0.120   4.174   3.710
 1076SOL     OW 4126   0.233   4.859   3.485
 1076SOL    HW1 4127   0.266   4.873   3.392
 1076SOL    HW2 4128   0.234   4.945   3.535
 1077SOL     OW 4129   4.788   0.166   0.540
 1077SOL    HW1 4130   4.712   0.107   0.511
 1077SOL    HW2 4131   4.752   0.255   0.567
 1078SOL     OW 4132   0.517   1.893   1.249
 1078SOL    HW1 4133   0.579   1.882   1.327
 1078SOL    HW2 4134   0.468   1.807   1.233
 1079SOL     OW 4135   2.668   5.598   3.160
 1079SOL    HW1 4136   2.670   5.498   3.162
 1079SOL    HW2 4137   2.596   5.630   3.221
 1080SOL     OW 4138   1.838   5.181   4.585
 1080SOL    HW1 4139   1.862   5.169   4.681
 1080SOL    HW2 4140   1.781   5.105   4.555
 1081SOL     OW 4141   1.408   0.977   6.872
 1081SOL    HW1 4142   1.392   1.028   6.957
 1081SOL    HW2 4143   1.332   0.915   6.857
 1082SOL     OW 4144   2.376   0.106   6.378
 1082SOL    HW1 4145   2.286   0.145   6.399
 1082SOL    HW2 4146   2.421   0.161   6.307
 1083SOL     OW 4147   3.985   3.030   1.483
 1083SOL    HW1 4148   3.896   3.063   1.517
 1083SOL    HW2 4149   3.983   3.025   1.383
 1084SOL     OW 4150   6.310   3.621   0.700
 1084SOL    HW1 4151   6.367   3.694   0.737
 1084SOL    HW2 4152   6.235   3.602   0.764
 1085SOL     OW 4153   2.121   3.850   3.914
 1085SOL    HW1 4154   2.117   3.806   4.004
 1085SOL    HW2 4155   2.138   3.780   3.844
 1086SOL     OW 4156   4.051   4.804   2.085
 1086SOL    HW1 4157   3.965   4.841   2.050
 1086SOL    HW2 4158   4.098   4.874   2.139
 1087SOL     OW 4159   4.453   2.944   5.360
 1087SOL    HW1 4160   4.372   2.902   5.320
 1087SOL    HW2 4161   4.477   2.897   5.445
 1088SOL     OW 4162   5.073   3.842   3.282
 1088SOL    HW1 4163   5.144   3.910   3.264
 1088SOL    HW2 4164   5.070   3.775   3.208
 1089SOL     OW 4165   6.475   0.273   3.327
 1089SOL    HW1 4166   6.485   0.322   3.413
 1089SOL    HW2 4167   6.419   0.327   3.264
 1090SOL     OW 4168   0.516   1.996   5.665
 1090SOL    HW1 4169   0.582   2.060   5.702
 1090SOL    HW2 4170   0.519   1.998   5.565
 1091SOL     OW 4171   1.052   1.674   5.038
 1091SOL    HW1 4172   1.104   1.719   4.965
 1091SOL    HW2 4173   0.988   1.739   5.079
 1092SOL     OW 4174   2.178   4.618   1.237
 1092SOL    HW1 4175   2.239   4.680   1.287
 1092SOL    HW2 4176   2.218   4.526   1.234
 1093SOL     OW 4177   0.945   1.802   2.186
 1093SOL    HW1 4178   0.934   1.711   2.225
 1093SOL    HW2 4179   0.875   1.818   2.117
 1094SOL     OW 4180   0.511   6.667   1.873
 1094SOL    HW1 4181   0.423   6.651   1.829
 1094SOL    HW2 4182   0.522   6.604   1.949
 1095SOL     OW 4183   5.927   3.814   6.442
 1095SOL    HW1 4184   6.017   3.849   6.466
 1095SOL    HW2 4185   5.873   3.887   6.399
 1096SOL     OW 4186   3.378   4.228   1.716
 1096SOL    HW1 4187   3.472   4.264   1.713
 1096SOL    HW2 4188   3.315   4.298   1.682
 1097SOL     OW 4189   1.714   4.824   5.402
 1097SOL    HW1 4190   1.730   4.899   5.467
 1097SOL    HW2 4191   1.621   4.790   5.412
 1098SOL     OW 4192   4.467   1.464   2.800
 1098SOL    HW1 4193   4.540   1.446   2.734
 1098SOL    HW2 4194   4.411   1.382   2.811
 1099SOL     OW 4195   3.680   1.735   2.768
 1099SOL    HW1 4196   3.687   1.826   2.726
 1099SOL    HW2 4197   3.643   1.743   2.860
 1100SOL     OW 4198   0.861   0.666   0.450
 1100SOL    HW1 4199   0.780   0.630   0.405
 1100SOL    HW2 4200   0.943   0.630   0.405
 1101SOL     OW 4201   5.254   2.752   0.719
 1101SOL    HW1 4202   5.166   2.709   0.742
 1101SOL    HW2 4203   5.274   2.824   0.784
 1102SOL     OW 4204   0.630   5.076   3.270
 1102SOL    HW1 4205   0.610   5.119   3.182
 1102SOL    HW2 4206   0.595   5.133   3.344
 1103SOL     OW 4207   0.486   3.172   1.277
 1103SOL    HW1 4208   0.461   3.224   1.359
 1103SOL    HW2 4209   0.586   3.166   1.271
 1104SOL     OW 4210   2.631   4.990   5.842
 1104SOL    HW1 4211   2.582   4.919   5.791
 1104SOL    HW2 4212   2.565   5.056   5.878
 1105SOL     OW 4213   4.539   5.789   0.168
 1105SOL    HW1 4214   4.632   5.753   0.177
 1105SOL    HW2 4215   4.503   5.767   0.078
 1106SOL     OW 4216   0.368   1.844   6.488
 1106SOL    HW1 4217   0.277   1.876   6.460
 1106SOL    HW2 4218   0.368   1.827   6.587
 1107SOL     OW 4219   1.768   0.612   0.934
 1107SOL    HW1 4220   1.799   0.699   0.972
 1107SOL    HW2 4221   1.716   0.562   1.002
 1108SOL     OW 4222   0.640   2.086   5.404
 1108SOL    HW1 4223   0.701   2.065   5.480
 1108SOL    HW2 4224   0.679   2.160   5.349
 1109SOL     OW 4225   5.258   0.809   4.137
 1109SOL    HW1 4226   5.276   0.860   4.222
 1109SOL    HW2 4227   5.284   0.865   4.059
 1110SOL     OW 4228   3.605   3.097   2.380
 1110SOL    HW1 4229   3.704   3.095   2.374
 1110SOL    HW2 4230   3.568   3.006   2.361
 1111SOL     OW 4231   5.763   6.529   0.149
 1111SOL    HW1 4232   5.812   6.610   0.182
 1111SOL    HW2 4233   5.763   6.459   0.220
 1112SOL     OW 4234   6.098   0.640   2.681
 1112SOL    HW1 4235   6.113   0.639   2.582
 1112SOL    HW2 4236   6.166   0.698   2.724
 1113SOL     OW 4237   6.434   3.693   1.884
 1113SOL    HW1 4238   6.409   3.619   1.821
 1113SOL    HW2 4239   6.365   3.701   1.955
 1114SOL     OW 4240   5.015   1.288   4.973
 1114SOL    HW1 4241   4.945   1.353   5.002
 1114SOL    HW2 4242   5.101   1.336   4.957
 1115SOL     OW 4243   2.479   3.143   0.811
 1115SOL    HW1 4244   2.463   3.231   0.766
 1115SOL    HW2 4245   2.458   3.069   0.747
 1116SOL     OW 4246   4.624   6.168   4.514
 1116SOL    HW1 4247   4.682   6.131   4.441
 1116SOL    HW2 4248   4.584   6.254   4.483
 1117SOL     OW 4249   2.527   3.371   1.114
 1117SOL    HW1 4250   2.478   3.284   1.122
 1117SOL    HW2 4251   2.612   3.356   1.064
 1118SOL     OW 4252   2.019   3.772   3.482
 1118SOL    HW1 4253   2.056   3.847   3.427
 1118SOL    HW2 4254   2.080   3.753   3.559
 1119SOL     OW 4255   3.672   4.128   2.122
 1119SOL    HW1 4256   3.693   4.223   2.147
 1119SOL    HW2 4257   3.585   4.125   2.073
 1120SOL     OW 4258   4.593   0.628   4.267
 1120SOL    HW1 4259   4.503   0.588   4.284
 1120SOL    HW2 4260   4.631   0.664   4.353
 1121SOL     OW 4261   5.474   3.511   1.766
 1121SOL    HW1 4262   5.375   3.499   1.759
 1121SOL    HW2 4263   5.501   3.593   1.715
 1122SOL     OW 4264   5.077   4.529   6.739
 1122SOL    HW1 4265   5.031   4.441   6.745
 1122SOL    HW2 4266   5.012   4.603   6.756
 1123SOL     OW 4267   3.683   0.835   2.110
 1123SOL    HW1 4268   3.673   0.746   2.156
 1123SOL    HW2 4269   3.756   0.886   2.153
 1124SOL     OW 4270   0.913   4.149   4.789
 1124SOL    HW1 4271   0.993   4.164   4.847
 1124SOL    HW2 4272   0.865   4.066   4.818
 1125SOL     OW 4273   3.865   3.400   5.098
 1125SOL    HW1 4274   3.885   3.435   5.007
 1125SOL    HW2 4275   3.883   3.302   5.101
 1126SOL     OW 4276   5.968   6.719   2.207
 1126SOL    HW1 4277   6.026   6.755   2.280
 1126SOL    HW2 4278   5.913   6.643   2.243
 1127SOL     OW 4279   1.530   4.792   0.123
 1127SOL    HW1 4280   1.468   4.767   0.198
 1127SOL    HW2 4281   1.564   4.884   0.137
 1128SOL     OW 4282   2.839   1.908   4.551
 1128SOL    HW1 4283   2.739   1.901   4.543
 1128SOL    HW2 4284   2.869   1.995   4.513
 1129SOL     OW 4285   5.801   0.087   6.965
 1129SOL    HW1 4286   5.848   0.167   6.929
 1129SOL    HW2 4287   5.867   0.029   7.013
 1130SOL     OW 4288   0.179   4.719   5.910
 1130SOL    HW1 4289   0.140   4.806   5.941
 1130SOL    HW2 4290   0.113   4.671   5.854
 1131SOL     OW 4291   0.636   5.009   6.403
 1131SOL    HW1 4292   0.549   5.057   6.392
 1131SOL    HW2 4293   0.619   4.911   6.417
 1132SOL     OW 4294   5.052   0.163   5.529
 1132SOL    HW1 4295   5.076   0.259   5.542
 1132SOL    HW2 4296   5.020   0.125   5.616
 1133SOL     OW 4297   0.964   3.207   1.464
 1133SOL    HW1 4298   0.967   3.281   1.398
 1133SOL    HW2 4299   1.041   3.215   1.526
 1134SOL     OW 4300   5.889   3.298   6.141
 1134SOL    HW1 4301   5.939   3.227   6.092
 1134SOL    HW2 4302   5.946   3.380   6.148
 1135SOL     OW 4303   4.355   1.687   3.320
 1135SOL    HW1 4304   4.293   1.720   3.391
 1135SOL    HW2 4305   4.401   1.604   3.352
 1136SOL     OW 4306   3.601   5.131   4.168
 1136SOL    HW1 4307   3.680   5.160   4.221
 1136SOL    HW2 4308   3.615   5.154   4.072
 1137SOL     OW 4309   1.651   1.239   5.712
 1137SOL    HW1 4310   1.739   1.192   5.717
 1137SOL    HW2 4311   1.656   1.325   5.764
 1138SOL     OW 4312   1.088   4.151   5.452
 1138SOL    HW1 4313   1.103   4.173   5.548
 1138SOL    HW2 4314   1.135   4.065   5.430
 1139SOL     OW 4315   1.330   6.381   1.663
 1139SOL    HW1 4316   1.240   6.424   1.671
 1139SOL    HW2 4317   1.324   6.286   1.695
 1140SOL     OW 4318   3.098   1.747   3.600
 1140SOL    HW1 4319   3.010   1.794   3.608
 1140SOL    HW2 4320   3.172   1.814   3.606
 1141SOL     OW 4321   6.845   5.501   5.809
 1141SOL    HW1 4322   6.905   5.546   5.876
 1141SOL    HW2 4323   6.891   5.421   5.771
 1142SOL     OW 4324   6.155   1.004   3.691
 1142SOL    HW1 4325   6.113   0.970   3.607
 1142SOL    HW2 4326   6.085   1.045   3.749
 1143SOL     OW 4327   4.234   1.899   3.198
 1143SOL    HW1 4328   4.273   1.815   3.235
 1143SOL    HW2 4329   4.303   1.972   3.202
 1144SOL     OW 4330   0.008   6.197   5.075
 1144SOL    HW1 4331   6.970   6.266   5.113
 1144SOL    HW2 4332   6.979   6.132   5.020
 1145SOL     OW 4333   0.950   5.379   5.070
 1145SOL    HW1 4334   0.960   5.345   4.976
 1145SOL    HW2 4335   0.974   5.306   5.134
 1146SOL     OW 4336   5.696   2.226   0.744
 1146SOL    HW1 4337   5.769   2.272   0.795
 1146SOL    HW2 4338   5.730   2.195   0.656
 1147SOL     OW 4339   6.154   2.386   1.555
 1147SOL    HW1 4340   6.252   2.365   1.561
 1147SOL    HW2 4341   6.117   2.350   1.470
 1148SOL     OW 4342   3.822   0.339   0.565
 1148SOL    HW1 4343   3.846   0.435   0.581
 1148SOL    HW2 4344   3.756   0.310   0.634
 1149SOL     OW 4345   6.738   3.476   2.500
 1149SOL    HW1 4346   6.781   3.469   2.591
 1149SOL    HW2 4347   6.803   3.445   2.431
 1150SOL     OW 4348   1.403   4.736   6.501
 1150SOL    HW1 4349   1.450   4.732   6.413
 1150SOL    HW2 4350   1.449   4.803   6.560
 1151SOL     OW 4351   4.715   5.453   0.094
 1151SOL    HW1 4352   4.694   5.515   0.019
 1151SOL    HW2 4353   4.755   5.369   0.057
 1152SOL     OW 4354   0.230   0.598   4.646
 1152SOL    HW1 4355   0.168   0.672   4.671
 1152SOL    HW2 4356   0.304   0.591   4.713
 1153SOL     OW 4357   2.315   5.170   2.413
 1153SOL    HW1 4358   2.403   5.161   2.459
 1153SOL    HW2 4359   2.322   5.239   2.341
 1154SOL     OW 4360   1.770   4.964   1.593
 1154SOL    HW1 4361   1.726   5.008   1.672
 1154SOL    HW2 4362   1.868   4.953   1.612
 1155SOL     OW 4363   3.144   5.780   2.119
 1155SOL    HW1 4364   3.193   5.818   2.040
 1155SOL    HW2 4365   3.062   5.835   2.136
 1156SOL     OW 4366   2.247   0.629   4.073
 1156SOL    HW1 4367   2.158   0.604   4.112
 1156SOL    HW2 4368   2.313   0.643   4.147
 1157SOL     OW 4369   1.088   2.836   4.372
 1157SOL    HW1 4370   1.102   2.877   4.282
 1157SOL    HW2 4371   1.169   2.783   4.398
 1158SOL     OW 4372   4.545   5.545   5.322
 1158SOL    HW1 4373   4.523   5.448   5.331
 1158SOL    HW2 4374   4.612   5.571   5.392
 1159SOL     OW 4375   4.910   5.019   3.059
 1159SOL    HW1 4376   4.848   5.075   3.005
 1159SOL    HW2 4377   4.926   5.063   3.147
 1160SOL     OW 4378   3.027   3.554   0.431
 1160SOL    HW1 4379   3.101   3.487   0.440
 1160SOL    HW2 4380   2.941   3.512   0.461
 1161SOL     OW 4381   4.479   0.381   3.922
 1161SOL    HW1 4382   4.414   0.367   3.997
 1161SOL    HW2 4383   4.572   0.380   3.957
 1162SOL     OW 4384   3.625   4.344   1.715
 1162SOL    HW1 4385   3.682   4.273   1.673
 1162SOL    HW2 4386   3.682   4.423   1.736
 1163SOL     OW 4387   4.997   2.641   2.676
 1163SOL    HW1 4388   5.058   2.605   2.605
 1163SOL    HW2 4389   4.906   2.601   2.664
 1164SOL     OW 4390   5.979   3.299   3.284
 1164SOL    HW1 4391   6.063   3.352   3.295
 1164SOL    HW2 4392   5.996   3.205   3.313
 1165SOL     OW 4393   1.313   4.945   2.012
 1165SOL    HW1 4394   1.385   4.883   1.981
 1165SOL    HW2 4395   1.276   4.912   2.099
 1166SOL     OW 4396   3.774   3.141   6.647
 1166SOL    HW1 4397   3.800   3.107   6.557
 1166SOL    HW2 4398   3.852   3.134   6.709
 1167SOL     OW 4399   4.763   1.465   5.057
 1167SOL    HW1 4400   4.712   1.388   5.019
 1167SOL    HW2 4401   4.761   1.461   5.157
 1168SOL     OW 4402   6.147   6.052   3.884
 1168SOL    HW1 4403   6.129   6.037   3.981
 1168SOL    HW2 4404   6.227   6.112   3.874
 1169SOL     OW 4405   1.118   3.803   1.571
 1169SOL    HW1 4406   1.203   3.791   1.623
 1169SOL    HW2 4407   1.132   3.770   1.478
 1170SOL     OW 4408   3.187   0.536   1.110
 1170SOL    HW1 4409   3.175   0.593   1.029
 1170SOL    HW2 4410   3.259   0.469   1.094
 1171SOL     OW 4411   1.726   6.364   0.480
 1171SOL    HW1 4412   1.632   6.341   0.506
 1171SOL    HW2 4413   1.788   6.344   0.556
 1172SOL     OW 4414   3.205   3.604   5.099
 1172SOL    HW1 4415   3.124   3.574   5.049
 1172SOL    HW2 4416   3.258   3.667   5.042
 1173SOL     OW 4417   4.483   1.123   6.121
 1173SOL    HW1 4418   4.560   1.155   6.177
 1173SOL    HW2 4419   4.436   1.049   6.169
 1174SOL     OW 4420   3.293   6.098   1.084
 1174SOL    HW1 4421   3.211   6.155   1.075
 1174SOL    HW2 4422   3.322   6.096   1.180
 1175SOL     OW 4423   5.949   4.576   5.806
 1175SOL    HW1 4424   6.047   4.563   5.821
 1175SOL    HW2 4425   5.928   4.564   5.709
 1176SOL     OW 4426   5.906   4.080   0.600
 1176SOL    HW1 4427   5.996   4.118   0.623
 1176SOL    HW2 4428   5.912   4.035   0.510
 1177SOL     OW 4429   6.116   2.625   6.812
 1177SOL    HW1 4430   6.132   2.661   6.903
 1177SOL    HW2 4431   6.095   2.700   6.749
 1178SOL     OW 4432   5.313   4.627   2.160
 1178SOL    HW1 4433   5.310   4.643   2.259
 1178SOL    HW2 4434   5.401   4.587   2.135
 1179SOL     OW 4435   2.646   6.134   6.383
 1179SOL    HW1 4436   2.677   6.065   6.448
 1179SOL    HW2 4437   2.716   6.147   6.312
 1180SOL     OW 4438   2.262   1.915   4.303
 1180SOL    HW1 4439   2.280   1.983   4.374
 1180SOL    HW2 4440   2.177   1.867   4.323
 1181SOL     OW 4441   2.358   4.359   2.781
 1181SOL    HW1 4442   2.306   4.275   2.770
 1181SOL    HW2 4443   2.365   4.406   2.693
 1182SOL     OW 4444   1.467   4.157   3.036
 1182SOL    HW1 4445   1.501   4.097   3.109
 1182SOL    HW2 4446   1.414   4.103   2.971
 1183SOL     OW 4447   4.767   5.823   1.320
 1183SOL    HW1 4448   4.836   5.757   1.289
 1183SOL    HW2 4449   4.686   5.774   1.351
 1184SOL     OW 4450   3.054   3.314   5.388
 1184SOL    HW1 4451   3.011   3.369   5.459
 1184SOL    HW2 4452   3.064   3.220   5.420
 1185SOL     OW 4453   1.895   1.741   6.405
 1185SOL    HW1 4454   1.991   1.714   6.404
 1185SOL    HW2 4455   1.838   1.660   6.389
 1186SOL     OW 4456   4.074   1.489   5.086
 1186SOL    HW1 4457   4.105   1.515   5.177
 1186SOL    HW2 4458   4.085   1.390   5.074
 1187SOL     OW 4459   6.778   0.970   5.155
 1187SOL    HW1 4460   6.787   0.880   5.113
 1187SOL    HW2 4461   6.688   1.008   5.133
 1188SOL     OW 4462   1.154   6.976   5.930
 1188SOL    HW1 4463   1.128   6.880   5.913
 1188SOL    HW2 4464   1.151   0.003   5.844
 1189SOL     OW 4465   6.257   0.972   1.938
 1189SOL    HW1 4466   6.288   0.961   1.843
 1189SOL    HW2 4467   6.250   0.883   1.981
 1190SOL     OW 4468   4.034   4.825   3.105
 1190SOL    HW1 4469   4.038   4.796   3.201
 1190SOL    HW2 4470   4.058   4.922   3.098
 1191SOL     OW 4471   3.356   5.144   6.789
 1191SOL    HW1 4472   3.341   5.045   6.795
 1191SOL    HW2 4473   3.338   5.175   6.696
 1192SOL     OW 4474   4.548   5.026   2.373
 1192SOL    HW1 4475   4.552   4.952   2.305
 1192SOL    HW2 4476   4.465   5.080   2.359
 1193SOL     OW 4477   4.419   0.375   3.641
 1193SOL    HW1 4478   4.447   0.380   3.737
 1193SOL    HW2 4479   4.437   0.283   3.606
 1194SOL     OW 4480   5.993   0.367   0.851
 1194SOL    HW1 4481   6.054   0.443   0.872
 1194SOL    HW2 4482   5.992   0.302   0.927
 1195SOL     OW 4483   4.105   0.437   6.345
 1195SOL    HW1 4484   4.189   0.487   6.365
 1195SOL    HW2 4485   4.054   0.485   6.274
 1196SOL     OW 4486   0.269   5.406   2.057
 1196SOL    HW1 4487   0.315   5.414   2.145
 1196SOL    HW2 4488   0.311   5.332   2.005
 1197SOL     OW 4489   2.846   4.950   6.050
 1197SOL    HW1 4490   2.942   4.941   6.077
 1197SOL    HW2 4491   2.840   4.960   5.950
 1198SOL     OW 4492   3.292   1.840   2.839
 1198SOL    HW1 4493   3.223   1.791   2.787
 1198SOL    HW2 4494   3.320   1.922   2.789
 1199SOL     OW 4495   3.938   3.924   3.115
 1199SOL    HW1 4496   4.012   3.872   3.073
 1199SOL    HW2 4497   3.885   3.970   3.044
 1200SOL     OW 4498   3.384   4.424   7.011
 1200SOL    HW1 4499   3.345   4.369   0.061
 1200SOL    HW2 4500   3.315   4.488   6.977
 1201SOL     OW 4501   1.433   0.697   4.991
 1201SOL    HW1 4502   1.370   0.709   5.067
 1201SOL    HW2 4503   1.414   0.765   4.920
 1202SOL     OW 4504   5.823   6.679   5.057
 1202SOL    HW1 4505   5.874   6.604   5.015
 1202SOL    HW2 4506   5.882   6.728   5.120
 1203SOL     OW 4507   6.100   6.942   1.966
 1203SOL    HW1 4508   6.105   6.843   1.968
 1203SOL    HW2 4509   6.041   6.975   2.040
 1204SOL     OW 4510   3.302   0.498   0.325
 1204SOL    HW1 4511   3.400   0.488   0.310
 1204SOL    HW2 4512   3.275   0.441   0.403
 1205SOL     OW 4513   0.378   2.913   5.339
 1205SOL    HW1 4514   0.470   2.873   5.345
 1205SOL    HW2 4515   0.363   2.973   5.417
 1206SOL     OW 4516   1.288   1.528   4.707
 1206SOL    HW1 4517   1.341   1.445   4.723
 1206SOL    HW2 4518   1.279   1.544   4.609
 1207SOL     OW 4519   5.645   6.292   0.043
 1207SOL    HW1 4520   5.718   6.223   0.047
 1207SOL    HW2 4521   5.674   6.375   0.089
 1208SOL     OW 4522   4.144   3.508   3.951
 1208SOL    HW1 4523   4.211   3.458   4.007
 1208SOL    HW2 4524   4.171   3.503   3.855
 1209SOL     OW 4525   6.059   5.155   4.385
 1209SOL    HW1 4526   6.064   5.153   4.485
 1209SOL    HW2 4527   6.008   5.076   4.352
 1210SOL     OW 4528   3.071   6.585   2.561
 1210SOL    HW1 4529   3.111   6.588   2.470
 1210SOL    HW2 4530   3.102   6.502   2.608
 1211SOL     OW 4531   1.234   3.921   4.705
 1211SOL    HW1 4532   1.174   3.935   4.627
 1211SOL    HW2 4533   1.207   3.982   4.780
 1212SOL     OW 4534   2.201   3.878   4.462
 1212SOL    HW1 4535   2.175   3.970   4.491
 1212SOL    HW2 4536   2.195   3.871   4.363
 1213SOL     OW 4537   5.767   2.806   5.700
 1213SOL    HW1 4538   5.742   2.711   5.717
 1213SOL    HW2 4539   5.850   2.828   5.750
 1214SOL     OW 4540   2.265   2.714   3.545
 1214SOL    HW1 4541   2.244   2.808   3.517
 1214SOL    HW2 4542   2.181   2.659   3.543
 1215SOL     OW 4543   0.718   4.825   1.528
 1215SOL    HW1 4544   0.707   4.900   1.462
 1215SOL    HW2 4545   0.814   4.821   1.558
 1216SOL     OW 4546   2.739   0.022   2.018
 1216SOL    HW1 4547   2.732   0.054   2.113
 1216SOL    HW2 4548   2.744   0.102   1.958
 1217SOL     OW 4549   1.391   1.005   2.721
 1217SOL    HW1 4550   1.358   1.091   2.683
 1217SOL    HW2 4551   1.477   1.020   2.770
 1218SOL     OW 4552   0.575   3.340   3.983
 1218SOL    HW1 4553   0.585   3.351   3.884
 1218SOL    HW2 4554   0.493   3.285   4.002
 1219SOL     OW 4555   2.781   5.862   2.414
 1219SOL    HW1 4556   2.733   5.939   2.457
 1219SOL    HW2 4557   2.726   5.779   2.424
 1220SOL     OW 4558   6.429   3.467   2.772
 1220SOL    HW1 4559   6.490   3.473   2.851
 1220SOL    HW2 4560   6.409   3.559   2.739
 1221SOL     OW 4561   4.746   2.951   6.969
 1221SOL    HW1 4562   4.736   3.050   6.968
 1221SOL    HW2 4563   4.818   2.925   0.010
 1222SOL     OW 4564   6.600   6.247   1.342
 1222SOL    HW1 4565   6.561   6.250   1.250
 1222SOL    HW2 4566   6.581   6.158   1.383
 1223SOL     OW 4567   6.399   5.970   5.416
 1223SOL    HW1 4568   6.373   5.885   5.369
 1223SOL    HW2 4569   6.366   6.048   5.363
 1224SOL     OW 4570   5.778   5.155   2.147
 1224SOL    HW1 4571   5.733   5.123   2.063
 1224SOL    HW2 4572   5.735   5.241   2.176
 1225SOL     OW 4573   5.014   1.733   0.102
 1225SOL    HW1 4574   5.028   1.666   0.030
 1225SOL    HW2 4575   4.990   1.686   0.187
 1226SOL     OW 4576   5.262   4.631   0.460
 1226SOL    HW1 4577   5.308   4.719   0.464
 1226SOL    HW2 4578   5.198   4.630   0.383
 1227SOL     OW 4579   5.004   4.251   6.747
 1227SOL    HW1 4580   5.020   4.183   6.818
 1227SOL    HW2 4581   4.905   4.260   6.730
 1228SOL     OW 4582   3.776   2.983   3.523
 1228SOL    HW1 4583   3.682   2.991   3.490
 1228SOL    HW2 4584   3.789   3.044   3.601
 1229SOL     OW 4585   1.960   5.315   3.053
 1229SOL    HW1 4586   1.872   5.351   3.020
 1229SOL    HW2 4587   2.034   5.373   3.019
 1230SOL     OW 4588   5.584   4.569   1.473
 1230SOL    HW1 4589   5.564   4.640   1.406
 1230SOL    HW2 4590   5.572   4.605   1.566
 1231SOL     OW 4591   1.732   1.957   6.538
 1231SOL    HW1 4592   1.756   2.039   6.485
 1231SOL    HW2 4593   1.785   1.879   6.503
 1232SOL     OW 4594   2.803   0.781   5.592
 1232SOL    HW1 4595   2.870   0.832   5.537
 1232SOL    HW2 4596   2.757   0.844   5.654
 1233SOL     OW 4597   0.884   5.610   5.409
 1233SOL    HW1 4598   0.787   5.614   5.383
 1233SOL    HW2 4599   0.941   5.628   5.328
 1234SOL     OW 4600   0.388   3.181   0.435
 1234SOL    HW1 4601   0.414   3.251   0.502
 1234SOL    HW2 4602   0.409   3.214   0.343
 1235SOL     OW 4603   6.407   4.808   1.563
 1235SOL    HW1 4604   6.382   4.797   1.467
 1235SOL    HW2 4605   6.351   4.879   1.604
 1236SOL     OW 4606   1.690   1.202   2.602
 1236SOL    HW1 4607   1.763   1.163   2.544
 1236SOL    HW2 4608   1.660   1.133   2.667
 1237SOL     OW 4609   0.376   0.205   5.105
 1237SOL    HW1 4610   0.306   0.179   5.038
 1237SOL    HW2 4611   0.334   0.213   5.195
 1238SOL     OW 4612   0.390   0.492   4.418
 1238SOL    HW1 4613   0.350   0.509   4.508
 1238SOL    HW2 4614   0.487   0.516   4.420
 1239SOL     OW 4615   5.384   5.359   5.055
 1239SOL    HW1 4616   5.436   5.278   5.080
 1239SOL    HW2 4617   5.286   5.343   5.070
 1240SOL     OW 4618   7.005   4.126   2.710
 1240SOL    HW1 4619   0.022   4.106   2.799
 1240SOL    HW2 4620   0.043   4.096   2.638
 1241SOL     OW 4621   4.652   4.944   5.115
 1241SOL    HW1 4622   4.608   5.012   5.173
 1241SOL    HW2 4623   4.595   4.926   5.035
 1242SOL     OW 4624   1.408   5.073   0.208
 1242SOL    HW1 4625   1.374   4.999   0.267
 1242SOL    HW2 4626   1.330   5.119   0.165
 1243SOL     OW 4627   1.355   4.232   5.076
 1243SOL    HW1 4628   1.449   4.197   5.076
 1243SOL    HW2 4629   1.357   4.332   5.078
 1244SOL     OW 4630   5.904   0.097   5.499
 1244SOL    HW1 4631   5.920   0.028   5.570
 1244SOL    HW2 4632   5.976   0.167   5.504
 1245SOL     OW 4633   4.844   6.561   0.774
 1245SOL    HW1 4634   4.848   6.645   0.721
 1245SOL    HW2 4635   4.752   6.547   0.810
 1246SOL     OW 4636   5.035   0.684   0.210
 1246SOL    HW1 4637   5.045   0.686   0.110
 1246SOL    HW2 4638   5.073   0.599   0.245
 1247SOL     OW 4639   6.931   6.912   3.037
 1247SOL    HW1 4640   6.896   6.884   3.126
 1247SOL    HW2 4641   6.869   6.978   2.996
 1248SOL     OW 4642   1.607   6.513   4.413
 1248SOL    HW1 4643   1.617   6.489   4.316
 1248SOL    HW2 4644   1.694   6.549   4.447
 1249SOL     OW 4645   5.579   5.715   6.880
 1249SOL    HW1 4646   5.542   5.622   6.883
 1249SOL    HW2 4647   5.622   5.731   6.791
 1250SOL     OW 4648   6.519   3.191   5.022
 1250SOL    HW1 4649   6.609   3.233   5.035
 1250SOL    HW2 4650   6.526   3.092   5.037
 1251SOL     OW 4651   2.865   0.781   2.602
 1251SOL    HW1 4652   2.912   0.837   2.535
 1251SOL    HW2 4653   2.770   0.812   2.610
 1252SOL     OW 4654   1.971   6.303   6.631
 1252SOL    HW1 4655   1.980   6.399   6.603
 1252SOL    HW2 4656   1.970   6.297   6.731
 1253SOL     OW 4657   2.668   0.660   0.441
 1253SOL    HW1 4658   2.764   0.678   0.421
 1253SOL    HW2 4659   2.661   0.593   0.516
 1254SOL     OW 4660   6.187   0.325   2.626
 1254SOL    HW1 4661   6.210   0.414   2.666
 1254SOL    HW2 4662   6.227   0.252   2.682
 1255SOL     OW 4663   5.948   1.448   5.424
 1255SOL    HW1 4664   6.041   1.484   5.429
 1255SOL    HW2 4665   5.908   1.473   5.336
 1256SOL     OW 4666   1.197   5.341   4.318
 1256SOL    HW1 4667   1.145   5.262   4.285
 1256SOL    HW2 4668   1.275   5.309   4.372
 1257SOL     OW 4669   0.721   6.510   3.993
 1257SOL    HW1 4670   0.816   6.531   3.969
 1257SOL    HW2 4671   0.693   6.427   3.944
 1258SOL     OW 4672   4.314   6.369   5.380
 1258SOL    HW1 4673   4.323   6.468   5.374
 1258SOL    HW2 4674   4.404   6.327   5.374
 1259SOL     OW 4675   5.981   0.189   4.327
 1259SOL    HW1 4676   6.009   0.250   4.401
 1259SOL    HW2 4677   5.970   0.096   4.363
 1260SOL     OW 4678   2.676   1.443   1.513
 1260SOL    HW1 4679   2.740   1.516   1.488
 1260SOL    HW2 4680   2.662   1.383   1.435
 1261SOL     OW 4681   6.335   4.465   5.943
 1261SOL    HW1 4682   6.306   4.423   6.029
 1261SOL    HW2 4683   6.413   4.415   5.905
 1262SOL     OW 4684   4.165   4.969   0.833
 1262SOL    HW1 4685   4.095   5.039   0.844
 1262SOL    HW2 4686   4.160   4.932   0.740
 1263SOL     OW 4687   6.537   1.922   1.463
 1263SOL    HW1 4688   6.544   1.823   1.469
 1263SOL    HW2 4689   6.593   1.964   1.534
 1264SOL     OW 4690   0.331   3.314   3.826
 1264SOL    HW1 4691   0.233   3.308   3.846
 1264SOL    HW2 4692   0.363   3.226   3.791
 1265SOL     OW 4693   6.972   5.382   4.737
 1265SOL    HW1 4694   6.985   5.325   4.818
 1265SOL    HW2 4695   6.881   5.366   4.700
 1266SOL     OW 4696   1.899   1.693   4.678
 1266SOL    HW1 4697   1.990   1.720   4.709
 1266SOL    HW2 4698   1.847   1.657   4.755
 1267SOL     OW 4699   6.993   4.799   2.692
 1267SOL    HW1 4700   6.972   4.733   2.764
 1267SOL    HW2 4701   6.929   4.875   2.697
 1268SOL     OW 4702   6.888   3.025   0.046
 1268SOL    HW1 4703   6.913   3.118   0.018
 1268SOL    HW2 4704   6.826   3.028   0.124
 1269SOL     OW 4705   0.030   5.612   5.968
 1269SOL    HW1 4706   0.077   5.570   6.045
 1269SOL    HW2 4707   0.064   5.706   5.956
 1270SOL     OW 4708   1.875   3.346   4.536
 1270SOL    HW1 4709   1.787   3.393   4.539
 1270SOL    HW2 4710   1.861   3.250   4.512
 1271SOL     OW 4711   5.097   1.492   2.842
 1271SOL    HW1 4712   5.033   1.546   2.788
 1271SOL    HW2 4713   5.091   1.520   2.938
 1272SOL     OW 4714   0.629   6.262   1.609
 1272SOL    HW1 4715   0.568   6.197   1.565
 1272SOL    HW2 4716   0.657   6.227   1.698
 1273SOL     OW 4717   2.888   6.544   6.195
 1273SOL    HW1 4718   2.796   6.578   6.174
 1273SOL    HW2 4719   2.948   6.559   6.117
 1274SOL     OW 4720   6.477   2.488   1.831
 1274SOL    HW1 4721   6.563   2.481   1.781
 1274SOL    HW2 4722   6.457   2.401   1.876
 1275SOL     OW 4723   3.673   1.966   4.295
 1275SOL    HW1 4724   3.723   1.879   4.286
 1275SOL    HW2 4725   3.575   1.949   4.283
 1276SOL     OW 4726   6.310   0.180   3.825
 1276SOL    HW1 4727   6.374   0.146   3.895
 1276SOL    HW2 4728   6.252   0.250   3.865
 1277SOL     OW 4729   0.585   0.849   5.043
 1277SOL    HW1 4730   0.505   0.795   5.069
 1277SOL    HW2 4731   0.562   0.906   4.964
 1278SOL     OW 4732   2.286   1.595   5.814
 1278SOL    HW1 4733   2.356   1.581   5.744
 1278SOL    HW2 4734   2.327   1.581   5.905
 1279SOL     OW 4735   2.530   5.468   6.519
 1279SOL    HW1 4736   2.512   5.549   6.464
 1279SOL    HW2 4737   2.585   5.403   6.466
 1280SOL     OW 4738   1.934   0.065   3.236
 1280SOL    HW1 4739   2.023   0.073   3.279
 1280SOL    HW2 4740   1.943   0.083   3.138
 1281SOL     OW 4741   1.090   6.141   3.610
 1281SOL    HW1 4742   1.038   6.062   3.642
 1281SOL    HW2 4743   1.131   6.187   3.688
 1282SOL     OW 4744   0.996   0.296   2.135
 1282SOL    HW1 4745   1.024   0.263   2.225
 1282SOL    HW2 4746   0.993   0.396   2.135
 1283SOL     OW 4747   5.473   5.478   6.460
 1283SOL    HW1 4748   5.489   5.385   6.425
 1283SOL    HW2 4749   5.411   5.473   6.538
 1284SOL     OW 4750   2.700   2.217   1.844
 1284SOL    HW1 4751   2.616   2.236   1.895
 1284SOL    HW2 4752   2.779   2.243   1.900
 1285SOL     OW 4753   4.624   2.432   5.287
 1285SOL    HW1 4754   4.661   2.524   5.276
 1285SOL    HW2 4755   4.699   2.366   5.294
 1286SOL     OW 4756   6.173   4.965   1.711
 1286SOL    HW1 4757   6.188   5.039   1.646
 1286SOL    HW2 4758   6.077   4.939   1.710
 1287SOL     OW 4759   6.888   5.087   6.856
 1287SOL    HW1 4760   6.970   5.061   6.906
 1287SOL    HW2 4761   6.893   5.184   6.832
 1288SOL     OW 4762   6.221   3.251   2.038
 1288SOL    HW1 4763   6.206   3.337   2.086
 1288SOL    HW2 4764   6.246   3.180   2.105
 1289SOL     OW 4765   0.195   6.398   2.535
 1289SOL    HW1 4766   0.179   6.345   2.618
 1289SOL    HW2 4767   0.165   6.346   2.456
 1290SOL     OW 4768   0.648   6.482   1.453
 1290SOL    HW1 4769   0.645   6.404   1.515
 1290SOL    HW2 4770   0.734   6.481   1.402
 1291SOL     OW 4771   2.310   6.165   0.322
 1291SOL    HW1 4772   2.387   6.137   0.264
 1291SOL    HW2 4773   2.244   6.216   0.267
 1292SOL     OW 4774   0.993   5.804   0.793
 1292SOL    HW1 4775   0.911   5.773   0.745
 1292SOL    HW2 4776   1.022   5.892   0.756
 1293SOL     OW 4777   0.040   1.864   5.780
 1293SOL    HW1 4778   6.995   1.904   5.719
 1293SOL    HW2 4779   0.001   1.855   5.872
 1294SOL     OW 4780   1.059   2.011   2.345
 1294SOL    HW1 4781   1.063   1.934   2.281
 1294SOL    HW2 4782   0.977   2.003   2.401
 1295SOL     OW 4783   6.109   3.340   1.399
 1295SOL    HW1 4784   6.130   3.298   1.311
 1295SOL    HW2 4785   6.190   3.388   1.433
 1296SOL     OW 4786   3.923   2.089   5.830
 1296SOL    HW1 4787   3.979   2.143   5.892
 1296SOL    HW2 4788   3.974   2.071   5.746
 1297SOL     OW 4789   6.160   1.304   6.052
 1297SOL    HW1 4790   6.168   1.345   6.143
 1297SOL    HW2 4791   6.213   1.358   5.986
 1298SOL     OW 4792   5.331   2.927   3.237
 1298SOL    HW1 4793   5.306   3.009   3.289
 1298SOL    HW2 4794   5.313   2.942   3.140
 1299SOL     OW 4795   0.903   4.173   3.866
 1299SOL    HW1 4796   0.973   4.202   3.932
 1299SOL    HW2 4797   0.892   4.074   3.870
 1300SOL     OW 4798   3.196   3.393   1.467
 1300SOL    HW1 4799   3.240   3.305   1.447
 1300SOL    HW2 4800   3.162   3.433   1.382
 1301SOL     OW 4801   0.999   0.146   3.311
 1301SOL    HW1 4802   1.054   0.117   3.233
 1301SOL    HW2 4803   0.988   0.069   3.374
 1302SOL     OW 4804   3.080   6.098   4.504
 1302SOL    HW1 4805   2.984   6.068   4.499
 1302SOL    HW2 4806   3.139   6.029   4.463
 1303SOL     OW 4807   3.862   1.809   1.332
 1303SOL    HW1 4808   3.877   1.825   1.429
 1303SOL    HW2 4809   3.941   1.840   1.279
 1304SOL     OW 4810   2.940   0.834   6.923
 1304SOL    HW1 4811   2.903   0.916   6.879
 1304SOL    HW2 4812   2.875   0.758   6.912
 1305SOL     OW 4813   4.478   6.487   4.909
 1305SOL    HW1 4814   4.486   6.537   4.996
 1305SOL    HW2 4815   4.384   6.456   4.897
 1306SOL     OW 4816   0.908   4.360   4.404
 1306SOL    HW1 4817   1.007   4.350   4.405
 1306SOL    HW2 4818   0.868   4.298   4.471
 1307SOL     OW 4819   1.301   2.500   4.629
 1307SOL    HW1 4820   1.218   2.445   4.630
 1307SOL    HW2 4821   1.359   2.473   4.706
 1308SOL     OW 4822   5.176   5.861   2.863
 1308SOL    HW1 4823   5.080   5.857   2.835
 1308SOL    HW2 4824   5.233   5.874   2.783
 1309SOL     OW 4825   5.850   2.737   4.400
 1309SOL    HW1 4826   5.790   2.666   4.437
 1309SOL    HW2 4827   5.817   2.827   4.429
 1310SOL     OW 4828   5.098   3.522   5.193
 1310SOL    HW1 4829   5.010   3.485   5.222
 1310SOL    HW2 4830   5.095   3.544   5.095
 1311SOL     OW 4831   6.082   5.960   5.280
 1311SOL    HW1 4832   6.077   5.873   5.329
 1311SOL    HW2 4833   6.020   6.026   5.322
 1312SOL     OW 4834   0.784   6.513   0.621
 1312SOL    HW1 4835   0.881   6.536   0.623
 1312SOL    HW2 4836   0.750   6.519   0.527
 1313SOL     OW 4837   3.577   5.419   5.004
 1313SOL    HW1 4838   3.556   5.386   5.096
 1313SOL    HW2 4839   3.572   5.344   4.939
 1314SOL     OW 4840   0.030   1.365   4.935
 1314SOL    HW1 4841   0.006   1.306   5.012
 1314SOL    HW2 4842   7.004   1.335   4.854
 1315SOL     OW 4843   2.223   1.194   2.559
 1315SOL    HW1 4844   2.218   1.242   2.647
 1315SOL    HW2 4845   2.287   1.241   2.499
 1316SOL     OW 4846   2.946   6.649   2.817
 1316SOL    HW1 4847   3.034   6.693   2.834
 1316SOL    HW2 4848   2.937   6.628   2.720
 1317SOL     OW 4849   0.059   5.764   3.973
 1317SOL    HW1 4850   0.057   5.789   3.876
 1317SOL    HW2 4851   0.045   5.845   4.029
 1318SOL     OW 4852   6.886   6.405   0.721
 1318SOL    HW1 4853   6.883   6.504   0.733
 1318SOL    HW2 4854   6.907   6.362   0.809
 1319SOL     OW 4855   6.466   0.879   6.596
 1319SOL    HW1 4856   6.367   0.874   6.585
 1319SOL    HW2 4857   6.489   0.955   6.656
 1320SOL     OW 4858   5.298   5.517   6.658
 1320SOL    HW1 4859   5.204   5.502   6.629
 1320SOL    HW2 4860   5.299   5.558   6.749
 1321SOL     OW 4861   3.569   2.684   6.837
 1321SOL    HW1 4862   3.605   2.710   6.748
 1321SOL    HW2 4863   3.606   2.595   6.864
 1322SOL     OW 4864   6.250   1.681   4.515
 1322SOL    HW1 4865   6.324   1.710   4.455
 1322SOL    HW2 4866   6.185   1.624   4.465
 1323SOL     OW 4867   6.659   1.656   4.903
 1323SOL    HW1 4868   6.688   1.593   4.975
 1323SOL    HW2 4869   6.606   1.605   4.834
 1324SOL     OW 4870   1.729   3.541   1.119
 1324SOL    HW1 4871   1.701   3.543   1.023
 1324SOL    HW2 4872   1.680   3.469   1.167
 1325SOL     OW 4873   2.930   5.938   2.186
 1325SOL    HW1 4874   2.996   6.012   2.200
 1325SOL    HW2 4875   2.874   5.928   2.269
 1326SOL     OW 4876   5.425   3.342   4.339
 1326SOL    HW1 4877   5.508   3.292   4.315
 1326SOL    HW2 4878   5.448   3.439   4.351
 1327SOL     OW 4879   3.704   5.323   2.858
 1327SOL    HW1 4880   3.645   5.307   2.938
 1327SOL    HW2 4881   3.647   5.349   2.780
 1328SOL     OW 4882   2.093   2.731   6.688
 1328SOL    HW1 4883   2.003   2.734   6.733
 1328SOL    HW2 4884   2.090   2.786   6.604
 1329SOL     OW 4885   0.457   0.488   0.613
 1329SOL    HW1 4886   0.481   0.401   0.569
 1329SOL    HW2 4887   0.403   0.543   0.549
 1330SOL     OW 4888   5.624   6.410   1.362
 1330SOL    HW1 4889   5.566   6.373   1.434
 1330SOL    HW2 4890   5.716   6.371   1.369
 1331SOL     OW 4891   5.413   0.551   2.191
 1331SOL    HW1 4892   5.454   0.484   2.254
 1331SOL    HW2 4893   5.434   0.526   2.097
 1332SOL     OW 4894   4.529   1.355   1.516
 1332SOL    HW1 4895   4.607   1.339   1.456
 1332SOL    HW2 4896   4.534   1.447   1.554
 1333SOL     OW 4897   3.910   4.305   5.241
 1333SOL    HW1 4898   3.981   4.359   5.195
 1333SOL    HW2 4899   3.927   4.307   5.340
 1334SOL     OW 4900   0.076   3.993   4.471
 1334SOL    HW1 4901   0.103   4.064   4.537
 1334SOL    HW2 4902   0.081   3.904   4.515
 1335SOL     OW 4903   2.668   5.120   3.080
 1335SOL    HW1 4904   2.734   5.130   3.005
 1335SOL    HW2 4905   2.586   5.073   3.046
 1336SOL     OW 4906   0.421   0.631   4.838
 1336SOL    HW1 4907   0.387   0.689   4.912
 1336SOL    HW2 4908   0.495   0.679   4.790
 1337SOL     OW 4909   2.175   1.915   6.077
 1337SOL    HW1 4910   2.099   1.923   6.142
 1337SOL    HW2 4911   2.227   2.001   6.076
 1338SOL     OW 4912   4.003   5.537   0.626
 1338SOL    HW1 4913   4.058   5.472   0.679
 1338SOL    HW2 4914   4.061   5.615   0.601
 1339SOL     OW 4915   6.702   4.137   5.668
 1339SOL    HW1 4916   6.615   4.155   5.623
 1339SOL    HW2 4917   6.692   4.154   5.766
 1340SOL     OW 4918   1.512   2.159   6.424
 1340SOL    HW1 4919   1.482   2.243   6.378
 1340SOL    HW2 4920   1.483   2.161   6.519
 1341SOL     OW 4921   3.759   0.952   3.783
 1341SOL    HW1 4922   3.844   0.990   3.820
 1341SOL    HW2 4923   3.687   1.021   3.788
 1342SOL     OW 4924   0.191   6.427   0.969
 1342SOL    HW1 4925   0.145   6.408   1.056
 1342SOL    HW2 4926   0.280   6.383   0.968
 1343SOL     OW 4927   4.219   5.151   3.348
 1343SOL    HW1 4928   4.215   5.056   3.379
 1343SOL    HW2 4929   4.130   5.177   3.310
 1344SOL     OW 4930   6.552   1.150   2.825
 1344SOL    HW1 4931   6.459   1.165   2.790
 1344SOL    HW2 4932   6.593   1.238   2.847
 1345SOL     OW 4933   0.526   7.021   3.639
 1345SOL    HW1 4934   0.537   6.992   3.734
 1345SOL    HW2 4935   0.500   6.942   3.584
 1346SOL     OW 4936   0.182   1.092   4.102
 1346SOL    HW1 4937   0.230   1.099   4.190
 1346SOL    HW2 4938   0.111   1.022   4.108
 1347SOL     OW 4939   5.931   0.485   2.834
 1347SOL    HW1 4940   5.965   0.391   2.845
 1347SOL    HW2 4941   5.987   0.534   2.767
 1348SOL     OW 4942   5.351   4.750   5.174
 1348SOL    HW1 4943   5.267   4.749   5.120
 1348SOL    HW2 4944   5.365   4.660   5.214
 1349SOL     OW 4945   4.267   3.135   7.012
 1349SOL    HW1 4946   4.304   3.163   0.076
 1349SOL    HW2 4947   4.174   3.172   7.001
 1350SOL     OW 4948   2.838   0.873   6.221
 1350SOL    HW1 4949   2.764   0.932   6.256
 1350SOL    HW2 4950   2.923   0.925   6.218
 1351SOL     OW 4951   0.903   0.836   4.487
 1351SOL    HW1 4952   0.914   0.918   4.542
 1351SOL    HW2 4953   0.970   0.767   4.514
 1352SOL     OW 4954   0.534   0.980   3.170
 1352SOL    HW1 4955   0.572   0.970   3.262
 1352SOL    HW2 4956   0.480   1.064   3.165
 1353SOL     OW 4957   1.263   4.153   3.767
 1353SOL    HW1 4958   1.229   4.187   3.855
 1353SOL    HW2 4959   1.281   4.230   3.707
 1354SOL     OW 4960   0.523   6.937   2.030
 1354SOL    HW1 4961   0.519   6.844   1.991
 1354SOL    HW2 4962   0.595   6.942   2.098
 1355SOL     OW 4963   4.670   3.223   6.798
 1355SOL    HW1 4964   4.584   3.176   6.818
 1355SOL    HW2 4965   4.707   3.189   6.711
 1356SOL     OW 4966   2.994   3.902   2.766
 1356SOL    HW1 4967   2.971   3.970   2.696
 1356SOL    HW2 4968   2.972   3.811   2.731
 1357SOL     OW 4969   2.778   3.121   5.503
 1357SOL    HW1 4970   2.718   3.050   5.539
 1357SOL    HW2 4971   2.865   3.118   5.551
 1358SOL     OW 4972   1.860   1.985   5.939
 1358SOL    HW1 4973   1.881   2.081   5.919
 1358SOL    HW2 4974   1.895   1.961   6.029
 1359SOL     OW 4975   6.018   1.022   6.879
 1359SOL    HW1 4976   6.052   1.102   6.829
 1359SOL    HW2 4977   6.071   1.011   6.963
 1360SOL     OW 4978   3.515   3.902   4.285
 1360SOL    HW1 4979   3.521   3.880   4.382
 1360SOL    HW2 4980   3.538   3.999   4.272
 1361SOL     OW 4981   1.102   5.948   0.404
 1361SOL    HW1 4982   1.145   6.034   0.377
 1361SOL    HW2 4983   1.168   5.894   0.456
 1362SOL     OW 4984   2.795   3.378   6.229
 1362SOL    HW1 4985   2.815   3.280   6.233
 1362SOL    HW2 4986   2.875   3.427   6.196
 1363SOL     OW 4987   5.895   6.583   1.971
 1363SOL    HW1 4988   5.950   6.626   2.043
 1363SOL    HW2 4989   5.809   6.551   2.010
 1364SOL     OW 4990   0.209   3.444   1.569
 1364SOL    HW1 4991   0.117   3.407   1.554
 1364SOL    HW2 4992   0.245   3.481   1.483
 1365SOL     OW 4993   0.713   3.929   5.977
 1365SOL    HW1 4994   0.706   3.844   5.924
 1365SOL    HW2 4995   0.666   4.003   5.929
 1366SOL     OW 4996   5.576   1.002   0.716
 1366SOL    HW1 4997   5.571   1.071   0.789
 1366SOL    HW2 4998   5.508   1.024   0.646
 1367SOL     OW 4999   0.940   5.765   4.534
 1367SOL    HW1 5000   0.965   5.853   4.493
 1367SOL    HW2 5001   0.945   5.693   4.465
 1368SOL     OW 5002   0.791   6.404   5.796
 1368SOL    HW1 5003   0.743   6.477   5.844
 1368SOL    HW2 5004   0.870   6.442   5.747
 1369SOL     OW 5005   2.556   6.672   3.105
 1369SOL    HW1 5006   2.568   6.684   3.203
 1369SOL    HW2 5007   2.613   6.596   3.074
 1370SOL     OW 5008   6.065   2.361   2.674
 1370SOL    HW1 5009   6.133   2.418   2.628
 1370SOL    HW2 5010   6.110   2.300   2.739
 1371SOL     OW 5011   6.258   1.901   5.252
 1371SOL    HW1 5012   6.280   1.817   5.202
 1371SOL    HW2 5013   6.338   1.962   5.253
 1372SOL     OW 5014   6.778   2.569   0.324
 1372SOL    HW1 5015   6.715   2.511   0.273
 1372SOL    HW2 5016   6.857   2.516   0.352
 1373SOL     OW 5017   4.939   2.716   1.586
 1373SOL    HW1 5018   4.972   2.784   1.651
 1373SOL    HW2 5019   5.013   2.653   1.563
 1374SOL     OW 5020   4.333   4.519   0.111
 1374SOL    HW1 5021   4.352   4.613   0.139
 1374SOL    HW2 5022   4.235   4.500   0.123
 1375SOL     OW 5023   5.720   5.692   4.518
 1375SOL    HW1 5024   5.795   5.666   4.579
 1375SOL    HW2 5025   5.680   5.778   4.550
 1376SOL     OW 5026   2.403   5.164   5.658
 1376SOL    HW1 5027   2.320   5.172   5.603
 1376SOL    HW2 5028   2.479   5.135   5.599
 1377SOL     OW 5029   1.897   1.218   2.919
 1377SOL    HW1 5030   1.892   1.245   2.823
 1377SOL    HW2 5031   1.819   1.256   2.969
 1378SOL     OW 5032   4.712   2.340   4.496
 1378SOL    HW1 5033   4.811   2.335   4.511
 1378SOL    HW2 5034   4.677   2.249   4.474
 1379SOL     OW 5035   5.219   5.517   0.977
 1379SOL    HW1 5036   5.150   5.536   1.046
 1379SOL    HW2 5037   5.194   5.435   0.926
 1380SOL     OW 5038   6.845   5.374   2.002
 1380SOL    HW1 5039   6.869   5.350   2.096
 1380SOL    HW2 5040   6.927   5.406   1.954
 1381SOL     OW 5041   5.879   2.476   5.766
 1381SOL    HW1 5042   5.940   2.432   5.832
 1381SOL    HW2 5043   5.792   2.499   5.809
 1382SOL     OW 5044   4.832   2.399   0.164
 1382SOL    HW1 5045   4.864   2.335   0.095
 1382SOL    HW2 5046   4.861   2.492   0.139
 1383SOL     OW 5047   0.097   1.221   2.004
 1383SOL    HW1 5048   0.175   1.278   2.031
 1383SOL    HW2 5049   0.058   1.256   1.919
 1384SOL     OW 5050   5.859   1.048   1.899
 1384SOL    HW1 5051   5.878   1.027   1.804
 1384SOL    HW2 5052   5.881   1.144   1.918
 1385SOL     OW 5053   0.884   5.466   1.916
 1385SOL    HW1 5054   0.871   5.559   1.883
 1385SOL    HW2 5055   0.802   5.436   1.965
 1386SOL     OW 5056   2.947   5.733   4.335
 1386SOL    HW1 5057   3.001   5.724   4.419
 1386SOL    HW2 5058   2.960   5.652   4.279
 1387SOL     OW 5059   3.013   5.440   2.320
 1387SOL    HW1 5060   2.920   5.427   2.285
 1387SOL    HW2 5061   3.011   5.505   2.396
 1388SOL     OW 5062   6.488   0.137   1.426
 1388SOL    HW1 5063   6.548   0.089   1.489
 1388SOL    HW2 5064   6.395   0.103   1.435
 1389SOL     OW 5065   6.329   1.299   2.682
 1389SOL    HW1 5066   6.353   1.230   2.613
 1389SOL    HW2 5067   6.363   1.388   2.652
 1390SOL     OW 5068   6.912   1.786   6.487
 1390SOL    HW1 5069   6.932   1.786   6.585
 1390SOL    HW2 5070   6.827   1.836   6.471
 1391SOL     OW 5071   1.062   2.870   2.801
 1391SOL    HW1 5072   1.079   2.778   2.765
 1391SOL    HW2 5073   1.127   2.889   2.875
 1392SOL     OW 5074   4.866   4.809   5.243
 1392SOL    HW1 5075   4.806   4.870   5.192
 1392SOL    HW2 5076   4.813   4.734   5.282
 1393SOL     OW 5077   4.053   6.775   5.705
 1393SOL    HW1 5078   4.130   6.738   5.654
 1393SOL    HW2 5079   3.978   6.795   5.641
 1394SOL     OW 5080   2.637   6.146   5.492
 1394SOL    HW1 5081   2.675   6.209   5.560
 1394SOL    HW2 5082   2.650   6.185   5.400
 1395SOL     OW 5083   3.499   4.649   5.501
 1395SOL    HW1 5084   3.424   4.641   5.567
 1395SOL    HW2 5085   3.482   4.728   5.442
 1396SOL     OW 5086   5.980   5.684   4.606
 1396SOL    HW1 5087   6.062   5.627   4.608
 1396SOL    HW2 5088   5.961   5.718   4.698
 1397SOL     OW 5089   4.641   6.000   4.725
 1397SOL    HW1 5090   4.637   6.068   4.652
 1397SOL    HW2 5091   4.736   5.970   4.737
 1398SOL     OW 5092   1.389   1.219   5.057
 1398SOL    HW1 5093   1.455   1.159   5.103
 1398SOL    HW2 5094   1.378   1.303   5.111
 1399SOL     OW 5095   3.191   6.230   1.631
 1399SOL    HW1 5096   3.253   6.153   1.647
 1399SOL    HW2 5097   3.130   6.207   1.555
 1400SOL     OW 5098   0.977   0.122   1.912
 1400SOL    HW1 5099   0.989   0.169   1.999
 1400SOL    HW2 5100   1.055   0.060   1.896
 1401SOL     OW 5101   0.198   1.120   4.705
 1401SOL    HW1 5102   0.252   1.199   4.677
 1401SOL    HW2 5103   0.210   1.105   4.803
 1402SOL     OW 5104   6.650   2.793   0.414
 1402SOL    HW1 5105   6.571   2.785   0.474
 1402SOL    HW2 5106   6.696   2.705   0.407
 1403SOL     OW 5107   2.544   6.864   2.164
 1403SOL    HW1 5108   2.598   6.784   2.191
 1403SOL    HW2 5109   2.598   6.922   2.102
 1404SOL     OW 5110   5.731   0.475   0.451
 1404SOL    HW1 5111   5.773   0.520   0.372
 1404SOL    HW2 5112   5.801   0.425   0.502
 1405SOL     OW 5113   2.066   3.661   0.931
 1405SOL    HW1 5114   2.064   3.601   0.851
 1405SOL    HW2 5115   2.149   3.717   0.928
 1406SOL     OW 5116   1.494   4.315   1.317
 1406SOL    HW1 5117   1.528   4.283   1.405
 1406SOL    HW2 5118   1.548   4.394   1.288
 1407SOL     OW 5119   6.586   2.206   2.308
 1407SOL    HW1 5120   6.677   2.242   2.287
 1407SOL    HW2 5121   6.554   2.244   2.395
 1408SOL     OW 5122   5.579   1.189   5.952
 1408SOL    HW1 5123   5.646   1.193   6.027
 1408SOL    HW2 5124   5.488   1.208   5.987
 1409SOL     OW 5125   0.004   0.460   4.624
 1409SOL    HW1 5126   0.094   0.503   4.633
 1409SOL    HW2 5127   7.007   0.448   4.527
 1410SOL     OW 5128   0.305   2.937   6.692
 1410SOL    HW1 5129   0.314   2.878   6.611
 1410SOL    HW2 5130   0.324   3.032   6.666
 1411SOL     OW 5131   1.947   6.921   2.369
 1411SOL    HW1 5132   1.922   6.824   2.373
 1411SOL    HW2 5133   1.969   6.945   2.274
 1412SOL     OW 5134   1.289   2.608   0.424
 1412SOL    HW1 5135   1.299   2.706   0.444
 1412SOL    HW2 5136   1.231   2.596   0.344
 1413SOL     OW 5137   2.388   0.334   4.220
 1413SOL    HW1 5138   2.430   0.424   4.215
 1413SOL    HW2 5139   2.430   0.273   4.153
 1414SOL     OW 5140   2.383   1.634   1.801
 1414SOL    HW1 5141   2.461   1.639   1.864
 1414SOL    HW2 5142   2.405   1.573   1.725
 1415SOL     OW 5143   3.869   6.372   5.603
 1415SOL    HW1 5144   3.813   6.432   5.660
 1415SOL    HW2 5145   3.935   6.427   5.551
 1416SOL     OW 5146   4.289   4.787   1.887
 1416SOL    HW1 5147   4.340   4.863   1.927
 1416SOL    HW2 5148   4.206   4.772   1.940
 1417SOL     OW 5149   2.725   1.873   6.620
 1417SOL    HW1 5150   2.628   1.896   6.617
 1417SOL    HW2 5151   2.764   1.879   6.527
 1418SOL     OW 5152   3.245   4.110   3.042
 1418SOL    HW1 5153   3.342   4.132   3.033
 1418SOL    HW2 5154   3.214   4.131   3.135
 1419SOL     OW 5155   3.800   6.685   4.722
 1419SOL    HW1 5156   3.718   6.629   4.724
 1419SOL    HW2 5157   3.775   6.781   4.710
 1420SOL     OW 5158   1.034   5.817   2.113
 1420SOL    HW1 5159   0.971   5.893   2.095
 1420SOL    HW2 5160   1.061   5.775   2.026
 1421SOL     OW 5161   2.988   2.145   2.464
 1421SOL    HW1 5162   2.914   2.211   2.475
 1421SOL    HW2 5163   3.054   2.156   2.539
 1422SOL     OW 5164   1.852   5.033   0.752
 1422SOL    HW1 5165   1.801   5.099   0.697
 1422SOL    HW2 5166   1.930   4.998   0.700
 1423SOL     OW 5167   5.007   6.904   2.756
 1423SOL    HW1 5168   4.915   6.943   2.760
 1423SOL    HW2 5169   5.027   6.874   2.663
 1424SOL     OW 5170   6.128   4.930   5.008
 1424SOL    HW1 5171   6.222   4.946   4.979
 1424SOL    HW2 5172   6.112   4.975   5.096
 1425SOL     OW 5173   2.127   6.707   3.833
 1425SOL    HW1 5174   2.112   6.783   3.895
 1425SOL    HW2 5175   2.064   6.713   3.756
 1426SOL     OW 5176   1.239   1.683   5.735
 1426SOL    HW1 5177   1.290   1.616   5.680
 1426SOL    HW2 5178   1.148   1.647   5.754
 1427SOL     OW 5179   6.107   0.236   3.554
 1427SOL    HW1 5180   6.200   0.233   3.591
 1427SOL    HW2 5181   6.111   0.242   3.454
 1428SOL     OW 5182   5.557   1.740   7.005
 1428SOL    HW1 5183   5.537   1.811   0.049
 1428SOL    HW2 5184   5.548   1.650   0.024
 1429SOL     OW 5185   0.039   0.539   0.841
 1429SOL    HW1 5186   0.110   0.473   0.819
 1429SOL    HW2 5187   6.981   0.491   0.873
 1430SOL     OW 5188   1.875   4.734   3.624
 1430SOL    HW1 5189   1.882   4.806   3.693
 1430SOL    HW2 5190   1.966   4.700   3.601
 1431SOL     OW 5191   2.873   0.932   1.700
 1431SOL    HW1 5192   2.826   1.017   1.674
 1431SOL    HW2 5193   2.970   0.950   1.712
 1432SOL     OW 5194   2.293   0.881   2.702
 1432SOL    HW1 5195   2.241   0.961   2.730
 1432SOL    HW2 5196   2.231   0.805   2.684
 1433SOL     OW 5197   4.283   0.378   4.108
 1433SOL    HW1 5198   4.292   0.439   4.187
 1433SOL    HW2 5199   4.188   0.376   4.079
 1434SOL     OW 5200   0.700   0.578   5.679
 1434SOL    HW1 5201   0.785   0.625   5.658
 1434SOL    HW2 5202   0.718   0.481   5.696
 1435SOL     OW 5203   6.195   1.743   2.718
 1435SOL    HW1 5204   6.213   1.820   2.657
 1435SOL    HW2 5205   6.123   1.769   2.783
 1436SOL     OW 5206   4.297   3.772   0.230
 1436SOL    HW1 5207   4.368   3.709   0.261
 1436SOL    HW2 5208   4.231   3.786   0.303
 1437SOL     OW 5209   3.218   1.106   2.826
 1437SOL    HW1 5210   3.299   1.126   2.881
 1437SOL    HW2 5211   3.200   1.182   2.763
 1438SOL     OW 5212   3.090   6.630   1.094
 1438SOL    HW1 5213   3.138   6.543   1.097
 1438SOL    HW2 5214   2.993   6.616   1.117
 1439SOL     OW 5215   0.154   5.994   2.350
 1439SOL    HW1 5216   0.112   5.904   2.339
 1439SOL    HW2 5217   0.085   6.061   2.379
 1440SOL     OW 5218   2.620   3.715   0.504
 1440SOL    HW1 5219   2.681   3.756   0.436
 1440SOL    HW2 5220   2.674   3.685   0.583
 1441SOL     OW 5221   5.929   6.552   1.001
 1441SOL    HW1 5222   5.962   6.646   0.999
 1441SOL    HW2 5223   5.829   6.551   0.993
 1442SOL     OW 5224   5.595   5.359   0.274
 1442SOL    HW1 5225   5.504   5.385   0.306
 1442SOL    HW2 5226   5.645   5.440   0.247
 1443SOL     OW 5227   1.623   2.395   3.000
 1443SOL    HW1 5228   1.714   2.436   2.990
 1443SOL    HW2 5229   1.614   2.319   2.935
 1444SOL     OW 5230   6.319   5.890   6.993
 1444SOL    HW1 5231   6.323   5.856   0.063
 1444SOL    HW2 5232   6.412   5.900   6.957
 1445SOL     OW 5233   1.114   3.446   2.480
 1445SOL    HW1 5234   1.193   3.506   2.492
 1445SOL    HW2 5235   1.131   3.360   2.528
 1446SOL     OW 5236   6.610   0.107   6.501
 1446SOL    HW1 5237   6.554   0.156   6.568
 1446SOL    HW2 5238   6.570   0.117   6.410
 1447SOL     OW 5239   5.947   4.902   4.809
 1447SOL    HW1 5240   5.848   4.908   4.814
 1447SOL    HW2 5241   5.985   4.911   4.901
 1448SOL     OW 5242   0.852   2.929   5.694
 1448SOL    HW1 5243   0.924   2.864   5.717
 1448SOL    HW2 5244   0.852   3.005   5.759
 1449SOL     OW 5245   1.371   4.200   4.346
 1449SOL    HW1 5246   1.343   4.287   4.306
 1449SOL    HW2 5247   1.360   4.127   4.279
 1450SOL     OW 5248   2.069   2.228   5.230
 1450SOL    HW1 5249   1.986   2.172   5.232
 1450SOL    HW2 5250   2.147   2.171   5.204
 1451SOL     OW 5251   2.723   6.551   1.653
 1451SOL    HW1 5252   2.653   6.622   1.643
 1451SOL    HW2 5253   2.797   6.568   1.587
 1452SOL     OW 5254   4.653   3.342   5.960
 1452SOL    HW1 5255   4.706   3.426   5.976
 1452SOL    HW2 5256   4.624   3.304   6.048
 1453SOL     OW 5257   0.560   4.207   5.220
 1453SOL    HW1 5258   0.623   4.195   5.144
 1453SOL    HW2 5259   0.604   4.176   5.305
 1454SOL     OW 5260   2.640   1.845   3.443
 1454SOL    HW1 5261   2.687   1.759   3.426
 1454SOL    HW2 5262   2.541   1.831   3.438
 1455SOL     OW 5263   1.186   5.558   2.213
 1455SOL    HW1 5264   1.199   5.506   2.297
 1455SOL    HW2 5265   1.114   5.627   2.227
 1456SOL     OW 5266   6.266   5.382   6.107
 1456SOL    HW1 5267   6.330   5.390   6.183
 1456SOL    HW2 5268   6.238   5.287   6.096
 1457SOL     OW 5269   0.675   3.974   6.396
 1457SOL    HW1 5270   0.622   4.029   6.460
 1457SOL    HW2 5271   0.613   3.911   6.348
 1458SOL     OW 5272   5.586   4.828   5.269
 1458SOL    HW1 5273   5.492   4.811   5.239
 1458SOL    HW2 5274   5.636   4.873   5.195
 1459SOL     OW 5275   4.798   6.525   4.975
 1459SOL    HW1 5276   4.778   6.428   4.962
 1459SOL    HW2 5277   4.745   6.560   5.052
 1460SOL     OW 5278   2.298   6.301   5.204
 1460SOL    HW1 5279   2.251   6.260   5.282
 1460SOL    HW2 5280   2.278   6.248   5.122
 1461SOL     OW 5281   0.256   3.065   2.621
 1461SOL    HW1 5282   0.216   3.047   2.711
 1461SOL    HW2 5283   0.273   3.164   2.612
 1462SOL     OW 5284   0.703   6.896   0.400
 1462SOL    HW1 5285   0.671   6.833   0.329
 1462SOL    HW2 5286   0.800   6.880   0.419
 1463SOL     OW 5287   1.611   5.780   6.552
 1463SOL    HW1 5288   1.694   5.777   6.607
 1463SOL    HW2 5289   1.632   5.816   6.462
 1464SOL     OW 5290   0.042   4.383   4.400
 1464SOL    HW1 5291   6.990   4.319   4.386
 1464SOL    HW2 5292   0.127   4.343   4.366
 1465SOL     OW 5293   1.320   1.630   3.478
 1465SOL    HW1 5294   1.324   1.693   3.401
 1465SOL    HW2 5295   1.262   1.669   3.550
 1466SOL     OW 5296   4.103   2.105   1.652
 1466SOL    HW1 5297   4.120   2.013   1.687
 1466SOL    HW2 5298   4.057   2.159   1.722
 1467SOL     OW 5299   1.527   0.599   4.009
 1467SOL    HW1 5300   1.430   0.618   4.025
 1467SOL    HW2 5301   1.560   0.536   4.079
 1468SOL     OW 5302   2.340   6.320   2.345
 1468SOL    HW1 5303   2.338   6.380   2.265
 1468SOL    HW2 5304   2.432   6.282   2.356
 1469SOL     OW 5305   6.346   5.352   3.316
 1469SOL    HW1 5306   6.429   5.296   3.319
 1469SOL    HW2 5307   6.302   5.341   3.226
 1470SOL     OW 5308   6.554   2.102   0.530
 1470SOL    HW1 5309   6.548   2.095   0.430
 1470SOL    HW2 5310   6.539   2.196   0.558
 1471SOL     OW 5311   5.524   7.023   1.647
 1471SOL    HW1 5312   5.559   0.046   1.728
 1471SOL    HW2 5313   5.598   6.972   1.604
 1472SOL     OW 5314   2.060   0.110   5.925
 1472SOL    HW1 5315   1.966   0.144   5.920
 1472SOL    HW2 5316   2.120   0.181   5.962
 1473SOL     OW 5317   3.024   5.111   4.611
 1473SOL    HW1 5318   3.002   5.205   4.584
 1473SOL    HW2 5319   3.100   5.112   4.676
 1474SOL     OW 5320   4.424   4.575   1.398
 1474SOL    HW1 5321   4.437   4.623   1.485
 1474SOL    HW2 5322   4.452   4.480   1.409
 1475SOL     OW 5323   5.174   0.449   0.246
 1475SOL    HW1 5324   5.197   0.437   0.150
 1475SOL    HW2 5325   5.257   0.447   0.301
 1476SOL     OW 5326   4.015   1.102   2.005
 1476SOL    HW1 5327   3.996   1.037   2.078
 1476SOL    HW2 5328   4.078   1.173   2.039
 1477SOL     OW 5329   4.244   5.136   1.305
 1477SOL    HW1 5330   4.257   5.190   1.388
 1477SOL    HW2 5331   4.247   5.038   1.328
 1478SOL     OW 5332   4.962   5.910   5.571
 1478SOL    HW1 5333   4.980   5.911   5.669
 1478SOL    HW2 5334   5.028   5.968   5.524
 1479SOL     OW 5335   3.595   3.284   1.271
 1479SOL    HW1 5336   3.537   3.209   1.239
 1479SOL    HW2 5337   3.538   3.362   1.295
 1480SOL     OW 5338   3.044   0.768   4.873
 1480SOL    HW1 5339   3.080   0.758   4.965
 1480SOL    HW2 5340   2.955   0.811   4.876
 1481SOL     OW 5341   5.027   2.523   5.331
 1481SOL    HW1 5342   5.041   2.533   5.232
 1481SOL    HW2 5343   5.038   2.612   5.376
 1482SOL     OW 5344   4.470   0.824   0.421
 1482SOL    HW1 5345   4.458   0.764   0.342
 1482SOL    HW2 5346   4.382   0.837   0.467
 1483SOL     OW 5347   4.696   1.238   6.233
 1483SOL    HW1 5348   4.761   1.244   6.156
 1483SOL    HW2 5349   4.698   1.323   6.285
 1484SOL     OW 5350   3.131   5.700   4.531
 1484SOL    HW1 5351   3.072   5.659   4.600
 1484SOL    HW2 5352   3.167   5.787   4.566
 1485SOL     OW 5353   5.102   2.432   2.971
 1485SOL    HW1 5354   5.014   2.480   2.969
 1485SOL    HW2 5355   5.176   2.499   2.982
 1486SOL     OW 5356   5.119   6.702   4.050
 1486SOL    HW1 5357   5.118   6.654   3.962
 1486SOL    HW2 5358   5.140   6.798   4.035
 1487SOL     OW 5359   6.773   0.364   0.604
 1487SOL    HW1 5360   6.691   0.416   0.579
 1487SOL    HW2 5361   6.773   0.347   0.702
 1488SOL     OW 5362   6.329   1.060   3.274
 1488SOL    HW1 5363   6.284   1.119   3.341
 1488SOL    HW2 5364   6.419   1.032   3.308
 1489SOL     OW 5365   4.320   4.683   6.302
 1489SOL    HW1 5366   4.313   4.771   6.349
 1489SOL    HW2 5367   4.373   4.620   6.358
 1490SOL     OW 5368   0.671   2.233   2.327
 1490SOL    HW1 5369   0.651   2.317   2.277
 1490SOL    HW2 5370   0.618   2.231   2.411
 1491SOL     OW 5371   0.107   2.913   2.454
 1491SOL    HW1 5372   0.121   2.815   2.468
 1491SOL    HW2 5373   0.154   2.964   2.526
 1492SOL     OW 5374   6.467   1.352   3.223
 1492SOL    HW1 5375   6.405   1.310   3.156
 1492SOL    HW2 5376   6.423   1.354   3.313
 1493SOL     OW 5377   4.681   2.530   5.763
 1493SOL    HW1 5378   4.764   2.538   5.819
 1493SOL    HW2 5379   4.693   2.581   5.678
 1494SOL     OW 5380   6.031   3.682   6.135
 1494SOL    HW1 5381   6.082   3.765   6.156
 1494SOL    HW2 5382   6.041   3.617   6.210
 1495SOL     OW 5383   5.988   3.993   4.152
 1495SOL    HW1 5384   6.028   4.048   4.079
 1495SOL    HW2 5385   5.890   4.014   4.159
 1496SOL     OW 5386   0.130   5.831   6.955
 1496SOL    HW1 5387   0.035   5.851   6.980
 1496SOL    HW2 5388   0.180   5.801   0.013
 1497SOL     OW 5389   5.429   3.172   2.567
 1497SOL    HW1 5390   5.350   3.224   2.535
 1497SOL    HW2 5391   5.399   3.101   2.631
 1498SOL     OW 5392   3.224   5.101   1.104
 1498SOL    HW1 5393   3.140   5.150   1.080
 1498SOL    HW2 5394   3.210   5.003   1.092
 1499SOL     OW 5395   0.383   3.966   5.418
 1499SOL    HW1 5396   0.411   3.957   5.514
 1499SOL    HW2 5397   0.381   4.063   5.393
 1500SOL     OW 5398   0.563   5.620   1.273
 1500SOL    HW1 5399   0.521   5.552   1.212
 1500SOL    HW2 5400   0.658   5.635   1.245
 1501SOL     OW 5401   5.283   1.701   6.044
 1501SOL    HW1 5402   5.354   1.746   6.098
 1501SOL    HW2 5403   5.211   1.667   6.106
 1502SOL     OW 5404   6.468   0.373   6.423
 1502SOL    HW1 5405   6.516   0.325   6.496
 1502SOL    HW2 5406   6.517   0.361   6.336
 1503SOL     OW 5407   0.518   3.862   2.138
 1503SOL    HW1 5408   0.581   3.909   2.200
 1503SOL    HW2 5409   0.526   3.902   2.046
 1504SOL     OW 5410   0.749   0.945   2.978
 1504SOL    HW1 5411   0.816   1.017   2.957
 1504SOL    HW2 5412   0.706   0.964   3.067
 1505SOL     OW 5413   5.557   6.176   4.999
 1505SOL    HW1 5414   5.498   6.112   5.049
 1505SOL    HW2 5415   5.586   6.249   5.061
 1506SOL     OW 5416   1.009   1.071   0.304
 1506SOL    HW1 5417   1.063   1.153   0.326
 1506SOL    HW2 5418   1.003   1.013   0.385
 1507SOL     OW 5419   1.780   2.619   4.818
 1507SOL    HW1 5420   1.685   2.634   4.846
 1507SOL    HW2 5421   1.839   2.684   4.866
 1508SOL     OW 5422   1.009   0.843   0.584
 1508SOL    HW1 5423   0.960   0.780   0.524
 1508SOL    HW2 5424   1.039   0.794   0.666
 1509SOL     OW 5425   5.206   0.463   3.692
 1509SOL    HW1 5426   5.244   0.555   3.686
 1509SOL    HW2 5427   5.161   0.452   3.781
 1510SOL     OW 5428   3.851   5.776   3.920
 1510SOL    HW1 5429   3.768   5.810   3.964
 1510SOL    HW2 5430   3.912   5.853   3.900
 1511SOL     OW 5431   3.792   3.650   4.436
 1511SOL    HW1 5432   3.787   3.740   4.479
 1511SOL    HW2 5433   3.887   3.618   4.438
 1512SOL     OW 5434   6.515   5.965   0.933
 1512SOL    HW1 5435   6.582   5.901   0.896
 1512SOL    HW2 5436   6.423   5.936   0.906
 1513SOL     OW 5437   3.249   0.554   5.917
 1513SOL    HW1 5438   3.213   0.461   5.921
 1513SOL    HW2 5439   3.242   0.596   6.007
 1514SOL     OW 5440   3.598   2.246   5.312
 1514SOL    HW1 5441   3.509   2.221   5.351
 1514SOL    HW2 5442   3.643   2.313   5.370
 1515SOL     OW 5443   6.549   1.713   2.087
 1515SOL    HW1 5444   6.541   1.809   2.115
 1515SOL    HW2 5445   6.631   1.673   2.128
 1516SOL     OW 5446   6.086   6.179   4.950
 1516SOL    HW1 5447   6.130   6.095   4.983
 1516SOL    HW2 5448   6.065   6.170   4.853
 1517SOL     OW 5449   3.796   6.139   3.690
 1517SOL    HW1 5450   3.815   6.235   3.710
 1517SOL    HW2 5451   3.845   6.111   3.607
 1518SOL     OW 5452   0.172   2.570   0.725
 1518SOL    HW1 5453   0.149   2.482   0.767
 1518SOL    HW2 5454   0.089   2.618   0.699
 1519SOL     OW 5455   6.787   4.277   0.140
 1519SOL    HW1 5456   6.829   4.226   0.065
 1519SOL    HW2 5457   6.694   4.244   0.155
 1520SOL     OW 5458   0.054   5.519   1.967
 1520SOL    HW1 5459   0.123   5.459   2.007
 1520SOL    HW2 5460   0.096   5.604   1.936
 1521SOL     OW 5461   1.942   5.233   6.054
 1521SOL    HW1 5462   1.965   5.209   5.960
 1521SOL    HW2 5463   1.860   5.182   6.082
 1522SOL     OW 5464   5.150   5.150   4.984
 1522SOL    HW1 5465   5.162   5.217   4.911
 1522SOL    HW2 5466   5.060   5.163   5.026
 1523SOL     OW 5467   3.467   6.202   6.411
 1523SOL    HW1 5468   3.505   6.137   6.344
 1523SOL    HW2 5469   3.406   6.153   6.473
 1524SOL     OW 5470   2.282   1.612   2.394
 1524SOL    HW1 5471   2.328   1.594   2.307
 1524SOL    HW2 5472   2.343   1.665   2.453
 1525SOL     OW 5473   5.174   2.922   0.503
 1525SOL    HW1 5474   5.188   2.860   0.580
 1525SOL    HW2 5475   5.206   3.014   0.528
 1526SOL     OW 5476   1.017   1.103   0.647
 1526SOL    HW1 5477   1.005   1.006   0.623
 1526SOL    HW2 5478   0.935   1.135   0.696
 1527SOL     OW 5479   3.719   1.274   4.282
 1527SOL    HW1 5480   3.711   1.185   4.325
 1527SOL    HW2 5481   3.629   1.317   4.276
 1528SOL     OW 5482   4.874   3.611   1.065
 1528SOL    HW1 5483   4.884   3.708   1.043
 1528SOL    HW2 5484   4.870   3.557   0.980
 1529SOL     OW 5485   4.852   1.303   6.031
 1529SOL    HW1 5486   4.929   1.246   6.002
 1529SOL    HW2 5487   4.790   1.318   5.954
 1530SOL     OW 5488   4.052   6.730   1.319
 1530SOL    HW1 5489   4.041   6.829   1.328
 1530SOL    HW2 5490   4.106   6.694   1.395
 1531SOL     OW 5491   3.630   6.757   4.471
 1531SOL    HW1 5492   3.585   6.843   4.448
 1531SOL    HW2 5493   3.562   6.692   4.507
 1532SOL     OW 5494   2.846   5.448   5.830
 1532SOL    HW1 5495   2.887   5.517   5.771
 1532SOL    HW2 5496   2.857   5.475   5.926
 1533SOL     OW 5497   5.333   5.458   1.473
 1533SOL    HW1 5498   5.398   5.386   1.497
 1533SOL    HW2 5499   5.262   5.421   1.414
 1534SOL     OW 5500   3.875   6.032   6.565
 1534SOL    HW1 5501   3.788   5.983   6.557
 1534SOL    HW2 5502   3.912   6.050   6.474
 1535SOL     OW 5503   6.260   6.556   4.430
 1535SOL    HW1 5504   6.314   6.532   4.510
 1535SOL    HW2 5505   6.316   6.549   4.347
 1536SOL     OW 5506   4.053   4.105   6.543
 1536SOL    HW1 5507   4.019   4.160   6.620
 1536SOL    HW2 5508   4.035   4.152   6.457
 1537SOL     OW 5509   3.448   5.456   3.370
 1537SOL    HW1 5510   3.404   5.406   3.296
 1537SOL    HW2 5511   3.392   5.534   3.396
 1538SOL     OW 5512   3.705   1.323   0.194
 1538SOL    HW1 5513   3.676   1.349   0.286
 1538SOL    HW2 5514   3.691   1.399   0.131
 1539SOL     OW 5515   5.723   3.378   1.089
 1539SOL    HW1 5516   5.737   3.477   1.093
 1539SOL    HW2 5517   5.625   3.359   1.083
 1540SOL     OW 5518   2.663   0.208   4.952
 1540SOL    HW1 5519   2.661   0.145   4.875
 1540SOL    HW2 5520   2.758   0.233   4.973
 1541SOL     OW 5521   3.495   2.925   4.500
 1541SOL    HW1 5522   3.582   2.932   4.453
 1541SOL    HW2 5523   3.510   2.919   4.599
 1542SOL     OW 5524   6.745   0.496   2.348
 1542SOL    HW1 5525   6.763   0.402   2.321
 1542SOL    HW2 5526   6.801   0.558   2.293
 1543SOL     OW 5527   2.874   5.389   6.447
 1543SOL    HW1 5528   2.879   5.436   6.536
 1543SOL    HW2 5529   2.856   5.292   6.462
 1544SOL     OW 5530   3.520   2.993   3.489
 1544SOL    HW1 5531   3.483   2.979   3.580
 1544SOL    HW2 5532   3.452   2.967   3.420
 1545SOL     OW 5533   6.352   6.976   2.988
 1545SOL    HW1 5534   6.305   6.969   3.076
 1545SOL    HW2 5535   6.413   6.898   2.977
 1546SOL     OW 5536   5.027   6.681   5.823
 1546SOL    HW1 5537   5.054   6.695   5.918
 1546SOL    HW2 5538   5.083   6.738   5.764
 1547SOL     OW 5539   1.582   4.242   6.793
 1547SOL    HW1 5540   1.553   4.186   6.716
 1547SOL    HW2 5541   1.566   4.339   6.773
 1548SOL     OW 5542   5.849   1.953   0.258
 1548SOL    HW1 5543   5.757   1.922   0.284
 1548SOL    HW2 5544   5.917   1.887   0.290
 1549SOL     OW 5545   4.227   1.274   4.656
 1549SOL    HW1 5546   4.201   1.268   4.753
 1549SOL    HW2 5547   4.317   1.233   4.643
 1550SOL     OW 5548   3.445   3.212   2.566
 1550SOL    HW1 5549   3.497   3.160   2.498
 1550SOL    HW2 5550   3.378   3.270   2.519
 1551SOL     OW 5551   0.593   5.367   6.642
 1551SOL    HW1 5552   0.517   5.353   6.705
 1551SOL    HW2 5553   0.656   5.289   6.647
 1552SOL     OW 5554   2.452   4.182   1.770
 1552SOL    HW1 5555   2.359   4.219   1.771
 1552SOL    HW2 5556   2.517   4.256   1.751
 1553SOL     OW 5557   6.899   1.556   5.992
 1553SOL    HW1 5558   6.954   1.627   6.037
 1553SOL    HW2 5559   6.946   1.468   5.999
 1554SOL     OW 5560   2.969   1.790   3.317
 1554SOL    HW1 5561   3.025   1.717   3.357
 1554SOL    HW2 5562   2.874   1.759   3.309
 1555SOL     OW 5563   6.365   3.249   6.071
 1555SOL    HW1 5564   6.448   3.298   6.095
 1555SOL    HW2 5565   6.370   3.217   5.977
 1556SOL     OW 5566   1.914   1.167   5.762
 1556SOL    HW1 5567   1.970   1.097   5.718
 1556SOL    HW2 5568   1.968   1.250   5.774
 1557SOL     OW 5569   1.167   3.495   6.664
 1557SOL    HW1 5570   1.114   3.485   6.749
 1557SOL    HW2 5571   1.104   3.509   6.587
 1558SOL     OW 5572   7.006   0.475   5.250
 1558SOL    HW1 5573   6.968   0.396   5.298
 1558SOL    HW2 5574   0.058   0.513   5.302
 1559SOL     OW 5575   0.511   2.290   5.971
 1559SOL    HW1 5576   0.430   2.278   5.914
 1559SOL    HW2 5577   0.588   2.240   5.931
 1560SOL     OW 5578   0.296   0.596   6.621
 1560SOL    HW1 5579   0.230   0.632   6.687
 1560SOL    HW2 5580   0.289   0.496   6.618
 1561SOL     OW 5581   5.393   5.913   2.590
 1561SOL    HW1 5582   5.395   5.996   2.535
 1561SOL    HW2 5583   5.334   5.845   2.546
 1562SOL     OW 5584   5.442   0.460   2.830
 1562SOL    HW1 5585   5.367   0.523   2.850
 1562SOL    HW2 5586   5.422   0.371   2.870
 1563SOL     OW 5587   3.673   1.315   6.029
 1563SOL    HW1 5588   3.669   1.405   6.073
 1563SOL    HW2 5589   3.597   1.307   5.964
 1564SOL     OW 5590   2.209   1.995   2.216
 1564SOL    HW1 5591   2.187   1.968   2.310
 1564SOL    HW2 5592   2.309   1.999   2.206
 1565SOL     OW 5593   4.997   3.837   1.730
 1565SOL    HW1 5594   4.903   3.823   1.701
 1565SOL    HW2 5595   5.059   3.789   1.667
 1566SOL     OW 5596   5.455   4.087   3.589
 1566SOL    HW1 5597   5.364   4.129   3.585
 1566SOL    HW2 5598   5.454   4.001   3.537
 1567SOL     OW 5599   6.998   5.313   5.710
 1567SOL    HW1 5600   6.955   5.230   5.747
 1567SOL    HW2 5601   0.067   5.321   5.746
 1568SOL     OW 5602   0.677   0.542   0.767
 1568SOL    HW1 5603   0.624   0.564   0.685
 1568SOL    HW2 5604   0.618   0.499   0.835
 1569SOL     OW 5605   3.810   6.392   5.256
 1569SOL    HW1 5606   3.741   6.321   5.270
 1569SOL    HW2 5607   3.901   6.353   5.272
 1570SOL     OW 5608   3.124   1.770   1.364
 1570SOL    HW1 5609   3.034   1.753   1.404
 1570SOL    HW2 5610   3.121   1.853   1.309
 1571SOL     OW 5611   6.320   3.492   1.485
 1571SOL    HW1 5612   6.252   3.505   1.558
 1571SOL    HW2 5613   6.409   3.523   1.518
 1572SOL     OW 5614   1.306   0.294   1.803
 1572SOL    HW1 5615   1.341   0.218   1.748
 1572SOL    HW2 5616   1.326   0.278   1.899
 1573SOL     OW 5617   4.501   0.326   1.873
 1573SOL    HW1 5618   4.554   0.298   1.794
 1573SOL    HW2 5619   4.562   0.349   1.949
 1574SOL     OW 5620   6.428   2.302   2.129
 1574SOL    HW1 5621   6.471   2.390   2.107
 1574SOL    HW2 5622   6.484   2.254   2.196
 1575SOL     OW 5623   1.693   2.298   0.446
 1575SOL    HW1 5624   1.628   2.369   0.472
 1575SOL    HW2 5625   1.664   2.257   0.359
 1576SOL     OW 5626   5.777   6.081   4.082
 1576SOL    HW1 5627   5.807   5.987   4.098
 1576SOL    HW2 5628   5.744   6.090   3.988
 1577SOL     OW 5629   2.916   0.493   5.488
 1577SOL    HW1 5630   2.863   0.416   5.525
 1577SOL    HW2 5631   2.879   0.579   5.524
 1578SOL     OW 5632   5.447   4.407   5.782
 1578SOL    HW1 5633   5.505   4.467   5.837
 1578SOL    HW2 5634   5.435   4.320   5.829
 1579SOL     OW 5635   0.945   0.702   3.791
 1579SOL    HW1 5636   0.866   0.760   3.811
 1579SOL    HW2 5637   1.029   0.757   3.800
 1580SOL     OW 5638   3.079   4.499   5.333
 1580SOL    HW1 5639   3.069   4.401   5.352
 1580SOL    HW2 5640   3.020   4.524   5.256
 1581SOL     OW 5641   6.800   4.240   4.370
 1581SOL    HW1 5642   6.810   4.216   4.273
 1581SOL    HW2 5643   6.724   4.304   4.381
 1582SOL     OW 5644   0.545   5.174   4.219
 1582SOL    HW1 5645   0.628   5.211   4.263
 1582SOL    HW2 5646   0.479   5.149   4.290
 1583SOL     OW 5647   1.676   2.949   3.593
 1583SOL    HW1 5648   1.759   2.894   3.592
 1583SOL    HW2 5649   1.692   3.034   3.644
 1584SOL     OW 5650   2.360   0.287   5.759
 1584SOL    HW1 5651   2.297   0.348   5.806
 1584SOL    HW2 5652   2.438   0.339   5.723
 1585SOL     OW 5653   5.560   1.333   3.878
 1585SOL    HW1 5654   5.543   1.262   3.946
 1585SOL    HW2 5655   5.528   1.421   3.914
 1586SOL     OW 5656   3.916   3.827   2.708
 1586SOL    HW1 5657   3.936   3.873   2.621
 1586SOL    HW2 5658   3.959   3.737   2.708
 1587SOL     OW 5659   3.550   6.865   6.848
 1587SOL    HW1 5660   3.516   6.776   6.879
 1587SOL    HW2 5661   3.603   6.854   6.764
 1588SOL     OW 5662   5.727   2.610   1.424
 1588SOL    HW1 5663   5.669   2.643   1.498
 1588SOL    HW2 5664   5.768   2.688   1.376
 1589SOL     OW 5665   5.780   4.459   4.620
 1589SOL    HW1 5666   5.832   4.542   4.598
 1589SOL    HW2 5667   5.788   4.441   4.718
 1590SOL     OW 5668   1.857   0.320   6.475
 1590SOL    HW1 5669   1.827   0.384   6.405
 1590SOL    HW2 5670   1.929   0.363   6.531
 1591SOL     OW 5671   1.237   4.571   2.091
 1591SOL    HW1 5672   1.240   4.658   2.138
 1591SOL    HW2 5673   1.150   4.562   2.042
 1592SOL     OW 5674   3.259   3.549   2.930
 1592SOL    HW1 5675   3.299   3.458   2.929
 1592SOL    HW2 5676   3.170   3.546   2.976
 1593SOL     OW 5677   1.231   5.556   4.853
 1593SOL    HW1 5678   1.158   5.605   4.807
 1593SOL    HW2 5679   1.272   5.489   4.791
 1594SOL     OW 5680   6.689   5.140   3.009
 1594SOL    HW1 5681   6.718   5.236   3.003
 1594SOL    HW2 5682   6.770   5.081   3.000
 1595SOL     OW 5683   6.570   4.912   6.259
 1595SOL    HW1 5684   6.541   4.820   6.286
 1595SOL    HW2 5685   6.669   4.914   6.247
 1596SOL     OW 5686   2.456   5.208   5.922
 1596SOL    HW1 5687   2.430   5.301   5.948
 1596SOL    HW2 5688   2.424   5.189   5.829
 1597SOL     OW 5689   2.961   6.237   1.450
 1597SOL    HW1 5690   2.896   6.193   1.388
 1597SOL    HW2 5691   2.921   6.242   1.542
 1598SOL     OW 5692   0.170   5.158   1.168
 1598SOL    HW1 5693   0.235   5.230   1.195
 1598SOL    HW2 5694   0.213   5.068   1.183
 1599SOL     OW 5695   3.881   5.315   6.824
 1599SOL    HW1 5696   3.932   5.229   6.827
 1599SOL    HW2 5697   3.786   5.299   6.851
 1600SOL     OW 5698   4.462   1.062   4.158
 1600SOL    HW1 5699   4.538   1.121   4.132
 1600SOL    HW2 5700   4.476   0.970   4.121
 1601SOL     OW 5701   1.433   5.170   4.123
 1601SOL    HW1 5702   1.477   5.259   4.136
 1601SOL    HW2 5703   1.485   5.117   4.055
 1602SOL     OW 5704   1.042   4.977   3.831
 1602SOL    HW1 5705   1.095   5.053   3.793
 1602SOL    HW2 5706   1.045   4.980   3.931
 1603SOL     OW 5707   6.991   6.438   2.090
 1603SOL    HW1 5708   6.913   6.471   2.143
 1603SOL    HW2 5709   0.030   6.514   2.073
 1604SOL     OW 5710   0.143   4.942   6.531
 1604SOL    HW1 5711   0.164   4.849   6.561
 1604SOL    HW2 5712   0.171   5.007   6.602
 1605SOL     OW 5713   5.847   6.836   3.053
 1605SOL    HW1 5714   5.751   6.821   3.030
 1605SOL    HW2 5715   5.900   6.755   3.027
 1606SOL     OW 5716   5.173   6.986   6.284
 1606SOL    HW1 5717   5.107   7.020   6.352
 1606SOL    HW2 5718   5.242   0.031   6.268
 1607SOL     OW 5719   4.108   2.494   1.102
 1607SOL    HW1 5720   4.177   2.538   1.044
 1607SOL    HW2 5721   4.153   2.449   1.178
 1608SOL     OW 5722   2.396   6.665   0.365
 1608SOL    HW1 5723   2.425   6.698   0.455
 1608SOL    HW2 5724   2.395   6.742   0.301
 1609SOL     OW 5725   4.850   2.164   5.512
 1609SOL    HW1 5726   4.756   2.129   5.516
 1609SOL    HW2 5727   4.910   2.105   5.566
 1610SOL     OW 5728   6.421   5.632   4.397
 1610SOL    HW1 5729   6.405   5.547   4.447
 1610SOL    HW2 5730   6.507   5.626   4.346
 1611SOL     OW 5731   3.163   3.751   1.503
 1611SOL    HW1 5732   3.223   3.673   1.519
 1611SOL    HW2 5733   3.206   3.834   1.538
 1612SOL     OW 5734   2.546   0.863   4.595
 1612SOL    HW1 5735   2.508   0.851   4.687
 1612SOL    HW2 5736   2.524   0.955   4.562
 1613SOL     OW 5737   2.321   5.842   0.458
 1613SOL    HW1 5738   2.405   5.864   0.508
 1613SOL    HW2 5739   2.251   5.910   0.480
 1614SOL     OW 5740   5.789   2.082   0.002
 1614SOL    HW1 5741   5.796   2.087   0.102
 1614SOL    HW2 5742   5.881   2.067   6.988
 1615SOL     OW 5743   6.672   4.487   0.030
 1615SOL    HW1 5744   6.657   4.578   0.067
 1615SOL    HW2 5745   6.726   4.433   0.094
 1616SOL     OW 5746   3.636   2.111   6.038
 1616SOL    HW1 5747   3.693   2.190   6.018
 1616SOL    HW2 5748   3.685   2.027   6.013
 1617SOL     OW 5749   4.987   0.176   3.578
 1617SOL    HW1 5750   5.048   0.236   3.525
 1617SOL    HW2 5751   5.033   0.149   3.663
 1618SOL     OW 5752   5.397   2.886   0.916
 1618SOL    HW1 5753   5.468   2.818   0.896
 1618SOL    HW2 5754   5.437   2.963   0.966
 1619SOL     OW 5755   1.702   3.571   4.481
 1619SOL    HW1 5756   1.729   3.643   4.544
 1619SOL    HW2 5757   1.604   3.575   4.465
 1620SOL     OW 5758   2.775   5.134   1.511
 1620SOL    HW1 5759   2.751   5.092   1.424
 1620SOL    HW2 5760   2.708   5.108   1.581
 1621SOL     OW 5761   1.630   0.999   0.975
 1621SOL    HW1 5762   1.652   1.093   0.948
 1621SOL    HW2 5763   1.714   0.948   0.991
 1622SOL     OW 5764   2.378   2.161   5.414
 1622SOL    HW1 5765   2.307   2.186   5.348
 1622SOL    HW2 5766   2.387   2.233   5.482
 1623SOL     OW 5767   2.915   2.209   5.383
 1623SOL    HW1 5768   2.944   2.303   5.403
 1623SOL    HW2 5769   2.842   2.211   5.315
 1624SOL     OW 5770   2.467   1.521   0.044
 1624SOL    HW1 5771   2.412   1.602   0.066
 1624SOL    HW2 5772   2.564   1.545   0.047
 1625SOL     OW 5773   0.671   5.208   2.197
 1625SOL    HW1 5774   0.583   5.166   2.217
 1625SOL    HW2 5775   0.731   5.198   2.276
 1626SOL     OW 5776   1.778   2.563   6.561
 1626SOL    HW1 5777   1.837   2.564   6.642
 1626SOL    HW2 5778   1.772   2.655   6.523
 1627SOL     OW 5779   5.840   2.801   3.459
 1627SOL    HW1 5780   5.898   2.721   3.445
 1627SOL    HW2 5781   5.748   2.783   3.424
 1628SOL     OW 5782   3.208   4.466   0.658
 1628SOL    HW1 5783   3.233   4.379   0.700
 1628SOL    HW2 5784   3.148   4.448   0.579
 1629SOL     OW 5785   3.742   2.117   4.034
 1629SOL    HW1 5786   3.784   2.030   4.058
 1629SOL    HW2 5787   3.666   2.135   4.096
 1630SOL     OW 5788   0.184   4.482   5.225
 1630SOL    HW1 5789   0.154   4.575   5.205
 1630SOL    HW2 5790   0.104   4.424   5.244
 1631SOL     OW 5791   7.013   6.993   5.989
 1631SOL    HW1 5792   6.950   6.973   6.064
 1631SOL    HW2 5793   6.990   0.058   5.949
 1632SOL     OW 5794   6.117   1.006   1.495
 1632SOL    HW1 5795   6.178   1.071   1.449
 1632SOL    HW2 5796   6.167   0.958   1.567
 1633SOL     OW 5797   5.953   2.342   3.797
 1633SOL    HW1 5798   5.873   2.376   3.747
 1633SOL    HW2 5799   5.942   2.362   3.895
 1634SOL     OW 5800   3.381   1.028   6.706
 1634SOL    HW1 5801   3.461   1.088   6.700
 1634SOL    HW2 5802   3.383   0.962   6.631
 1635SOL     OW 5803   0.358   5.488   4.882
 1635SOL    HW1 5804   0.439   5.510   4.826
 1635SOL    HW2 5805   0.333   5.568   4.937
 1636SOL     OW 5806   2.061   6.010   1.495
 1636SOL    HW1 5807   2.031   6.047   1.583
 1636SOL    HW2 5808   2.033   6.073   1.422
 1637SOL     OW 5809   0.155   3.281   1.803
 1637SOL    HW1 5810   0.187   3.364   1.758
 1637SOL    HW2 5811   0.199   3.273   1.893
 1638SOL     OW 5812   0.327   3.388   4.968
 1638SOL    HW1 5813   0.338   3.290   4.986
 1638SOL    HW2 5814   0.315   3.436   5.055
 1639SOL     OW 5815   5.578   5.362   2.274
 1639SOL    HW1 5816   5.537   5.279   2.236
 1639SOL    HW2 5817   5.527   5.442   2.241
 1640SOL     OW 5818   6.540   6.950   1.144
 1640SOL    HW1 5819   6.560   6.932   1.240
 1640SOL    HW2 5820   6.454   7.001   1.137
 1641SOL     OW 5821   5.697   2.733   5.236
 1641SOL    HW1 5822   5.760   2.787   5.291
 1641SOL    HW2 5823   5.632   2.685   5.296
 1642SOL     OW 5824   6.910   1.825   1.339
 1642SOL    HW1 5825   6.849   1.776   1.401
 1642SOL    HW2 5826   7.000   1.834   1.381
 1643SOL     OW 5827   4.736   0.263   5.447
 1643SOL    HW1 5828   4.636   0.255   5.436
 1643SOL    HW2 5829   4.768   0.194   5.511
 1644SOL     OW 5830   3.098   1.256   1.497
 1644SOL    HW1 5831   3.184   1.205   1.506
 1644SOL    HW2 5832   3.022   1.191   1.489
 1645SOL     OW 5833   2.485   6.974   6.567
 1645SOL    HW1 5834   2.529   6.896   6.523
 1645SOL    HW2 5835   2.454   0.015   6.498
 1646SOL     OW 5836   0.941   3.983   0.991
 1646SOL    HW1 5837   0.923   3.885   0.989
 1646SOL    HW2 5838   0.860   4.033   0.962
 1647SOL     OW 5839   5.664   2.935   3.620
 1647SOL    HW1 5840   5.725   2.883   3.560
 1647SOL    HW2 5841   5.590   2.975   3.566
 1648SOL     OW 5842   4.525   7.019   2.205
 1648SOL    HW1 5843   4.509   0.053   2.285
 1648SOL    HW2 5844   4.448   6.956   2.194
 1649SOL     OW 5845   3.525   0.786   3.937
 1649SOL    HW1 5846   3.453   0.849   3.909
 1649SOL    HW2 5847   3.582   0.763   3.858
 1650SOL     OW 5848   2.832   6.523   3.874
 1650SOL    HW1 5849   2.924   6.550   3.901
 1650SOL    HW2 5850   2.768   6.541   3.949
 1651SOL     OW 5851   1.099   0.036   0.345
 1651SOL    HW1 5852   1.124   6.990   0.279
 1651SOL    HW2 5853   1.037   7.021   0.413
 1652SOL     OW 5854   2.715   2.485   1.746
 1652SOL    HW1 5855   2.688   2.392   1.722
 1652SOL    HW2 5856   2.797   2.482   1.805
 1653SOL     OW 5857   1.123   5.620   1.587
 1653SOL    HW1 5858   1.097   5.524   1.576
 1653SOL    HW2 5859   1.068   5.677   1.526
 1654SOL     OW 5860   6.897   3.606   2.861
 1654SOL    HW1 5861   6.812   3.605   2.914
 1654SOL    HW2 5862   6.946   3.691   2.879
 1655SOL     OW 5863   4.840   4.689   6.554
 1655SOL    HW1 5864   4.857   4.637   6.470
 1655SOL    HW2 5865   4.892   4.774   6.551
 1656SOL     OW 5866   0.842   4.994   3.426
 1656SOL    HW1 5867   0.778   5.044   3.367
 1656SOL    HW2 5868   0.932   4.990   3.382
 1657SOL     OW 5869   1.626   0.661   5.335
 1657SOL    HW1 5870   1.558   0.734   5.343
 1657SOL    HW2 5871   1.584   0.574   5.361
 1658SOL     OW 5872   5.956   6.149   2.996
 1658SOL    HW1 5873   5.984   6.096   3.076
 1658SOL    HW2 5874   5.857   6.161   2.997
 1659SOL     OW 5875   3.761   2.550   5.887
 1659SOL    HW1 5876   3.748   2.588   5.796
 1659SOL    HW2 5877   3.849   2.580   5.924
 1660SOL     OW 5878   1.954   5.416   4.047
 1660SOL    HW1 5879   1.943   5.514   4.030
 1660SOL    HW2 5880   1.863   5.375   4.060
 1661SOL     OW 5881   3.021   0.288   2.344
 1661SOL    HW1 5882   3.020   0.188   2.343
 1661SOL    HW2 5883   3.022   0.322   2.250
 1662SOL     OW 5884   0.858   0.682   3.518
 1662SOL    HW1 5885   0.766   0.715   3.497
 1662SOL    HW2 5886   0.863   0.659   3.616
 1663SOL     OW 5887   2.565   0.113   2.634
 1663SOL    HW1 5888   2.640   0.081   2.576
 1663SOL    HW2 5889   2.549   0.211   2.617
 1664SOL     OW 5890   2.126   5.683   3.833
 1664SOL    HW1 5891   2.054   5.630   3.878
 1664SOL    HW2 5892   2.096   5.778   3.824
 1665SOL     OW 5893   6.841   0.576   4.138
 1665SOL    HW1 5894   6.903   0.653   4.143
 1665SOL    HW2 5895   6.747   0.607   4.155
 1666SOL     OW 5896   5.768   2.928   6.525
 1666SOL    HW1 5897   5.695   2.865   6.501
 1666SOL    HW2 5898   5.737   2.991   6.595
 1667SOL     OW 5899   6.464   0.233   5.822
 1667SOL    HW1 5900   6.386   0.279   5.865
 1667SOL    HW2 5901   6.540   0.298   5.814
 1668SOL     OW 5902   3.873   0.590   5.881
 1668SOL    HW1 5903   3.774   0.575   5.879
 1668SOL    HW2 5904   3.894   0.678   5.837
 1669SOL     OW 5905   5.790   6.591   5.955
 1669SOL    HW1 5906   5.730   6.656   6.003
 1669SOL    HW2 5907   5.864   6.562   6.017
 1670SOL     OW 5908   5.547   4.557   6.134
 1670SOL    HW1 5909   5.490   4.475   6.124
 1670SOL    HW2 5910   5.600   4.570   6.050
 1671SOL     OW 5911   5.091   3.151   0.052
 1671SOL    HW1 5912   5.066   3.243   0.084
 1671SOL    HW2 5913   5.100   3.152   6.976
 1672SOL     OW 5914   1.644   5.141   2.497
 1672SOL    HW1 5915   1.736   5.105   2.489
 1672SOL    HW2 5916   1.637   5.197   2.579
 1673SOL     OW 5917   6.901   3.133   4.146
 1673SOL    HW1 5918   6.918   3.220   4.191
 1673SOL    HW2 5919   6.804   3.109   4.154
 1674SOL     OW 5920   0.745   4.420   6.503
 1674SOL    HW1 5921   0.726   4.337   6.451
 1674SOL    HW2 5922   0.825   4.466   6.464
 1675SOL     OW 5923   4.601   1.723   6.624
 1675SOL    HW1 5924   4.677   1.782   6.654
 1675SOL    HW2 5925   4.516   1.753   6.669
 1676SOL     OW 5926   1.305   6.951   2.724
 1676SOL    HW1 5927   1.374   7.005   2.772
 1676SOL    HW2 5928   1.343   6.916   2.638
 1677SOL     OW 5929   5.889   1.841   5.128
 1677SOL    HW1 5930   5.969   1.831   5.187
 1677SOL    HW2 5931   5.919   1.867   5.036
 1678SOL     OW 5932   5.054   0.341   1.210
 1678SOL    HW1 5933   4.955   0.350   1.222
 1678SOL    HW2 5934   5.094   0.431   1.193
 1679SOL     OW 5935   0.641   3.611   6.543
 1679SOL    HW1 5936   0.568   3.647   6.485
 1679SOL    HW2 5937   0.620   3.631   6.639
 1680SOL     OW 5938   1.050   1.974   4.479
 1680SOL    HW1 5939   0.964   1.993   4.431
 1680SOL    HW2 5940   1.121   2.037   4.446
 1681SOL     OW 5941   6.407   5.454   1.298
 1681SOL    HW1 5942   6.428   5.371   1.247
 1681SOL    HW2 5943   6.308   5.470   1.297
 1682SOL     OW 5944   6.508   3.603   5.779
 1682SOL    HW1 5945   6.455   3.682   5.809
 1682SOL    HW2 5946   6.495   3.589   5.681
 1683SOL     OW 5947   5.429   6.287   1.573
 1683SOL    HW1 5948   5.495   6.282   1.648
 1683SOL    HW2 5949   5.361   6.215   1.584
 1684SOL     OW 5950   0.960   6.181   4.864
 1684SOL    HW1 5951   0.996   6.120   4.794
 1684SOL    HW2 5952   0.976   6.143   4.955
 1685SOL     OW 5953   1.484   1.493   0.029
 1685SOL    HW1 5954   1.543   1.563   7.013
 1685SOL    HW2 5955   1.540   1.413   0.054
 1686SOL     OW 5956   1.494   6.948   0.102
 1686SOL    HW1 5957   1.419   6.948   0.036
 1686SOL    HW2 5958   1.459   6.974   0.192
 1687SOL     OW 5959   1.613   6.288   1.922
 1687SOL    HW1 5960   1.641   6.316   1.830
 1687SOL    HW2 5961   1.693   6.282   1.981
 1688SOL     OW 5962   1.165   1.830   3.142
 1688SOL    HW1 5963   1.235   1.820   3.213
 1688SOL    HW2 5964   1.138   1.927   3.135
 1689SOL     OW 5965   2.206   1.925   2.930
 1689SOL    HW1 5966   2.273   1.869   2.882
 1689SOL    HW2 5967   2.151   1.976   2.863
 1690SOL     OW 5968   1.385   1.230   1.214
 1690SOL    HW1 5969   1.448   1.186   1.279
 1690SOL    HW2 5970   1.436   1.293   1.156
 1691SOL     OW 5971   5.369   4.519   2.628
 1691SOL    HW1 5972   5.396   4.512   2.724
 1691SOL    HW2 5973   5.282   4.472   2.615
 1692SOL     OW 5974   1.259   0.441   2.272
 1692SOL    HW1 5975   1.341   0.450   2.328
 1692SOL    HW2 5976   1.275   0.373   2.200
 1693SOL     OW 5977   3.055   2.043   3.303
 1693SOL    HW1 5978   3.016   1.953   3.323
 1693SOL    HW2 5979   3.144   2.052   3.350
 1694SOL     OW 5980   5.601   5.835   5.008
 1694SOL    HW1 5981   5.685   5.856   5.058
 1694SOL    HW2 5982   5.525   5.827   5.073
 1695SOL     OW 5983   3.166   2.681   5.634
 1695SOL    HW1 5984   3.232   2.716   5.701
 1695SOL    HW2 5985   3.155   2.582   5.647
 1696SOL     OW 5986   4.305   6.063   0.914
 1696SOL    HW1 5987   4.389   6.116   0.921
 1696SOL    HW2 5988   4.244   6.085   0.990
 1697SOL     OW 5989   1.061   1.457   1.900
 1697SOL    HW1 5990   1.156   1.428   1.903
 1697SOL    HW2 5991   1.026   1.449   1.807
 1698SOL     OW 5992   4.501   1.966   1.748
 1698SOL    HW1 5993   4.450   1.956   1.663
 1698SOL    HW2 5994   4.562   2.046   1.741
 1699SOL     OW 5995   2.200   3.323   0.982
 1699SOL    HW1 5996   2.195   3.394   0.913
 1699SOL    HW2 5997   2.176   3.361   1.071
 1700SOL     OW 5998   6.830   3.169   2.988
 1700SOL    HW1 5999   6.732   3.185   2.983
 1700SOL    HW2 6000   6.849   3.073   2.970
 1701SOL     OW 6001   5.655   3.297   3.945
 1701SOL    HW1 6002   5.584   3.355   3.905
 1701SOL    HW2 6003   5.744   3.336   3.926
 1702SOL     OW 6004   4.728   3.742   0.737
 1702SOL    HW1 6005   4.766   3.789   0.817
 1702SOL    HW2 6006   4.772   3.652   0.728
 1703SOL     OW 6007   1.488   3.693   0.109
 1703SOL    HW1 6008   1.519   3.787   0.097
 1703SOL    HW2 6009   1.500   3.643   0.023
 1704SOL     OW 6010   0.721   0.653   1.848
 1704SOL    HW1 6011   0.797   0.717   1.836
 1704SOL    HW2 6012   0.757   0.561   1.860
 1705SOL     OW 6013   4.398   3.109   1.709
 1705SOL    HW1 6014   4.323   3.158   1.753
 1705SOL    HW2 6015   4.468   3.086   1.778
 1706SOL     OW 6016   3.295   0.760   0.426
 1706SOL    HW1 6017   3.334   0.839   0.380
 1706SOL    HW2 6018   3.320   0.677   0.376
 1707SOL     OW 6019   5.449   2.137   3.629
 1707SOL    HW1 6020   5.510   2.112   3.704
 1707SOL    HW2 6021   5.382   2.203   3.661
 1708SOL     OW 6022   0.140   5.168   3.116
 1708SOL    HW1 6023   0.230   5.200   3.145
 1708SOL    HW2 6024   0.146   5.073   3.087
 1709SOL     OW 6025   2.771   6.259   2.126
 1709SOL    HW1 6026   2.802   6.239   2.033
 1709SOL    HW2 6027   2.849   6.283   2.183
 1710SOL     OW 6028   0.633   5.728   4.548
 1710SOL    HW1 6029   0.633   5.662   4.474
 1710SOL    HW2 6030   0.723   5.772   4.554
 1711SOL     OW 6031   1.355   4.463   5.401
 1711SOL    HW1 6032   1.306   4.463   5.488
 1711SOL    HW2 6033   1.297   4.503   5.330
 1712SOL     OW 6034   0.305   4.424   0.457
 1712SOL    HW1 6035   0.220   4.395   0.502
 1712SOL    HW2 6036   0.354   4.344   0.423
 1713SOL     OW 6037   0.969   2.515   1.151
 1713SOL    HW1 6038   0.966   2.598   1.206
 1713SOL    HW2 6039   0.876   2.481   1.137
 1714SOL     OW 6040   3.223   1.799   0.708
 1714SOL    HW1 6041   3.182   1.828   0.622
 1714SOL    HW2 6042   3.298   1.735   0.689
 1715SOL     OW 6043   0.183   3.286   2.918
 1715SOL    HW1 6044   0.107   3.338   2.958
 1715SOL    HW2 6045   0.182   3.192   2.954
 1716SOL     OW 6046   0.433   5.956   0.283
 1716SOL    HW1 6047   0.344   5.998   0.298
 1716SOL    HW2 6048   0.492   6.021   0.234
 1717SOL     OW 6049   2.868   0.393   6.804
 1717SOL    HW1 6050   2.928   0.347   6.870
 1717SOL    HW2 6051   2.815   0.464   6.851
 1718SOL     OW 6052   1.252   4.498   6.340
 1718SOL    HW1 6053   1.342   4.535   6.317
 1718SOL    HW2 6054   1.248   4.479   6.438
 1719SOL     OW 6055   2.367   3.489   1.422
 1719SOL    HW1 6056   2.379   3.407   1.365
 1719SOL    HW2 6057   2.453   3.508   1.471
 1720SOL     OW 6058   6.771   0.632   1.167
 1720SOL    HW1 6059   6.685   0.683   1.160
 1720SOL    HW2 6060   6.757   0.550   1.222
 1721SOL     OW 6061   2.259   6.353   3.336
 1721SOL    HW1 6062   2.185   6.378   3.273
 1721SOL    HW2 6063   2.296   6.435   3.379
 1722SOL     OW 6064   5.784   6.290   2.439
 1722SOL    HW1 6065   5.767   6.318   2.344
 1722SOL    HW2 6066   5.804   6.192   2.441
 1723SOL     OW 6067   6.738   1.591   2.212
 1723SOL    HW1 6068   6.704   1.620   2.302
 1723SOL    HW2 6069   6.741   1.491   2.208
 1724SOL     OW 6070   4.912   0.965   0.328
 1724SOL    HW1 6071   4.889   1.011   0.243
 1724SOL    HW2 6072   4.882   0.870   0.325
 1725SOL     OW 6073   3.947   4.412   1.438
 1725SOL    HW1 6074   3.905   4.327   1.408
 1725SOL    HW2 6075   4.028   4.431   1.383
 1726SOL     OW 6076   0.492   3.974   4.665
 1726SOL    HW1 6077   0.544   3.974   4.750
 1726SOL    HW2 6078   0.454   3.883   4.648
 1727SOL     OW 6079   3.679   3.943   5.359
 1727SOL    HW1 6080   3.599   3.923   5.416
 1727SOL    HW2 6081   3.721   3.857   5.331
 1728SOL     OW 6082   4.334   4.652   3.075
 1728SOL    HW1 6083   4.249   4.688   3.113
 1728SOL    HW2 6084   4.331   4.657   2.975
 1729SOL     OW 6085   2.119   3.745   2.662
 1729SOL    HW1 6086   2.171   3.660   2.669
 1729SOL    HW2 6087   2.071   3.748   2.574
 1730SOL     OW 6088   6.259   2.609   5.421
 1730SOL    HW1 6089   6.306   2.558   5.493
 1730SOL    HW2 6090   6.224   2.695   5.458
 1731SOL     OW 6091   2.048   5.505   0.893
 1731SOL    HW1 6092   2.134   5.453   0.898
 1731SOL    HW2 6093   2.018   5.508   0.797
 1732SOL     OW 6094   0.357   4.393   6.553
 1732SOL    HW1 6095   0.356   4.446   6.468
 1732SOL    HW2 6096   0.389   4.451   6.628
 1733SOL     OW 6097   1.551   3.254   0.767
 1733SOL    HW1 6098   1.478   3.252   0.836
 1733SOL    HW2 6099   1.635   3.288   0.808
 1734SOL     OW 6100   4.814   2.332   1.474
 1734SOL    HW1 6101   4.910   2.329   1.500
 1734SOL    HW2 6102   4.805   2.315   1.376
 1735SOL     OW 6103   6.402   5.096   1.389
 1735SOL    HW1 6104   6.443   5.071   1.301
 1735SOL    HW2 6105   6.465   5.074   1.463
 1736SOL     OW 6106   3.838   3.216   0.299
 1736SOL    HW1 6107   3.925   3.177   0.327
 1736SOL    HW2 6108   3.851   3.311   0.270
 1737SOL     OW 6109   2.166   6.686   3.255
 1737SOL    HW1 6110   2.236   6.756   3.270
 1737SOL    HW2 6111   2.180   6.643   3.166
 1738SOL     OW 6112   1.912   3.028   2.261
 1738SOL    HW1 6113   2.011   3.024   2.273
 1738SOL    HW2 6114   1.886   2.972   2.182
 1739SOL     OW 6115   4.410   2.009   5.043
 1739SOL    HW1 6116   4.340   2.079   5.050
 1739SOL    HW2 6117   4.437   1.998   4.947
 1740SOL     OW 6118   0.352   1.001   5.744
 1740SOL    HW1 6119   0.345   1.045   5.654
 1740SOL    HW2 6120   0.440   1.025   5.785
 1741SOL     OW 6121   1.228   0.185   2.594
 1741SOL    HW1 6122   1.222   0.087   2.614
 1741SOL    HW2 6123   1.321   0.208   2.569
 1742SOL     OW 6124   6.369   0.776   4.321
 1742SOL    HW1 6125   6.318   0.691   4.307
 1742SOL    HW2 6126   6.331   0.824   4.400
 1743SOL     OW 6127   3.992   1.451   1.354
 1743SOL    HW1 6128   3.952   1.485   1.440
 1743SOL    HW2 6129   3.924   1.395   1.307
 1744SOL     OW 6130   2.974   0.499   1.414
 1744SOL    HW1 6131   2.987   0.562   1.490
 1744SOL    HW2 6132   2.884   0.514   1.373
 1745SOL     OW 6133   0.290   2.286   2.989
 1745SOL    HW1 6134   0.377   2.302   2.943
 1745SOL    HW2 6135   0.248   2.202   2.955
 1746SOL     OW 6136   2.621   0.990   5.698
 1746SOL    HW1 6137   2.584   1.080   5.723
 1746SOL    HW2 6138   2.546   0.925   5.687
 1747SOL     OW 6139   3.153   0.369   2.071
 1747SOL    HW1 6140   3.252   0.378   2.061
 1747SOL    HW2 6141   3.108   0.411   1.991
 1748SOL     OW 6142   4.970   2.085   2.578
 1748SOL    HW1 6143   5.068   2.073   2.593
 1748SOL    HW2 6144   4.955   2.126   2.488
 1749SOL     OW 6145   4.231   0.167   6.435
 1749SOL    HW1 6146   4.156   0.232   6.430
 1749SOL    HW2 6147   4.317   0.212   6.410
 1750SOL     OW 6148   4.384   1.177   3.063
 1750SOL    HW1 6149   4.303   1.235   3.063
 1750SOL    HW2 6150   4.466   1.234   3.064
 1751SOL     OW 6151   1.615   5.339   3.874
 1751SOL    HW1 6152   1.673   5.315   3.796
 1751SOL    HW2 6153   1.667   5.326   3.959
 1752SOL     OW 6154   6.283   1.706   0.549
 1752SOL    HW1 6155   6.353   1.775   0.530
 1752SOL    HW2 6156   6.280   1.688   0.648
 1753SOL     OW 6157   1.505   0.054   1.575
 1753SOL    HW1 6158   1.409   0.081   1.576
 1753SOL    HW2 6159   1.514   6.988   1.532
 1754SOL     OW 6160   3.825   3.270   0.801
 1754SOL    HW1 6161   3.812   3.213   0.883
 1754SOL    HW2 6162   3.744   3.327   0.787
 1755SOL     OW 6163   5.180   3.975   0.811
 1755SOL    HW1 6164   5.119   4.054   0.802
 1755SOL    HW2 6165   5.266   4.004   0.854
 1756SOL     OW 6166   6.983   5.283   4.430
 1756SOL    HW1 6167   6.918   5.273   4.505
 1756SOL    HW2 6168   6.933   5.279   4.343
 1757SOL     OW 6169   3.189   6.584   4.758
 1757SOL    HW1 6170   3.255   6.603   4.831
 1757SOL    HW2 6171   3.173   6.668   4.705
 1758SOL     OW 6172   1.973   0.656   3.288
 1758SOL    HW1 6173   1.897   0.681   3.348
 1758SOL    HW2 6174   1.952   0.571   3.241
 1759SOL     OW 6175   0.436   5.542   6.480
 1759SOL    HW1 6176   0.511   5.595   6.439
 1759SOL    HW2 6177   0.474   5.469   6.537
 1760SOL     OW 6178   6.084   0.835   2.998
 1760SOL    HW1 6179   6.072   0.924   3.042
 1760SOL    HW2 6180   6.129   0.848   2.910
 1761SOL     OW 6181   6.362   1.772   1.038
 1761SOL    HW1 6182   6.333   1.859   1.077
 1761SOL    HW2 6183   6.455   1.752   1.067
 1762SOL     OW 6184   5.891   1.717   5.908
 1762SOL    HW1 6185   5.879   1.630   5.956
 1762SOL    HW2 6186   5.805   1.742   5.863
 1763SOL     OW 6187   2.038   3.772   4.199
 1763SOL    HW1 6188   1.972   3.847   4.191
 1763SOL    HW2 6189   2.010   3.712   4.275
 1764SOL     OW 6190   0.212   3.456   3.501
 1764SOL    HW1 6191   0.280   3.382   3.505
 1764SOL    HW2 6192   0.135   3.433   3.561
 1765SOL     OW 6193   2.892   1.976   6.373
 1765SOL    HW1 6194   2.857   1.965   6.279
 1765SOL    HW2 6195   2.890   2.073   6.398
 1766SOL     OW 6196   5.407   3.231   5.153
 1766SOL    HW1 6197   5.401   3.324   5.189
 1766SOL    HW2 6198   5.419   3.235   5.053
 1767SOL     OW 6199   5.545   3.419   2.011
 1767SOL    HW1 6200   5.514   3.500   2.060
 1767SOL    HW2 6201   5.520   3.426   1.915
 1768SOL     OW 6202   5.177   6.562   3.805
 1768SOL    HW1 6203   5.275   6.564   3.821
 1768SOL    HW2 6204   5.151   6.475   3.764
 1769SOL     OW 6205   3.875   1.493   2.360
 1769SOL    HW1 6206   3.903   1.500   2.456
 1769SOL    HW2 6207   3.785   1.535   2.349
 1770SOL     OW 6208   2.499   5.939   5.402
 1770SOL    HW1 6209   2.546   6.021   5.434
 1770SOL    HW2 6210   2.560   5.886   5.344
 1771SOL     OW 6211   4.104   5.450   6.909
 1771SOL    HW1 6212   4.182   5.437   6.848
 1771SOL    HW2 6213   4.032   5.384   6.885
 1772SOL     OW 6214   2.909   6.579   3.307
 1772SOL    HW1 6215   2.899   6.508   3.237
 1772SOL    HW2 6216   2.963   6.542   3.383
 1773SOL     OW 6217   1.665   5.400   6.044
 1773SOL    HW1 6218   1.708   5.340   6.112
 1773SOL    HW2 6219   1.733   5.466   6.011
 1774SOL     OW 6220   4.512   5.711   1.410
 1774SOL    HW1 6221   4.489   5.720   1.507
 1774SOL    HW2 6222   4.428   5.701   1.357
 1775SOL     OW 6223   0.741   4.018   2.221
 1775SOL    HW1 6224   0.783   3.968   2.146
 1775SOL    HW2 6225   0.742   4.116   2.200
 1776SOL     OW 6226   3.934   6.159   4.445
 1776SOL    HW1 6227   3.981   6.223   4.507
 1776SOL    HW2 6228   3.968   6.066   4.462
 1777SOL     OW 6229   4.209   6.141   0.654
 1777SOL    HW1 6230   4.241   6.109   0.743
 1777SOL    HW2 6231   4.155   6.224   0.665
 1778SOL     OW 6232   5.288   3.857   5.820
 1778SOL    HW1 6233   5.283   3.789   5.892
 1778SOL    HW2 6234   5.383   3.886   5.808
 1779SOL     OW 6235   3.672   0.637   4.977
 1779SOL    HW1 6236   3.658   0.540   4.996
 1779SOL    HW2 6237   3.588   0.687   5.001
 1780SOL     OW 6238   3.300   2.908   6.407
 1780SOL    HW1 6239   3.392   2.917   6.370
 1780SOL    HW2 6240   3.243   2.983   6.373
 1781SOL     OW 6241   3.950   5.540   2.960
 1781SOL    HW1 6242   3.874   5.517   3.020
 1781SOL    HW2 6243   3.999   5.620   2.996
 1782SOL     OW 6244   2.734   0.934   3.413
 1782SOL    HW1 6245   2.815   0.959   3.466
 1782SOL    HW2 6246   2.717   1.004   3.343
 1783SOL     OW 6247   2.176   5.896   6.699
 1783SOL    HW1 6248   2.175   5.945   6.612
 1783SOL    HW2 6249   2.174   5.962   6.774
 1784SOL     OW 6250   3.547   0.339   5.956
 1784SOL    HW1 6251   3.572   0.434   5.977
 1784SOL    HW2 6252   3.454   0.321   5.987
 1785SOL     OW 6253   6.057   3.164   2.480
 1785SOL    HW1 6254   5.967   3.179   2.439
 1785SOL    HW2 6255   6.121   3.232   2.446
 1786SOL     OW 6256   2.419   2.587   0.281
 1786SOL    HW1 6257   2.361   2.520   0.326
 1786SOL    HW2 6258   2.500   2.604   0.338
 1787SOL     OW 6259   3.611   1.722   5.896
 1787SOL    HW1 6260   3.699   1.770   5.888
 1787SOL    HW2 6261   3.539   1.779   5.858
 1788SOL     OW 6262   1.689   5.232   5.355
 1788SOL    HW1 6263   1.633   5.185   5.286
 1788SOL    HW2 6264   1.770   5.177   5.374
 1789SOL     OW 6265   5.919   1.461   0.120
 1789SOL    HW1 6266   6.015   1.471   0.144
 1789SOL    HW2 6267   5.884   1.549   0.088
 1790SOL     OW 6268   3.877   6.902   3.286
 1790SOL    HW1 6269   3.960   6.951   3.312
 1790SOL    HW2 6270   3.819   6.890   3.367
 1791SOL     OW 6271   0.321   0.025   2.912
 1791SOL    HW1 6272   0.235   7.022   2.868
 1791SOL    HW2 6273   0.346   6.981   2.981
 1792SOL     OW 6274   0.930   3.662   5.399
 1792SOL    HW1 6275   0.871   3.586   5.428
 1792SOL    HW2 6276   0.873   3.741   5.375
 1793SOL     OW 6277   6.844   0.652   3.780
 1793SOL    HW1 6278   6.821   0.555   3.769
 1793SOL    HW2 6279   6.885   0.686   3.696
 1794SOL     OW 6280   4.999   5.593   6.055
 1794SOL    HW1 6281   5.054   5.543   6.122
 1794SOL    HW2 6282   4.927   5.643   6.102
 1795SOL     OW 6283   6.996   2.756   0.684
 1795SOL    HW1 6284   6.914   2.715   0.723
 1795SOL    HW2 6285   6.974   2.844   0.643
 1796SOL     OW 6286   2.164   0.952   5.624
 1796SOL    HW1 6287   2.195   1.002   5.543
 1796SOL    HW2 6288   2.072   0.917   5.609
 1797SOL     OW 6289   1.200   6.738   0.621
 1797SOL    HW1 6290   1.228   6.789   0.702
 1797SOL    HW2 6291   1.257   6.765   0.543
 1798SOL     OW 6292   4.644   2.691   3.499
 1798SOL    HW1 6293   4.544   2.696   3.498
 1798SOL    HW2 6294   4.678   2.739   3.580
 1799SOL     OW 6295   0.380   1.969   6.134
 1799SOL    HW1 6296   0.340   1.990   6.045
 1799SOL    HW2 6297   0.317   1.911   6.186
 1800SOL     OW 6298   4.175   4.532   1.315
 1800SOL    HW1 6299   4.261   4.554   1.360
 1800SOL    HW2 6300   4.187   4.451   1.258
 1801SOL     OW 6301   0.009   0.222   2.376
 1801SOL    HW1 6302   6.937   0.198   2.359
 1801SOL    HW2 6303   0.023   0.319   2.355
 1802SOL     OW 6304   6.413   5.810   4.592
 1802SOL    HW1 6305   6.401   5.726   4.539
 1802SOL    HW2 6306   6.325   5.834   4.635
 1803SOL     OW 6307   6.914   5.713   0.263
 1803SOL    HW1 6308   6.881   5.645   0.197
 1803SOL    HW2 6309   6.914   5.803   0.220
 1804SOL     OW 6310   3.121   3.785   5.299
 1804SOL    HW1 6311   3.085   3.853   5.234
 1804SOL    HW2 6312   3.150   3.704   5.249
 1805SOL     OW 6313   5.248   3.938   6.226
 1805SOL    HW1 6314   5.154   3.931   6.192
 1805SOL    HW2 6315   5.255   4.018   6.287
 1806SOL     OW 6316   1.895   0.032   1.337
 1806SOL    HW1 6317   1.876   6.958   1.350
 1806SOL    HW2 6318   1.809   0.082   1.327
 1807SOL     OW 6319   6.240   1.876   4.879
 1807SOL    HW1 6320   6.245   1.951   4.945
 1807SOL    HW2 6321   6.300   1.896   4.802
 1808SOL     OW 6322   0.493   5.015   4.858
 1808SOL    HW1 6323   0.550   5.085   4.901
 1808SOL    HW2 6324   0.545   4.968   4.788
 1809SOL     OW 6325   2.969   2.161   6.149
 1809SOL    HW1 6326   3.034   2.140   6.077
 1809SOL    HW2 6327   3.013   2.148   6.238
 1810SOL     OW 6328   3.077   6.487   3.529
 1810SOL    HW1 6329   3.093   6.395   3.494
 1810SOL    HW2 6330   3.163   6.539   3.529
 1811SOL     OW 6331   6.019   5.635   3.361
 1811SOL    HW1 6332   5.921   5.626   3.338
 1811SOL    HW2 6333   6.073   5.624   3.278
 1812SOL     OW 6334   3.945   5.896   5.621
 1812SOL    HW1 6335   3.999   5.812   5.619
 1812SOL    HW2 6336   3.919   5.922   5.527
 1813SOL     OW 6337   5.937   4.571   0.216
 1813SOL    HW1 6338   5.887   4.489   0.189
 1813SOL    HW2 6339   5.907   4.600   0.307
 1814SOL     OW 6340   4.495   0.216   2.378
 1814SOL    HW1 6341   4.494   0.184   2.473
 1814SOL    HW2 6342   4.426   0.288   2.366
 1815SOL     OW 6343   0.332   0.797   2.871
 1815SOL    HW1 6344   0.359   0.713   2.824
 1815SOL    HW2 6345   0.365   0.795   2.965
 1816SOL     OW 6346   1.528   3.532   6.902
 1816SOL    HW1 6347   1.626   3.540   6.922
 1816SOL    HW2 6348   1.501   3.436   6.913
 1817SOL     OW 6349   1.929   5.644   2.620
 1817SOL    HW1 6350   1.941   5.571   2.553
 1817SOL    HW2 6351   1.952   5.732   2.579
 1818SOL     OW 6352   1.755   0.433   2.685
 1818SOL    HW1 6353   1.811   0.394   2.612
 1818SOL    HW2 6354   1.688   0.366   2.715
 1819SOL     OW 6355   1.493   4.048   1.150
 1819SOL    HW1 6356   1.396   4.074   1.143
 1819SOL    HW2 6357   1.541   4.112   1.209
 1820SOL     OW 6358   4.736   0.430   2.704
 1820SOL    HW1 6359   4.639   0.454   2.703
 1820SOL    HW2 6360   4.787   0.497   2.650
 1821SOL     OW 6361   2.154   1.688   3.262
 1821SOL    HW1 6362   2.061   1.652   3.262
 1821SOL    HW2 6363   2.154   1.780   3.300
 1822SOL     OW 6364   3.340   2.478   1.624
 1822SOL    HW1 6365   3.245   2.482   1.657
 1822SOL    HW2 6366   3.386   2.400   1.666
 1823SOL     OW 6367   4.313   6.564   2.117
 1823SOL    HW1 6368   4.236   6.503   2.134
 1823SOL    HW2 6369   4.312   6.639   2.184
 1824SOL     OW 6370   4.705   2.597   1.507
 1824SOL    HW1 6371   4.778   2.661   1.532
 1824SOL    HW2 6372   4.744   2.507   1.489
 1825SOL     OW 6373   1.088   0.374   1.481
 1825SOL    HW1 6374   1.148   0.408   1.410
 1825SOL    HW2 6375   1.050   0.451   1.533
 1826SOL     OW 6376   2.968   0.485   0.186
 1826SOL    HW1 6377   2.945   0.548   0.260
 1826SOL    HW2 6378   3.064   0.498   0.160
 1827SOL     OW 6379   6.572   5.595   1.764
 1827SOL    HW1 6380   6.505   5.526   1.794
 1827SOL    HW2 6381   6.642   5.550   1.709
 1828SOL     OW 6382   0.510   2.687   6.309
 1828SOL    HW1 6383   0.537   2.623   6.237
 1828SOL    HW2 6384   0.579   2.759   6.317
 1829SOL     OW 6385   5.533   5.841   2.864
 1829SOL    HW1 6386   5.495   5.838   2.772
 1829SOL    HW2 6387   5.499   5.763   2.917
 1830SOL     OW 6388   4.624   6.437   3.074
 1830SOL    HW1 6389   4.572   6.495   3.138
 1830SOL    HW2 6390   4.719   6.431   3.105
 1831SOL     OW 6391   5.301   6.387   1.862
 1831SOL    HW1 6392   5.396   6.387   1.829
 1831SOL    HW2 6393   5.249   6.456   1.812
 1832SOL     OW 6394   4.408   2.554   0.976
 1832SOL    HW1 6395   4.480   2.492   1.009
 1832SOL    HW2 6396   4.389   2.622   1.046
 1833SOL     OW 6397   4.890   0.396   4.790
 1833SOL    HW1 6398   4.841   0.359   4.869
 1833SOL    HW2 6399   4.976   0.436   4.821
 1834SOL     OW 6400   3.828   3.351   1.431
 1834SOL    HW1 6401   3.754   3.316   1.373
 1834SOL    HW2 6402   3.815   3.318   1.524
 1835SOL     OW 6403   1.493   5.156   0.645
 1835SOL    HW1 6404   1.581   5.131   0.684
 1835SOL    HW2 6405   1.420   5.108   0.693
 1836SOL     OW 6406   0.535   0.242   0.511
 1836SOL    HW1 6407   0.473   0.201   0.578
 1836SOL    HW2 6408   0.626   0.252   0.552
 1837SOL     OW 6409   1.051   2.446   4.426
 1837SOL    HW1 6410   1.093   2.392   4.499
 1837SOL    HW2 6411   1.111   2.522   4.402
 1838SOL     OW 6412   6.761   2.597   4.421
 1838SOL    HW1 6413   6.781   2.695   4.411
 1838SOL    HW2 6414   6.796   2.566   4.509
 1839SOL     OW 6415   6.455   3.047   5.329
 1839SOL    HW1 6416   6.483   2.953   5.348
 1839SOL    HW2 6417   6.364   3.063   5.368
 1840SOL     OW 6418   2.722   5.523   0.467
 1840SOL    HW1 6419   2.821   5.522   0.476
 1840SOL    HW2 6420   2.694   5.600   0.409
 1841SOL     OW 6421   2.222   3.040   3.731
 1841SOL    HW1 6422   2.271   3.004   3.810
 1841SOL    HW2 6423   2.216   3.140   3.739
 1842SOL     OW 6424   0.697   4.220   1.018
 1842SOL    HW1 6425   0.637   4.283   0.969
 1842SOL    HW2 6426   0.685   4.127   0.983
 1843SOL     OW 6427   2.656   1.760   5.567
 1843SOL    HW1 6428   2.624   1.840   5.516
 1843SOL    HW2 6429   2.706   1.699   5.506
 1844SOL     OW 6430   4.091   2.233   4.158
 1844SOL    HW1 6431   4.037   2.187   4.229
 1844SOL    HW2 6432   4.035   2.243   4.076
 1845SOL     OW 6433   3.461   7.016   0.059
 1845SOL    HW1 6434   3.475   6.970   6.995
 1845SOL    HW2 6435   3.502   6.961   0.132
 1846SOL     OW 6436   2.606   2.429   6.744
 1846SOL    HW1 6437   2.698   2.409   6.708
 1846SOL    HW2 6438   2.569   2.509   6.697
 1847SOL     OW 6439   0.787   0.233   1.067
 1847SOL    HW1 6440   0.734   0.241   1.152
 1847SOL    HW2 6441   0.799   0.137   1.043
 1848SOL     OW 6442   3.078   6.692   2.033
 1848SOL    HW1 6443   3.043   6.612   1.983
 1848SOL    HW2 6444   3.016   6.769   2.018
 1849SOL     OW 6445   3.312   1.994   6.681
 1849SOL    HW1 6446   3.220   1.961   6.664
 1849SOL    HW2 6447   3.315   2.039   6.771
 1850SOL     OW 6448   6.093   2.757   2.994
 1850SOL    HW1 6449   6.130   2.682   3.049
 1850SOL    HW2 6450   6.059   2.720   2.907
 1851SOL     OW 6451   0.549   2.497   2.286
 1851SOL    HW1 6452   0.522   2.483   2.191
 1851SOL    HW2 6453   0.528   2.591   2.314
 1852SOL     OW 6454   4.241   3.213   0.313
 1852SOL    HW1 6455   4.155   3.170   0.340
 1852SOL    HW2 6456   4.249   3.303   0.357
 1853SOL     OW 6457   1.243   4.296   1.446
 1853SOL    HW1 6458   1.250   4.201   1.476
 1853SOL    HW2 6459   1.320   4.318   1.387
 1854SOL     OW 6460   2.616   5.613   4.458
 1854SOL    HW1 6461   2.619   5.689   4.523
 1854SOL    HW2 6462   2.592   5.648   4.367
 1855SOL     OW 6463   5.431   5.222   0.708
 1855SOL    HW1 6464   5.383   5.168   0.778
 1855SOL    HW2 6465   5.390   5.203   0.619
 1856SOL     OW 6466   5.521   2.245   4.835
 1856SOL    HW1 6467   5.519   2.146   4.820
 1856SOL    HW2 6468   5.565   2.290   4.757
 1857SOL     OW 6469   3.966   1.074   3.948
 1857SOL    HW1 6470   4.035   1.136   3.909
 1857SOL    HW2 6471   4.011   0.994   3.987
 1858SOL     OW 6472   4.955   2.754   3.630
 1858SOL    HW1 6473   4.869   2.764   3.681
 1858SOL    HW2 6474   5.030   2.790   3.684
 1859SOL     OW 6475   4.366   2.420   3.299
 1859SOL    HW1 6476   4.277   2.389   3.266
 1859SOL    HW2 6477   4.404   2.486   3.234
 1860SOL     OW 6478   5.958   1.067   4.675
 1860SOL    HW1 6479   5.921   1.021   4.756
 1860SOL    HW2 6480   5.975   1.000   4.604
 1861SOL     OW 6481   5.307   6.502   3.133
 1861SOL    HW1 6482   5.364   6.532   3.209
 1861SOL    HW2 6483   5.231   6.447   3.168
 1862SOL     OW 6484   1.857   1.339   0.159
 1862SOL    HW1 6485   1.890   1.255   0.203
 1862SOL    HW2 6486   1.866   1.329   0.060
 1863SOL     OW 6487   2.975   2.705   1.466
 1863SOL    HW1 6488   2.978   2.637   1.393
 1863SOL    HW2 6489   2.882   2.712   1.502
 1864SOL     OW 6490   1.015   6.569   4.677
 1864SOL    HW1 6491   1.088   6.570   4.609
 1864SOL    HW2 6492   1.010   6.658   4.723
 1865SOL     OW 6493   4.239   1.831   5.853
 1865SOL    HW1 6494   4.283   1.886   5.924
 1865SOL    HW2 6495   4.198   1.892   5.785
 1866SOL     OW 6496   4.649   4.353   2.206
 1866SOL    HW1 6497   4.612   4.328   2.117
 1866SOL    HW2 6498   4.733   4.302   2.223
 1867SOL     OW 6499   0.241   4.129   0.204
 1867SOL    HW1 6500   0.212   4.223   0.184
 1867SOL    HW2 6501   0.172   4.085   0.260
 1868SOL     OW 6502   5.765   4.318   6.195
 1868SOL    HW1 6503   5.772   4.398   6.136
 1868SOL    HW2 6504   5.669   4.291   6.202
 1869SOL     OW 6505   6.387   1.353   5.353
 1869SOL    HW1 6506   6.380   1.258   5.322
 1869SOL    HW2 6507   6.301   1.401   5.335
 1870SOL     OW 6508   1.769   5.430   4.621
 1870SOL    HW1 6509   1.747   5.433   4.718
 1870SOL    HW2 6510   1.807   5.340   4.599
 1871SOL     OW 6511   2.013   6.879   0.279
 1871SOL    HW1 6512   1.984   6.915   0.190
 1871SOL    HW2 6513   1.933   6.871   0.339
 1872SOL     OW 6514   1.793   4.360   0.279
 1872SOL    HW1 6515   1.796   4.306   0.194
 1872SOL    HW2 6516   1.714   4.420   0.278
 1873SOL     OW 6517   4.251   1.365   6.739
 1873SOL    HW1 6518   4.178   1.307   6.704
 1873SOL    HW2 6519   4.265   1.442   6.676
 1874SOL     OW 6520   1.504   1.565   1.927
 1874SOL    HW1 6521   1.601   1.584   1.910
 1874SOL    HW2 6522   1.473   1.620   2.005
 1875SOL     OW 6523   0.516   6.631   6.418
 1875SOL    HW1 6524   0.448   6.564   6.445
 1875SOL    HW2 6525   0.566   6.662   6.499
 1876SOL     OW 6526   2.966   6.969   4.258
 1876SOL    HW1 6527   2.896   0.016   4.253
 1876SOL    HW2 6528   3.000   6.963   4.352
 1877SOL     OW 6529   1.210   0.214   3.788
 1877SOL    HW1 6530   1.133   0.172   3.835
 1877SOL    HW2 6531   1.182   0.242   3.697
 1878SOL     OW 6532   6.366   2.574   4.797
 1878SOL    HW1 6533   6.366   2.615   4.706
 1878SOL    HW2 6534   6.446   2.605   4.848
 1879SOL     OW 6535   1.181   4.044   4.989
 1879SOL    HW1 6536   1.248   3.971   4.981
 1879SOL    HW2 6537   1.227   4.130   5.010
 1880SOL     OW 6538   5.875   1.547   4.971
 1880SOL    HW1 6539   5.829   1.604   4.904
 1880SOL    HW2 6540   5.851   1.578   5.063
 1881SOL     OW 6541   6.579   1.701   0.574
 1881SOL    HW1 6542   6.515   1.638   0.616
 1881SOL    HW2 6543   6.613   1.765   0.643
 1882SOL     OW 6544   0.893   4.087   6.081
 1882SOL    HW1 6545   0.819   4.024   6.061
 1882SOL    HW2 6546   0.939   4.114   5.996
 1883SOL     OW 6547   0.326   2.963   3.397
 1883SOL    HW1 6548   0.246   3.011   3.432
 1883SOL    HW2 6549   0.301   2.869   3.373
 1884SOL     OW 6550   0.137   1.896   1.456
 1884SOL    HW1 6551   0.149   1.817   1.517
 1884SOL    HW2 6552   0.201   1.968   1.482
 1885SOL     OW 6553   2.151   2.046   5.665
 1885SOL    HW1 6554   2.167   2.066   5.762
 1885SOL    HW2 6555   2.234   2.008   5.625
 1886SOL     OW 6556   1.402   6.554   3.352
 1886SOL    HW1 6557   1.469   6.528   3.422
 1886SOL    HW2 6558   1.439   6.627   3.295
 1887SOL     OW 6559   1.256   6.298   6.305
 1887SOL    HW1 6560   1.180   6.283   6.243
 1887SOL    HW2 6561   1.329   6.233   6.285
 1888SOL     OW 6562   2.905   1.325   1.116
 1888SOL    HW1 6563   2.862   1.390   1.054
 1888SOL    HW2 6564   2.925   1.370   1.203
 1889SOL     OW 6565   1.666   3.532   3.377
 1889SOL    HW1 6566   1.575   3.565   3.352
 1889SOL    HW2 6567   1.665   3.433   3.384
 1890SOL     OW 6568   0.905   6.059   3.842
 1890SOL    HW1 6569   0.897   5.960   3.825
 1890SOL    HW2 6570   0.948   6.074   3.931
 1891SOL     OW 6571   4.087   3.649   2.516
 1891SOL    HW1 6572   4.136   3.736   2.513
 1891SOL    HW2 6573   4.006   3.654   2.457
 1892SOL     OW 6574   0.255   0.545   2.042
 1892SOL    HW1 6575   0.292   0.477   1.978
 1892SOL    HW2 6576   0.174   0.508   2.086
 1893SOL     OW 6577   3.537   3.260   3.411
 1893SOL    HW1 6578   3.578   3.169   3.416
 1893SOL    HW2 6579   3.569   3.308   3.329
 1894SOL     OW 6580   3.714   3.931   4.578
 1894SOL    HW1 6581   3.737   3.986   4.498
 1894SOL    HW2 6582   3.615   3.918   4.582
 1895SOL     OW 6583   4.135   0.038   0.220
 1895SOL    HW1 6584   4.205   0.089   0.169
 1895SOL    HW2 6585   4.143   6.965   0.198
 1896SOL     OW 6586   5.333   1.799   1.114
 1896SOL    HW1 6587   5.412   1.738   1.106
 1896SOL    HW2 6588   5.362   1.894   1.105
 1897SOL     OW 6589   2.579   4.978   3.590
 1897SOL    HW1 6590   2.611   4.894   3.548
 1897SOL    HW2 6591   2.625   5.057   3.548
 1898SOL     OW 6592   1.498   6.053   3.468
 1898SOL    HW1 6593   1.490   6.121   3.540
 1898SOL    HW2 6594   1.407   6.029   3.433
 1899SOL     OW 6595   0.008   0.115   1.900
 1899SOL    HW1 6596   0.007   0.107   2.000
 1899SOL    HW2 6597   0.025   0.210   1.875
 1900SOL     OW 6598   2.965   0.293   0.007
 1900SOL    HW1 6599   3.056   0.273   6.995
 1900SOL    HW2 6600   2.971   0.366   0.075
 1901SOL     OW 6601   2.752   3.976   0.589
 1901SOL    HW1 6602   2.680   4.003   0.525
 1901SOL    HW2 6603   2.712   3.917   0.660
 1902SOL     OW 6604   1.648   6.390   4.686
 1902SOL    HW1 6605   1.551   6.379   4.709
 1902SOL    HW2 6606   1.657   6.461   4.616
 1903SOL     OW 6607   1.306   2.972   4.573
 1903SOL    HW1 6608   1.284   3.021   4.488
 1903SOL    HW2 6609   1.385   3.015   4.616
 1904SOL     OW 6610   5.950   5.201   2.541
 1904SOL    HW1 6611   5.944   5.157   2.451
 1904SOL    HW2 6612   6.017   5.275   2.537
 1905SOL     OW 6613   0.375   0.698   3.604
 1905SOL    HW1 6614   0.437   0.748   3.664
 1905SOL    HW2 6615   0.287   0.687   3.649
 1906SOL     OW 6616   2.485   6.949   5.355
 1906SOL    HW1 6617   2.555   6.969   5.286
 1906SOL    HW2 6618   2.529   6.923   5.441
 1907SOL     OW 6619   4.760   2.693   0.182
 1907SOL    HW1 6620   4.783   2.790   0.175
 1907SOL    HW2 6621   4.661   2.682   0.172
 1908SOL     OW 6622   3.618   1.465   1.270
 1908SOL    HW1 6623   3.638   1.486   1.365
 1908SOL    HW2 6624   3.528   1.422   1.263
 1909SOL     OW 6625   0.090   4.733   5.210
 1909SOL    HW1 6626   0.094   4.741   5.110
 1909SOL    HW2 6627   7.019   4.737   5.240
 1910SOL     OW 6628   6.369   6.389   5.881
 1910SOL    HW1 6629   6.331   6.298   5.893
 1910SOL    HW2 6630   6.447   6.402   5.942
 1911SOL     OW 6631   0.194   5.218   4.262
 1911SOL    HW1 6632   0.263   5.176   4.321
 1911SOL    HW2 6633   0.128   5.267   4.319
 1912SOL     OW 6634   2.477   5.016   2.732
 1912SOL    HW1 6635   2.481   4.924   2.771
 1912SOL    HW2 6636   2.390   5.059   2.754
 1913SOL     OW 6637   2.779   4.685   5.347
 1913SOL    HW1 6638   2.806   4.649   5.258
 1913SOL    HW2 6639   2.851   4.746   5.382
 1914SOL     OW 6640   2.603   4.411   6.265
 1914SOL    HW1 6641   2.635   4.352   6.192
 1914SOL    HW2 6642   2.664   4.402   6.344
 1915SOL     OW 6643   4.814   2.560   6.387
 1915SOL    HW1 6644   4.833   2.499   6.464
 1915SOL    HW2 6645   4.897   2.571   6.332
 1916SOL     OW 6646   4.005   0.685   2.070
 1916SOL    HW1 6647   4.063   0.646   1.999
 1916SOL    HW2 6648   4.047   0.768   2.106
 1917SOL     OW 6649   2.838   4.455   1.415
 1917SOL    HW1 6650   2.797   4.443   1.506
 1917SOL    HW2 6651   2.928   4.414   1.413
 1918SOL     OW 6652   6.776   1.839   4.370
 1918SOL    HW1 6653   6.797   1.905   4.297
 1918SOL    HW2 6654   6.785   1.746   4.335
 1919SOL     OW 6655   1.028   1.849   0.924
 1919SOL    HW1 6656   1.113   1.892   0.894
 1919SOL    HW2 6657   1.047   1.755   0.954
 1920SOL     OW 6658   5.005   2.602   0.697
 1920SOL    HW1 6659   4.959   2.626   0.783
 1920SOL    HW2 6660   4.952   2.532   0.649
 1921SOL     OW 6661   2.268   3.191   6.823
 1921SOL    HW1 6662   2.329   3.185   6.744
 1921SOL    HW2 6663   2.182   3.144   6.802
 1922SOL     OW 6664   3.067   3.684   2.202
 1922SOL    HW1 6665   2.972   3.673   2.231
 1922SOL    HW2 6666   3.120   3.605   2.231
 1923SOL     OW 6667   4.482   0.401   5.443
 1923SOL    HW1 6668   4.402   0.344   5.423
 1923SOL    HW2 6669   4.488   0.475   5.376
 1924SOL     OW 6670   4.573   6.548   0.834
 1924SOL    HW1 6671   4.530   6.458   0.828
 1924SOL    HW2 6672   4.536   6.608   0.763
 1925SOL     OW 6673   1.254   4.572   1.303
 1925SOL    HW1 6674   1.163   4.613   1.294
 1925SOL    HW2 6675   1.299   4.608   1.385
 1926SOL     OW 6676   3.459   6.957   2.216
 1926SOL    HW1 6677   3.410   6.898   2.151
 1926SOL    HW2 6678   3.530   7.007   2.167
 1927SOL     OW 6679   1.890   5.320   1.344
 1927SOL    HW1 6680   1.830   5.256   1.392
 1927SOL    HW2 6681   1.868   5.414   1.372
 1928SOL     OW 6682   4.774   4.169   3.025
 1928SOL    HW1 6683   4.698   4.232   3.042
 1928SOL    HW2 6684   4.769   4.135   2.931
 1929SOL     OW 6685   2.981   0.750   2.945
 1929SOL    HW1 6686   2.978   0.848   2.961
 1929SOL    HW2 6687   2.966   0.730   2.848
 1930SOL     OW 6688   4.799   3.075   6.566
 1930SOL    HW1 6689   4.886   3.034   6.594
 1930SOL    HW2 6690   4.724   3.033   6.616
 1931SOL     OW 6691   1.026   1.832   4.756
 1931SOL    HW1 6692   0.947   1.887   4.782
 1931SOL    HW2 6693   1.043   1.841   4.657
 1932SOL     OW 6694   4.565   2.557   1.959
 1932SOL    HW1 6695   4.642   2.614   1.988
 1932SOL    HW2 6696   4.485   2.615   1.946
 1933SOL     OW 6697   1.133   1.598   0.994
 1933SOL    HW1 6698   1.145   1.530   1.066
 1933SOL    HW2 6699   1.160   1.559   0.906
 1934SOL     OW 6700   0.371   0.274   5.969
 1934SOL    HW1 6701   0.320   0.211   6.027
 1934SOL    HW2 6702   0.346   0.368   5.993
 1935SOL     OW 6703   6.839   5.218   3.860
 1935SOL    HW1 6704   6.855   5.123   3.834
 1935SOL    HW2 6705   6.765   5.223   3.927
 1936SOL     OW 6706   4.712   2.979   5.209
 1936SOL    HW1 6707   4.622   3.015   5.233
 1936SOL    HW2 6708   4.705   2.882   5.188
 1937SOL     OW 6709   5.296   5.199   6.553
 1937SOL    HW1 6710   5.203   5.226   6.532
 1937SOL    HW2 6711   5.347   5.182   6.469
 1938SOL     OW 6712   0.709   2.962   6.301
 1938SOL    HW1 6713   0.798   2.923   6.278
 1938SOL    HW2 6714   0.658   2.980   6.217
 1939SOL     OW 6715   1.218   0.183   4.822
 1939SOL    HW1 6716   1.261   0.238   4.893
 1939SOL    HW2 6717   1.125   0.215   4.806
 1940SOL     OW 6718   6.435   4.573   0.736
 1940SOL    HW1 6719   6.353   4.519   0.716
 1940SOL    HW2 6720   6.516   4.516   0.724
 1941SOL     OW 6721   0.128   2.544   4.073
 1941SOL    HW1 6722   0.093   2.586   4.157
 1941SOL    HW2 6723   0.222   2.514   4.088
 1942SOL     OW 6724   5.351   3.716   2.441
 1942SOL    HW1 6725   5.346   3.682   2.347
 1942SOL    HW2 6726   5.446   3.714   2.472
 1943SOL     OW 6727   1.046   1.350   2.599
 1943SOL    HW1 6728   0.957   1.353   2.554
 1943SOL    HW2 6729   1.042   1.401   2.685
 1944SOL     OW 6730   0.121   2.636   2.488
 1944SOL    HW1 6731   0.156   2.647   2.581
 1944SOL    HW2 6732   0.138   2.543   2.456
 1945SOL     OW 6733   4.889   0.652   1.801
 1945SOL    HW1 6734   4.888   0.625   1.898
 1945SOL    HW2 6735   4.976   0.696   1.780
 1946SOL     OW 6736   5.908   5.170   1.456
 1946SOL    HW1 6737   5.858   5.245   1.500
 1946SOL    HW2 6738   6.006   5.181   1.474
 1947SOL     OW 6739   6.090   4.743   4.071
 1947SOL    HW1 6740   6.154   4.815   4.045
 1947SOL    HW2 6741   6.040   4.712   3.990
 1948SOL     OW 6742   4.897   3.876   3.501
 1948SOL    HW1 6743   4.936   3.847   3.414
 1948SOL    HW2 6744   4.883   3.975   3.500
 1949SOL     OW 6745   3.770   4.721   6.569
 1949SOL    HW1 6746   3.832   4.732   6.491
 1949SOL    HW2 6747   3.677   4.746   6.541
 1950SOL     OW 6748   3.372   4.106   3.777
 1950SOL    HW1 6749   3.276   4.088   3.795
 1950SOL    HW2 6750   3.421   4.115   3.864
 1951SOL     OW 6751   6.035   4.363   6.073
 1951SOL    HW1 6752   6.035   4.290   6.004
 1951SOL    HW2 6753   5.977   4.336   6.150
 1952SOL     OW 6754   5.340   5.223   6.828
 1952SOL    HW1 6755   5.320   5.221   6.731
 1952SOL    HW2 6756   5.407   5.151   6.850
 1953SOL     OW 6757   0.631   1.311   6.767
 1953SOL    HW1 6758   0.631   1.255   6.850
 1953SOL    HW2 6759   0.618   1.252   6.687
 1954SOL     OW 6760   4.307   0.111   1.939
 1954SOL    HW1 6761   4.257   0.125   2.025
 1954SOL    HW2 6762   4.369   0.188   1.924
 1955SOL     OW 6763   0.883   1.970   2.552
 1955SOL    HW1 6764   0.826   2.052   2.540
 1955SOL    HW2 6765   0.967   1.994   2.600
 1956SOL     OW 6766   5.668   0.239   1.877
 1956SOL    HW1 6767   5.694   0.328   1.841
 1956SOL    HW2 6768   5.737   0.171   1.851
 1957SOL     OW 6769   5.329   1.720   4.157
 1957SOL    HW1 6770   5.380   1.648   4.109
 1957SOL    HW2 6771   5.318   1.799   4.096
 1958SOL     OW 6772   4.404   1.927   0.924
 1958SOL    HW1 6773   4.371   2.001   0.866
 1958SOL    HW2 6774   4.328   1.890   0.977
 1959SOL     OW 6775   0.637   0.768   4.713
 1959SOL    HW1 6776   0.735   0.753   4.699
 1959SOL    HW2 6777   0.621   0.864   4.735
 1960SOL     OW 6778   5.949   3.982   3.779
 1960SOL    HW1 6779   5.928   4.031   3.694
 1960SOL    HW2 6780   6.009   4.039   3.835
 1961SOL     OW 6781   6.680   4.132   4.594
 1961SOL    HW1 6782   6.606   4.197   4.606
 1961SOL    HW2 6783   6.743   4.165   4.524
 1962SOL     OW 6784   0.774   7.008   2.536
 1962SOL    HW1 6785   0.835   6.955   2.594
 1962SOL    HW2 6786   0.681   7.003   2.573
 1963SOL     OW 6787   0.789   1.856   1.883
 1963SOL    HW1 6788   0.778   1.905   1.969
 1963SOL    HW2 6789   0.886   1.849   1.861
 1964SOL     OW 6790   5.135   3.875   1.074
 1964SOL    HW1 6791   5.157   3.955   1.130
 1964SOL    HW2 6792   5.133   3.901   0.977
 1965SOL     OW 6793   0.339   4.640   4.340
 1965SOL    HW1 6794   0.298   4.653   4.250
 1965SOL    HW2 6795   0.433   4.606   4.330
 1966SOL     OW 6796   1.753   4.706   6.922
 1966SOL    HW1 6797   1.841   4.675   6.957
 1966SOL    HW2 6798   1.767   4.784   6.860
 1967SOL     OW 6799   5.668   3.259   3.115
 1967SOL    HW1 6800   5.754   3.306   3.095
 1967SOL    HW2 6801   5.685   3.161   3.126
 1968SOL     OW 6802   2.761   1.638   5.315
 1968SOL    HW1 6803   2.724   1.590   5.235
 1968SOL    HW2 6804   2.860   1.649   5.304
 1969SOL     OW 6805   2.721   6.310   0.224
 1969SOL    HW1 6806   2.686   6.344   0.311
 1969SOL    HW2 6807   2.667   6.347   0.149
 1970SOL     OW 6808   6.085   5.640   5.131
 1970SOL    HW1 6809   5.997   5.660   5.174
 1970SOL    HW2 6810   6.110   5.545   5.148
 1971SOL     OW 6811   1.739   6.045   4.849
 1971SOL    HW1 6812   1.774   6.020   4.759
 1971SOL    HW2 6813   1.712   5.962   4.899
 1972SOL     OW 6814   5.863   2.763   2.582
 1972SOL    HW1 6815   5.959   2.791   2.581
 1972SOL    HW2 6816   5.817   2.802   2.662
 1973SOL     OW 6817   2.224   3.872   6.685
 1973SOL    HW1 6818   2.127   3.894   6.696
 1973SOL    HW2 6819   2.245   3.786   6.731
 1974SOL     OW 6820   3.619   6.475   4.728
 1974SOL    HW1 6821   3.642   6.385   4.764
 1974SOL    HW2 6822   3.594   6.467   4.631
 1975SOL     OW 6823   1.832   2.375   3.454
 1975SOL    HW1 6824   1.885   2.459   3.462
 1975SOL    HW2 6825   1.850   2.332   3.365
 1976SOL     OW 6826   0.033   6.922   6.446
 1976SOL    HW1 6827   0.089   6.839   6.446
 1976SOL    HW2 6828   6.966   6.901   6.480
 1977SOL     OW 6829   2.102   4.477   5.643
 1977SOL    HW1 6830   2.013   4.456   5.602
 1977SOL    HW2 6831   2.089   4.516   5.734
 1978SOL     OW 6832   2.693   0.081   1.601
 1978SOL    HW1 6833   2.791   0.061   1.597
 1978SOL    HW2 6834   2.671   0.153   1.535
 1979SOL     OW 6835   0.270   4.932   6.920
 1979SOL    HW1 6836   0.202   4.965   6.854
 1979SOL    HW2 6837   0.350   4.897   6.870
 1980SOL     OW 6838   3.739   1.658   1.079
 1980SOL    HW1 6839   3.734   1.604   1.163
 1980SOL    HW2 6840   3.649   1.658   1.035
 1981SOL     OW 6841   4.143   2.272   3.234
 1981SOL    HW1 6842   4.098   2.257   3.147
 1981SOL    HW2 6843   4.078   2.254   3.309
 1982SOL     OW 6844   6.834   2.493   5.629
 1982SOL    HW1 6845   6.783   2.522   5.710
 1982SOL    HW2 6846   6.789   2.528   5.547
 1983SOL     OW 6847   0.204   0.939   2.287
 1983SOL    HW1 6848   0.236   0.983   2.370
 1983SOL    HW2 6849   0.242   0.847   2.281
 1984SOL     OW 6850   5.296   2.883   5.374
 1984SOL    HW1 6851   5.208   2.843   5.401
 1984SOL    HW2 6852   5.285   2.934   5.289
 1985SOL     OW 6853   5.791   3.568   2.571
 1985SOL    HW1 6854   5.713   3.615   2.529
 1985SOL    HW2 6855   5.758   3.492   2.627
 1986SOL     OW 6856   3.843   2.373   1.657
 1986SOL    HW1 6857   3.918   2.328   1.705
 1986SOL    HW2 6858   3.760   2.366   1.711
 1987SOL     OW 6859   2.691   1.108   1.881
 1987SOL    HW1 6860   2.686   1.197   1.926
 1987SOL    HW2 6861   2.774   1.061   1.910
 1988SOL     OW 6862   6.904   2.015   1.013
 1988SOL    HW1 6863   6.945   2.036   1.102
 1988SOL    HW2 6864   6.972   2.027   0.941
 1989SOL     OW 6865   2.974   5.194   4.932
 1989SOL    HW1 6866   2.911   5.209   5.008
 1989SOL    HW2 6867   2.954   5.107   4.887
 1990SOL     OW 6868   3.725   0.632   0.870
 1990SOL    HW1 6869   3.725   0.627   0.970
 1990SOL    HW2 6870   3.767   0.550   0.832
 1991SOL     OW 6871   2.602   5.109   0.887
 1991SOL    HW1 6872   2.686   5.159   0.867
 1991SOL    HW2 6873   2.625   5.023   0.933
 1992SOL     OW 6874   0.423   5.867   1.286
 1992SOL    HW1 6875   0.429   5.850   1.187
 1992SOL    HW2 6876   0.486   5.807   1.334
 1993SOL     OW 6877   2.312   3.001   4.014
 1993SOL    HW1 6878   2.337   2.915   4.059
 1993SOL    HW2 6879   2.257   3.057   4.076
 1994SOL     OW 6880   2.888   2.859   0.333
 1994SOL    HW1 6881   2.828   2.871   0.412
 1994SOL    HW2 6882   2.864   2.925   0.262
 1995SOL     OW 6883   5.697   2.265   5.064
 1995SOL    HW1 6884   5.625   2.265   4.994
 1995SOL    HW2 6885   5.735   2.357   5.072
 1996SOL     OW 6886   3.917   1.755   0.867
 1996SOL    HW1 6887   3.843   1.762   0.934
 1996SOL    HW2 6888   4.005   1.758   0.913
 1997SOL     OW 6889   4.124   0.692   3.548
 1997SOL    HW1 6890   4.034   0.701   3.589
 1997SOL    HW2 6891   4.194   0.693   3.620
 1998SOL     OW 6892   1.808   3.140   1.069
 1998SOL    HW1 6893   1.760   3.206   1.127
 1998SOL    HW2 6894   1.862   3.079   1.126
 1999SOL     OW 6895   1.945   6.964   6.462
 1999SOL    HW1 6896   1.847   6.978   6.470
 1999SOL    HW2 6897   1.978   6.912   6.541
 2000SOL     OW 6898   4.018   4.237   5.792
 2000SOL    HW1 6899   3.957   4.157   5.796
 2000SOL    HW2 6900   3.975   4.314   5.839
 2001SOL     OW 6901   2.071   1.563   7.002
 2001SOL    HW1 6902   2.101   1.526   0.066
 2001SOL    HW2 6903   2.068   1.663   7.007
 2002SOL     OW 6904   6.948   4.458   0.284
 2002SOL    HW1 6905   6.876   4.391   0.265
 2002SOL    HW2 6906   6.928   4.505   0.370
 2003SOL     OW 6907   6.555   5.403   2.825
 2003SOL    HW1 6908   6.474   5.434   2.875
 2003SOL    HW2 6909   6.564   5.455   2.740
 2004SOL     OW 6910   2.870   6.830   3.120
 2004SOL    HW1 6911   2.885   6.791   3.211
 2004SOL    HW2 6912   2.950   6.810   3.062
 2005SOL     OW 6913   1.469   6.349   0.958
 2005SOL    HW1 6914   1.522   6.327   1.041
 2005SOL    HW2 6915   1.425   6.438   0.970
 2006SOL     OW 6916   5.936   7.023   2.824
 2006SOL    HW1 6917   5.923   6.959   2.900
 2006SOL    HW2 6918   5.985   0.080   2.856
 2007SOL     OW 6919   5.450   4.972   6.855
 2007SOL    HW1 6920   5.531   4.959   6.912
 2007SOL    HW2 6921   5.383   4.900   6.874
 2008SOL     OW 6922   1.899   3.603   3.818
 2008SOL    HW1 6923   1.842   3.592   3.737
 2008SOL    HW2 6924   1.916   3.514   3.859
 2009SOL     OW 6925   6.352   0.127   2.793
 2009SOL    HW1 6926   6.350   0.051   2.858
 2009SOL    HW2 6927   6.369   0.213   2.842
 2010SOL     OW 6928   1.320   1.842   1.395
 2010SOL    HW1 6929   1.236   1.798   1.427
 2010SOL    HW2 6930   1.305   1.941   1.390
 2011SOL     OW 6931   0.393   6.985   6.135
 2011SOL    HW1 6932   0.320   0.028   6.119
 2011SOL    HW2 6933   0.475   7.013   6.085
 2012SOL     OW 6934   1.571   3.483   1.526
 2012SOL    HW1 6935   1.555   3.582   1.535
 2012SOL    HW2 6936   1.545   3.437   1.611
 2013SOL     OW 6937   0.644   3.457   2.614
 2013SOL    HW1 6938   0.549   3.444   2.641
 2013SOL    HW2 6939   0.668   3.393   2.541
 2014SOL     OW 6940   3.552   0.257   4.162
 2014SOL    HW1 6941   3.561   0.172   4.214
 2014SOL    HW2 6942   3.459   0.292   4.172
 2015SOL     OW 6943   4.463   0.456   1.500
 2015SOL    HW1 6944   4.531   0.528   1.514
 2015SOL    HW2 6945   4.506   0.367   1.513
 2016SOL     OW 6946   1.497   0.341   5.895
 2016SOL    HW1 6947   1.500   0.272   5.823
 2016SOL    HW2 6948   1.521   0.430   5.858
 2017SOL     OW 6949   3.984   6.349   3.279
 2017SOL    HW1 6950   4.063   6.306   3.236
 2017SOL    HW2 6951   3.976   6.443   3.247
 2018SOL     OW 6952   1.129   0.910   3.809
 2018SOL    HW1 6953   1.116   0.998   3.854
 2018SOL    HW2 6954   1.128   0.924   3.710
 2019SOL     OW 6955   5.915   5.216   6.311
 2019SOL    HW1 6956   6.015   5.210   6.304
 2019SOL    HW2 6957   5.888   5.312   6.315
 2020SOL     OW 6958   2.381   5.831   6.185
 2020SOL    HW1 6959   2.303   5.799   6.131
 2020SOL    HW2 6960   2.348   5.887   6.261
 2021SOL     OW 6961   0.263   6.151   3.884
 2021SOL    HW1 6962   0.231   6.150   3.979
 2021SOL    HW2 6963   0.363   6.151   3.883
 2022SOL     OW 6964   1.876   3.974   5.163
 2022SOL    HW1 6965   1.961   4.024   5.183
 2022SOL    HW2 6966   1.885   3.929   5.074
 2023SOL     OW 6967   6.824   6.362   0.466
 2023SOL    HW1 6968   6.732   6.393   0.443
 2023SOL    HW2 6969   6.839   6.374   0.564
 2024SOL     OW 6970   0.706   5.829   4.133
 2024SOL    HW1 6971   0.762   5.784   4.063
 2024SOL    HW2 6972   0.613   5.792   4.131
 2025SOL     OW 6973   1.384   6.758   4.645
 2025SOL    HW1 6974   1.370   6.746   4.743
 2025SOL    HW2 6975   1.475   6.796   4.628
 2026SOL     OW 6976   6.930   0.206   5.892
 2026SOL    HW1 6977   6.913   0.292   5.941
 2026SOL    HW2 6978   7.008   0.218   5.830
 2027SOL     OW 6979   6.808   5.854   2.497
 2027SOL    HW1 6980   6.839   5.946   2.520
 2027SOL    HW2 6981   6.716   5.839   2.534
 2028SOL     OW 6982   3.398   5.141   4.332
 2028SOL    HW1 6983   3.471   5.140   4.264
 2028SOL    HW2 6984   3.335   5.216   4.313
 2029SOL     OW 6985   6.000   2.385   6.911
 2029SOL    HW1 6986   6.038   2.469   6.871
 2029SOL    HW2 6987   6.022   2.307   6.853
 2030SOL     OW 6988   2.453   6.538   2.546
 2030SOL    HW1 6989   2.448   6.489   2.459
 2030SOL    HW2 6990   2.534   6.507   2.596
 2031SOL     OW 6991   6.973   6.038   3.799
 2031SOL    HW1 6992   0.043   6.032   3.766
 2031SOL    HW2 6993   6.973   6.041   3.899
 2032SOL     OW 6994   2.806   1.929   6.060
 2032SOL    HW1 6995   2.855   2.014   6.080
 2032SOL    HW2 6996   2.788   1.923   5.962
 2033SOL     OW 6997   2.321   1.865   0.812
 2033SOL    HW1 6998   2.283   1.879   0.903
 2033SOL    HW2 6999   2.394   1.932   0.796
 2034SOL     OW 7000   6.905   4.383   5.208
 2034SOL    HW1 7001   6.909   4.378   5.308
 2034SOL    HW2 7002   6.818   4.423   5.179
 2035SOL     OW 7003   5.687   0.424   2.947
 2035SOL    HW1 7004   5.779   0.437   2.910
 2035SOL    HW2 7005   5.623   0.484   2.898
 2036SOL     OW 7006   0.917   3.888   1.734
 2036SOL    HW1 7007   0.904   3.981   1.701
 2036SOL    HW2 7008   0.986   3.842   1.680
 2037SOL     OW 7009   0.285   2.689   0.181
 2037SOL    HW1 7010   0.366   2.633   0.163
 2037SOL    HW2 7011   0.313   2.777   0.218
 2038SOL     OW 7012   1.326   1.302   6.319
 2038SOL    HW1 7013   1.370   1.381   6.276
 2038SOL    HW2 7014   1.308   1.232   6.251
 2039SOL     OW 7015   5.647   6.495   2.834
 2039SOL    HW1 7016   5.653   6.415   2.894
 2039SOL    HW2 7017   5.718   6.490   2.764
 2040SOL     OW 7018   1.672   2.777   0.959
 2040SOL    HW1 7019   1.667   2.734   0.869
 2040SOL    HW2 7020   1.638   2.871   0.953
 2041SOL     OW 7021   2.299   0.663   6.230
 2041SOL    HW1 7022   2.387   0.640   6.188
 2041SOL    HW2 7023   2.307   0.656   6.330
 2042SOL     OW 7024   5.134   0.980   5.440
 2042SOL    HW1 7025   5.219   0.979   5.492
 2042SOL    HW2 7026   5.102   1.074   5.430
 2043SOL     OW 7027   0.233   4.024   1.261
 2043SOL    HW1 7028   0.196   3.934   1.236
 2043SOL    HW2 7029   0.274   4.018   1.352
 2044SOL     OW 7030   4.229   0.335   1.049
 2044SOL    HW1 7031   4.265   0.376   1.133
 2044SOL    HW2 7032   4.181   0.405   0.996
 2045SOL     OW 7033   1.273   6.345   5.567
 2045SOL    HW1 7034   1.339   6.397   5.621
 2045SOL    HW2 7035   1.265   6.252   5.604
 2046SOL     OW 7036   1.287   2.254   4.969
 2046SOL    HW1 7037   1.222   2.323   5.001
 2046SOL    HW2 7038   1.354   2.297   4.908
 2047SOL     OW 7039   6.922   0.345   1.185
 2047SOL    HW1 7040   7.012   0.379   1.213
 2047SOL    HW2 7041   6.883   0.409   1.118
 2048SOL     OW 7042   0.812   1.995   4.758
 2048SOL    HW1 7043   0.766   2.026   4.675
 2048SOL    HW2 7044   0.890   2.055   4.778
 2049SOL     OW 7045   5.296   1.601   5.302
 2049SOL    HW1 7046   5.310   1.678   5.364
 2049SOL    HW2 7047   5.381   1.582   5.252
 2050SOL     OW 7048   0.732   1.421   3.909
 2050SOL    HW1 7049   0.804   1.445   3.975
 2050SOL    HW2 7050   0.734   1.486   3.833
 2051SOL     OW 7051   2.898   6.235   0.423
 2051SOL    HW1 7052   2.957   6.310   0.453
 2051SOL    HW2 7053   2.834   6.269   0.355
 2052SOL     OW 7054   0.969   4.481   6.341
 2052SOL    HW1 7055   0.959   4.553   6.271
 2052SOL    HW2 7056   1.062   4.445   6.338
 2053SOL     OW 7057   0.058   5.746   3.644
 2053SOL    HW1 7058   0.140   5.712   3.599
 2053SOL    HW2 7059   7.001   5.710   3.597
 2054SOL     OW 7060   3.637   3.644   3.329
 2054SOL    HW1 7061   3.567   3.658   3.399
 2054SOL    HW2 7062   3.717   3.701   3.350
 2055SOL     OW 7063   3.149   2.401   5.643
 2055SOL    HW1 7064   3.119   2.435   5.554
 2055SOL    HW2 7065   3.193   2.312   5.632
 2056SOL     OW 7066   4.028   4.723   0.922
 2056SOL    HW1 7067   4.062   4.814   0.944
 2056SOL    HW2 7068   3.939   4.730   0.877
 2057SOL     OW 7069   5.643   2.106   4.258
 2057SOL    HW1 7070   5.616   2.199   4.280
 2057SOL    HW2 7071   5.565   2.045   4.268
 2058SOL     OW 7072   0.083   6.334   2.799
 2058SOL    HW1 7073   7.016   6.360   2.831
 2058SOL    HW2 7074   0.148   6.340   2.875
 2059SOL     OW 7075   1.373   0.584   6.297
 2059SOL    HW1 7076   1.306   0.598   6.224
 2059SOL    HW2 7077   1.395   0.672   6.340
 2060SOL     OW 7078   1.311   3.072   6.445
 2060SOL    HW1 7079   1.326   3.010   6.368
 2060SOL    HW2 7080   1.290   3.163   6.410
 2061SOL     OW 7081   1.621   2.677   2.099
 2061SOL    HW1 7082   1.585   2.766   2.069
 2061SOL    HW2 7083   1.565   2.604   2.060
 2062SOL     OW 7084   0.373   5.111   4.451
 2062SOL    HW1 7085   0.415   5.162   4.526
 2062SOL    HW2 7086   0.323   5.032   4.488
 2063SOL     OW 7087   0.807   1.053   4.610
 2063SOL    HW1 7088   0.804   1.074   4.708
 2063SOL    HW2 7089   0.830   1.136   4.559
 2064SOL     OW 7090   0.858   2.993   3.397
 2064SOL    HW1 7091   0.874   2.911   3.451
 2064SOL    HW2 7092   0.886   3.073   3.450
 2065SOL     OW 7093   4.163   3.537   5.678
 2065SOL    HW1 7094   4.205   3.450   5.649
 2065SOL    HW2 7095   4.119   3.580   5.599
 2066SOL     OW 7096   0.304   3.149   5.599
 2066SOL    HW1 7097   0.232   3.217   5.609
 2066SOL    HW2 7098   0.272   3.061   5.635
 2067SOL     OW 7099   6.446   4.997   1.129
 2067SOL    HW1 7100   6.536   4.956   1.113
 2067SOL    HW2 7101   6.390   4.988   1.046
 2068SOL     OW 7102   4.070   0.675   4.475
 2068SOL    HW1 7103   4.131   0.739   4.521
 2068SOL    HW2 7104   3.985   0.666   4.528
 2069SOL     OW 7105   0.373   2.451   4.107
 2069SOL    HW1 7106   0.391   2.440   4.205
 2069SOL    HW2 7107   0.373   2.361   4.063
 2070SOL     OW 7108   0.825   4.885   0.738
 2070SOL    HW1 7109   0.827   4.980   0.707
 2070SOL    HW2 7110   0.900   4.835   0.694
 2071SOL     OW 7111   0.110   1.392   5.473
 2071SOL    HW1 7112   0.115   1.433   5.564
 2071SOL    HW2 7113   0.144   1.458   5.405
 2072SOL     OW 7114   4.161   4.471   5.464
 2072SOL    HW1 7115   4.132   4.375   5.457
 2072SOL    HW2 7116   4.093   4.522   5.515
 2073SOL     OW 7117   3.068   5.602   6.402
 2073SOL    HW1 7118   3.068   5.667   6.326
 2073SOL    HW2 7119   3.007   5.526   6.380
 2074SOL     OW 7120   1.096   4.149   5.734
 2074SOL    HW1 7121   1.012   4.178   5.780
 2074SOL    HW2 7122   1.128   4.064   5.775
 2075SOL     OW 7123   6.410   2.018   1.210
 2075SOL    HW1 7124   6.452   1.982   1.294
 2075SOL    HW2 7125   6.347   2.092   1.234
 2076SOL     OW 7126   6.042   6.874   4.685
 2076SOL    HW1 7127   5.984   6.799   4.655
 2076SOL    HW2 7128   6.111   6.840   4.749
 2077SOL     OW 7129   6.210   4.688   0.440
 2077SOL    HW1 7130   6.118   4.657   0.418
 2077SOL    HW2 7131   6.262   4.703   0.356
 2078SOL     OW 7132   1.062   3.179   5.623
 2078SOL    HW1 7133   1.069   3.269   5.580
 2078SOL    HW2 7134   1.066   3.108   5.553
 2079SOL     OW 7135   5.360   1.605   1.998
 2079SOL    HW1 7136   5.363   1.618   2.097
 2079SOL    HW2 7137   5.271   1.569   1.971
 2080SOL     OW 7138   2.491   3.115   6.209
 2080SOL    HW1 7139   2.572   3.140   6.261
 2080SOL    HW2 7140   2.436   3.051   6.262
 2081SOL     OW 7141   6.011   5.757   2.505
 2081SOL    HW1 7142   6.039   5.842   2.549
 2081SOL    HW2 7143   5.941   5.777   2.436
 2082SOL     OW 7144   6.590   5.625   4.178
 2082SOL    HW1 7145   6.527   5.554   4.147
 2082SOL    HW2 7146   6.566   5.712   4.134
 2083SOL     OW 7147   0.750   6.764   3.875
 2083SOL    HW1 7148   0.717   6.687   3.930
 2083SOL    HW2 7149   0.738   6.743   3.778
 2084SOL     OW 7150   6.023   2.081   1.201
 2084SOL    HW1 7151   5.964   2.074   1.281
 2084SOL    HW2 7152   6.031   1.992   1.157
 2085SOL     OW 7153   5.824   5.831   0.993
 2085SOL    HW1 7154   5.806   5.921   1.033
 2085SOL    HW2 7155   5.870   5.773   1.060
 2086SOL     OW 7156   4.976   0.906   6.772
 2086SOL    HW1 7157   4.882   0.903   6.807
 2086SOL    HW2 7158   4.990   0.991   6.722
 2087SOL     OW 7159   4.455   1.515   6.930
 2087SOL    HW1 7160   4.382   1.555   6.985
 2087SOL    HW2 7161   4.416   1.453   6.862
 2088SOL     OW 7162   0.944   5.675   6.230
 2088SOL    HW1 7163   0.880   5.700   6.302
 2088SOL    HW2 7164   0.966   5.577   6.238
 2089SOL     OW 7165   2.510   4.125   0.153
 2089SOL    HW1 7166   2.606   4.095   0.150
 2089SOL    HW2 7167   2.450   4.050   0.127
 2090SOL     OW 7168   5.309   2.798   6.014
 2090SOL    HW1 7169   5.377   2.795   5.940
 2090SOL    HW2 7170   5.241   2.869   5.993
 2091SOL     OW 7171   5.615   6.364   1.775
 2091SOL    HW1 7172   5.675   6.443   1.760
 2091SOL    HW2 7173   5.669   6.280   1.767
 2092SOL     OW 7174   4.235   3.578   1.853
 2092SOL    HW1 7175   4.178   3.659   1.845
 2092SOL    HW2 7176   4.324   3.595   1.809
 2093SOL     OW 7177   3.480   1.000   2.033
 2093SOL    HW1 7178   3.395   0.960   1.998
 2093SOL    HW2 7179   3.533   0.928   2.079
 2094SOL     OW 7180   5.261   2.272   6.340
 2094SOL    HW1 7181   5.293   2.355   6.385
 2094SOL    HW2 7182   5.161   2.274   6.333
 2095SOL     OW 7183   5.517   5.783   3.994
 2095SOL    HW1 7184   5.456   5.860   4.012
 2095SOL    HW2 7185   5.561   5.755   4.079
 2096SOL     OW 7186   5.204   0.000   2.305
 2096SOL    HW1 7187   5.130   7.000   2.368
 2096SOL    HW2 7188   5.292   7.021   2.354
 2097SOL     OW 7189   1.034   5.637   6.573
 2097SOL    HW1 7190   1.079   5.720   6.606
 2097SOL    HW2 7191   1.086   5.599   6.496
 2098SOL     OW 7192   2.962   5.962   3.593
 2098SOL    HW1 7193   2.998   5.871   3.574
 2098SOL    HW2 7194   2.882   5.956   3.652
 2099SOL     OW 7195   4.965   1.752   6.028
 2099SOL    HW1 7196   5.002   1.845   6.032
 2099SOL    HW2 7197   4.875   1.750   6.070
 2100SOL     OW 7198   4.783   0.031   1.344
 2100SOL    HW1 7199   4.801   0.114   1.398
 2100SOL    HW2 7200   4.707   0.047   1.281
 2101SOL     OW 7201   0.723   6.987   2.257
 2101SOL    HW1 7202   0.756   7.007   2.349
 2101SOL    HW2 7203   0.715   0.047   2.205
 2102SOL     OW 7204   3.503   2.490   0.739
 2102SOL    HW1 7205   3.581   2.427   0.737
 2102SOL    HW2 7206   3.498   2.533   0.829
 2103SOL     OW 7207   2.916   5.931   0.387
 2103SOL    HW1 7208   2.924   6.030   0.391
 2103SOL    HW2 7209   3.005   5.891   0.365
 2104SOL     OW 7210   2.053   4.344   3.060
 2104SOL    HW1 7211   1.962   4.353   3.101
 2104SOL    HW2 7212   2.096   4.434   3.056
 2105SOL     OW 7213   6.167   5.201   5.149
 2105SOL    HW1 7214   6.147   5.216   5.246
 2105SOL    HW2 7215   6.231   5.270   5.117
 2106SOL     OW 7216   4.194   3.267   0.629
 2106SOL    HW1 7217   4.204   3.259   0.728
 2106SOL    HW2 7218   4.135   3.346   0.609
 2107SOL     OW 7219   4.953   4.648   5.533
 2107SOL    HW1 7220   5.024   4.587   5.496
 2107SOL    HW2 7221   4.991   4.740   5.544
 2108SOL     OW 7222   5.358   0.143   5.445
 2108SOL    HW1 7223   5.287   0.196   5.491
 2108SOL    HW2 7224   5.419   0.205   5.396
 2109SOL     OW 7225   2.744   6.695   2.582
 2109SOL    HW1 7226   2.677   6.708   2.655
 2109SOL    HW2 7227   2.752   6.598   2.561
 2110SOL     OW 7228   3.853   6.945   0.044
 2110SOL    HW1 7229   3.881   6.981   6.979
 2110SOL    HW2 7230   3.843   7.021   0.108
 2111SOL     OW 7231   0.981   2.485   5.854
 2111SOL    HW1 7232   1.050   2.467   5.924
 2111SOL    HW2 7233   1.024   2.529   5.775
 2112SOL     OW 7234   0.601   0.800   6.901
 2112SOL    HW1 7235   0.620   0.834   6.993
 2112SOL    HW2 7236   0.535   0.860   6.856
 2113SOL     OW 7237   0.526   0.987   4.826
 2113SOL    HW1 7238   0.463   1.039   4.883
 2113SOL    HW2 7239   0.491   0.984   4.732
 2114SOL     OW 7240   1.041   1.373   6.010
 2114SOL    HW1 7241   1.137   1.377   5.985
 2114SOL    HW2 7242   1.031   1.386   6.109
 2115SOL     OW 7243   6.386   6.417   3.043
 2115SOL    HW1 7244   6.442   6.403   3.125
 2115SOL    HW2 7245   6.311   6.479   3.065
 2116SOL     OW 7246   0.941   2.150   0.298
 2116SOL    HW1 7247   0.882   2.144   0.378
 2116SOL    HW2 7248   0.925   2.071   0.238
 2117SOL     OW 7249   6.331   1.643   1.933
 2117SOL    HW1 7250   6.342   1.566   1.870
 2117SOL    HW2 7251   6.407   1.644   1.999
 2118SOL     OW 7252   6.942   2.776   2.080
 2118SOL    HW1 7253   6.844   2.794   2.072
 2118SOL    HW2 7254   6.958   2.677   2.079
 2119SOL     OW 7255   1.587   1.235   0.130
 2119SOL    HW1 7256   1.580   1.143   0.167
 2119SOL    HW2 7257   1.680   1.252   0.098
 2120SOL     OW 7258   5.672   1.332   1.096
 2120SOL    HW1 7259   5.598   1.385   1.137
 2120SOL    HW2 7260   5.760   1.374   1.120
 2121SOL     OW 7261   1.325   0.490   6.928
 2121SOL    HW1 7262   1.342   0.578   6.972
 2121SOL    HW2 7263   1.228   0.467   6.933
 2122SOL     OW 7264   6.265   1.198   4.014
 2122SOL    HW1 7265   6.229   1.259   3.944
 2122SOL    HW2 7266   6.328   1.132   3.973
 2123SOL     OW 7267   1.240   5.308   2.993
 2123SOL    HW1 7268   1.250   5.211   2.974
 2123SOL    HW2 7269   1.326   5.355   2.973
 2124SOL     OW 7270   4.019   3.948   6.241
 2124SOL    HW1 7271   4.095   4.003   6.205
 2124SOL    HW2 7272   4.050   3.854   6.254
 2125SOL     OW 7273   2.028   6.069   4.029
 2125SOL    HW1 7274   2.011   6.000   3.959
 2125SOL    HW2 7275   2.112   6.046   4.079
 2126SOL     OW 7276   2.906   4.664   0.349
 2126SOL    HW1 7277   2.998   4.677   0.312
 2126SOL    HW2 7278   2.912   4.642   0.447
 2127SOL     OW 7279   0.763   2.470   4.437
 2127SOL    HW1 7280   0.857   2.450   4.465
 2127SOL    HW2 7281   0.725   2.390   4.390
 2128SOL     OW 7282   5.106   2.910   1.426
 2128SOL    HW1 7283   5.151   2.907   1.337
 2128SOL    HW2 7284   5.126   2.826   1.476
 2129SOL     OW 7285   5.492   3.995   4.175
 2129SOL    HW1 7286   5.448   3.940   4.103
 2129SOL    HW2 7287   5.444   3.981   4.261
 2130SOL     OW 7288   2.857   1.206   1.612
 2130SOL    HW1 7289   2.907   1.260   1.680
 2130SOL    HW2 7290   2.775   1.256   1.583
 2131SOL     OW 7291   5.564   0.547   4.738
 2131SOL    HW1 7292   5.485   0.577   4.791
 2131SOL    HW2 7293   5.537   0.473   4.677
 2132SOL     OW 7294   1.891   2.584   0.811
 2132SOL    HW1 7295   1.796   2.583   0.781
 2132SOL    HW2 7296   1.939   2.504   0.775
 2133SOL     OW 7297   3.165   2.184   1.511
 2133SOL    HW1 7298   3.194   2.092   1.540
 2133SOL    HW2 7299   3.101   2.221   1.578
 2134SOL     OW 7300   1.775   6.151   4.528
 2134SOL    HW1 7301   1.770   6.177   4.432
 2134SOL    HW2 7302   1.713   6.208   4.582
 2135SOL     OW 7303   1.151   0.873   4.159
 2135SOL    HW1 7304   1.217   0.822   4.103
 2135SOL    HW2 7305   1.059   0.837   4.145
 2136SOL     OW 7306   0.771   4.369   3.713
 2136SOL    HW1 7307   0.809   4.291   3.762
 2136SOL    HW2 7308   0.678   4.387   3.747
 2137SOL     OW 7309   1.276   0.730   5.200
 2137SOL    HW1 7310   1.223   0.646   5.209
 2137SOL    HW2 7311   1.219   0.808   5.230
 2138SOL     OW 7312   0.425   2.750   0.507
 2138SOL    HW1 7313   0.346   2.699   0.542
 2138SOL    HW2 7314   0.457   2.813   0.577
 2139SOL     OW 7315   2.744   1.527   5.075
 2139SOL    HW1 7316   2.709   1.440   5.110
 2139SOL    HW2 7317   2.822   1.510   5.015
 2140SOL     OW 7318   1.946   6.023   3.569
 2140SOL    HW1 7319   1.945   6.023   3.469
 2140SOL    HW2 7320   1.989   6.107   3.601
 2141SOL     OW 7321   5.784   1.284   6.950
 2141SOL    HW1 7322   5.705   1.223   6.956
 2141SOL    HW2 7323   5.850   1.260   7.022
 2142SOL     OW 7324   2.848   1.931   3.041
 2142SOL    HW1 7325   2.832   1.839   3.005
 2142SOL    HW2 7326   2.935   1.933   3.089
 2143SOL     OW 7327   3.551   6.861   0.239
 2143SOL    HW1 7328   3.584   6.871   0.333
 2143SOL    HW2 7329   3.590   6.778   0.199
 2144SOL     OW 7330   6.980   1.191   3.156
 2144SOL    HW1 7331   7.018   1.104   3.125
 2144SOL    HW2 7332   6.880   1.183   3.165
 2145SOL     OW 7333   3.849   5.707   2.624
 2145SOL    HW1 7334   3.831   5.745   2.715
 2145SOL    HW2 7335   3.921   5.759   2.579
 2146SOL     OW 7336   3.719   3.237   1.664
 2146SOL    HW1 7337   3.679   3.258   1.753
 2146SOL    HW2 7338   3.682   3.150   1.630
 2147SOL     OW 7339   0.268   0.856   5.388
 2147SOL    HW1 7340   0.335   0.927   5.411
 2147SOL    HW2 7341   0.286   0.775   5.445
 2148SOL     OW 7342   4.980   3.429   3.184
 2148SOL    HW1 7343   5.073   3.394   3.195
 2148SOL    HW2 7344   4.947   3.409   3.092
 2149SOL     OW 7345   3.350   0.925   3.116
 2149SOL    HW1 7346   3.364   1.003   3.056
 2149SOL    HW2 7347   3.316   0.956   3.205
 2150SOL     OW 7348   4.039   1.492   2.771
 2150SOL    HW1 7349   4.003   1.570   2.721
 2150SOL    HW2 7350   3.967   1.453   2.829
 2151SOL     OW 7351   3.936   3.006   5.619
 2151SOL    HW1 7352   3.861   2.946   5.646
 2151SOL    HW2 7353   3.937   3.016   5.519
 2152SOL     OW 7354   6.424   5.930   2.003
 2152SOL    HW1 7355   6.461   6.023   2.012
 2152SOL    HW2 7356   6.350   5.931   1.935
 2153SOL     OW 7357   4.869   3.169   3.292
 2153SOL    HW1 7358   4.870   3.199   3.387
 2153SOL    HW2 7359   4.852   3.247   3.233
 2154SOL     OW 7360   4.651   6.302   5.005
 2154SOL    HW1 7361   4.590   6.379   4.986
 2154SOL    HW2 7362   4.596   6.223   5.031
 2155SOL     OW 7363   0.096   3.248   0.341
 2155SOL    HW1 7364   0.093   3.276   0.245
 2155SOL    HW2 7365   0.171   3.295   0.387
 2156SOL     OW 7366   1.153   1.191   1.508
 2156SOL    HW1 7367   1.228   1.256   1.508
 2156SOL    HW2 7368   1.180   1.107   1.556
 2157SOL     OW 7369   0.945   1.594   4.644
 2157SOL    HW1 7370   0.903   1.517   4.691
 2157SOL    HW2 7371   0.993   1.652   4.711
 2158SOL     OW 7372   4.343   6.495   2.445
 2158SOL    HW1 7373   4.373   6.504   2.539
 2158SOL    HW2 7374   4.419   6.463   2.389
 2159SOL     OW 7375   2.143   5.773   4.482
 2159SOL    HW1 7376   2.117   5.869   4.478
 2159SOL    HW2 7377   2.061   5.716   4.475
 2160SOL     OW 7378   2.879   3.718   0.270
 2160SOL    HW1 7379   2.949   3.677   0.329
 2160SOL    HW2 7380   2.875   3.669   0.183
 2161SOL     OW 7381   5.645   2.264   3.835
 2161SOL    HW1 7382   5.566   2.303   3.882
 2161SOL    HW2 7383   5.695   2.336   3.787
 2162SOL     OW 7384   0.758   1.529   6.930
 2162SOL    HW1 7385   0.730   1.526   0.002
 2162SOL    HW2 7386   0.705   1.463   6.878
 2163SOL     OW 7387   2.470   2.201   0.044
 2163SOL    HW1 7388   2.530   2.209   0.123
 2163SOL    HW2 7389   2.523   2.214   6.984
 2164SOL     OW 7390   1.254   6.728   1.815
 2164SOL    HW1 7391   1.177   6.717   1.879
 2164SOL    HW2 7392   1.225   6.700   1.723
 2165SOL     OW 7393   2.946   6.660   1.538
 2165SOL    HW1 7394   3.012   6.597   1.496
 2165SOL    HW2 7395   2.993   6.742   1.569
 2166SOL     OW 7396   6.346   1.797   6.825
 2166SOL    HW1 7397   6.433   1.838   6.797
 2166SOL    HW2 7398   6.293   1.772   6.743
 2167SOL     OW 7399   2.631   0.298   1.453
 2167SOL    HW1 7400   2.580   0.381   1.477
 2167SOL    HW2 7401   2.700   0.321   1.384
 2168SOL     OW 7402   6.215   5.600   4.883
 2168SOL    HW1 7403   6.207   5.625   4.980
 2168SOL    HW2 7404   6.250   5.679   4.832
 2169SOL     OW 7405   5.017   1.921   4.914
 2169SOL    HW1 7406   5.019   1.824   4.888
 2169SOL    HW2 7407   4.987   1.930   5.008
 2170SOL     OW 7408   5.256   4.961   4.444
 2170SOL    HW1 7409   5.192   4.888   4.422
 2170SOL    HW2 7410   5.250   5.032   4.374
 2171SOL     OW 7411   6.746   2.217   0.185
 2171SOL    HW1 7412   6.802   2.239   0.265
 2171SOL    HW2 7413   6.805   2.212   0.104
 2172SOL     OW 7414   3.231   0.975   0.691
 2172SOL    HW1 7415   3.134   0.993   0.712
 2172SOL    HW2 7416   3.260   1.035   0.617
 2173SOL     OW 7417   5.171   1.180   5.163
 2173SOL    HW1 7418   5.107   1.223   5.099
 2173SOL    HW2 7419   5.169   1.229   5.250
 2174SOL     OW 7420   1.235   5.185   4.830
 2174SOL    HW1 7421   1.209   5.127   4.753
 2174SOL    HW2 7422   1.294   5.259   4.799
 2175SOL     OW 7423   2.703   6.353   4.837
 2175SOL    HW1 7424   2.755   6.269   4.852
 2175SOL    HW2 7425   2.653   6.376   4.921
 2176SOL     OW 7426   1.883   2.226   2.135
 2176SOL    HW1 7427   1.897   2.293   2.208
 2176SOL    HW2 7428   1.919   2.262   2.049
 2177SOL     OW 7429   6.523   1.466   1.644
 2177SOL    HW1 7430   6.432   1.441   1.677
 2177SOL    HW2 7431   6.567   1.528   1.710
 2178SOL     OW 7432   0.528   5.114   0.452
 2178SOL    HW1 7433   0.520   5.151   0.359
 2178SOL    HW2 7434   0.623   5.086   0.468
 2179SOL     OW 7435   0.678   4.548   3.509
 2179SOL    HW1 7436   0.714   4.478   3.570
 2179SOL    HW2 7437   0.633   4.619   3.562
 2180SOL     OW 7438   4.077   3.208   2.035
 2180SOL    HW1 7439   4.016   3.148   2.086
 2180SOL    HW2 7440   4.150   3.154   1.993
 2181SOL     OW 7441   4.440   6.405   6.933
 2181SOL    HW1 7442   4.394   6.479   6.885
 2181SOL    HW2 7443   4.377   6.364   7.000
 2182SOL     OW 7444   5.978   1.936   0.613
 2182SOL    HW1 7445   5.930   1.854   0.644
 2182SOL    HW2 7446   6.060   1.910   0.563
 2183SOL     OW 7447   3.009   2.985   0.890
 2183SOL    HW1 7448   3.048   2.956   0.802
 2183SOL    HW2 7449   2.915   3.015   0.877
 2184SOL     OW 7450   4.216   3.117   6.140
 2184SOL    HW1 7451   4.244   3.139   6.233
 2184SOL    HW2 7452   4.167   3.030   6.139
 2185SOL     OW 7453   1.657   1.221   0.853
 2185SOL    HW1 7454   1.680   1.313   0.884
 2185SOL    HW2 7455   1.567   1.222   0.810
 2186SOL     OW 7456   0.030   5.430   2.551
 2186SOL    HW1 7457   0.090   5.509   2.538
 2186SOL    HW2 7458   6.962   5.452   2.517
 2187SOL     OW 7459   0.097   1.547   6.256
 2187SOL    HW1 7460   0.056   1.522   6.344
 2187SOL    HW2 7461   0.160   1.475   6.227
 2188SOL     OW 7462   5.154   0.673   2.744
 2188SOL    HW1 7463   5.154   0.673   2.644
 2188SOL    HW2 7464   5.181   0.764   2.777
 2189SOL     OW 7465   2.588   0.399   6.801
 2189SOL    HW1 7466   2.670   0.343   6.787
 2189SOL    HW2 7467   2.593   0.443   6.891
 2190SOL     OW 7468   5.059   1.609   1.515
 2190SOL    HW1 7469   5.105   1.522   1.534
 2190SOL    HW2 7470   5.126   1.676   1.485
 2191SOL     OW 7471   3.053   1.537   0.303
 2191SOL    HW1 7472   2.960   1.536   0.341
 2191SOL    HW2 7473   3.104   1.460   0.339
 2192SOL     OW 7474   4.082   5.413   3.991
 2192SOL    HW1 7475   4.078   5.477   4.067
 2192SOL    HW2 7476   4.095   5.320   4.025
 2193SOL     OW 7477   0.231   5.178   5.729
 2193SOL    HW1 7478   0.289   5.100   5.750
 2193SOL    HW2 7479   0.243   5.204   5.633
 2194SOL     OW 7480   3.275   0.238   1.354
 2194SOL    HW1 7481   3.289   0.140   1.371
 2194SOL    HW2 7482   3.187   0.251   1.307
 2195SOL     OW 7483   1.716   4.471   2.768
 2195SOL    HW1 7484   1.752   4.563   2.749
 2195SOL    HW2 7485   1.689   4.427   2.683
 2196SOL     OW 7486   4.092   3.590   0.130
 2196SOL    HW1 7487   4.180   3.637   0.136
 2196SOL    HW2 7488   4.057   3.571   0.222
 2197SOL     OW 7489   4.249   4.133   0.523
 2197SOL    HW1 7490   4.166   4.081   0.500
 2197SOL    HW2 7491   4.231   4.192   0.601
 2198SOL     OW 7492   5.913   4.635   0.496
 2198SOL    HW1 7493   5.847   4.562   0.511
 2198SOL    HW2 7494   5.868   4.724   0.508
 2199SOL     OW 7495   4.518   0.709   2.108
 2199SOL    HW1 7496   4.466   0.712   2.022
 2199SOL    HW2 7497   4.613   0.684   2.089
 2200SOL     OW 7498   2.760   0.138   4.254
 2200SOL    HW1 7499   2.777   0.213   4.318
 2200SOL    HW2 7500   2.731   0.176   4.166
 2201SOL     OW 7501   4.750   4.190   1.866
 2201SOL    HW1 7502   4.669   4.238   1.898
 2201SOL    HW2 7503   4.828   4.252   1.865
 2202SOL     OW 7504   4.960   6.168   3.527
 2202SOL    HW1 7505   4.893   6.114   3.578
 2202SOL    HW2 7506   5.019   6.107   3.475
 2203SOL     OW 7507   3.370   2.070   2.734
 2203SOL    HW1 7508   3.417   2.098   2.817
 2203SOL    HW2 7509   3.427   2.090   2.654
 2204SOL     OW 7510   2.947   2.647   0.791
 2204SOL    HW1 7511   3.035   2.628   0.833
 2204SOL    HW2 7512   2.958   2.718   0.721
 2205SOL     OW 7513   2.534   0.246   0.280
 2205SOL    HW1 7514   2.452   0.191   0.293
 2205SOL    HW2 7515   2.511   0.331   0.232
 2206SOL     OW 7516   1.841   3.045   0.029
 2206SOL    HW1 7517   1.902   3.062   0.106
 2206SOL    HW2 7518   1.852   2.950   7.023
 2207SOL     OW 7519   0.691   4.225   4.978
 2207SOL    HW1 7520   0.768   4.287   4.988
 2207SOL    HW2 7521   0.622   4.266   4.919
 2208SOL     OW 7522   0.153   4.244   1.420
 2208SOL    HW1 7523   0.146   4.187   1.339
 2208SOL    HW2 7524   0.090   4.321   1.412
 2209SOL     OW 7525   1.107   5.885   1.054
 2209SOL    HW1 7526   1.050   5.899   0.973
 2209SOL    HW2 7527   1.128   5.788   1.064
 2210SOL     OW 7528   1.312   5.508   4.115
 2210SOL    HW1 7529   1.344   5.597   4.148
 2210SOL    HW2 7530   1.287   5.451   4.193
 2211SOL     OW 7531   6.652   1.404   6.024
 2211SOL    HW1 7532   6.733   1.434   6.074
 2211SOL    HW2 7533   6.669   1.412   5.925
 2212SOL     OW 7534   1.690   6.944   6.549
 2212SOL    HW1 7535   1.608   6.972   6.500
 2212SOL    HW2 7536   1.678   6.959   6.647
 2213SOL     OW 7537   3.304   1.094   3.320
 2213SOL    HW1 7538   3.363   1.079   3.399
 2213SOL    HW2 7539   3.341   1.169   3.265
 2214SOL     OW 7540   4.478   0.181   5.207
 2214SOL    HW1 7541   4.494   0.101   5.148
 2214SOL    HW2 7542   4.458   0.150   5.300
 2215SOL     OW 7543   5.545   3.168   4.895
 2215SOL    HW1 7544   5.589   3.256   4.909
 2215SOL    HW2 7545   5.612   3.095   4.905
 2216SOL     OW 7546   2.428   0.499   1.458
 2216SOL    HW1 7547   2.353   0.526   1.519
 2216SOL    HW2 7548   2.390   0.473   1.370
 2217SOL     OW 7549   4.337   1.043   1.927
 2217SOL    HW1 7550   4.253   1.098   1.928
 2217SOL    HW2 7551   4.387   1.061   1.842
 2218SOL     OW 7552   1.006   6.443   2.061
 2218SOL    HW1 7553   0.994   6.531   2.014
 2218SOL    HW2 7554   1.075   6.453   2.132
 2219SOL     OW 7555   1.403   2.159   2.787
 2219SOL    HW1 7556   1.365   2.248   2.761
 2219SOL    HW2 7557   1.388   2.143   2.884
 2220SOL     OW 7558   0.826   0.556   1.219
 2220SOL    HW1 7559   0.858   0.462   1.234
 2220SOL    HW2 7560   0.857   0.588   1.129
 2221SOL     OW 7561   6.846   1.264   0.391
 2221SOL    HW1 7562   6.772   1.279   0.457
 2221SOL    HW2 7563   6.934   1.280   0.434
 2222SOL     OW 7564   5.666   5.984   3.054
 2222SOL    HW1 7565   5.610   5.925   2.996
 2222SOL    HW2 7566   5.685   5.938   3.140
 2223SOL     OW 7567   5.911   4.941   1.606
 2223SOL    HW1 7568   5.917   5.028   1.559
 2223SOL    HW2 7569   5.815   4.914   1.615
 2224SOL     OW 7570   0.807   4.798   1.997
 2224SOL    HW1 7571   0.739   4.814   1.925
 2224SOL    HW2 7572   0.835   4.885   2.036
 2225SOL     OW 7573   0.494   4.345   0.868
 2225SOL    HW1 7574   0.437   4.410   0.919
 2225SOL    HW2 7575   0.442   4.307   0.792
 2226SOL     OW 7576   4.184   4.013   1.322
 2226SOL    HW1 7577   4.238   4.010   1.238
 2226SOL    HW2 7578   4.233   3.965   1.395
 2227SOL     OW 7579   0.965   3.241   4.278
 2227SOL    HW1 7580   0.872   3.242   4.241
 2227SOL    HW2 7581   0.983   3.326   4.327
 2228SOL     OW 7582   2.817   4.955   4.918
 2228SOL    HW1 7583   2.757   4.969   4.839
 2228SOL    HW2 7584   2.763   4.921   4.995
 2229SOL     OW 7585   5.256   0.369   3.164
 2229SOL    HW1 7586   5.180   0.418   3.121
 2229SOL    HW2 7587   5.287   0.296   3.103
 2230SOL     OW 7588   2.341   5.360   0.763
 2230SOL    HW1 7589   2.433   5.399   0.762
 2230SOL    HW2 7590   2.328   5.306   0.846
 2231SOL     OW 7591   2.811   6.114   1.230
 2231SOL    HW1 7592   2.854   6.182   1.169
 2231SOL    HW2 7593   2.724   6.150   1.264
 2232SOL     OW 7594   6.146   2.828   3.555
 2232SOL    HW1 7595   6.141   2.921   3.592
 2232SOL    HW2 7596   6.136   2.763   3.630
 2233SOL     OW 7597   3.313   1.797   6.886
 2233SOL    HW1 7598   3.335   1.819   6.980
 2233SOL    HW2 7599   3.267   1.874   6.843
 2234SOL     OW 7600   2.658   2.180   0.951
 2234SOL    HW1 7601   2.731   2.245   0.927
 2234SOL    HW2 7602   2.621   2.205   1.040
 2235SOL     OW 7603   2.252   0.370   1.284
 2235SOL    HW1 7604   2.169   0.316   1.268
 2235SOL    HW2 7605   2.236   0.465   1.255
 2236SOL     OW 7606   6.881   4.088   6.941
 2236SOL    HW1 7607   6.852   4.034   7.020
 2236SOL    HW2 7608   6.800   4.129   6.898
 2237SOL     OW 7609   6.483   2.294   4.121
 2237SOL    HW1 7610   6.489   2.389   4.092
 2237SOL    HW2 7611   6.444   2.290   4.213
 2238SOL     OW 7612   0.089   5.882   1.849
 2238SOL    HW1 7613   7.017   5.897   1.874
 2238SOL    HW2 7614   0.139   5.848   1.927
 2239SOL     OW 7615   5.468   5.576   3.146
 2239SOL    HW1 7616   5.549   5.617   3.104
 2239SOL    HW2 7617   5.386   5.616   3.105
 2240SOL     OW 7618   5.684   4.051   1.984
 2240SOL    HW1 7619   5.765   4.021   1.934
 2240SOL    HW2 7620   5.626   3.972   2.004
 2241SOL     OW 7621   0.944   6.765   2.250
 2241SOL    HW1 7622   0.865   6.817   2.217
 2241SOL    HW2 7623   0.980   6.808   2.333
 2242SOL     OW 7624   4.833   2.439   2.446
 2242SOL    HW1 7625   4.791   2.349   2.437
 2242SOL    HW2 7626   4.762   2.509   2.451
 2243SOL     OW 7627   2.856   6.298   5.594
 2243SOL    HW1 7628   2.902   6.271   5.509
 2243SOL    HW2 7629   2.890   6.243   5.670
 2244SOL     OW 7630   2.464   1.026   5.139
 2244SOL    HW1 7631   2.494   1.088   5.067
 2244SOL    HW2 7632   2.519   1.041   5.221
 2245SOL     OW 7633   0.508   1.928   2.230
 2245SOL    HW1 7634   0.603   1.934   2.200
 2245SOL    HW2 7635   0.504   1.928   2.330
 2246SOL     OW 7636   1.250   4.242   4.749
 2246SOL    HW1 7637   1.296   4.271   4.833
 2246SOL    HW2 7638   1.313   4.187   4.693
 2247SOL     OW 7639   1.747   1.486   5.755
 2247SOL    HW1 7640   1.842   1.458   5.736
 2247SOL    HW2 7641   1.726   1.568   5.702
 2248SOL     OW 7642   4.759   4.323   5.124
 2248SOL    HW1 7643   4.739   4.256   5.052
 2248SOL    HW2 7644   4.832   4.384   5.093
 2249SOL     OW 7645   4.621   5.299   4.498
 2249SOL    HW1 7646   4.554   5.306   4.572
 2249SOL    HW2 7647   4.671   5.385   4.491
 2250SOL     OW 7648   5.282   5.431   0.560
 2250SOL    HW1 7649   5.199   5.436   0.504
 2250SOL    HW2 7650   5.336   5.514   0.546
 2251SOL     OW 7651   0.024   0.702   6.362
 2251SOL    HW1 7652   6.978   0.639   6.397
 2251SOL    HW2 7653   0.113   0.679   6.402
 2252SOL     OW 7654   3.501   1.548   5.516
 2252SOL    HW1 7655   3.574   1.617   5.518
 2252SOL    HW2 7656   3.534   1.464   5.559
 2253SOL     OW 7657   1.437   2.533   5.868
 2253SOL    HW1 7658   1.431   2.436   5.891
 2253SOL    HW2 7659   1.430   2.545   5.769
 2254SOL     OW 7660   1.727   3.795   5.837
 2254SOL    HW1 7661   1.814   3.842   5.830
 2254SOL    HW2 7662   1.695   3.797   5.932
 2255SOL     OW 7663   5.481   2.640   0.596
 2255SOL    HW1 7664   5.468   2.542   0.613
 2255SOL    HW2 7665   5.436   2.692   0.668
 2256SOL     OW 7666   3.320   4.883   1.953
 2256SOL    HW1 7667   3.250   4.906   2.021
 2256SOL    HW2 7668   3.407   4.870   1.999
 2257SOL     OW 7669   2.137   3.664   3.716
 2257SOL    HW1 7670   2.044   3.653   3.751
 2257SOL    HW2 7671   2.182   3.575   3.712
 2258SOL     OW 7672   2.369   5.514   5.141
 2258SOL    HW1 7673   2.270   5.503   5.132
 2258SOL    HW2 7674   2.416   5.443   5.089
 2259SOL     OW 7675   5.989   3.603   6.711
 2259SOL    HW1 7676   6.075   3.606   6.661
 2259SOL    HW2 7677   5.966   3.695   6.744
 2260SOL     OW 7678   4.576   4.133   0.712
 2260SOL    HW1 7679   4.637   4.095   0.781
 2260SOL    HW2 7680   4.564   4.066   0.638
 2261SOL     OW 7681   3.569   6.571   5.405
 2261SOL    HW1 7682   3.589   6.473   5.401
 2261SOL    HW2 7683   3.652   6.623   5.385
 2262SOL     OW 7684   3.382   1.865   3.649
 2262SOL    HW1 7685   3.452   1.817   3.596
 2262SOL    HW2 7686   3.422   1.896   3.736
 2263SOL     OW 7687   7.010   4.242   6.427
 2263SOL    HW1 7688   0.044   4.249   6.507
 2263SOL    HW2 7689   6.985   4.146   6.413
 2264SOL     OW 7690   4.022   3.728   4.059
 2264SOL    HW1 7691   4.066   3.643   4.030
 2264SOL    HW2 7692   3.999   3.783   3.979
 2265SOL     OW 7693   0.173   0.323   2.576
 2265SOL    HW1 7694   0.125   0.279   2.500
 2265SOL    HW2 7695   0.198   0.416   2.550
 2266SOL     OW 7696   6.227   0.050   6.755
 2266SOL    HW1 7697   6.293   0.011   6.691
 2266SOL    HW2 7698   6.147   7.014   6.762
 2267SOL     OW 7699   5.122   1.280   5.432
 2267SOL    HW1 7700   5.083   1.370   5.447
 2267SOL    HW2 7701   5.221   1.287   5.427
 2268SOL     OW 7702   6.341   5.069   0.196
 2268SOL    HW1 7703   6.392   5.139   0.146
 2268SOL    HW2 7704   6.317   5.104   0.287
 2269SOL     OW 7705   0.109   5.560   4.388
 2269SOL    HW1 7706   0.093   5.638   4.448
 2269SOL    HW2 7707   0.080   5.476   4.435
 2270SOL     OW 7708   3.923   3.406   2.131
 2270SOL    HW1 7709   3.994   3.475   2.127
 2270SOL    HW2 7710   3.961   3.317   2.104
 2271SOL     OW 7711   7.021   4.067   3.184
 2271SOL    HW1 7712   6.922   4.057   3.177
 2271SOL    HW2 7713   0.035   4.087   3.093
 2272SOL     OW 7714   4.628   2.036   5.983
 2272SOL    HW1 7715   4.671   2.082   6.060
 2272SOL    HW2 7716   4.657   2.080   5.898
 2273SOL     OW 7717   0.452   1.371   3.913
 2273SOL    HW1 7718   0.544   1.410   3.912
 2273SOL    HW2 7719   0.386   1.443   3.934
 2274SOL     OW 7720   1.395   3.576   3.017
 2274SOL    HW1 7721   1.453   3.495   3.024
 2274SOL    HW2 7722   1.306   3.550   2.980
 2275SOL     OW 7723   5.147   6.753   3.583
 2275SOL    HW1 7724   5.182   6.689   3.651
 2275SOL    HW2 7725   5.097   6.704   3.512
 2276SOL     OW 7726   3.876   5.639   1.910
 2276SOL    HW1 7727   3.852   5.570   1.841
 2276SOL    HW2 7728   3.827   5.724   1.891
 2277SOL     OW 7729   3.090   3.351   0.721
 2277SOL    HW1 7730   3.071   3.377   0.815
 2277SOL    HW2 7731   3.128   3.258   0.719
 2278SOL     OW 7732   5.573   6.370   0.782
 2278SOL    HW1 7733   5.582   6.285   0.833
 2278SOL    HW2 7734   5.496   6.363   0.718
 2279SOL     OW 7735   4.946   4.516   5.036
 2279SOL    HW1 7736   4.969   4.601   5.084
 2279SOL    HW2 7737   4.902   4.538   4.949
 2280SOL     OW 7738   5.323   6.561   6.142
 2280SOL    HW1 7739   5.240   6.518   6.175
 2280SOL    HW2 7740   5.393   6.491   6.124
 2281SOL     OW 7741   2.639   2.620   0.448
 2281SOL    HW1 7742   2.613   2.646   0.541
 2281SOL    HW2 7743   2.737   2.599   0.445
 2282SOL     OW 7744   4.010   5.774   2.214
 2282SOL    HW1 7745   4.022   5.691   2.267
 2282SOL    HW2 7746   3.929   5.824   2.246
 2283SOL     OW 7747   6.980   3.507   2.292
 2283SOL    HW1 7748   6.984   3.426   2.351
 2283SOL    HW2 7749   6.957   3.479   2.199
 2284SOL     OW 7750   2.686   2.343   2.185
 2284SOL    HW1 7751   2.618   2.309   2.120
 2284SOL    HW2 7752   2.775   2.348   2.140
 2285SOL     OW 7753   1.474   4.109   6.544
 2285SOL    HW1 7754   1.447   4.013   6.551
 2285SOL    HW2 7755   1.549   4.118   6.478
 2286SOL     OW 7756   5.574   6.725   4.504
 2286SOL    HW1 7757   5.507   6.720   4.578
 2286SOL    HW2 7758   5.604   6.633   4.479
 2287SOL     OW 7759   2.158   2.920   1.604
 2287SOL    HW1 7760   2.096   2.842   1.598
 2287SOL    HW2 7761   2.232   2.899   1.668
 2288SOL     OW 7762   2.107   6.298   3.858
 2288SOL    HW1 7763   2.199   6.336   3.862
 2288SOL    HW2 7764   2.098   6.225   3.926
 2289SOL     OW 7765   4.502   1.872   0.427
 2289SOL    HW1 7766   4.443   1.952   0.416
 2289SOL    HW2 7767   4.457   1.791   0.389
 2290SOL     OW 7768   3.600   3.408   3.179
 2290SOL    HW1 7769   3.686   3.388   3.130
 2290SOL    HW2 7770   3.612   3.490   3.234
 2291SOL     OW 7771   0.761   2.745   6.785
 2291SOL    HW1 7772   0.790   2.672   6.846
 2291SOL    HW2 7773   0.720   2.705   6.703
 2292SOL     OW 7774   5.400   1.806   2.705
 2292SOL    HW1 7775   5.401   1.707   2.691
 2292SOL    HW2 7776   5.488   1.845   2.676
 2293SOL     OW 7777   0.383   0.278   0.252
 2293SOL    HW1 7778   0.298   0.229   0.276
 2293SOL    HW2 7779   0.451   0.263   0.324
 2294SOL     OW 7780   6.506   0.958   5.443
 2294SOL    HW1 7781   6.460   1.019   5.379
 2294SOL    HW2 7782   6.581   1.006   5.489
 2295SOL     OW 7783   5.786   6.060   1.104
 2295SOL    HW1 7784   5.863   6.099   1.156
 2295SOL    HW2 7785   5.704   6.115   1.120
 2296SOL     OW 7786   3.460   5.020   3.812
 2296SOL    HW1 7787   3.534   4.995   3.750
 2296SOL    HW2 7788   3.432   5.115   3.795
 2297SOL     OW 7789   4.235   3.848   5.555
 2297SOL    HW1 7790   4.332   3.827   5.564
 2297SOL    HW2 7791   4.215   3.936   5.599
 2298SOL     OW 7792   3.453   3.902   4.565
 2298SOL    HW1 7793   3.376   3.840   4.555
 2298SOL    HW2 7794   3.423   3.983   4.616
 2299SOL     OW 7795   5.999   3.285   4.800
 2299SOL    HW1 7796   5.959   3.317   4.886
 2299SOL    HW2 7797   5.937   3.219   4.757
 2300SOL     OW 7798   4.880   6.167   2.315
 2300SOL    HW1 7799   4.893   6.245   2.376
 2300SOL    HW2 7800   4.969   6.132   2.287
 2301SOL     OW 7801   3.854   3.005   4.799
 2301SOL    HW1 7802   3.880   3.029   4.705
 2301SOL    HW2 7803   3.852   2.906   4.809
 2302SOL     OW 7804   6.148   3.091   6.457
 2302SOL    HW1 7805   6.167   3.172   6.513
 2302SOL    HW2 7806   6.061   3.104   6.409
 2303SOL     OW 7807   2.851   2.216   7.019
 2303SOL    HW1 7808   2.900   2.291   0.039
 2303SOL    HW2 7809   2.868   2.131   0.046
 2304SOL     OW 7810   6.137   6.335   2.679
 2304SOL    HW1 7811   6.184   6.274   2.616
 2304SOL    HW2 7812   6.126   6.289   2.768
 2305SOL     OW 7813   3.185   0.081   4.439
 2305SOL    HW1 7814   3.184   0.108   4.342
 2305SOL    HW2 7815   3.243   0.144   4.490
 2306SOL     OW 7816   0.997   4.489   4.805
 2306SOL    HW1 7817   0.905   4.473   4.841
 2306SOL    HW2 7818   0.998   4.574   4.752
 2307SOL     OW 7819   6.357   3.172   5.813
 2307SOL    HW1 7820   6.297   3.225   5.753
 2307SOL    HW2 7821   6.441   3.149   5.765
 2308SOL     OW 7822   1.779   4.850   1.939
 2308SOL    HW1 7823   1.850   4.852   1.869
 2308SOL    HW2 7824   1.694   4.886   1.901
 2309SOL     OW 7825   1.266   0.164   5.175
 2309SOL    HW1 7826   1.256   0.093   5.105
 2309SOL    HW2 7827   1.238   0.252   5.137
 2310SOL     OW 7828   4.359   0.084   1.074
 2310SOL    HW1 7829   4.316   0.166   1.036
 2310SOL    HW2 7830   4.374   0.018   1.001
 2311SOL     OW 7831   3.051   5.262   1.304
 2311SOL    HW1 7832   2.987   5.236   1.232
 2311SOL    HW2 7833   3.072   5.182   1.360
 2312SOL     OW 7834   3.357   5.255   1.991
 2312SOL    HW1 7835   3.285   5.214   1.934
 2312SOL    HW2 7836   3.428   5.294   1.931
 2313SOL     OW 7837   4.992   6.156   1.404
 2313SOL    HW1 7838   5.050   6.231   1.435
 2313SOL    HW2 7839   4.900   6.165   1.444
 2314SOL     OW 7840   1.446   4.856   4.704
 2314SOL    HW1 7841   1.380   4.863   4.779
 2314SOL    HW2 7842   1.510   4.782   4.723
 2315SOL     OW 7843   3.699   2.761   6.607
 2315SOL    HW1 7844   3.795   2.747   6.631
 2315SOL    HW2 7845   3.688   2.755   6.508
 2316SOL     OW 7846   5.572   4.433   2.182
 2316SOL    HW1 7847   5.581   4.447   2.281
 2316SOL    HW2 7848   5.661   4.411   2.143
 2317SOL     OW 7849   0.548   5.529   3.561
 2317SOL    HW1 7850   0.618   5.582   3.514
 2317SOL    HW2 7851   0.555   5.546   3.660
 2318SOL     OW 7852   6.554   0.939   4.057
 2318SOL    HW1 7853   6.494   0.989   3.995
 2318SOL    HW2 7854   6.530   0.842   4.056
 2319SOL     OW 7855   0.737   4.822   3.176
 2319SOL    HW1 7856   0.720   4.907   3.226
 2319SOL    HW2 7857   0.794   4.761   3.232
 2320SOL     OW 7858   6.658   5.111   5.246
 2320SOL    HW1 7859   6.635   5.124   5.150
 2320SOL    HW2 7860   6.582   5.141   5.303
 2321SOL     OW 7861   3.438   5.281   5.211
 2321SOL    HW1 7862   3.360   5.224   5.184
 2321SOL    HW2 7863   3.407   5.352   5.275
 2322SOL     OW 7864   3.658   1.073   5.742
 2322SOL    HW1 7865   3.708   1.090   5.827
 2322SOL    HW2 7866   3.612   0.984   5.748
 2323SOL     OW 7867   5.138   4.111   2.057
 2323SOL    HW1 7868   5.181   4.023   2.036
 2323SOL    HW2 7869   5.208   4.176   2.088
 2324SOL     OW 7870   6.818   4.709   3.671
 2324SOL    HW1 7871   6.733   4.726   3.621
 2324SOL    HW2 7872   6.848   4.793   3.715
 2325SOL     OW 7873   6.847   1.874   0.599
 2325SOL    HW1 7874   6.775   1.915   0.657
 2325SOL    HW2 7875   6.934   1.876   0.648
 2326SOL     OW 7876   1.794   4.541   6.654
 2326SOL    HW1 7877   1.708   4.499   6.623
 2326SOL    HW2 7878   1.777   4.595   6.736
 2327SOL     OW 7879   5.616   1.708   3.801
 2327SOL    HW1 7880   5.575   1.638   3.742
 2327SOL    HW2 7881   5.593   1.798   3.766
 2328SOL     OW 7882   6.128   6.715   3.823
 2328SOL    HW1 7883   6.059   6.663   3.773
 2328SOL    HW2 7884   6.090   6.745   3.910
 2329SOL     OW 7885   6.868   5.893   3.286
 2329SOL    HW1 7886   6.887   5.991   3.280
 2329SOL    HW2 7887   6.824   5.873   3.374
 2330SOL     OW 7888   0.356   3.519   2.007
 2330SOL    HW1 7889   0.279   3.474   2.051
 2330SOL    HW2 7890   0.330   3.612   1.981
 2331SOL     OW 7891   0.555   4.956   5.774
 2331SOL    HW1 7892   0.487   4.946   5.701
 2331SOL    HW2 7893   0.530   4.898   5.852
 2332SOL     OW 7894   5.632   2.573   4.508
 2332SOL    HW1 7895   5.645   2.525   4.594
 2332SOL    HW2 7896   5.549   2.629   4.513
 2333SOL     OW 7897   2.479   4.535   3.581
 2333SOL    HW1 7898   2.483   4.551   3.679
 2333SOL    HW2 7899   2.437   4.445   3.564
 2334SOL     OW 7900   3.359   0.133   0.753
 2334SOL    HW1 7901   3.392   0.072   0.825
 2334SOL    HW2 7902   3.396   0.103   0.665
 2335SOL     OW 7903   4.546   5.513   4.230
 2335SOL    HW1 7904   4.477   5.506   4.158
 2335SOL    HW2 7905   4.522   5.452   4.305
 2336SOL     OW 7906   4.467   2.782   6.005
 2336SOL    HW1 7907   4.450   2.743   6.095
 2336SOL    HW2 7908   4.459   2.711   5.936
 2337SOL     OW 7909   5.668   0.571   3.929
 2337SOL    HW1 7910   5.692   0.507   3.857
 2337SOL    HW2 7911   5.609   0.643   3.891
 2338SOL     OW 7912   1.455   6.847   6.381
 2338SOL    HW1 7913   1.413   6.766   6.340
 2338SOL    HW2 7914   1.509   6.895   6.311
 2339SOL     OW 7915   4.164   4.611   6.096
 2339SOL    HW1 7916   4.203   4.628   6.186
 2339SOL    HW2 7917   4.239   4.605   6.029
 2340SOL     OW 7918   3.659   5.241   3.922
 2340SOL    HW1 7919   3.566   5.278   3.926
 2340SOL    HW2 7920   3.718   5.305   3.873
 2341SOL     OW 7921   6.347   5.256   6.958
 2341SOL    HW1 7922   6.328   5.291   6.867
 2341SOL    HW2 7923   6.424   5.192   6.954
 2342SOL     OW 7924   6.294   0.249   5.245
 2342SOL    HW1 7925   6.337   0.335   5.271
 2342SOL    HW2 7926   6.220   0.266   5.180
 2343SOL     OW 7927   0.949   6.766   0.442
 2343SOL    HW1 7928   1.015   6.727   0.506
 2343SOL    HW2 7929   0.895   6.693   0.399
 2344SOL     OW 7930   2.384   1.781   3.424
 2344SOL    HW1 7931   2.345   1.741   3.506
 2344SOL    HW2 7932   2.395   1.710   3.354
 2345SOL     OW 7933   1.598   1.380   3.669
 2345SOL    HW1 7934   1.644   1.415   3.751
 2345SOL    HW2 7935   1.596   1.451   3.599
 2346SOL     OW 7936   5.269   3.704   6.056
 2346SOL    HW1 7937   5.282   3.783   6.115
 2346SOL    HW2 7938   5.196   3.646   6.093
 2347SOL     OW 7939   1.317   3.554   1.196
 2347SOL    HW1 7940   1.366   3.641   1.193
 2347SOL    HW2 7941   1.223   3.568   1.164
 2348SOL     OW 7942   2.688   5.816   1.595
 2348SOL    HW1 7943   2.632   5.802   1.676
 2348SOL    HW2 7944   2.662   5.750   1.525
 2349SOL     OW 7945   4.608   4.817   5.898
 2349SOL    HW1 7946   4.566   4.779   5.980
 2349SOL    HW2 7947   4.597   4.917   5.898
 2350SOL     OW 7948   2.058   5.826   5.315
 2350SOL    HW1 7949   2.020   5.752   5.259
 2350SOL    HW2 7950   2.155   5.809   5.331
 2351SOL     OW 7951   2.300   5.758   3.552
 2351SOL    HW1 7952   2.311   5.692   3.477
 2351SOL    HW2 7953   2.305   5.710   3.640
 2352SOL     OW 7954   6.009   3.907   2.361
 2352SOL    HW1 7955   6.100   3.949   2.357
 2352SOL    HW2 7956   5.944   3.965   2.313
 2353SOL     OW 7957   3.006   3.508   6.150
 2353SOL    HW1 7958   3.018   3.568   6.071
 2353SOL    HW2 7959   3.080   3.522   6.215
 2354SOL     OW 7960   3.787   2.752   1.645
 2354SOL    HW1 7961   3.740   2.667   1.669
 2354SOL    HW2 7962   3.885   2.741   1.661
 2355SOL     OW 7963   6.568   0.351   1.270
 2355SOL    HW1 7964   6.554   0.272   1.330
 2355SOL    HW2 7965   6.576   0.319   1.175
 2356SOL     OW 7966   2.689   4.864   4.070
 2356SOL    HW1 7967   2.618   4.921   4.028
 2356SOL    HW2 7968   2.704   4.894   4.164
 2357SOL     OW 7969   6.410   4.798   0.576
 2357SOL    HW1 7970   6.337   4.766   0.516
 2357SOL    HW2 7971   6.410   4.745   0.661
 2358SOL     OW 7972   3.560   1.927   5.390
 2358SOL    HW1 7973   3.628   1.987   5.346
 2358SOL    HW2 7974   3.510   1.877   5.320
 2359SOL     OW 7975   2.046   1.426   5.720
 2359SOL    HW1 7976   2.114   1.472   5.778
 2359SOL    HW2 7977   2.086   1.405   5.631
 2360SOL     OW 7978   3.619   4.418   6.883
 2360SOL    HW1 7979   3.639   4.322   6.862
 2360SOL    HW2 7980   3.564   4.422   6.967
 2361SOL     OW 7981   4.525   5.700   1.715
 2361SOL    HW1 7982   4.576   5.618   1.691
 2361SOL    HW2 7983   4.589   5.775   1.731
 2362SOL     OW 7984   4.474   5.099   3.928
 2362SOL    HW1 7985   4.557   5.087   3.874
 2362SOL    HW2 7986   4.396   5.112   3.867
 2363SOL     OW 7987   1.570   3.761   0.410
 2363SOL    HW1 7988   1.566   3.663   0.394
 2363SOL    HW2 7989   1.609   3.806   0.329
 2364SOL     OW 7990   3.593   1.317   2.820
 2364SOL    HW1 7991   3.593   1.404   2.770
 2364SOL    HW2 7992   3.669   1.317   2.885
 2365SOL     OW 7993   4.731   4.360   3.595
 2365SOL    HW1 7994   4.706   4.449   3.556
 2365SOL    HW2 7995   4.692   4.352   3.687
 2366SOL     OW 7996   3.023   4.844   5.065
 2366SOL    HW1 7997   2.960   4.877   4.994
 2366SOL    HW2 7998   2.990   4.755   5.099
 2367SOL     OW 7999   6.066   4.810   6.190
 2367SOL    HW1 8000   6.116   4.895   6.206
 2367SOL    HW2 8001   6.014   4.816   6.105
 2368SOL     OW 8002   5.481   0.071   4.744
 2368SOL    HW1 8003   5.562   0.074   4.803
 2368SOL    HW2 8004   5.505   0.031   4.656
 2369SOL     OW 8005   3.206   1.976   4.459
 2369SOL    HW1 8006   3.141   2.049   4.438
 2369SOL    HW2 8007   3.293   2.016   4.487
 2370SOL     OW 8008   5.819   2.524   1.700
 2370SOL    HW1 8009   5.719   2.520   1.695
 2370SOL    HW2 8010   5.851   2.464   1.773
 2371SOL     OW 8011   0.039   6.116   2.646
 2371SOL    HW1 8012   0.069   6.196   2.700
 2371SOL    HW2 8013   6.972   6.088   2.676
 2372SOL     OW 8014   5.915   6.531   6.639
 2372SOL    HW1 8015   6.011   6.520   6.661
 2372SOL    HW2 8016   5.859   6.517   6.721
 2373SOL     OW 8017   6.685   5.285   6.356
 2373SOL    HW1 8018   6.680   5.217   6.429
 2373SOL    HW2 8019   6.694   5.376   6.395
 2374SOL     OW 8020   6.515   6.065   2.662
 2374SOL    HW1 8021   6.499   5.967   2.654
 2374SOL    HW2 8022   6.474   6.098   2.747
 2375SOL     OW 8023   1.593   0.362   4.164
 2375SOL    HW1 8024   1.532   0.299   4.115
 2375SOL    HW2 8025   1.681   0.318   4.179
 2376SOL     OW 8026   5.198   2.002   3.611
 2376SOL    HW1 8027   5.277   2.045   3.655
 2376SOL    HW2 8028   5.159   2.064   3.543
 2377SOL     OW 8029   4.384   4.325   6.069
 2377SOL    HW1 8030   4.334   4.387   6.009
 2377SOL    HW2 8031   4.425   4.251   6.014
 2378SOL     OW 8032   0.012   1.163   0.672
 2378SOL    HW1 8033   7.013   1.142   0.577
 2378SOL    HW2 8034   0.094   1.112   0.699
 2379SOL     OW 8035   6.561   5.287   2.116
 2379SOL    HW1 8036   6.495   5.306   2.043
 2379SOL    HW2 8037   6.651   5.321   2.088
 2380SOL     OW 8038   4.685   5.646   5.830
 2380SOL    HW1 8039   4.755   5.583   5.865
 2380SOL    HW2 8040   4.682   5.642   5.731
 2381SOL     OW 8041   2.208   4.713   4.366
 2381SOL    HW1 8042   2.117   4.751   4.384
 2381SOL    HW2 8043   2.237   4.737   4.273
 2382SOL     OW 8044   6.908   5.817   2.923
 2382SOL    HW1 8045   6.976   5.890   2.930
 2382SOL    HW2 8046   6.939   5.749   2.856
 2383SOL     OW 8047   5.332   5.016   5.783
 2383SOL    HW1 8048   5.315   5.081   5.858
 2383SOL    HW2 8049   5.380   4.936   5.819
 2384SOL     OW 8050   0.641   2.098   2.817
 2384SOL    HW1 8051   0.564   2.047   2.856
 2384SOL    HW2 8052   0.619   2.124   2.723
 2385SOL     OW 8053   0.454   1.605   0.545
 2385SOL    HW1 8054   0.411   1.516   0.525
 2385SOL    HW2 8055   0.454   1.661   0.462
 2386SOL     OW 8056   6.110   5.766   3.925
 2386SOL    HW1 8057   6.117   5.863   3.902
 2386SOL    HW2 8058   6.049   5.755   4.004
 2387SOL     OW 8059   1.194   1.229   3.628
 2387SOL    HW1 8060   1.276   1.194   3.583
 2387SOL    HW2 8061   1.214   1.244   3.725
 2388SOL     OW 8062   6.625   2.534   5.417
 2388SOL    HW1 8063   6.624   2.469   5.341
 2388SOL    HW2 8064   6.543   2.522   5.472
 2389SOL     OW 8065   4.501   4.761   3.830
 2389SOL    HW1 8066   4.429   4.778   3.898
 2389SOL    HW2 8067   4.505   4.838   3.767
 2390SOL     OW 8068   4.490   3.227   5.749
 2390SOL    HW1 8069   4.485   3.127   5.742
 2390SOL    HW2 8070   4.521   3.252   5.840
 2391SOL     OW 8071   3.116   4.179   5.771
 2391SOL    HW1 8072   3.085   4.171   5.676
 2391SOL    HW2 8073   3.060   4.247   5.819
 2392SOL     OW 8074   4.465   4.436   5.494
 2392SOL    HW1 8075   4.520   4.392   5.565
 2392SOL    HW2 8076   4.371   4.446   5.526
 2393SOL     OW 8077   4.189   4.320   1.114
 2393SOL    HW1 8078   4.219   4.231   1.080
 2393SOL    HW2 8079   4.184   4.384   1.038
 2394SOL     OW 8080   0.509   2.710   4.044
 2394SOL    HW1 8081   0.517   2.759   4.131
 2394SOL    HW2 8082   0.518   2.611   4.061
 2395SOL     OW 8083   0.663   2.535   4.664
 2395SOL    HW1 8084   0.705   2.525   4.574
 2395SOL    HW2 8085   0.581   2.592   4.658
 2396SOL     OW 8086   0.349   0.535   5.270
 2396SOL    HW1 8087   0.398   0.551   5.356
 2396SOL    HW2 8088   0.391   0.459   5.221
 2397SOL     OW 8089   0.272   4.059   5.002
 2397SOL    HW1 8090   0.228   4.148   5.014
 2397SOL    HW2 8091   0.227   4.009   4.929
 2398SOL     OW 8092   3.779   6.386   4.334
 2398SOL    HW1 8093   3.830   6.414   4.253
 2398SOL    HW2 8094   3.796   6.289   4.353
 2399SOL     OW 8095   3.249   2.194   3.705
 2399SOL    HW1 8096   3.271   2.127   3.776
 2399SOL    HW2 8097   3.162   2.238   3.727
 2400SOL     OW 8098   1.393   3.590   0.837
 2400SOL    HW1 8099   1.468   3.622   0.895
 2400SOL    HW2 8100   1.432   3.546   0.756
 2401SOL     OW 8101   2.501   0.519   5.727
 2401SOL    HW1 8102   2.479   0.595   5.789
 2401SOL    HW2 8103   2.598   0.498   5.733
 2402SOL     OW 8104   1.576   4.541   1.913
 2402SOL    HW1 8105   1.672   4.515   1.925
 2402SOL    HW2 8106   1.548   4.520   1.819
 2403SOL     OW 8107   3.929   2.988   3.260
 2403SOL    HW1 8108   3.883   2.961   3.176
 2403SOL    HW2 8109   3.868   2.973   3.338
 2404SOL     OW 8110   5.813   0.920   0.900
 2404SOL    HW1 8111   5.746   0.913   0.827
 2404SOL    HW2 8112   5.846   1.014   0.907
 2405SOL     OW 8113   2.441   3.369   0.659
 2405SOL    HW1 8114   2.363   3.322   0.617
 2405SOL    HW2 8115   2.422   3.467   0.663
 2406SOL     OW 8116   3.122   6.378   4.458
 2406SOL    HW1 8117   3.169   6.423   4.534
 2406SOL    HW2 8118   3.097   6.285   4.485
 2407SOL     OW 8119   2.325   0.725   3.249
 2407SOL    HW1 8120   2.419   0.697   3.231
 2407SOL    HW2 8121   2.322   0.823   3.270
 2408SOL     OW 8122   3.834   6.100   5.013
 2408SOL    HW1 8123   3.930   6.104   4.986
 2408SOL    HW2 8124   3.824   6.037   5.090
 2409SOL     OW 8125   1.205   3.303   0.642
 2409SOL    HW1 8126   1.130   3.256   0.596
 2409SOL    HW2 8127   1.177   3.327   0.735
 2410SOL     OW 8128   0.985   2.966   4.837
 2410SOL    HW1 8129   0.961   2.893   4.773
 2410SOL    HW2 8130   1.082   2.987   4.829
 2411SOL     OW 8131   3.159   2.621   0.121
 2411SOL    HW1 8132   3.213   2.629   0.205
 2411SOL    HW2 8133   3.202   2.674   0.048
 2412SOL     OW 8134   3.952   1.987   6.643
 2412SOL    HW1 8135   3.879   2.039   6.688
 2412SOL    HW2 8136   4.023   2.050   6.611
 2413SOL     OW 8137   0.398   3.250   0.174
 2413SOL    HW1 8138   0.472   3.316   0.164
 2413SOL    HW2 8139   0.409   3.176   0.107
 2414SOL     OW 8140   6.095   2.220   4.916
 2414SOL    HW1 8141   6.129   2.203   5.009
 2414SOL    HW2 8142   6.027   2.294   4.919
 2415SOL     OW 8143   2.748   5.735   0.075
 2415SOL    HW1 8144   2.727   5.823   0.033
 2415SOL    HW2 8145   2.727   5.738   0.173
 2416SOL     OW 8146   0.383   3.533   2.441
 2416SOL    HW1 8147   0.319   3.604   2.409
 2416SOL    HW2 8148   0.460   3.527   2.378
 2417SOL     OW 8149   3.077   2.566   1.685
 2417SOL    HW1 8150   3.028   2.615   1.613
 2417SOL    HW2 8151   3.011   2.533   1.753
 2418SOL     OW 8152   4.768   4.126   6.968
 2418SOL    HW1 8153   4.684   4.088   7.008
 2418SOL    HW2 8154   4.833   4.147   0.017
 2419SOL     OW 8155   2.649   6.738   3.379
 2419SOL    HW1 8156   2.660   6.794   3.461
 2419SOL    HW2 8157   2.709   6.658   3.385
 2420SOL     OW 8158   1.297   4.046   2.858
 2420SOL    HW1 8159   1.211   4.094   2.840
 2420SOL    HW2 8160   1.282   3.947   2.849
 2421SOL     OW 8161   2.685   6.630   4.076
 2421SOL    HW1 8162   2.607   6.604   4.132
 2421SOL    HW2 8163   2.753   6.676   4.132
 2422SOL     OW 8164   4.760   5.732   0.984
 2422SOL    HW1 8165   4.663   5.757   0.980
 2422SOL    HW2 8166   4.796   5.755   1.074
 2423SOL     OW 8167   2.639   5.575   2.872
 2423SOL    HW1 8168   2.727   5.553   2.913
 2423SOL    HW2 8169   2.622   5.513   2.795
 2424SOL     OW 8170   5.649   0.050   6.128
 2424SOL    HW1 8171   5.598   6.999   6.086
 2424SOL    HW2 8172   5.589   0.100   6.190
 2425SOL     OW 8173   5.262   5.585   4.684
 2425SOL    HW1 8174   5.242   5.641   4.604
 2425SOL    HW2 8175   5.355   5.605   4.716
 2426SOL     OW 8176   2.127   3.173   5.488
 2426SOL    HW1 8177   2.119   3.197   5.584
 2426SOL    HW2 8178   2.202   3.108   5.475
 2427SOL     OW 8179   5.300   0.452   7.009
 2427SOL    HW1 8180   5.386   0.401   7.021
 2427SOL    HW2 8181   5.320   0.547   6.988
 2428SOL     OW 8182   1.333   0.778   3.047
 2428SOL    HW1 8183   1.328   0.710   3.121
 2428SOL    HW2 8184   1.310   0.868   3.084
 2429SOL     OW 8185   5.645   4.910   1.643
 2429SOL    HW1 8186   5.565   4.879   1.694
 2429SOL    HW2 8187   5.616   4.948   1.555
 2430SOL     OW 8188   5.819   1.296   6.556
 2430SOL    HW1 8189   5.805   1.386   6.597
 2430SOL    HW2 8190   5.771   1.226   6.610
 2431SOL     OW 8191   0.559   2.963   1.686
 2431SOL    HW1 8192   0.506   2.913   1.755
 2431SOL    HW2 8193   0.510   2.960   1.598
 2432SOL     OW 8194   2.679   5.330   1.962
 2432SOL    HW1 8195   2.696   5.370   1.872
 2432SOL    HW2 8196   2.755   5.270   1.987
 2433SOL     OW 8197   6.465   3.906   5.622
 2433SOL    HW1 8198   6.555   3.906   5.666
 2433SOL    HW2 8199   6.442   3.999   5.593
 2434SOL     OW 8200   4.471   0.573   2.615
 2434SOL    HW1 8201   4.415   0.563   2.698
 2434SOL    HW2 8202   4.528   0.654   2.623
 2435SOL     OW 8203   6.430   6.920   6.938
 2435SOL    HW1 8204   6.403   6.825   6.924
 2435SOL    HW2 8205   6.404   6.974   6.858
 2436SOL     OW 8206   1.826   2.268   1.679
 2436SOL    HW1 8207   1.815   2.348   1.620
 2436SOL    HW2 8208   1.841   2.187   1.623
 2437SOL     OW 8209   0.254   4.470   2.788
 2437SOL    HW1 8210   0.251   4.490   2.886
 2437SOL    HW2 8211   0.162   4.469   2.751
 2438SOL     OW 8212   3.342   1.220   4.482
 2438SOL    HW1 8213   3.389   1.309   4.479
 2438SOL    HW2 8214   3.258   1.225   4.428
 2439SOL     OW 8215   1.833   6.785   1.354
 2439SOL    HW1 8216   1.734   6.797   1.358
 2439SOL    HW2 8217   1.862   6.725   1.429
 2440SOL     OW 8218   5.388   1.295   5.374
 2440SOL    HW1 8219   5.407   1.359   5.299
 2440SOL    HW2 8220   5.469   1.240   5.392
 2441SOL     OW 8221   6.507   0.138   0.475
 2441SOL    HW1 8222   6.560   0.130   0.391
 2441SOL    HW2 8223   6.443   0.214   0.468
 2442SOL     OW 8224   4.841   3.362   1.751
 2442SOL    HW1 8225   4.842   3.326   1.844
 2442SOL    HW2 8226   4.805   3.293   1.688
 2443SOL     OW 8227   1.077   2.811   1.696
 2443SOL    HW1 8228   1.151   2.840   1.757
 2443SOL    HW2 8229   0.990   2.816   1.745
 2444SOL     OW 8230   3.883   5.493   2.165
 2444SOL    HW1 8231   3.794   5.527   2.197
 2444SOL    HW2 8232   3.899   5.525   2.072
 2445SOL     OW 8233   0.226   2.561   1.293
 2445SOL    HW1 8234   0.297   2.494   1.309
 2445SOL    HW2 8235   0.176   2.577   1.378
 2446SOL     OW 8236   1.447   5.074   1.501
 2446SOL    HW1 8237   1.484   5.013   1.431
 2446SOL    HW2 8238   1.513   5.147   1.520
 2447SOL     OW 8239   2.247   6.863   0.012
 2447SOL    HW1 8240   2.174   6.931   0.023
 2447SOL    HW2 8241   2.209   6.781   6.993
 2448SOL     OW 8242   6.449   1.734   4.331
 2448SOL    HW1 8243   6.510   1.774   4.399
 2448SOL    HW2 8244   6.495   1.659   4.285
 2449SOL     OW 8245   1.540   3.902   1.697
 2449SOL    HW1 8246   1.531   3.831   1.767
 2449SOL    HW2 8247   1.633   3.898   1.659
 2450SOL     OW 8248   1.476   7.010   5.951
 2450SOL    HW1 8249   1.404   0.028   6.006
 2450SOL    HW2 8250   1.546   6.970   6.011
 2451SOL     OW 8251   0.905   6.954   4.587
 2451SOL    HW1 8252   0.896   6.910   4.677
 2451SOL    HW2 8253   1.001   6.950   4.558
 2452SOL     OW 8254   2.408   1.886   3.742
 2452SOL    HW1 8255   2.463   1.822   3.796
 2452SOL    HW2 8256   2.468   1.952   3.697
 2453SOL     OW 8257   0.582   1.180   6.471
 2453SOL    HW1 8258   0.682   1.183   6.470
 2453SOL    HW2 8259   0.548   1.191   6.378
 2454SOL     OW 8260   3.306   5.703   1.281
 2454SOL    HW1 8261   3.248   5.653   1.345
 2454SOL    HW2 8262   3.307   5.655   1.193
 2455SOL     OW 8263   4.116   2.889   1.005
 2455SOL    HW1 8264   4.115   2.844   0.915
 2455SOL    HW2 8265   4.171   2.836   1.068
 2456SOL     OW 8266   0.768   4.204   6.310
 2456SOL    HW1 8267   0.734   4.112   6.328
 2456SOL    HW2 8268   0.822   4.203   6.226
 2457SOL     OW 8269   4.658   2.201   4.878
 2457SOL    HW1 8270   4.575   2.256   4.876
 2457SOL    HW2 8271   4.737   2.261   4.895
 2458SOL     OW 8272   1.249   0.759   1.844
 2458SOL    HW1 8273   1.195   0.679   1.869
 2458SOL    HW2 8274   1.263   0.816   1.925
 2459SOL     OW 8275   2.758   6.612   0.601
 2459SOL    HW1 8276   2.751   6.712   0.601
 2459SOL    HW2 8277   2.736   6.577   0.510
 2460SOL     OW 8278   1.742   0.742   4.904
 2460SOL    HW1 8279   1.647   0.730   4.930
 2460SOL    HW2 8280   1.775   0.831   4.937
 2461SOL     OW 8281   4.391   0.840   3.632
 2461SOL    HW1 8282   4.489   0.843   3.612
 2461SOL    HW2 8283   4.376   0.783   3.713
 2462SOL     OW 8284   0.327   3.635   0.639
 2462SOL    HW1 8285   0.329   3.551   0.583
 2462SOL    HW2 8286   0.263   3.700   0.599
 2463SOL     OW 8287   6.682   0.673   6.941
 2463SOL    HW1 8288   6.647   0.641   0.006
 2463SOL    HW2 8289   6.713   0.767   6.949
 2464SOL     OW 8290   0.535   2.638   3.083
 2464SOL    HW1 8291   0.498   2.610   3.172
 2464SOL    HW2 8292   0.573   2.730   3.091
 2465SOL     OW 8293   0.280   5.877   5.579
 2465SOL    HW1 8294   0.252   5.969   5.609
 2465SOL    HW2 8295   0.254   5.865   5.483
 2466SOL     OW 8296   0.803   2.587   2.152
 2466SOL    HW1 8297   0.765   2.627   2.069
 2466SOL    HW2 8298   0.735   2.593   2.226
 2467SOL     OW 8299   5.836   2.187   5.393
 2467SOL    HW1 8300   5.881   2.113   5.444
 2467SOL    HW2 8301   5.789   2.148   5.314
 2468SOL     OW 8302   3.261   6.805   5.578
 2468SOL    HW1 8303   3.322   6.750   5.634
 2468SOL    HW2 8304   3.171   6.762   5.576
 2469SOL     OW 8305   3.459   2.535   5.657
 2469SOL    HW1 8306   3.419   2.604   5.718
 2469SOL    HW2 8307   3.448   2.444   5.697
 2470SOL     OW 8308   3.130   4.643   6.037
 2470SOL    HW1 8309   3.111   4.679   5.946
 2470SOL    HW2 8310   3.205   4.577   6.032
 2471SOL     OW 8311   3.471   5.645   2.019
 2471SOL    HW1 8312   3.463   5.599   1.931
 2471SOL    HW2 8313   3.499   5.740   2.005
 2472SOL     OW 8314   4.780   1.827   4.513
 2472SOL    HW1 8315   4.730   1.741   4.511
 2472SOL    HW2 8316   4.869   1.814   4.470
 2473SOL     OW 8317   0.499   4.604   5.073
 2473SOL    HW1 8318   0.469   4.679   5.131
 2473SOL    HW2 8319   0.469   4.517   5.112
 2474SOL     OW 8320   1.739   5.701   1.720
 2474SOL    HW1 8321   1.689   5.787   1.715
 2474SOL    HW2 8322   1.830   5.717   1.757
 2475SOL     OW 8323   5.042   0.528   0.933
 2475SOL    HW1 8324   4.980   0.556   0.860
 2475SOL    HW2 8325   5.081   0.438   0.911
 2476SOL     OW 8326   5.540   0.345   0.027
 2476SOL    HW1 8327   5.562   0.436   0.060
 2476SOL    HW2 8328   5.571   0.277   0.093
 2477SOL     OW 8329   3.492   0.159   3.339
 2477SOL    HW1 8330   3.462   0.104   3.417
 2477SOL    HW2 8331   3.434   0.239   3.330
 2478SOL     OW 8332   4.499   0.588   3.507
 2478SOL    HW1 8333   4.423   0.649   3.528
 2478SOL    HW2 8334   4.481   0.498   3.546
 2479SOL     OW 8335   0.464   3.679   0.291
 2479SOL    HW1 8336   0.413   3.752   0.246
 2479SOL    HW2 8337   0.535   3.718   0.349
 2480SOL     OW 8338   3.243   2.505   1.361
 2480SOL    HW1 8339   3.270   2.421   1.313
 2480SOL    HW2 8340   3.283   2.505   1.453
 2481SOL     OW 8341   3.420   0.087   1.039
 2481SOL    HW1 8342   3.499   0.100   1.099
 2481SOL    HW2 8343   3.385   7.018   1.048
 2482SOL     OW 8344   5.418   3.358   0.082
 2482SOL    HW1 8345   5.476   3.284   0.117
 2482SOL    HW2 8346   5.417   3.355   7.006
 2483SOL     OW 8347   1.057   2.133   1.099
 2483SOL    HW1 8348   0.979   2.189   1.070
 2483SOL    HW2 8349   1.041   2.038   1.072
 2484SOL     OW 8350   5.409   1.537   1.736
 2484SOL    HW1 8351   5.418   1.533   1.836
 2484SOL    HW2 8352   5.467   1.466   1.695
 2485SOL     OW 8353   5.449   2.567   6.320
 2485SOL    HW1 8354   5.497   2.496   6.371
 2485SOL    HW2 8355   5.443   2.542   6.224
 2486SOL     OW 8356   0.772   3.878   5.279
 2486SOL    HW1 8357   0.735   3.838   5.195
 2486SOL    HW2 8358   0.856   3.927   5.258
 2487SOL     OW 8359   4.574   5.984   0.499
 2487SOL    HW1 8360   4.492   5.982   0.442
 2487SOL    HW2 8361   4.572   5.906   0.562
 2488SOL     OW 8362   6.676   3.874   1.449
 2488SOL    HW1 8363   6.723   3.873   1.537
 2488SOL    HW2 8364   6.713   3.946   1.391
 2489SOL     OW 8365   0.389   6.258   4.322
 2489SOL    HW1 8366   0.394   6.257   4.422
 2489SOL    HW2 8367   0.472   6.297   4.284
 2490SOL     OW 8368   3.221   6.340   2.025
 2490SOL    HW1 8369   3.211   6.401   1.946
 2490SOL    HW2 8370   3.242   6.247   1.993
 2491SOL     OW 8371   3.853   4.506   1.666
 2491SOL    HW1 8372   3.941   4.499   1.714
 2491SOL    HW2 8373   3.864   4.471   1.573
 2492SOL     OW 8374   6.422   4.187   0.869
 2492SOL    HW1 8375   6.422   4.151   0.962
 2492SOL    HW2 8376   6.477   4.127   0.811
 2493SOL     OW 8377   0.082   6.281   1.854
 2493SOL    HW1 8378   0.042   6.344   1.921
 2493SOL    HW2 8379   0.111   6.197   1.901
 2494SOL     OW 8380   5.910   2.998   1.537
 2494SOL    HW1 8381   5.917   2.932   1.612
 2494SOL    HW2 8382   5.920   2.950   1.450
 2495SOL     OW 8383   6.626   4.941   3.914
 2495SOL    HW1 8384   6.625   4.994   3.999
 2495SOL    HW2 8385   6.594   5.000   3.839
 2496SOL     OW 8386   6.540   5.071   6.489
 2496SOL    HW1 8387   6.493   4.997   6.536
 2496SOL    HW2 8388   6.544   5.052   6.391
 2497SOL     OW 8389   0.266   6.918   2.124
 2497SOL    HW1 8390   0.334   6.955   2.060
 2497SOL    HW2 8391   0.262   6.976   2.205
 2498SOL     OW 8392   2.247   2.563   5.655
 2498SOL    HW1 8393   2.237   2.662   5.668
 2498SOL    HW2 8394   2.170   2.529   5.601
 2499SOL     OW 8395   6.615   3.389   1.216
 2499SOL    HW1 8396   6.670   3.468   1.193
 2499SOL    HW2 8397   6.518   3.414   1.213
 2500SOL     OW 8398   3.063   4.003   6.817
 2500SOL    HW1 8399   2.992   4.066   6.786
 2500SOL    HW2 8400   3.146   4.055   6.839
 2501SOL     OW 8401   6.046   5.213   0.325
 2501SOL    HW1 8402   6.124   5.205   0.386
 2501SOL    HW2 8403   5.961   5.212   0.378
 2502SOL     OW 8404   3.078   5.472   4.210
 2502SOL    HW1 8405   3.123   5.514   4.132
 2502SOL    HW2 8406   3.029   5.390   4.180
 2503SOL     OW 8407   2.703   6.972   5.202
 2503SOL    HW1 8408   2.734   6.893   5.149
 2503SOL    HW2 8409   2.766   6.988   5.278
 2504SOL     OW 8410   3.256   5.337   2.382
 2504SOL    HW1 8411   3.167   5.372   2.354
 2504SOL    HW2 8412   3.326   5.365   2.316
 2505SOL     OW 8413   6.730   6.086   2.966
 2505SOL    HW1 8414   6.814   6.108   3.016
 2505SOL    HW2 8415   6.685   6.007   3.009
 2506SOL     OW 8416   5.679   4.852   5.529
 2506SOL    HW1 8417   5.639   4.839   5.438
 2506SOL    HW2 8418   5.777   4.869   5.519
 2507SOL     OW 8419   0.217   3.043   0.711
 2507SOL    HW1 8420   0.120   3.020   0.707
 2507SOL    HW2 8421   0.231   3.135   0.675
 2508SOL     OW 8422   3.792   1.792   4.576
 2508SOL    HW1 8423   3.791   1.706   4.526
 2508SOL    HW2 8424   3.723   1.854   4.538
 2509SOL     OW 8425   6.644   3.738   6.177
 2509SOL    HW1 8426   6.698   3.733   6.093
 2509SOL    HW2 8427   6.564   3.678   6.168
 2510SOL     OW 8428   3.116   4.019   1.831
 2510SOL    HW1 8429   3.034   3.967   1.858
 2510SOL    HW2 8430   3.092   4.115   1.817
 2511SOL     OW 8431   2.865   0.864   5.128
 2511SOL    HW1 8432   2.851   0.954   5.086
 2511SOL    HW2 8433   2.776   0.821   5.144
 2512SOL     OW 8434   3.874   4.961   4.732
 2512SOL    HW1 8435   3.946   4.941   4.798
 2512SOL    HW2 8436   3.867   4.887   4.665
 2513SOL     OW 8437   2.385   6.105   6.295
 2513SOL    HW1 8438   2.476   6.117   6.335
 2513SOL    HW2 8439   2.317   6.154   6.351
 2514SOL     OW 8440   1.206   2.934   3.179
 2514SOL    HW1 8441   1.255   2.859   3.223
 2514SOL    HW2 8442   1.233   2.939   3.083
 2515SOL     OW 8443   2.362   1.311   1.001
 2515SOL    HW1 8444   2.395   1.352   1.086
 2515SOL    HW2 8445   2.332   1.217   1.020
 2516SOL     OW 8446   5.602   1.565   3.338
 2516SOL    HW1 8447   5.667   1.641   3.333
 2516SOL    HW2 8448   5.619   1.502   3.263
 2517SOL     OW 8449   1.129   0.662   4.517
 2517SOL    HW1 8450   1.155   0.733   4.451
 2517SOL    HW2 8451   1.094   0.582   4.468
 2518SOL     OW 8452   2.911   4.597   1.191
 2518SOL    HW1 8453   2.875   4.540   1.264
 2518SOL    HW2 8454   2.879   4.691   1.203
 2519SOL     OW 8455   2.587   1.230   0.838
 2519SOL    HW1 8456   2.544   1.286   0.909
 2519SOL    HW2 8457   2.668   1.185   0.876
 2520SOL     OW 8458   3.305   2.742   1.258
 2520SOL    HW1 8459   3.237   2.794   1.207
 2520SOL    HW2 8460   3.264   2.658   1.292
 2521SOL     OW 8461   4.173   1.421   5.312
 2521SOL    HW1 8462   4.255   1.418   5.368
 2521SOL    HW2 8463   4.108   1.351   5.343
 2522SOL     OW 8464   0.952   1.177   5.603
 2522SOL    HW1 8465   0.929   1.093   5.653
 2522SOL    HW2 8466   0.907   1.255   5.646
 2523SOL     OW 8467   1.785   4.281   7.008
 2523SOL    HW1 8468   1.706   4.279   6.947
 2523SOL    HW2 8469   1.861   4.231   6.966
 2524SOL     OW 8470   1.525   6.754   4.295
 2524SOL    HW1 8471   1.556   6.674   4.345
 2524SOL    HW2 8472   1.426   6.753   4.288
 2525SOL     OW 8473   0.766   2.714   4.299
 2525SOL    HW1 8474   0.861   2.737   4.320
 2525SOL    HW2 8475   0.744   2.627   4.343
 2526SOL     OW 8476   1.031   5.396   6.817
 2526SOL    HW1 8477   0.985   5.344   6.889
 2526SOL    HW2 8478   1.082   5.471   6.858
 2527SOL     OW 8479   5.123   5.461   6.261
 2527SOL    HW1 8480   5.166   5.526   6.325
 2527SOL    HW2 8481   5.060   5.402   6.311
 2528SOL     OW 8482   5.076   5.190   6.156
 2528SOL    HW1 8483   5.052   5.273   6.106
 2528SOL    HW2 8484   5.005   5.169   6.223
 2529SOL     OW 8485   0.504   6.689   6.159
 2529SOL    HW1 8486   0.523   6.666   6.254
 2529SOL    HW2 8487   0.479   6.786   6.152
 2530SOL     OW 8488   2.685   5.540   5.398
 2530SOL    HW1 8489   2.658   5.484   5.476
 2530SOL    HW2 8490   2.721   5.480   5.326
 2531SOL     OW 8491   6.491   5.761   5.921
 2531SOL    HW1 8492   6.571   5.794   5.871
 2531SOL    HW2 8493   6.465   5.671   5.887
 2532SOL     OW 8494   0.889   6.388   1.058
 2532SOL    HW1 8495   0.845   6.307   1.096
 2532SOL    HW2 8496   0.987   6.371   1.047
 2533SOL     OW 8497   5.180   0.799   3.119
 2533SOL    HW1 8498   5.276   0.774   3.107
 2533SOL    HW2 8499   5.154   0.789   3.215
 2534SOL     OW 8500   4.578   1.837   1.974
 2534SOL    HW1 8501   4.517   1.888   2.035
 2534SOL    HW2 8502   4.568   1.870   1.880
 2535SOL     OW 8503   3.434   2.518   6.182
 2535SOL    HW1 8504   3.423   2.500   6.280
 2535SOL    HW2 8505   3.531   2.523   6.160
 2536SOL     OW 8506   1.801   0.732   6.618
 2536SOL    HW1 8507   1.843   0.792   6.550
 2536SOL    HW2 8508   1.701   0.733   6.606
 2537SOL     OW 8509   4.161   0.950   6.996
 2537SOL    HW1 8510   4.079   1.004   7.015
 2537SOL    HW2 8511   4.235   0.979   0.033
 2538SOL     OW 8512   6.790   3.582   3.961
 2538SOL    HW1 8513   6.732   3.512   3.920
 2538SOL    HW2 8514   6.795   3.662   3.901
 2539SOL     OW 8515   5.871   1.209   4.213
 2539SOL    HW1 8516   5.881   1.127   4.156
 2539SOL    HW2 8517   5.946   1.273   4.192
 2540SOL     OW 8518   3.857   1.733   3.265
 2540SOL    HW1 8519   3.914   1.810   3.236
 2540SOL    HW2 8520   3.784   1.767   3.325
 2541SOL     OW 8521   3.160   0.125   5.198
 2541SOL    HW1 8522   3.081   0.184   5.181
 2541SOL    HW2 8523   3.145   0.074   5.283
 2542SOL     OW 8524   1.486   4.483   6.571
 2542SOL    HW1 8525   1.406   4.424   6.579
 2542SOL    HW2 8526   1.457   4.577   6.558
 2543SOL     OW 8527   0.957   2.288   4.209
 2543SOL    HW1 8528   0.997   2.345   4.280
 2543SOL    HW2 8529   0.887   2.340   4.160
 2544SOL     OW 8530   1.064   4.839   0.639
 2544SOL    HW1 8531   1.090   4.755   0.592
 2544SOL    HW2 8532   1.120   4.850   0.721
 2545SOL     OW 8533   1.553   6.679   2.759
 2545SOL    HW1 8534   1.556   6.579   2.765
 2545SOL    HW2 8535   1.600   6.718   2.839
 2546SOL     OW 8536   5.903   1.177   0.802
 2546SOL    HW1 8537   5.997   1.201   0.776
 2546SOL    HW2 8538   5.842   1.254   0.781
 2547SOL     OW 8539   6.814   3.782   5.949
 2547SOL    HW1 8540   6.902   3.827   5.966
 2547SOL    HW2 8541   6.824   3.716   5.874
 2548SOL     OW 8542   0.251   6.470   4.201
 2548SOL    HW1 8543   0.242   6.459   4.102
 2548SOL    HW2 8544   0.282   6.384   4.242
 2549SOL     OW 8545   0.672   0.108   1.585
 2549SOL    HW1 8546   0.660   0.194   1.635
 2549SOL    HW2 8547   0.585   0.081   1.544
 2550SOL     OW 8548   5.765   6.486   0.589
 2550SOL    HW1 8549   5.715   6.432   0.656
 2550SOL    HW2 8550   5.748   6.450   0.497
 2551SOL     OW 8551   2.330   4.276   6.676
 2551SOL    HW1 8552   2.322   4.210   6.751
 2551SOL    HW2 8553   2.255   4.342   6.683
 2552SOL     OW 8554   3.009   4.843   3.676
 2552SOL    HW1 8555   2.912   4.855   3.696
 2552SOL    HW2 8556   3.055   4.803   3.756
 2553SOL     OW 8557   4.307   3.963   6.105
 2553SOL    HW1 8558   4.352   4.052   6.114
 2553SOL    HW2 8559   4.308   3.936   6.009
 2554SOL     OW 8560   1.789   1.708   0.808
 2554SOL    HW1 8561   1.843   1.672   0.733
 2554SOL    HW2 8562   1.692   1.701   0.785
 2555SOL     OW 8563   5.271   2.998   5.124
 2555SOL    HW1 8564   5.322   2.924   5.080
 2555SOL    HW2 8565   5.323   3.083   5.118
 2556SOL     OW 8566   3.868   6.043   0.754
 2556SOL    HW1 8567   3.913   6.038   0.665
 2556SOL    HW2 8568   3.873   5.954   0.799
 2557SOL     OW 8569   2.017   3.984   6.398
 2557SOL    HW1 8570   2.025   3.964   6.301
 2557SOL    HW2 8571   2.080   4.057   6.423
 2558SOL     OW 8572   5.015   1.168   5.672
 2558SOL    HW1 8573   5.072   1.208   5.600
 2558SOL    HW2 8574   4.923   1.150   5.636
 2559SOL     OW 8575   0.311   4.759   5.633
 2559SOL    HW1 8576   0.228   4.759   5.688
 2559SOL    HW2 8577   0.319   4.672   5.584
 2560SOL     OW 8578   5.895   2.075   5.910
 2560SOL    HW1 8579   5.815   2.063   5.969
 2560SOL    HW2 8580   5.964   2.006   5.933
 2561SOL     OW 8581   3.090   5.420   4.859
 2561SOL    HW1 8582   3.069   5.329   4.893
 2561SOL    HW2 8583   3.177   5.418   4.809
 2562SOL     OW 8584   1.900   3.743   0.326
 2562SOL    HW1 8585   1.847   3.761   0.409
 2562SOL    HW2 8586   1.903   3.826   0.270
 2563SOL     OW 8587   2.458   1.275   6.925
 2563SOL    HW1 8588   2.543   1.236   6.962
 2563SOL    HW2 8589   2.442   1.365   6.967
 2564SOL     OW 8590   2.443   5.238   1.279
 2564SOL    HW1 8591   2.453   5.220   1.376
 2564SOL    HW2 8592   2.387   5.320   1.266
 2565SOL     OW 8593   1.459   0.857   1.162
 2565SOL    HW1 8594   1.519   0.781   1.137
 2565SOL    HW2 8595   1.483   0.938   1.109
 2566SOL     OW 8596   2.149   6.570   6.992
 2566SOL    HW1 8597   2.068   6.600   6.942
 2566SOL    HW2 8598   2.133   6.582   0.066
 2567SOL     OW 8599   1.771   0.039   0.597
 2567SOL    HW1 8600   1.712   0.109   0.557
 2567SOL    HW2 8601   1.808   0.072   0.684
 2568SOL     OW 8602   4.434   1.855   0.024
 2568SOL    HW1 8603   4.357   1.836   0.085
 2568SOL    HW2 8604   4.410   1.830   6.954
 2569SOL     OW 8605   3.752   0.517   3.805
 2569SOL    HW1 8606   3.713   0.442   3.751
 2569SOL    HW2 8607   3.744   0.495   3.902
 2570SOL     OW 8608   5.806   1.658   5.538
 2570SOL    HW1 8609   5.760   1.702   5.461
 2570SOL    HW2 8610   5.885   1.607   5.505
 2571SOL     OW 8611   1.149   5.022   4.133
 2571SOL    HW1 8612   1.076   4.980   4.187
 2571SOL    HW2 8613   1.229   4.963   4.134
 2572SOL     OW 8614   3.225   5.267   2.641
 2572SOL    HW1 8615   3.150   5.204   2.658
 2572SOL    HW2 8616   3.235   5.282   2.543
 2573SOL     OW 8617   6.979   1.136   1.404
 2573SOL    HW1 8618   6.938   1.061   1.352
 2573SOL    HW2 8619   6.962   1.123   1.501
 2574SOL     OW 8620   6.038   3.446   0.507
 2574SOL    HW1 8621   6.121   3.407   0.546
 2574SOL    HW2 8622   5.994   3.506   0.574
 2575SOL     OW 8623   6.853   5.851   6.948
 2575SOL    HW1 8624   6.851   5.920   6.876
 2575SOL    HW2 8625   6.763   5.844   6.991
 2576SOL     OW 8626   5.117   6.304   3.699
 2576SOL    HW1 8627   5.069   6.243   3.636
 2576SOL    HW2 8628   5.058   6.326   3.776
 2577SOL     OW 8629   3.037   4.875   2.519
 2577SOL    HW1 8630   3.039   4.818   2.437
 2577SOL    HW2 8631   3.129   4.879   2.558
 2578SOL     OW 8632   3.557   1.596   4.029
 2578SOL    HW1 8633   3.634   1.641   4.074
 2578SOL    HW2 8634   3.510   1.536   4.093
 2579SOL     OW 8635   0.897   6.966   3.738
 2579SOL    HW1 8636   0.951   0.011   3.787
 2579SOL    HW2 8637   0.853   6.905   3.804
 2580SOL     OW 8638   2.402   3.229   0.296
 2580SOL    HW1 8639   2.402   3.180   0.208
 2580SOL    HW2 8640   2.495   3.229   0.333
 2581SOL     OW 8641   2.652   6.996   5.649
 2581SOL    HW1 8642   2.733   6.943   5.676
 2581SOL    HW2 8643   2.583   6.989   5.720
 2582SOL     OW 8644   6.871   3.573   1.206
 2582SOL    HW1 8645   6.893   3.605   1.298
 2582SOL    HW2 8646   6.932   3.497   1.182
 2583SOL     OW 8647   6.284   6.674   0.768
 2583SOL    HW1 8648   6.309   6.633   0.856
 2583SOL    HW2 8649   6.189   6.650   0.747
 2584SOL     OW 8650   4.582   4.806   5.618
 2584SOL    HW1 8651   4.606   4.774   5.709
 2584SOL    HW2 8652   4.613   4.739   5.550
 2585SOL     OW 8653   3.565   5.483   6.584
 2585SOL    HW1 8654   3.635   5.542   6.545
 2585SOL    HW2 8655   3.532   5.521   6.670
 2586SOL     OW 8656   1.837   0.252   5.241
 2586SOL    HW1 8657   1.859   0.314   5.316
 2586SOL    HW2 8658   1.760   0.290   5.189
 2587SOL     OW 8659   0.257   1.651   2.874
 2587SOL    HW1 8660   0.177   1.705   2.898
 2587SOL    HW2 8661   0.340   1.703   2.896
 2588SOL     OW 8662   4.258   1.780   5.102
 2588SOL    HW1 8663   4.324   1.855   5.093
 2588SOL    HW2 8664   4.243   1.737   5.013
 2589SOL     OW 8665   1.305   6.884   6.948
 2589SOL    HW1 8666   1.316   6.787   6.971
 2589SOL    HW2 8667   1.307   6.895   6.849
 2590SOL     OW 8668   2.598   5.112   6.995
 2590SOL    HW1 8669   2.692   5.093   0.001
 2590SOL    HW2 8670   2.599   5.180   6.921
 2591SOL     OW 8671   6.208   5.509   4.615
 2591SOL    HW1 8672   6.283   5.448   4.586
 2591SOL    HW2 8673   6.211   5.522   4.714
 2592SOL     OW 8674   2.805   4.609   6.546
 2592SOL    HW1 8675   2.736   4.567   6.605
 2592SOL    HW2 8676   2.843   4.690   6.592
 2593SOL     OW 8677   2.494   5.100   0.618
 2593SOL    HW1 8678   2.396   5.113   0.599
 2593SOL    HW2 8679   2.524   5.169   0.684
 2594SOL     OW 8680   1.493   4.509   4.551
 2594SOL    HW1 8681   1.528   4.453   4.625
 2594SOL    HW2 8682   1.538   4.483   4.465
 2595SOL     OW 8683   1.769   0.740   4.142
 2595SOL    HW1 8684   1.747   0.653   4.097
 2595SOL    HW2 8685   1.854   0.776   4.103
 2596SOL     OW 8686   0.871   2.234   0.566
 2596SOL    HW1 8687   0.861   2.326   0.528
 2596SOL    HW2 8688   0.945   2.234   0.633
 2597SOL     OW 8689   0.461   6.261   6.237
 2597SOL    HW1 8690   0.413   6.348   6.225
 2597SOL    HW2 8691   0.482   6.222   6.147
 2598SOL     OW 8692   5.095   2.466   2.477
 2598SOL    HW1 8693   4.999   2.438   2.472
 2598SOL    HW2 8694   5.139   2.447   2.389
 2599SOL     OW 8695   2.740   0.056   2.433
 2599SOL    HW1 8696   2.764   6.988   2.403
 2599SOL    HW2 8697   2.719   0.112   2.353
 2600SOL     OW 8698   6.157   4.297   4.472
 2600SOL    HW1 8699   6.064   4.306   4.437
 2600SOL    HW2 8700   6.170   4.204   4.507
 2601SOL     OW 8701   1.340   1.894   2.677
 2601SOL    HW1 8702   1.350   1.897   2.577
 2601SOL    HW2 8703   1.371   1.980   2.716
 2602SOL     OW 8704   1.757   5.035   4.212
 2602SOL    HW1 8705   1.856   5.050   4.214
 2602SOL    HW2 8706   1.723   5.023   4.306
 2603SOL     OW 8707   2.979   1.059   2.899
 2603SOL    HW1 8708   2.910   1.101   2.841
 2603SOL    HW2 8709   3.070   1.082   2.865
 2604SOL     OW 8710   5.505   2.155   2.830
 2604SOL    HW1 8711   5.423   2.175   2.884
 2604SOL    HW2 8712   5.531   2.237   2.779
 2605SOL     OW 8713   1.268   3.853   1.783
 2605SOL    HW1 8714   1.352   3.899   1.755
 2605SOL    HW2 8715   1.237   3.890   1.871
 2606SOL     OW 8716   4.181   4.091   0.881
 2606SOL    HW1 8717   4.095   4.140   0.897
 2606SOL    HW2 8718   4.163   4.008   0.828
 2607SOL     OW 8719   2.601   1.885   0.620
 2607SOL    HW1 8720   2.589   1.816   0.692
 2607SOL    HW2 8721   2.558   1.970   0.648
 2608SOL     OW 8722   3.239   5.607   6.625
 2608SOL    HW1 8723   3.173   5.616   6.550
 2608SOL    HW2 8724   3.207   5.538   6.690
 2609SOL     OW 8725   0.638   0.277   1.286
 2609SOL    HW1 8726   0.637   0.185   1.325
 2609SOL    HW2 8727   0.643   0.345   1.359
 2610SOL     OW 8728   1.410   4.755   4.443
 2610SOL    HW1 8729   1.428   4.658   4.458
 2610SOL    HW2 8730   1.424   4.805   4.528
 2611SOL     OW 8731   5.271   6.392   6.515
 2611SOL    HW1 8732   5.266   6.388   6.615
 2611SOL    HW2 8733   5.230   6.478   6.484
 2612SOL     OW 8734   5.747   0.373   5.494
 2612SOL    HW1 8735   5.697   0.427   5.562
 2612SOL    HW2 8736   5.818   0.319   5.540
 2613SOL     OW 8737   0.800   6.054   6.869
 2613SOL    HW1 8738   0.725   6.092   6.815
 2613SOL    HW2 8739   0.778   5.959   6.893
 2614SOL     OW 8740   6.676   1.034   6.413
 2614SOL    HW1 8741   6.727   0.981   6.482
 2614SOL    HW2 8742   6.732   1.044   6.331
 2615SOL     OW 8743   1.123   3.029   0.382
 2615SOL    HW1 8744   1.067   3.012   0.300
 2615SOL    HW2 8745   1.068   3.077   0.450
 2616SOL     OW 8746   1.595   0.249   5.645
 2616SOL    HW1 8747   1.551   0.197   5.572
 2616SOL    HW2 8748   1.690   0.217   5.656
 2617SOL     OW 8749   5.403   6.902   1.021
 2617SOL    HW1 8750   5.374   6.961   1.096
 2617SOL    HW2 8751   5.325   6.880   0.964
 2618SOL     OW 8752   2.068   6.558   6.143
 2618SOL    HW1 8753   2.136   6.520   6.207
 2618SOL    HW2 8754   2.007   6.619   6.193
 2619SOL     OW 8755   5.228   1.295   2.308
 2619SOL    HW1 8756   5.151   1.332   2.361
 2619SOL    HW2 8757   5.209   1.307   2.210
 2620SOL     OW 8758   6.827   6.625   1.568
 2620SOL    HW1 8759   6.841   6.664   1.477
 2620SOL    HW2 8760   6.818   6.526   1.561
 2621SOL     OW 8761   1.662   5.746   2.763
 2621SOL    HW1 8762   1.644   5.701   2.851
 2621SOL    HW2 8763   1.741   5.704   2.720
 2622SOL     OW 8764   3.444   3.276   6.195
 2622SOL    HW1 8765   3.492   3.194   6.162
 2622SOL    HW2 8766   3.508   3.334   6.245
 2623SOL     OW 8767   0.998   6.569   3.989
 2623SOL    HW1 8768   1.009   6.639   3.919
 2623SOL    HW2 8769   1.010   6.610   4.079
 2624SOL     OW 8770   0.190   2.447   4.392
 2624SOL    HW1 8771   0.124   2.512   4.354
 2624SOL    HW2 8772   0.280   2.491   4.398
 2625SOL     OW 8773   1.561   5.112   5.149
 2625SOL    HW1 8774   1.589   5.089   5.056
 2625SOL    HW2 8775   1.474   5.162   5.146
 2626SOL     OW 8776   6.820   5.062   6.201
 2626SOL    HW1 8777   6.755   5.136   6.219
 2626SOL    HW2 8778   6.901   5.074   6.258
 2627SOL     OW 8779   1.759   6.770   5.720
 2627SOL    HW1 8780   1.684   6.835   5.734
 2627SOL    HW2 8781   1.779   6.763   5.622
 2628SOL     OW 8782   1.845   4.395   2.080
 2628SOL    HW1 8783   1.837   4.494   2.095
 2628SOL    HW2 8784   1.835   4.347   2.167
 2629SOL     OW 8785   3.055   3.973   3.605
 2629SOL    HW1 8786   3.017   3.944   3.517
 2629SOL    HW2 8787   3.033   3.905   3.675
 2630SOL     OW 8788   4.307   0.546   4.335
 2630SOL    HW1 8789   4.230   0.593   4.377
 2630SOL    HW2 8790   4.344   0.478   4.398
 2631SOL     OW 8791   5.701   1.026   0.392
 2631SOL    HW1 8792   5.645   1.094   0.439
 2631SOL    HW2 8793   5.643   0.949   0.364
 2632SOL     OW 8794   5.624   4.773   2.076
 2632SOL    HW1 8795   5.691   4.703   2.101
 2632SOL    HW2 8796   5.575   4.803   2.157
 2633SOL     OW 8797   0.197   3.074   6.320
 2633SOL    HW1 8798   0.256   3.098   6.397
 2633SOL    HW2 8799   0.115   3.027   6.354
 2634SOL     OW 8800   6.089   0.343   5.460
 2634SOL    HW1 8801   6.079   0.418   5.396
 2634SOL    HW2 8802   6.186   0.324   5.476
 2635SOL     OW 8803   5.782   5.077   3.776
 2635SOL    HW1 8804   5.878   5.071   3.802
 2635SOL    HW2 8805   5.750   5.171   3.787
 2636SOL     OW 8806   4.424   6.895   5.622
 2636SOL    HW1 8807   4.497   6.870   5.686
 2636SOL    HW2 8808   4.358   6.821   5.616
 2637SOL     OW 8809   1.389   1.816   3.283
 2637SOL    HW1 8810   1.426   1.891   3.337
 2637SOL    HW2 8811   1.417   1.826   3.188
 2638SOL     OW 8812   1.084   6.606   4.250
 2638SOL    HW1 8813   1.140   6.570   4.324
 2638SOL    HW2 8814   1.061   6.702   4.269
 2639SOL     OW 8815   4.083   4.749   5.225
 2639SOL    HW1 8816   4.036   4.777   5.309
 2639SOL    HW2 8817   4.063   4.814   5.152
 2640SOL     OW 8818   1.404   6.253   4.701
 2640SOL    HW1 8819   1.314   6.263   4.743
 2640SOL    HW2 8820   1.399   6.187   4.626
 2641SOL     OW 8821   5.561   2.636   6.831
 2641SOL    HW1 8822   5.636   2.645   6.766
 2641SOL    HW2 8823   5.474   2.633   6.782
 2642SOL     OW 8824   6.683   1.632   3.476
 2642SOL    HW1 8825   6.697   1.574   3.396
 2642SOL    HW2 8826   6.698   1.727   3.451
 2643SOL     OW 8827   1.677   4.981   3.750
 2643SOL    HW1 8828   1.648   4.898   3.702
 2643SOL    HW2 8829   1.598   5.024   3.792
 2644SOL     OW 8830   5.526   4.881   4.463
 2644SOL    HW1 8831   5.524   4.792   4.419
 2644SOL    HW2 8832   5.433   4.912   4.482
 2645SOL     OW 8833   5.093   5.449   2.865
 2645SOL    HW1 8834   5.068   5.515   2.793
 2645SOL    HW2 8835   5.011   5.406   2.901
 2646SOL     OW 8836   0.231   3.244   6.126
 2646SOL    HW1 8837   0.210   3.166   6.184
 2646SOL    HW2 8838   0.267   3.212   6.038
 2647SOL     OW 8839   5.222   0.731   1.495
 2647SOL    HW1 8840   5.254   0.774   1.579
 2647SOL    HW2 8841   5.122   0.731   1.493
 2648SOL     OW 8842   0.829   6.837   5.989
 2648SOL    HW1 8843   0.925   6.809   5.986
 2648SOL    HW2 8844   0.813   6.893   6.070
 2649SOL     OW 8845   5.558   2.525   1.691
 2649SOL    HW1 8846   5.554   2.556   1.786
 2649SOL    HW2 8847   5.492   2.451   1.677
 2650SOL     OW 8848   3.434   6.464   4.136
 2650SOL    HW1 8849   3.420   6.559   4.162
 2650SOL    HW2 8850   3.349   6.413   4.149
 2651SOL     OW 8851   3.953   2.083   5.046
 2651SOL    HW1 8852   4.041   2.125   5.070
 2651SOL    HW2 8853   3.920   2.122   4.961
 2652SOL     OW 8854   4.907   4.880   5.917
 2652SOL    HW1 8855   4.948   4.932   5.842
 2652SOL    HW2 8856   4.809   4.867   5.898
 2653SOL     OW 8857   2.691   5.766   0.347
 2653SOL    HW1 8858   2.775   5.807   0.383
 2653SOL    HW2 8859   2.613   5.795   0.403
 2654SOL     OW 8860   6.167   0.550   0.929
 2654SOL    HW1 8861   6.144   0.630   0.874
 2654SOL    HW2 8862   6.160   0.574   1.026
 2655SOL     OW 8863   4.516   6.028   2.530
 2655SOL    HW1 8864   4.442   6.081   2.572
 2655SOL    HW2 8865   4.528   6.058   2.435
 2656SOL     OW 8866   3.971   6.073   3.055
 2656SOL    HW1 8867   3.892   6.049   3.112
 2656SOL    HW2 8868   4.053   6.079   3.113
 2657SOL     OW 8869   1.267   3.915   6.960
 2657SOL    HW1 8870   1.324   3.838   6.932
 2657SOL    HW2 8871   1.207   3.887   0.011
 2658SOL     OW 8872   4.193   5.284   6.641
 2658SOL    HW1 8873   4.277   5.254   6.687
 2658SOL    HW2 8874   4.126   5.211   6.643
 2659SOL     OW 8875   0.099   2.098   4.565
 2659SOL    HW1 8876   0.165   2.171   4.582
 2659SOL    HW2 8877   0.109   2.027   4.635
 2660SOL     OW 8878   1.069   1.725   1.778
 2660SOL    HW1 8879   1.047   1.648   1.839
 2660SOL    HW2 8880   1.164   1.717   1.748
 2661SOL     OW 8881   1.609   1.030   0.272
 2661SOL    HW1 8882   1.707   1.010   0.271
 2661SOL    HW2 8883   1.568   0.993   0.356
 2662SOL     OW 8884   2.680   0.779   2.158
 2662SOL    HW1 8885   2.748   0.757   2.229
 2662SOL    HW2 8886   2.677   0.705   2.092
 2663SOL     OW 8887   4.541   6.697   0.608
 2663SOL    HW1 8888   4.567   6.760   0.534
 2663SOL    HW2 8889   4.520   6.607   0.570
 2664SOL     OW 8890   4.343   3.474   5.920
 2664SOL    HW1 8891   4.275   3.547   5.917
 2664SOL    HW2 8892   4.323   3.406   5.849
 2665SOL     OW 8893   2.009   3.693   4.460
 2665SOL    HW1 8894   2.083   3.759   4.470
 2665SOL    HW2 8895   2.031   3.609   4.509
 2666SOL     OW 8896   1.825   3.732   1.849
 2666SOL    HW1 8897   1.913   3.693   1.876
 2666SOL    HW2 8898   1.838   3.789   1.768
 2667SOL     OW 8899   6.306   3.781   4.534
 2667SOL    HW1 8900   6.327   3.697   4.583
 2667SOL    HW2 8901   6.378   3.801   4.468
 2668SOL     OW 8902   6.421   1.069   3.828
 2668SOL    HW1 8903   6.336   1.028   3.794
 2668SOL    HW2 8904   6.472   1.108   3.752
 2669SOL     OW 8905   2.391   0.636   0.331
 2669SOL    HW1 8906   2.470   0.667   0.385
 2669SOL    HW2 8907   2.367   0.543   0.359
 2670SOL     OW 8908   0.023   7.002   6.796
 2670SOL    HW1 8909   0.091   6.943   6.752
 2670SOL    HW2 8910   6.996   6.949   6.864
 2671SOL     OW 8911   4.444   4.502   6.483
 2671SOL    HW1 8912   4.462   4.429   6.417
 2671SOL    HW2 8913   4.507   4.493   6.561
 2672SOL     OW 8914   3.621   0.743   1.808
 2672SOL    HW1 8915   3.651   0.838   1.816
 2672SOL    HW2 8916   3.560   0.734   1.729
 2673SOL     OW 8917   4.376   0.490   2.877
 2673SOL    HW1 8918   4.402   0.471   2.972
 2673SOL    HW2 8919   4.319   0.572   2.874
 2674SOL     OW 8920   6.987   4.845   2.248
 2674SOL    HW1 8921   6.980   4.766   2.308
 2674SOL    HW2 8922   7.020   4.816   2.158
 2675SOL     OW 8923   5.748   7.018   3.841
 2675SOL    HW1 8924   5.842   7.023   3.807
 2675SOL    HW2 8925   5.745   0.027   3.935
 2676SOL     OW 8926   3.810   4.019   2.887
 2676SOL    HW1 8927   3.811   4.111   2.848
 2676SOL    HW2 8928   3.873   3.961   2.837
 2677SOL     OW 8929   2.307   4.823   1.388
 2677SOL    HW1 8930   2.320   4.801   1.484
 2677SOL    HW2 8931   2.295   4.922   1.378
 2678SOL     OW 8932   5.263   2.214   2.946
 2678SOL    HW1 8933   5.214   2.146   3.002
 2678SOL    HW2 8934   5.211   2.299   2.943
 2679SOL     OW 8935   2.417   4.346   3.162
 2679SOL    HW1 8936   2.510   4.319   3.138
 2679SOL    HW2 8937   2.359   4.265   3.170
 2680SOL     OW 8938   6.558   1.134   0.411
 2680SOL    HW1 8939   6.631   1.065   0.414
 2680SOL    HW2 8940   6.598   1.225   0.414
 2681SOL     OW 8941   1.921   1.989   5.159
 2681SOL    HW1 8942   1.868   1.905   5.176
 2681SOL    HW2 8943   1.992   1.969   5.092
 2682SOL     OW 8944   3.987   4.144   1.758
 2682SOL    HW1 8945   3.934   4.103   1.831
 2682SOL    HW2 8946   3.926   4.182   1.689
 2683SOL     OW 8947   2.573   4.605   2.396
 2683SOL    HW1 8948   2.629   4.651   2.465
 2683SOL    HW2 8949   2.616   4.615   2.306
 2684SOL     OW 8950   6.005   6.848   3.283
 2684SOL    HW1 8951   5.954   6.766   3.309
 2684SOL    HW2 8952   5.950   6.903   3.220
 2685SOL     OW 8953   1.642   5.782   5.518
 2685SOL    HW1 8954   1.724   5.822   5.475
 2685SOL    HW2 8955   1.574   5.853   5.533
 2686SOL     OW 8956   0.854   1.384   4.785
 2686SOL    HW1 8957   0.942   1.384   4.833
 2686SOL    HW2 8958   0.819   1.291   4.779
 2687SOL     OW 8959   3.907   1.505   1.613
 2687SOL    HW1 8960   3.987   1.513   1.673
 2687SOL    HW2 8961   3.865   1.415   1.627
 2688SOL     OW 8962   3.583   2.954   6.197
 2688SOL    HW1 8963   3.594   2.863   6.237
 2688SOL    HW2 8964   3.673   2.992   6.175
 2689SOL     OW 8965   1.146   3.473   2.951
 2689SOL    HW1 8966   1.102   3.413   3.018
 2689SOL    HW2 8967   1.102   3.562   2.952
 2690SOL     OW 8968   4.191   2.055   5.665
 2690SOL    HW1 8969   4.172   1.964   5.629
 2690SOL    HW2 8970   4.265   2.097   5.613
 2691SOL     OW 8971   6.656   4.361   3.892
 2691SOL    HW1 8972   6.754   4.360   3.909
 2691SOL    HW2 8973   6.607   4.367   3.979
 2692SOL     OW 8974   2.617   5.428   2.649
 2692SOL    HW1 8975   2.562   5.344   2.643
 2692SOL    HW2 8976   2.704   5.414   2.601
 2693SOL     OW 8977   2.170   5.569   3.271
 2693SOL    HW1 8978   2.176   5.656   3.222
 2693SOL    HW2 8979   2.150   5.496   3.206
 2694SOL     OW 8980   2.953   6.913   3.563
 2694SOL    HW1 8981   2.924   6.966   3.483
 2694SOL    HW2 8982   2.924   6.818   3.552
 2695SOL     OW 8983   0.295   5.634   3.535
 2695SOL    HW1 8984   0.278   5.654   3.438
 2695SOL    HW2 8985   0.386   5.594   3.545
 2696SOL     OW 8986   5.258   4.205   6.645
 2696SOL    HW1 8987   5.277   4.269   6.570
 2696SOL    HW2 8988   5.171   4.228   6.687
 2697SOL     OW 8989   3.880   2.235   0.005
 2697SOL    HW1 8990   3.818   2.305   6.992
 2697SOL    HW2 8991   3.833   2.183   0.076
 2698SOL     OW 8992   1.757   4.677   5.955
 2698SOL    HW1 8993   1.660   4.655   5.946
 2698SOL    HW2 8994   1.776   4.764   5.910
 2699SOL     OW 8995   3.333   6.789   2.015
 2699SOL    HW1 8996   3.387   6.726   1.960
 2699SOL    HW2 8997   3.240   6.753   2.026
 2700SOL     OW 8998   3.934   1.947   1.907
 2700SOL    HW1 8999   3.986   1.959   1.992
 2700SOL    HW2 9000   3.982   1.882   1.848
 2701SOL     OW 9001   5.417   2.978   5.586
 2701SOL    HW1 9002   5.360   2.975   5.668
 2701SOL    HW2 9003   5.361   2.960   5.506
 2702SOL     OW 9004   2.713   1.312   4.619
 2702SOL    HW1 9005   2.802   1.274   4.641
 2702SOL    HW2 9006   2.697   1.394   4.674
 2703SOL     OW 9007   1.627   6.680   2.312
 2703SOL    HW1 9008   1.611   6.643   2.220
 2703SOL    HW2 9009   1.647   6.778   2.306
 2704SOL     OW 9010   4.944   0.082   4.092
 2704SOL    HW1 9011   5.039   0.060   4.110
 2704SOL    HW2 9012   4.889   0.064   4.174
 2705SOL     OW 9013   6.902   0.190   5.266
 2705SOL    HW1 9014   6.980   0.174   5.205
 2705SOL    HW2 9015   6.884   0.108   5.320
 2706SOL     OW 9016   7.010   3.793   3.293
 2706SOL    HW1 9017   7.012   3.889   3.264
 2706SOL    HW2 9018   0.080   3.763   3.313
 2707SOL     OW 9019   3.377   0.421   3.219
 2707SOL    HW1 9020   3.445   0.363   3.174
 2707SOL    HW2 9021   3.361   0.503   3.164
 2708SOL     OW 9022   6.104   3.280   6.895
 2708SOL    HW1 9023   6.051   3.289   6.979
 2708SOL    HW2 9024   6.193   3.324   6.907
 2709SOL     OW 9025   4.467   1.191   4.557
 2709SOL    HW1 9026   4.412   1.119   4.515
 2709SOL    HW2 9027   4.564   1.172   4.543
 2710SOL     OW 9028   1.502   3.034   4.049
 2710SOL    HW1 9029   1.528   2.983   3.967
 2710SOL    HW2 9030   1.582   3.042   4.109
 2711SOL     OW 9031   3.681   1.766   2.156
 2711SOL    HW1 9032   3.654   1.860   2.134
 2711SOL    HW2 9033   3.709   1.719   2.073
 2712SOL     OW 9034   3.811   5.993   1.899
 2712SOL    HW1 9035   3.823   6.076   1.954
 2712SOL    HW2 9036   3.891   5.980   1.841
 2713SOL     OW 9037   3.522   4.779   6.552
 2713SOL    HW1 9038   3.482   4.762   6.462
 2713SOL    HW2 9039   3.489   4.710   6.617
 2714SOL     OW 9040   2.692   4.909   6.435
 2714SOL    HW1 9041   2.659   4.851   6.361
 2714SOL    HW2 9042   2.709   4.854   6.517
 2715SOL     OW 9043   4.189   0.936   0.494
 2715SOL    HW1 9044   4.120   1.007   0.511
 2715SOL    HW2 9045   4.157   0.876   0.420
 2716SOL     OW 9046   4.032   1.533   3.560
 2716SOL    HW1 9047   4.047   1.553   3.464
 2716SOL    HW2 9048   3.971   1.454   3.569
 2717SOL     OW 9049   1.066   0.723   2.929
 2717SOL    HW1 9050   1.142   0.721   2.993
 2717SOL    HW2 9051   1.075   0.803   2.869
 2718SOL     OW 9052   0.175   0.775   6.036
 2718SOL    HW1 9053   0.127   0.776   6.123
 2718SOL    HW2 9054   0.155   0.859   5.986
 2719SOL     OW 9055   2.030   3.585   2.177
 2719SOL    HW1 9056   1.985   3.513   2.229
 2719SOL    HW2 9057   2.101   3.546   2.120
 2720SOL     OW 9058   2.200   6.452   6.339
 2720SOL    HW1 9059   2.281   6.509   6.325
 2720SOL    HW2 9060   2.221   6.379   6.404
 2721SOL     OW 9061   3.247   6.093   1.952
 2721SOL    HW1 9062   3.256   6.014   1.892
 2721SOL    HW2 9063   3.300   6.077   2.036
 2722SOL     OW 9064   4.632   6.401   0.250
 2722SOL    HW1 9065   4.731   6.393   0.255
 2722SOL    HW2 9066   4.596   6.344   0.176
 2723SOL     OW 9067   3.399   6.596   6.685
 2723SOL    HW1 9068   3.375   6.511   6.731
 2723SOL    HW2 9069   3.317   6.647   6.663
 2724SOL     OW 9070   0.651   6.065   0.711
 2724SOL    HW1 9071   0.637   6.127   0.635
 2724SOL    HW2 9072   0.675   5.974   0.677
 2725SOL     OW 9073   5.859   4.122   5.363
 2725SOL    HW1 9074   5.877   4.032   5.324
 2725SOL    HW2 9075   5.943   4.176   5.363
 2726SOL     OW 9076   6.639   1.644   1.813
 2726SOL    HW1 9077   6.657   1.732   1.769
 2726SOL    HW2 9078   6.588   1.658   1.897
 2727SOL     OW 9079   1.913   4.563   4.334
 2727SOL    HW1 9080   1.944   4.655   4.311
 2727SOL    HW2 9081   1.978   4.496   4.300
 2728SOL     OW 9082   5.014   5.968   5.836
 2728SOL    HW1 9083   5.075   5.890   5.852
 2728SOL    HW2 9084   4.961   5.987   5.919
 2729SOL     OW 9085   5.239   6.174   6.362
 2729SOL    HW1 9086   5.187   6.185   6.277
 2729SOL    HW2 9087   5.248   6.263   6.407
 2730SOL     OW 9088   0.766   6.043   2.478
 2730SOL    HW1 9089   0.785   6.095   2.395
 2730SOL    HW2 9090   0.830   5.967   2.485
 2731SOL     OW 9091   3.625   3.354   3.997
 2731SOL    HW1 9092   3.567   3.388   3.922
 2731SOL    HW2 9093   3.718   3.388   3.985
 2732SOL     OW 9094   5.535   1.072   2.050
 2732SOL    HW1 9095   5.621   1.120   2.070
 2732SOL    HW2 9096   5.470   1.087   2.125
 2733SOL     OW 9097   1.028   6.787   6.754
 2733SOL    HW1 9098   0.965   6.772   6.677
 2733SOL    HW2 9099   1.051   6.884   6.760
 2734SOL     OW 9100   3.654   6.386   1.324
 2734SOL    HW1 9101   3.628   6.308   1.267
 2734SOL    HW2 9102   3.585   6.399   1.395
 2735SOL     OW 9103   0.686   1.239   1.857
 2735SOL    HW1 9104   0.744   1.200   1.786
 2735SOL    HW2 9105   0.630   1.313   1.818
 2736SOL     OW 9106   5.443   4.572   2.898
 2736SOL    HW1 9107   5.353   4.613   2.914
 2736SOL    HW2 9108   5.514   4.634   2.933
 2737SOL     OW 9109   2.591   1.660   5.916
 2737SOL    HW1 9110   2.667   1.725   5.922
 2737SOL    HW2 9111   2.510   1.700   5.958
 2738SOL     OW 9112   5.717   6.640   1.760
 2738SOL    HW1 9113   5.740   6.714   1.697
 2738SOL    HW2 9114   5.795   6.619   1.818
 2739SOL     OW 9115   0.372   5.888   1.703
 2739SOL    HW1 9116   0.289   5.917   1.751
 2739SOL    HW2 9117   0.378   5.788   1.704
 2740SOL     OW 9118   6.599   5.658   3.514
 2740SOL    HW1 9119   6.569   5.570   3.477
 2740SOL    HW2 9120   6.678   5.645   3.573
 2741SOL     OW 9121   1.225   1.457   5.129
 2741SOL    HW1 9122   1.176   1.535   5.091
 2741SOL    HW2 9123   1.209   1.452   5.227
 2742SOL     OW 9124   2.952   5.302   1.681
 2742SOL    HW1 9125   3.039   5.257   1.700
 2742SOL    HW2 9126   2.892   5.238   1.633
 2743SOL     OW 9127   5.263   3.766   2.877
 2743SOL    HW1 9128   5.201   3.722   2.941
 2743SOL    HW2 9129   5.239   3.739   2.784
 2744SOL     OW 9130   3.410   3.878   3.226
 2744SOL    HW1 9131   3.344   3.948   3.254
 2744SOL    HW2 9132   3.487   3.878   3.290
 2745SOL     OW 9133   0.531   6.865   6.685
 2745SOL    HW1 9134   0.560   6.789   6.744
 2745SOL    HW2 9135   0.432   6.874   6.689
 2746SOL     OW 9136   1.915   1.026   3.670
 2746SOL    HW1 9137   1.981   0.969   3.620
 2746SOL    HW2 9138   1.827   1.023   3.623
 2747SOL     OW 9139   3.769   5.633   0.910
 2747SOL    HW1 9140   3.822   5.580   0.976
 2747SOL    HW2 9141   3.672   5.630   0.935
 2748SOL     OW 9142   4.607   6.931   1.646
 2748SOL    HW1 9143   4.524   6.892   1.607
 2748SOL    HW2 9144   4.674   6.859   1.661
 2749SOL     OW 9145   2.628   3.282   7.017
 2749SOL    HW1 9146   2.681   3.304   0.075
 2749SOL    HW2 9147   2.541   3.242   0.021
 2750SOL     OW 9148   2.222   5.858   1.997
 2750SOL    HW1 9149   2.246   5.856   2.094
 2750SOL    HW2 9150   2.304   5.872   1.943
 2751SOL     OW 9151   6.270   3.318   0.654
 2751SOL    HW1 9152   6.310   3.401   0.692
 2751SOL    HW2 9153   6.343   3.258   0.622
 2752SOL     OW 9154   3.754   4.995   6.782
 2752SOL    HW1 9155   3.727   4.913   6.732
 2752SOL    HW2 9156   3.710   5.075   6.742
 2753SOL     OW 9157   6.365   5.815   5.645
 2753SOL    HW1 9158   6.267   5.828   5.660
 2753SOL    HW2 9159   6.396   5.877   5.573
 2754SOL     OW 9160   0.973   0.114   6.217
 2754SOL    HW1 9161   1.004   0.188   6.157
 2754SOL    HW2 9162   1.052   0.071   6.260
 2755SOL     OW 9163   2.448   0.110   2.028
 2755SOL    HW1 9164   2.523   0.143   1.971
 2755SOL    HW2 9165   2.475   0.117   2.125
 2756SOL     OW 9166   5.084   6.419   0.507
 2756SOL    HW1 9167   5.092   6.515   0.536
 2756SOL    HW2 9168   5.064   6.362   0.587
 2757SOL     OW 9169   0.681   5.086   1.359
 2757SOL    HW1 9170   0.687   5.171   1.413
 2757SOL    HW2 9171   0.587   5.053   1.359
 2758SOL     OW 9172   5.051   0.596   5.415
 2758SOL    HW1 9173   5.065   0.695   5.408
 2758SOL    HW2 9174   5.110   0.549   5.349
 2759SOL     OW 9175   5.830   5.963   5.090
 2759SOL    HW1 9176   5.809   6.055   5.123
 2759SOL    HW2 9177   5.880   5.913   5.160
 2760SOL     OW 9178   2.918   5.446   2.866
 2760SOL    HW1 9179   2.923   5.379   2.940
 2760SOL    HW2 9180   2.896   5.400   2.780
 2761SOL     OW 9181   2.594   6.070   3.095
 2761SOL    HW1 9182   2.558   6.157   3.129
 2761SOL    HW2 9183   2.581   5.999   3.164
 2762SOL     OW 9184   0.926   6.886   5.372
 2762SOL    HW1 9185   1.017   6.899   5.412
 2762SOL    HW2 9186   0.902   6.966   5.317
 2763SOL     OW 9187   5.668   1.610   2.873
 2763SOL    HW1 9188   5.640   1.642   2.963
 2763SOL    HW2 9189   5.729   1.532   2.882
 2764SOL     OW 9190   6.326   0.684   1.939
 2764SOL    HW1 9191   6.381   0.680   2.022
 2764SOL    HW2 9192   6.340   0.600   1.887
 2765SOL     OW 9193   6.209   1.255   1.998
 2765SOL    HW1 9194   6.112   1.279   1.990
 2765SOL    HW2 9195   6.219   1.155   1.998
 2766SOL     OW 9196   6.093   0.996   2.360
 2766SOL    HW1 9197   6.025   0.969   2.427
 2766SOL    HW2 9198   6.067   0.961   2.270
 2767SOL     OW 9199   5.721   4.331   6.666
 2767SOL    HW1 9200   5.798   4.379   6.624
 2767SOL    HW2 9201   5.647   4.395   6.682
 2768SOL     OW 9202   5.339   1.129   6.997
 2768SOL    HW1 9203   5.252   1.175   7.012
 2768SOL    HW2 9204   5.366   1.139   6.901
 2769SOL     OW 9205   0.315   4.100   1.848
 2769SOL    HW1 9206   0.320   4.183   1.793
 2769SOL    HW2 9207   0.305   4.021   1.788
 2770SOL     OW 9208   0.330   5.578   1.729
 2770SOL    HW1 9209   0.240   5.536   1.717
 2770SOL    HW2 9210   0.363   5.559   1.822
 2771SOL     OW 9211   4.974   1.129   1.396
 2771SOL    HW1 9212   4.938   1.076   1.319
 2771SOL    HW2 9213   5.070   1.152   1.379
 2772SOL     OW 9214   3.084   2.541   6.790
 2772SOL    HW1 9215   3.055   2.563   6.697
 2772SOL    HW2 9216   3.097   2.625   6.842
 2773SOL     OW 9217   3.685   3.693   6.361
 2773SOL    HW1 9218   3.741   3.750   6.301
 2773SOL    HW2 9219   3.629   3.750   6.420
 2774SOL     OW 9220   5.730   3.418   1.738
 2774SOL    HW1 9221   5.731   3.330   1.691
 2774SOL    HW2 9222   5.637   3.454   1.740
 2775SOL     OW 9223   6.823   5.548   1.595
 2775SOL    HW1 9224   6.871   5.468   1.560
 2775SOL    HW2 9225   6.888   5.622   1.611
 2776SOL     OW 9226   3.149   6.102   6.341
 2776SOL    HW1 9227   3.063   6.124   6.293
 2776SOL    HW2 9228   3.193   6.187   6.370
 2777SOL     OW 9229   3.359   1.414   2.616
 2777SOL    HW1 9230   3.321   1.440   2.705
 2777SOL    HW2 9231   3.452   1.450   2.608
 2778SOL     OW 9232   2.307   2.447   5.892
 2778SOL    HW1 9233   2.263   2.492   5.970
 2778SOL    HW2 9234   2.286   2.496   5.808
 2779SOL     OW 9235   5.661   0.229   0.248
 2779SOL    HW1 9236   5.735   0.165   0.266
 2779SOL    HW2 9237   5.684   0.319   0.285
 2780SOL     OW 9238   5.052   5.413   6.542
 2780SOL    HW1 9239   4.985   5.485   6.559
 2780SOL    HW2 9240   5.004   5.331   6.510
 2781SOL     OW 9241   5.585   4.356   1.040
 2781SOL    HW1 9242   5.513   4.391   0.980
 2781SOL    HW2 9243   5.620   4.270   1.004
 2782SOL     OW 9244   2.620   2.384   6.443
 2782SOL    HW1 9245   2.549   2.445   6.478
 2782SOL    HW2 9246   2.602   2.362   6.348
 2783SOL     OW 9247   0.003   5.101   5.491
 2783SOL    HW1 9248   0.059   5.162   5.548
 2783SOL    HW2 9249   0.050   5.013   5.481
 2784SOL     OW 9250   2.461   1.821   1.511
 2784SOL    HW1 9251   2.440   1.916   1.532
 2784SOL    HW2 9252   2.474   1.769   1.596
 2785SOL     OW 9253   6.556   0.563   0.724
 2785SOL    HW1 9254   6.537   0.559   0.626
 2785SOL    HW2 9255   6.576   0.657   0.751
 2786SOL     OW 9256   4.062   6.585   1.077
 2786SOL    HW1 9257   4.156   6.614   1.061
 2786SOL    HW2 9258   4.018   6.649   1.140
 2787SOL     OW 9259   2.595   2.920   5.837
 2787SOL    HW1 9260   2.578   2.941   5.740
 2787SOL    HW2 9261   2.691   2.895   5.849
 2788SOL     OW 9262   1.306   3.848   0.848
 2788SOL    HW1 9263   1.304   3.753   0.880
 2788SOL    HW2 9264   1.278   3.852   0.752
 2789SOL     OW 9265   0.612   2.283   4.296
 2789SOL    HW1 9266   0.559   2.203   4.265
 2789SOL    HW2 9267   0.631   2.342   4.218
 2790SOL     OW 9268   3.942   5.467   2.706
 2790SOL    HW1 9269   3.952   5.476   2.805
 2790SOL    HW2 9270   3.897   5.548   2.669
 2791SOL     OW 9271   1.780   3.284   4.910
 2791SOL    HW1 9272   1.871   3.276   4.952
 2791SOL    HW2 9273   1.766   3.207   4.848
 2792SOL     OW 9274   0.491   1.881   5.330
 2792SOL    HW1 9275   0.535   1.966   5.360
 2792SOL    HW2 9276   0.561   1.818   5.294
 2793SOL     OW 9277   4.437   1.356   3.321
 2793SOL    HW1 9278   4.506   1.352   3.394
 2793SOL    HW2 9279   4.475   1.320   3.236
 2794SOL     OW 9280   0.980   0.403   0.897
 2794SOL    HW1 9281   0.945   0.496   0.883
 2794SOL    HW2 9282   0.911   0.347   0.942
 2795SOL     OW 9283   2.455   4.053   1.041
 2795SOL    HW1 9284   2.396   4.083   0.966
 2795SOL    HW2 9285   2.549   4.082   1.022
 2796SOL     OW 9286   5.166   4.049   2.635
 2796SOL    HW1 9287   5.202   4.142   2.629
 2796SOL    HW2 9288   5.227   3.992   2.689
 2797SOL     OW 9289   4.891   5.069   5.044
 2797SOL    HW1 9290   4.807   5.019   5.066
 2797SOL    HW2 9291   4.937   5.024   4.967
 2798SOL     OW 9292   0.697   3.233   4.189
 2798SOL    HW1 9293   0.658   3.267   4.103
 2798SOL    HW2 9294   0.626   3.188   4.242
 2799SOL     OW 9295   6.259   4.710   5.999
 2799SOL    HW1 9296   6.236   4.718   6.096
 2799SOL    HW2 9297   6.265   4.613   5.974
 2800SOL     OW 9298   2.890   4.845   6.644
 2800SOL    HW1 9299   2.889   4.828   6.743
 2800SOL    HW2 9300   2.972   4.896   6.620
 2801SOL     OW 9301   5.816   5.670   1.982
 2801SOL    HW1 9302   5.842   5.639   2.073
 2801SOL    HW2 9303   5.720   5.649   1.965
 2802SOL     OW 9304   4.494   1.350   5.916
 2802SOL    HW1 9305   4.508   1.275   5.981
 2802SOL    HW2 9306   4.399   1.352   5.888
 2803SOL     OW 9307   2.946   6.668   6.449
 2803SOL    HW1 9308   2.910   6.602   6.383
 2803SOL    HW2 9309   3.034   6.703   6.416
 2804SOL     OW 9310   6.756   4.354   3.629
 2804SOL    HW1 9311   6.693   4.362   3.706
 2804SOL    HW2 9312   6.846   4.326   3.662
 2805SOL     OW 9313   5.049   3.177   0.678
 2805SOL    HW1 9314   4.957   3.159   0.713
 2805SOL    HW2 9315   5.046   3.253   0.613
 2806SOL     OW 9316   6.543   5.178   3.283
 2806SOL    HW1 9317   6.524   5.079   3.285
 2806SOL    HW2 9318   6.614   5.196   3.215
 2807SOL     OW 9319   4.397   5.007   3.160
 2807SOL    HW1 9320   4.368   5.053   3.244
 2807SOL    HW2 9321   4.496   4.989   3.164
 2808SOL     OW 9322   5.499   1.182   4.123
 2808SOL    HW1 9323   5.507   1.169   4.222
 2808SOL    HW2 9324   5.419   1.133   4.090
 2809SOL     OW 9325   4.969   2.226   0.751
 2809SOL    HW1 9326   5.048   2.249   0.807
 2809SOL    HW2 9327   4.940   2.132   0.771
 2810SOL     OW 9328   2.469   6.650   5.084
 2810SOL    HW1 9329   2.384   6.646   5.137
 2810SOL    HW2 9330   2.475   6.739   5.038
 2811SOL     OW 9331   0.190   1.889   3.462
 2811SOL    HW1 9332   0.283   1.924   3.465
 2811SOL    HW2 9333   0.191   1.793   3.435
 2812SOL     OW 9334   4.771   3.925   1.924
 2812SOL    HW1 9335   4.761   4.024   1.918
 2812SOL    HW2 9336   4.765   3.884   1.833
 2813SOL     OW 9337   6.049   0.687   6.380
 2813SOL    HW1 9338   5.956   0.704   6.347
 2813SOL    HW2 9339   6.070   0.589   6.371
 2814SOL     OW 9340   4.782   3.839   5.601
 2814SOL    HW1 9341   4.758   3.765   5.537
 2814SOL    HW2 9342   4.839   3.907   5.554
 2815SOL     OW 9343   0.333   1.095   4.984
 2815SOL    HW1 9344   0.378   1.164   5.039
 2815SOL    HW2 9345   0.289   1.027   5.044
 2816SOL     OW 9346   5.530   6.768   4.181
 2816SOL    HW1 9347   5.461   6.696   4.180
 2816SOL    HW2 9348   5.581   6.765   4.267
 2817SOL     OW 9349   1.344   1.385   1.536
 2817SOL    HW1 9350   1.391   1.441   1.467
 2817SOL    HW2 9351   1.412   1.338   1.592
 2818SOL     OW 9352   6.721   4.858   5.769
 2818SOL    HW1 9353   6.636   4.843   5.821
 2818SOL    HW2 9354   6.763   4.769   5.749
 2819SOL     OW 9355   6.888   2.635   1.045
 2819SOL    HW1 9356   6.834   2.675   1.118
 2819SOL    HW2 9357   6.968   2.691   1.027
 2820SOL     OW 9358   6.789   3.248   3.327
 2820SOL    HW1 9359   6.861   3.208   3.271
 2820SOL    HW2 9360   6.775   3.344   3.301
 2821SOL     OW 9361   1.121   4.286   5.216
 2821SOL    HW1 9362   1.180   4.220   5.169
 2821SOL    HW2 9363   1.110   4.258   5.312
 2822SOL     OW 9364   4.711   2.283   6.831
 2822SOL    HW1 9365   4.628   2.286   6.887
 2822SOL    HW2 9366   4.710   2.359   6.766
 2823SOL     OW 9367   1.893   6.296   2.846
 2823SOL    HW1 9368   1.986   6.263   2.831
 2823SOL    HW2 9369   1.830   6.218   2.847
 2824SOL     OW 9370   3.193   1.386   5.776
 2824SOL    HW1 9371   3.188   1.465   5.716
 2824SOL    HW2 9372   3.126   1.317   5.746
 2825SOL     OW 9373   6.467   6.195   1.093
 2825SOL    HW1 9374   6.462   6.112   1.038
 2825SOL    HW2 9375   6.476   6.275   1.034
 2826SOL     OW 9376   4.971   1.114   4.696
 2826SOL    HW1 9377   4.965   1.121   4.795
 2826SOL    HW2 9378   4.886   1.150   4.655
 2827SOL     OW 9379   6.058   1.216   5.181
 2827SOL    HW1 9380   5.968   1.205   5.138
 2827SOL    HW2 9381   6.128   1.221   5.110
 2828SOL     OW 9382   4.229   1.297   5.923
 2828SOL    HW1 9383   4.156   1.271   5.860
 2828SOL    HW2 9384   4.191   1.356   5.995
 2829SOL     OW 9385   2.895   6.914   5.762
 2829SOL    HW1 9386   2.914   6.920   5.860
 2829SOL    HW2 9387   2.964   6.856   5.718
 2830SOL     OW 9388   4.111   3.551   6.862
 2830SOL    HW1 9389   4.055   3.503   6.794
 2830SOL    HW2 9390   4.092   3.514   6.953
 2831SOL     OW 9391   5.834   6.060   4.377
 2831SOL    HW1 9392   5.866   6.150   4.345
 2831SOL    HW2 9393   5.740   6.046   4.346
 2832SOL     OW 9394   0.566   0.980   2.191
 2832SOL    HW1 9395   0.510   0.950   2.114
 2832SOL    HW2 9396   0.624   1.056   2.163
 2833SOL     OW 9397   5.844   2.911   1.994
 2833SOL    HW1 9398   5.852   2.883   1.898
 2833SOL    HW2 9399   5.839   3.010   2.000
 2834SOL     OW 9400   3.598   1.578   5.089
 2834SOL    HW1 9401   3.573   1.498   5.144
 2834SOL    HW2 9402   3.691   1.605   5.110
 2835SOL     OW 9403   0.520   7.001   2.661
 2835SOL    HW1 9404   0.544   6.956   2.747
 2835SOL    HW2 9405   0.483   0.068   2.681
 2836SOL     OW 9406   6.760   0.499   1.447
 2836SOL    HW1 9407   6.676   0.553   1.458
 2836SOL    HW2 9408   6.737   0.403   1.437
 2837SOL     OW 9409   5.439   3.999   3.850
 2837SOL    HW1 9410   5.454   4.042   3.761
 2837SOL    HW2 9411   5.349   4.026   3.884
 2838SOL     OW 9412   3.011   5.075   2.693
 2838SOL    HW1 9413   2.931   5.081   2.754
 2838SOL    HW2 9414   3.002   4.994   2.636
 2839SOL     OW 9415   5.256   1.747   1.374
 2839SOL    HW1 9416   5.264   1.752   1.274
 2839SOL    HW2 9417   5.185   1.810   1.405
 2840SOL     OW 9418   6.362   1.059   5.681
 2840SOL    HW1 9419   6.412   1.073   5.595
 2840SOL    HW2 9420   6.390   1.129   5.747
 2841SOL     OW 9421   0.678   5.725   0.960
 2841SOL    HW1 9422   0.688   5.669   0.878
 2841SOL    HW2 9423   0.762   5.722   1.014
 2842SOL     OW 9424   6.698   3.520   3.230
 2842SOL    HW1 9425   6.655   3.525   3.320
 2842SOL    HW2 9426   6.628   3.526   3.159
 2843SOL     OW 9427   3.784   0.790   4.612
 2843SOL    HW1 9428   3.835   0.850   4.673
 2843SOL    HW2 9429   3.707   0.840   4.573
 2844SOL     OW 9430   0.494   4.151   6.554
 2844SOL    HW1 9431   0.423   4.102   6.503
 2844SOL    HW2 9432   0.467   4.247   6.565
 2845SOL     OW 9433   0.098   4.608   6.176
 2845SOL    HW1 9434   0.114   4.620   6.078
 2845SOL    HW2 9435   0.184   4.612   6.225
 2846SOL     OW 9436   4.829   1.866   6.351
 2846SOL    HW1 9437   4.765   1.880   6.275
 2846SOL    HW2 9438   4.832   1.769   6.374
 2847SOL     OW 9439   5.990   4.418   4.041
 2847SOL    HW1 9440   5.910   4.456   4.087
 2847SOL    HW2 9441   6.008   4.469   3.957
 2848SOL     OW 9442   0.902   4.763   4.767
 2848SOL    HW1 9443   0.829   4.728   4.826
 2848SOL    HW2 9444   0.884   4.860   4.746
 2849SOL     OW 9445   2.819   1.920   0.955
 2849SOL    HW1 9446   2.760   1.842   0.938
 2849SOL    HW2 9447   2.765   1.996   0.990
 2850SOL     OW 9448   3.614   0.210   0.363
 2850SOL    HW1 9449   3.687   0.164   0.314
 2850SOL    HW2 9450   3.653   0.283   0.420
 2851SOL     OW 9451   1.238   4.455   5.643
 2851SOL    HW1 9452   1.199   4.373   5.685
 2851SOL    HW2 9453   1.284   4.509   5.714
 2852SOL     OW 9454   6.649   3.320   6.466
 2852SOL    HW1 9455   6.604   3.251   6.523
 2852SOL    HW2 9456   6.748   3.309   6.473
 2853SOL     OW 9457   3.360   3.449   1.043
 2853SOL    HW1 9458   3.446   3.410   1.011
 2853SOL    HW2 9459   3.318   3.386   1.109
 2854SOL     OW 9460   2.794   0.811   3.725
 2854SOL    HW1 9461   2.761   0.717   3.711
 2854SOL    HW2 9462   2.840   0.842   3.642
 2855SOL     OW 9463   2.063   0.682   5.217
 2855SOL    HW1 9464   1.978   0.732   5.234
 2855SOL    HW2 9465   2.137   0.747   5.200
 2856SOL     OW 9466   2.495   2.754   5.220
 2856SOL    HW1 9467   2.425   2.713   5.279
 2856SOL    HW2 9468   2.488   2.854   5.224
 2857SOL     OW 9469   2.955   2.475   1.319
 2857SOL    HW1 9470   2.951   2.446   1.223
 2857SOL    HW2 9471   3.050   2.496   1.343
 2858SOL     OW 9472   6.557   3.056   2.750
 2858SOL    HW1 9473   6.477   3.061   2.691
 2858SOL    HW2 9474   6.597   2.965   2.744
 2859SOL     OW 9475   5.460   0.685   0.643
 2859SOL    HW1 9476   5.405   0.719   0.719
 2859SOL    HW2 9477   5.509   0.762   0.601
 2860SOL     OW 9478   4.241   1.640   1.984
 2860SOL    HW1 9479   4.175   1.618   2.055
 2860SOL    HW2 9480   4.259   1.738   1.985
 2861SOL     OW 9481   3.340   5.729   5.396
 2861SOL    HW1 9482   3.281   5.808   5.408
 2861SOL    HW2 9483   3.419   5.754   5.341
 2862SOL     OW 9484   5.688   1.037   3.982
 2862SOL    HW1 9485   5.748   1.087   3.921
 2862SOL    HW2 9486   5.630   1.101   4.032
 2863SOL     OW 9487   6.471   1.669   0.001
 2863SOL    HW1 9488   6.458   1.571   0.009
 2863SOL    HW2 9489   6.410   1.706   6.955
 2864SOL     OW 9490   3.941   1.046   0.637
 2864SOL    HW1 9491   3.875   1.009   0.702
 2864SOL    HW2 9492   4.009   1.100   0.686
 2865SOL     OW 9493   4.488   4.689   5.244
 2865SOL    HW1 9494   4.508   4.646   5.155
 2865SOL    HW2 9495   4.552   4.654   5.312
 2866SOL     OW 9496   0.345   6.047   6.383
 2866SOL    HW1 9497   0.388   6.129   6.345
 2866SOL    HW2 9498   0.385   5.965   6.341
 2867SOL     OW 9499   6.318   4.486   3.360
 2867SOL    HW1 9500   6.318   4.406   3.299
 2867SOL    HW2 9501   6.365   4.463   3.445
 2868SOL     OW 9502   1.243   3.810   5.177
 2868SOL    HW1 9503   1.197   3.723   5.193
 2868SOL    HW2 9504   1.328   3.794   5.126
 2869SOL     OW 9505   5.727   0.798   1.983
 2869SOL    HW1 9506   5.734   0.748   1.896
 2869SOL    HW2 9507   5.722   0.897   1.964
 2870SOL     OW 9508   5.992   2.601   2.783
 2870SOL    HW1 9509   6.010   2.513   2.740
 2870SOL    HW2 9510   5.910   2.593   2.840
 2871SOL     OW 9511   1.917   2.252   5.998
 2871SOL    HW1 9512   1.906   2.256   6.097
 2871SOL    HW2 9513   1.849   2.311   5.955
 2872SOL     OW 9514   2.623   0.710   3.319
 2872SOL    HW1 9515   2.657   0.646   3.387
 2872SOL    HW2 9516   2.659   0.802   3.339
 2873SOL     OW 9517   0.437   5.100   2.187
 2873SOL    HW1 9518   0.367   5.129   2.253
 2873SOL    HW2 9519   0.397   5.096   2.096
 2874SOL     OW 9520   5.619   3.146   2.110
 2874SOL    HW1 9521   5.583   3.105   2.026
 2874SOL    HW2 9522   5.648   3.240   2.092
 2875SOL     OW 9523   3.938   5.736   6.272
 2875SOL    HW1 9524   3.994   5.681   6.333
 2875SOL    HW2 9525   3.991   5.761   6.191
 2876SOL     OW 9526   0.483   0.873   1.667
 2876SOL    HW1 9527   0.559   0.856   1.729
 2876SOL    HW2 9528   0.492   0.964   1.627
 2877SOL     OW 9529   2.921   2.688   5.329
 2877SOL    HW1 9530   2.884   2.726   5.414
 2877SOL    HW2 9531   2.966   2.760   5.277
 2878SOL     OW 9532   2.476   4.765   5.480
 2878SOL    HW1 9533   2.548   4.718   5.429
 2878SOL    HW2 9534   2.391   4.711   5.474
 2879SOL     OW 9535   4.949   4.467   0.426
 2879SOL    HW1 9536   5.049   4.469   0.428
 2879SOL    HW2 9537   4.915   4.452   0.519
 2880SOL     OW 9538   0.945   6.104   1.804
 2880SOL    HW1 9539   0.934   6.201   1.780
 2880SOL    HW2 9540   0.915   6.048   1.727
 2881SOL     OW 9541   6.799   6.100   0.821
 2881SOL    HW1 9542   6.878   6.117   0.762
 2881SOL    HW2 9543   6.715   6.125   0.773
 2882SOL     OW 9544   0.482   3.317   2.879
 2882SOL    HW1 9545   0.521   3.406   2.854
 2882SOL    HW2 9546   0.384   3.327   2.895
 2883SOL     OW 9547   3.784   0.318   2.166
 2883SOL    HW1 9548   3.786   0.418   2.156
 2883SOL    HW2 9549   3.715   0.292   2.233
 2884SOL     OW 9550   1.050   5.752   3.279
 2884SOL    HW1 9551   0.986   5.829   3.274
 2884SOL    HW2 9552   1.018   5.687   3.347
 2885SOL     OW 9553   0.818   2.259   2.693
 2885SOL    HW1 9554   0.912   2.269   2.725
 2885SOL    HW2 9555   0.768   2.199   2.755
 2886SOL     OW 9556   2.236   1.909   6.575
 2886SOL    HW1 9557   2.235   1.990   6.516
 2886SOL    HW2 9558   2.319   1.910   6.630
 2887SOL     OW 9559   1.168   0.374   5.017
 2887SOL    HW1 9560   1.166   0.446   5.086
 2887SOL    HW2 9561   1.177   0.415   4.926
 2888SOL     OW 9562   5.727   4.914   6.884
 2888SOL    HW1 9563   5.728   5.007   6.847
 2888SOL    HW2 9564   5.802   4.904   6.950
 2889SOL     OW 9565   0.255   0.254   1.392
 2889SOL    HW1 9566   0.191   0.331   1.391
 2889SOL    HW2 9567   0.309   0.254   1.308
 2890SOL     OW 9568   4.376   0.761   1.872
 2890SOL    HW1 9569   4.461   0.774   1.822
 2890SOL    HW2 9570   4.320   0.843   1.866
 2891SOL     OW 9571   2.508   4.576   3.848
 2891SOL    HW1 9572   2.482   4.480   3.854
 2891SOL    HW2 9573   2.483   4.623   3.932
 2892SOL     OW 9574   4.280   3.901   6.946
 2892SOL    HW1 9575   4.291   3.940   6.855
 2892SOL    HW2 9576   4.325   3.812   6.951
 2893SOL     OW 9577   2.253   6.965   5.066
 2893SOL    HW1 9578   2.211   6.894   5.010
 2893SOL    HW2 9579   2.182   7.010   5.121
 2894SOL     OW 9580   3.465   2.748   0.134
 2894SOL    HW1 9581   3.469   2.651   0.112
 2894SOL    HW2 9582   3.538   2.796   0.086
 2895SOL     OW 9583   3.630   3.419   6.353
 2895SOL    HW1 9584   3.636   3.518   6.367
 2895SOL    HW2 9585   3.608   3.374   6.440
 2896SOL     OW 9586   1.881   5.087   0.316
 2896SOL    HW1 9587   1.957   5.086   0.380
 2896SOL    HW2 9588   1.911   5.125   0.228
 2897SOL     OW 9589   2.709   5.968   3.717
 2897SOL    HW1 9590   2.762   5.920   3.787
 2897SOL    HW2 9591   2.663   6.047   3.757
 2898SOL     OW 9592   3.615   5.278   1.806
 2898SOL    HW1 9593   3.700   5.308   1.764
 2898SOL    HW2 9594   3.630   5.193   1.857
 2899SOL     OW 9595   6.914   6.896   7.011
 2899SOL    HW1 9596   6.823   6.855   7.015
 2899SOL    HW2 9597   6.910   6.989   0.024
 2900SOL     OW 9598   1.332   5.110   5.687
 2900SOL    HW1 9599   1.378   5.177   5.745
 2900SOL    HW2 9600   1.235   5.107   5.708
 2901SOL     OW 9601   2.839   0.430   2.147
 2901SOL    HW1 9602   2.788   0.473   2.073
 2901SOL    HW2 9603   2.848   0.494   2.223
 2902SOL     OW 9604   5.437   6.198   1.218
 2902SOL    HW1 9605   5.382   6.226   1.139
 2902SOL    HW2 9606   5.481   6.279   1.259
 2903SOL     OW 9607   2.685   1.342   2.095
 2903SOL    HW1 9608   2.690   1.419   2.158
 2903SOL    HW2 9609   2.609   1.355   2.032
 2904SOL     OW 9610   1.926   2.817   5.577
 2904SOL    HW1 9611   1.921   2.858   5.486
 2904SOL    HW2 9612   2.021   2.817   5.608
 2905SOL     OW 9613   1.752   1.939   1.702
 2905SOL    HW1 9614   1.697   1.932   1.785
 2905SOL    HW2 9615   1.824   1.870   1.704
 2906SOL     OW 9616   5.903   5.381   2.274
 2906SOL    HW1 9617   5.956   5.298   2.260
 2906SOL    HW2 9618   5.847   5.371   2.356
 2907SOL     OW 9619   6.932   1.332   4.690
 2907SOL    HW1 9620   6.976   1.279   4.617
 2907SOL    HW2 9621   6.837   1.350   4.666
 2908SOL     OW 9622   3.657   5.849   4.087
 2908SOL    HW1 9623   3.687   5.829   4.180
 2908SOL    HW2 9624   3.559   5.830   4.079
 2909SOL     OW 9625   1.412   5.349   4.714
 2909SOL    HW1 9626   1.495   5.374   4.763
 2909SOL    HW2 9627   1.435   5.294   4.634
 2910SOL     OW 9628   4.276   6.520   5.889
 2910SOL    HW1 9629   4.254   6.473   5.804
 2910SOL    HW2 9630   4.230   6.474   5.965
 2911SOL     OW 9631   1.900   4.640   3.293
 2911SOL    HW1 9632   1.852   4.726   3.311
 2911SOL    HW2 9633   1.983   4.635   3.350
 2912SOL     OW 9634   2.507   6.034   0.164
 2912SOL    HW1 9635   2.546   6.004   0.251
 2912SOL    HW2 9636   2.579   6.039   0.095
 2913SOL     OW 9637   1.881   3.499   2.642
 2913SOL    HW1 9638   1.816   3.575   2.653
 2913SOL    HW2 9639   1.835   3.423   2.597
 2914SOL     OW 9640   5.757   5.232   5.903
 2914SOL    HW1 9641   5.663   5.256   5.929
 2914SOL    HW2 9642   5.797   5.174   5.973
 2915SOL     OW 9643   4.465   1.562   4.098
 2915SOL    HW1 9644   4.488   1.652   4.134
 2915SOL    HW2 9645   4.382   1.529   4.143
 2916SOL     OW 9646   6.116   5.215   5.406
 2916SOL    HW1 9647   6.070   5.295   5.444
 2916SOL    HW2 9648   6.098   5.135   5.463
 2917SOL     OW 9649   4.622   0.756   1.751
 2917SOL    HW1 9650   4.715   0.737   1.782
 2917SOL    HW2 9651   4.616   0.739   1.652
 2918SOL     OW 9652   0.527   3.788   3.797
 2918SOL    HW1 9653   0.474   3.716   3.751
 2918SOL    HW2 9654   0.563   3.752   3.883
 2919SOL     OW 9655   6.084   5.963   0.499
 2919SOL    HW1 9656   6.132   5.886   0.457
 2919SOL    HW2 9657   6.076   5.947   0.597
 2920SOL     OW 9658   3.966   1.918   2.646
 2920SOL    HW1 9659   4.057   1.928   2.687
 2920SOL    HW2 9660   3.956   1.826   2.608
 2921SOL     OW 9661   0.348   1.020   2.510
 2921SOL    HW1 9662   0.402   1.103   2.496
 2921SOL    HW2 9663   0.315   1.017   2.605
 2922SOL     OW 9664   4.912   0.094   5.282
 2922SOL    HW1 9665   5.010   0.085   5.265
 2922SOL    HW2 9666   4.897   0.134   5.372
 2923SOL     OW 9667   6.424   4.877   2.492
 2923SOL    HW1 9668   6.342   4.893   2.547
 2923SOL    HW2 9669   6.498   4.937   2.523
 2924SOL     OW 9670   0.530   1.245   5.139
 2924SOL    HW1 9671   0.615   1.198   5.116
 2924SOL    HW2 9672   0.535   1.340   5.108
 2925SOL     OW 9673   5.716   3.320   1.353
 2925SOL    HW1 9674   5.723   3.346   1.257
 2925SOL    HW2 9675   5.784   3.369   1.407
 2926SOL     OW 9676   6.891   2.149   4.734
 2926SOL    HW1 9677   6.935   2.179   4.818
 2926SOL    HW2 9678   6.957   2.149   4.659
 2927SOL     OW 9679   1.158   2.925   2.338
 2927SOL    HW1 9680   1.194   2.844   2.384
 2927SOL    HW2 9681   1.105   2.980   2.403
 2928SOL     OW 9682   6.354   0.361   0.451
 2928SOL    HW1 9683   6.333   0.442   0.505
 2928SOL    HW2 9684   6.295   0.357   0.371
 2929SOL     OW 9685   0.114   0.152   6.373
 2929SOL    HW1 9686   0.077   0.070   6.416
 2929SOL    HW2 9687   0.157   0.209   6.442
 2930SOL     OW 9688   4.669   0.092   4.508
 2930SOL    HW1 9689   4.619   0.016   4.550
 2930SOL    HW2 9690   4.615   0.128   4.432
 2931SOL     OW 9691   4.684   6.674   6.879
 2931SOL    HW1 9692   4.642   6.757   6.841
 2931SOL    HW2 9693   4.625   6.595   6.862
 2932SOL     OW 9694   1.168   3.837   1.292
 2932SOL    HW1 9695   1.249   3.797   1.335
 2932SOL    HW2 9696   1.195   3.879   1.205
 2933SOL     OW 9697   5.033   2.428   3.770
 2933SOL    HW1 9698   5.123   2.391   3.744
 2933SOL    HW2 9699   4.961   2.370   3.731
 2934SOL     OW 9700   2.558   0.814   0.006
 2934SOL    HW1 9701   2.611   0.847   6.952
 2934SOL    HW2 9702   2.571   0.876   0.084
 2935SOL     OW 9703   5.944   2.495   0.767
 2935SOL    HW1 9704   5.924   2.422   0.833
 2935SOL    HW2 9705   5.935   2.460   0.674
 2936SOL     OW 9706   4.984   6.035   0.129
 2936SOL    HW1 9707   5.044   6.103   0.171
 2936SOL    HW2 9708   4.896   6.076   0.108
 2937SOL     OW 9709   3.459   5.882   0.081
 2937SOL    HW1 9710   3.541   5.940   0.075
 2937SOL    HW2 9711   3.379   5.938   0.099
 2938SOL     OW 9712   5.017   5.686   5.366
 2938SOL    HW1 9713   5.110   5.719   5.354
 2938SOL    HW2 9714   4.966   5.751   5.424
 2939SOL     OW 9715   6.708   6.423   5.646
 2939SOL    HW1 9716   6.702   6.376   5.733
 2939SOL    HW2 9717   6.760   6.508   5.657
 2940SOL     OW 9718   5.213   6.958   5.328
 2940SOL    HW1 9719   5.219   7.015   5.410
 2940SOL    HW2 9720   5.185   7.015   5.250
 2941SOL     OW 9721   1.116   2.049   5.533
 2941SOL    HW1 9722   1.108   2.059   5.434
 2941SOL    HW2 9723   1.198   2.098   5.564
 2942SOL     OW 9724   3.379   6.764   2.392
 2942SOL    HW1 9725   3.318   6.803   2.461
 2942SOL    HW2 9726   3.418   6.837   2.337
 2943SOL     OW 9727   6.000   3.404   3.580
 2943SOL    HW1 9728   5.973   3.384   3.674
 2943SOL    HW2 9729   6.099   3.420   3.576
 2944SOL     OW 9730   4.112   5.522   5.122
 2944SOL    HW1 9731   4.015   5.511   5.104
 2944SOL    HW2 9732   4.143   5.452   5.186
 2945SOL     OW 9733   3.077   3.142   3.295
 2945SOL    HW1 9734   2.998   3.196   3.326
 2945SOL    HW2 9735   3.151   3.204   3.270
 2946SOL     OW 9736   6.627   5.930   6.182
 2946SOL    HW1 9737   6.697   5.863   6.156
 2946SOL    HW2 9738   6.638   5.954   6.278
 2947SOL     OW 9739   6.536   4.244   0.189
 2947SOL    HW1 9740   6.524   4.145   0.198
 2947SOL    HW2 9741   6.448   4.287   0.172
 2948SOL     OW 9742   5.885   4.311   4.411
 2948SOL    HW1 9743   5.869   4.367   4.492
 2948SOL    HW2 9744   5.798   4.275   4.378
 2949SOL     OW 9745   1.305   6.834   0.358
 2949SOL    HW1 9746   1.235   6.803   0.293
 2949SOL    HW2 9747   1.376   6.764   0.365
 2950SOL     OW 9748   5.242   3.349   4.518
 2950SOL    HW1 9749   5.268   3.298   4.600
 2950SOL    HW2 9750   5.312   3.336   4.448
 2951SOL     OW 9751   0.365   1.406   1.175
 2951SOL    HW1 9752   0.462   1.421   1.192
 2951SOL    HW2 9753   0.354   1.342   1.100
 2952SOL     OW 9754   1.710   4.063   2.497
 2952SOL    HW1 9755   1.635   4.037   2.558
 2952SOL    HW2 9756   1.796   4.059   2.548
 2953SOL     OW 9757   4.346   2.792   1.582
 2953SOL    HW1 9758   4.429   2.808   1.636
 2953SOL    HW2 9759   4.282   2.867   1.596
 2954SOL     OW 9760   6.655   6.588   3.134
 2954SOL    HW1 9761   6.711   6.603   3.053
 2954SOL    HW2 9762   6.662   6.492   3.161
 2955SOL     OW 9763   0.937   3.200   0.530
 2955SOL    HW1 9764   0.933   3.278   0.467
 2955SOL    HW2 9765   0.848   3.189   0.574
 2956SOL     OW 9766   0.166   4.876   3.116
 2956SOL    HW1 9767   0.113   4.807   3.164
 2956SOL    HW2 9768   0.255   4.887   3.160
 2957SOL     OW 9769   0.631   3.751   1.747
 2957SOL    HW1 9770   0.724   3.718   1.762
 2957SOL    HW2 9771   0.568   3.673   1.743
 2958SOL     OW 9772   1.842   4.189   5.800
 2958SOL    HW1 9773   1.771   4.166   5.866
 2958SOL    HW2 9774   1.883   4.105   5.764
 2959SOL     OW 9775   4.535   5.830   6.434
 2959SOL    HW1 9776   4.559   5.927   6.433
 2959SOL    HW2 9777   4.485   5.807   6.350
 2960SOL     OW 9778   1.890   1.481   6.683
 2960SOL    HW1 9779   1.957   1.556   6.687
 2960SOL    HW2 9780   1.934   1.397   6.714
 2961SOL     OW 9781   5.451   3.458   3.827
 2961SOL    HW1 9782   5.369   3.401   3.837
 2961SOL    HW2 9783   5.449   3.504   3.738
 2962SOL     OW 9784   4.729   0.628   3.359
 2962SOL    HW1 9785   4.635   0.624   3.392
 2962SOL    HW2 9786   4.732   0.669   3.268
 2963SOL     OW 9787   2.488   1.906   5.134
 2963SOL    HW1 9788   2.526   1.848   5.062
 2963SOL    HW2 9789   2.448   1.849   5.206
 2964SOL     OW 9790   2.491   6.475   1.316
 2964SOL    HW1 9791   2.507   6.559   1.368
 2964SOL    HW2 9792   2.508   6.395   1.374
 2965SOL     OW 9793   0.442   1.355   5.717
 2965SOL    HW1 9794   0.389   1.364   5.802
 2965SOL    HW2 9795   0.479   1.444   5.692
 2966SOL     OW 9796   5.204   5.108   4.221
 2966SOL    HW1 9797   5.116   5.135   4.258
 2966SOL    HW2 9798   5.260   5.189   4.205
 2967SOL     OW 9799   6.002   3.083   2.894
 2967SOL    HW1 9800   5.973   3.154   2.829
 2967SOL    HW2 9801   5.926   3.061   2.955
 2968SOL     OW 9802   0.745   4.140   4.291
 2968SOL    HW1 9803   0.813   4.196   4.338
 2968SOL    HW2 9804   0.787   4.053   4.264
 2969SOL     OW 9805   5.100   2.058   4.653
 2969SOL    HW1 9806   5.097   1.962   4.682
 2969SOL    HW2 9807   5.033   2.110   4.706
 2970SOL     OW 9808   0.678   4.506   6.020
 2970SOL    HW1 9809   0.767   4.473   5.990
 2970SOL    HW2 9810   0.638   4.441   6.085
 2971SOL     OW 9811   5.801   2.449   2.957
 2971SOL    HW1 9812   5.748   2.436   2.873
 2971SOL    HW2 9813   5.808   2.362   3.005
 2972SOL     OW 9814   6.641   3.397   5.941
 2972SOL    HW1 9815   6.699   3.346   5.878
 2972SOL    HW2 9816   6.575   3.451   5.888
 2973SOL     OW 9817   4.681   6.400   3.786
 2973SOL    HW1 9818   4.758   6.413   3.849
 2973SOL    HW2 9819   4.685   6.469   3.714
 2974SOL     OW 9820   0.004   4.371   3.186
 2974SOL    HW1 9821   6.947   4.343   3.134
 2974SOL    HW2 9822   0.060   4.290   3.205
 2975SOL     OW 9823   0.318   0.716   5.075
 2975SOL    HW1 9824   0.265   0.792   5.113
 2975SOL    HW2 9825   0.323   0.642   5.143
 2976SOL     OW 9826   4.107   1.048   2.866
 2976SOL    HW1 9827   4.022   1.026   2.818
 2976SOL    HW2 9828   4.172   0.973   2.853
 2977SOL     OW 9829   3.039   6.879   3.982
 2977SOL    HW1 9830   3.092   6.794   3.982
 2977SOL    HW2 9831   3.003   6.895   4.074
 2978SOL     OW 9832   5.292   5.122   0.127
 2978SOL    HW1 9833   5.389   5.125   0.103
 2978SOL    HW2 9834   5.249   5.209   0.103
 2979SOL     OW 9835   3.590   0.475   2.915
 2979SOL    HW1 9836   3.604   0.549   2.850
 2979SOL    HW2 9837   3.658   0.480   2.988
 2980SOL     OW 9838   0.274   5.885   4.342
 2980SOL    HW1 9839   0.295   5.978   4.372
 2980SOL    HW2 9840   0.353   5.847   4.293
 2981SOL     OW 9841   1.790   0.926   5.551
 2981SOL    HW1 9842   1.711   0.955   5.497
 2981SOL    HW2 9843   1.775   0.833   5.584
 2982SOL     OW 9844   4.704   5.903   2.053
 2982SOL    HW1 9845   4.650   5.838   1.999
 2982SOL    HW2 9846   4.791   5.861   2.079
 2983SOL     OW 9847   6.859   1.172   4.162
 2983SOL    HW1 9848   6.803   1.118   4.099
 2983SOL    HW2 9849   6.914   1.238   4.111
 2984SOL     OW 9850   5.886   5.356   1.791
 2984SOL    HW1 9851   5.820   5.392   1.858
 2984SOL    HW2 9852   5.851   5.371   1.699
 2985SOL     OW 9853   6.763   2.330   3.574
 2985SOL    HW1 9854   6.793   2.415   3.617
 2985SOL    HW2 9855   6.767   2.255   3.641
 2986SOL     OW 9856   1.498   3.508   5.085
 2986SOL    HW1 9857   1.594   3.506   5.114
 2986SOL    HW2 9858   1.470   3.603   5.069
 2987SOL     OW 9859   4.389   2.068   4.401
 2987SOL    HW1 9860   4.321   2.005   4.436
 2987SOL    HW2 9861   4.348   2.158   4.389
 2988SOL     OW 9862   1.216   0.090   1.603
 2988SOL    HW1 9863   1.169   0.175   1.628
 2988SOL    HW2 9864   1.173   0.053   1.520
 2989SOL     OW 9865   0.096   4.850   1.003
 2989SOL    HW1 9866   0.085   4.898   1.090
 2989SOL    HW2 9867   0.082   4.914   0.927
 2990SOL     OW 9868   3.711   1.614   1.485
 2990SOL    HW1 9869   3.772   1.595   1.562
 2990SOL    HW2 9870   3.765   1.649   1.408
 2991SOL     OW 9871   7.000   3.773   0.462
 2991SOL    HW1 9872   7.017   3.750   0.558
 2991SOL    HW2 9873   7.010   3.871   0.449
 2992SOL     OW 9874   3.499   5.096   6.368
 2992SOL    HW1 9875   3.430   5.147   6.420
 2992SOL    HW2 9876   3.458   5.011   6.334
 2993SOL     OW 9877   1.296   5.500   1.293
 2993SOL    HW1 9878   1.280   5.403   1.274
 2993SOL    HW2 9879   1.361   5.537   1.226
 2994SOL     OW 9880   5.179   6.822   0.238
 2994SOL    HW1 9881   5.084   6.839   0.211
 2994SOL    HW2 9882   5.236   6.816   0.155
 2995SOL     OW 9883   1.531   1.798   6.668
 2995SOL    HW1 9884   1.482   1.839   6.745
 2995SOL    HW2 9885   1.598   1.864   6.633
 2996SOL     OW 9886   4.007   5.304   6.134
 2996SOL    HW1 9887   4.029   5.365   6.058
 2996SOL    HW2 9888   3.908   5.304   6.150
 2997SOL     OW 9889   5.656   6.557   0.963
 2997SOL    HW1 9890   5.615   6.502   0.891
 2997SOL    HW2 9891   5.587   6.617   1.003
 2998SOL     OW 9892   6.333   5.491   4.121
 2998SOL    HW1 9893   6.263   5.517   4.188
 2998SOL    HW2 9894   6.300   5.512   4.029
 2999SOL     OW 9895   3.122   6.890   2.837
 2999SOL    HW1 9896   3.135   6.884   2.936
 2999SOL    HW2 9897   3.025   6.904   2.817
 3000SOL     OW 9898   1.354   3.294   5.683
 3000SOL    HW1 9899   1.313   3.261   5.768
 3000SOL    HW2 9900   1.326   3.235   5.607
 3001SOL     OW 9901   4.999   0.862   5.873
 3001SOL    HW1 9902   4.973   0.822   5.785
 3001SOL    HW2 9903   4.919   0.865   5.933
 3002SOL     OW 9904   4.376   0.113   5.446
 3002SOL    HW1 9905   4.281   0.110   5.417
 3002SOL    HW2 9906   4.397   0.031   5.500
 3003SOL     OW 9907   3.070   6.752   6.004
 3003SOL    HW1 9908   3.138   6.747   6.077
 3003SOL    HW2 9909   3.090   6.683   5.934
 3004SOL     OW 9910   6.129   3.078   4.170
 3004SOL    HW1 9911   6.184   3.096   4.252
 3004SOL    HW2 9912   6.173   3.005   4.117
 3005SOL     OW 9913   3.772   3.106   1.018
 3005SOL    HW1 9914   3.829   3.077   1.095
 3005SOL    HW2 9915   3.715   3.030   0.987
 3006SOL     OW 9916   5.153   0.847   1.110
 3006SOL    HW1 9917   5.165   0.939   1.148
 3006SOL    HW2 9918   5.077   0.848   1.044
 3007SOL     OW 9919   6.122   4.699   3.037
 3007SOL    HW1 9920   6.031   4.740   3.025
 3007SOL    HW2 9921   6.187   4.770   3.065
 3008SOL     OW 9922   3.464   6.668   5.668
 3008SOL    HW1 9923   3.537   6.644   5.605
 3008SOL    HW2 9924   3.444   6.591   5.728
 3009SOL     OW 9925   1.143   6.513   3.132
 3009SOL    HW1 9926   1.210   6.576   3.094
 3009SOL    HW2 9927   1.083   6.564   3.196
 3010SOL     OW 9928   3.713   6.146   2.523
 3010SOL    HW1 9929   3.629   6.200   2.529
 3010SOL    HW2 9930   3.752   6.135   2.615
 3011SOL     OW 9931   5.971   6.945   0.078
 3011SOL    HW1 9932   5.928   6.944   0.168
 3011SOL    HW2 9933   6.052   6.885   0.079
 3012SOL     OW 9934   0.113   3.793   3.849
 3012SOL    HW1 9935   0.022   3.760   3.824
 3012SOL    HW2 9936   0.155   3.837   3.770
 3013SOL     OW 9937   6.101   5.524   2.158
 3013SOL    HW1 9938   6.146   5.591   2.217
 3013SOL    HW2 9939   6.028   5.479   2.208
 3014SOL     OW 9940   4.702   1.047   3.851
 3014SOL    HW1 9941   4.716   1.096   3.764
 3014SOL    HW2 9942   4.622   0.988   3.842
 3015SOL     OW 9943   2.794   2.317   0.560
 3015SOL    HW1 9944   2.758   2.239   0.508
 3015SOL    HW2 9945   2.833   2.383   0.497
 3016SOL     OW 9946   3.677   6.648   3.367
 3016SOL    HW1 9947   3.708   6.565   3.322
 3016SOL    HW2 9948   3.670   6.632   3.466
 3017SOL     OW 9949   0.739   6.034   1.316
 3017SOL    HW1 9950   0.654   6.073   1.281
 3017SOL    HW2 9951   0.812   6.048   1.249
 3018SOL     OW 9952   4.059   6.794   6.686
 3018SOL    HW1 9953   4.099   6.831   6.602
 3018SOL    HW2 9954   4.075   6.857   6.762
 3019SOL     OW 9955   3.689   0.326   1.047
 3019SOL    HW1 9956   3.736   0.239   1.037
 3019SOL    HW2 9957   3.620   0.320   1.119
 3020SOL     OW 9958   2.724   3.290   1.436
 3020SOL    HW1 9959   2.808   3.250   1.398
 3020SOL    HW2 9960   2.711   3.382   1.401
 3021SOL     OW 9961   1.838   2.342   7.007
 3021SOL    HW1 9962   1.800   2.290   0.060
 3021SOL    HW2 9963   1.904   2.285   6.957
 3022SOL     OW 9964   4.868   6.651   2.907
 3022SOL    HW1 9965   4.865   6.669   3.006
 3022SOL    HW2 9966   4.948   6.695   2.868
 3023SOL     OW 9967   4.728   5.819   3.040
 3023SOL    HW1 9968   4.776   5.892   2.991
 3023SOL    HW2 9969   4.741   5.733   2.992
 3024SOL     OW 9970   3.085   1.045   0.269
 3024SOL    HW1 9971   3.073   0.954   0.230
 3024SOL    HW2 9972   2.996   1.090   0.278
 3025SOL     OW 9973   2.441   2.893   1.203
 3025SOL    HW1 9974   2.439   2.805   1.155
 3025SOL    HW2 9975   2.413   2.966   1.140
 3026SOL     OW 9976   1.804   3.309   0.840
 3026SOL    HW1 9977   1.808   3.259   0.927
 3026SOL    HW2 9978   1.897   3.333   0.811
 3027SOL     OW 9979   1.837   1.672   3.579
 3027SOL    HW1 9980   1.880   1.759   3.554
 3027SOL    HW2 9981   1.741   1.672   3.551
 3028SOL     OW 9982   1.697   5.774   5.943
 3028SOL    HW1 9983   1.651   5.718   5.874
 3028SOL    HW2 9984   1.708   5.721   6.027
 3029SOL     OW 9985   6.312   5.738   5.307
 3029SOL    HW1 9986   6.386   5.670   5.305
 3029SOL    HW2 9987   6.224   5.692   5.313
 3030SOL     OW 9988   1.427   1.651   5.373
 3030SOL    HW1 9989   1.352   1.707   5.409
 3030SOL    HW2 9990   1.390   1.565   5.336
 3031SOL     OW 9991   0.018   3.927   6.389
 3031SOL    HW1 9992   7.017   3.919   6.485
 3031SOL    HW2 9993   6.960   3.934   6.333
 3032SOL     OW 9994   5.255   0.836   5.835
 3032SOL    HW1 9995   5.155   0.841   5.843
 3032SOL    HW2 9996   5.292   0.793   5.918
 3033SOL     OW 9997   0.419   3.888   6.665
 3033SOL    HW1 9998   0.412   3.983   6.633
 3033SOL    HW2 9999   0.413   3.826   6.586
 3034SOL     OW10000   3.238   6.088   4.194
 3034SOL    HW110001   3.288   6.071   4.109
 3034SOL    HW210002   3.302   6.094   4.270
 3035SOL     OW10003   5.551   1.547   0.175
 3035SOL    HW110004   5.575   1.452   0.194
 3035SOL    HW210005   5.628   1.606   0.197
 3036SOL     OW10006   0.998   4.153   6.506
 3036SOL    HW110007   0.966   4.115   6.593
 3036SOL    HW210008   0.926   4.209   6.465
 3037SOL     OW10009   6.810   6.232   5.304
 3037SOL    HW110010   6.892   6.255   5.357
 3037SOL    HW210011   6.741   6.304   5.315
 3038SOL     OW10012   5.156   6.792   6.067
 3038SOL    HW110013   5.199   6.710   6.105
 3038SOL    HW210014   5.165   6.868   6.132
 3039SOL     OW10015   0.569   3.986   1.885
 3039SOL    HW110016   0.597   3.903   1.838
 3039SOL    HW210017   0.475   4.009   1.857
 3040SOL     OW10018   2.854   3.805   6.657
 3040SOL    HW110019   2.793   3.882   6.679
 3040SOL    HW210020   2.826   3.764   6.570
 3041SOL     OW10021   1.931   2.305   5.672
 3041SOL    HW110022   1.847   2.276   5.717
 3041SOL    HW210023   1.990   2.226   5.656
 3042SOL     OW10024   4.715   0.342   2.037
 3042SOL    HW110025   4.701   0.324   2.134
 3042SOL    HW210026   4.749   0.260   1.991
 3043SOL     OW10027   1.189   5.377   0.325
 3043SOL    HW110028   1.268   5.320   0.346
 3043SOL    HW210029   1.197   5.414   0.232
 3044SOL     OW10030   3.445   4.486   6.230
 3044SOL    HW110031   3.423   4.583   6.236
 3044SOL    HW210032   3.361   4.434   6.214
 3045SOL     OW10033   5.265   2.033   2.597
 3045SOL    HW110034   5.305   2.123   2.616
 3045SOL    HW210035   5.305   1.965   2.659
 3046SOL     OW10036   1.712   2.637   5.592
 3046SOL    HW110037   1.808   2.663   5.581
 3046SOL    HW210038   1.664   2.707   5.644
 3047SOL     OW10039   6.221   5.681   2.332
 3047SOL    HW110040   6.266   5.597   2.363
 3047SOL    HW210041   6.171   5.722   2.408
 3048SOL     OW10042   3.258   3.198   1.158
 3048SOL    HW110043   3.254   3.115   1.103
 3048SOL    HW210044   3.165   3.227   1.183
 3049SOL     OW10045   0.970   0.615   1.628
 3049SOL    HW110046   0.941   0.710   1.642
 3049SOL    HW210047   1.015   0.581   1.710
 3050SOL     OW10048   4.401   5.950   3.720
 3050SOL    HW110049   4.462   6.028   3.734
 3050SOL    HW210050   4.340   5.968   3.643
 3051SOL     OW10051   2.834   5.293   7.005
 3051SOL    HW110052   2.918   5.245   0.006
 3051SOL    HW210053   2.811   5.360   0.052
 3052SOL     OW10054   3.537   7.015   2.915
 3052SOL    HW110055   3.538   6.920   2.886
 3052SOL    HW210056   3.577   7.023   3.007
 3053SOL     OW10057   5.763   6.345   0.347
 3053SOL    HW110058   5.677   6.296   0.365
 3053SOL    HW210059   5.834   6.279   0.324
 3054SOL     OW10060   0.572   3.439   0.172
 3054SOL    HW110061   0.550   3.526   0.216
 3054SOL    HW210062   0.579   3.452   0.073
 3055SOL     OW10063   5.927   6.157   3.705
 3055SOL    HW110064   5.989   6.114   3.771
 3055SOL    HW210065   5.835   6.120   3.717
 3056SOL     OW10066   6.620   0.509   0.429
 3056SOL    HW110067   6.714   0.538   0.413
 3056SOL    HW210068   6.579   0.479   0.343
 3057SOL     OW10069   5.865   4.790   3.033
 3057SOL    HW110070   5.807   4.871   3.026
 3057SOL    HW210071   5.829   4.728   3.102
 3058SOL     OW10072   6.150   5.368   0.866
 3058SOL    HW110073   6.106   5.282   0.838
 3058SOL    HW210074   6.229   5.385   0.808
 3059SOL     OW10075   1.073   2.936   5.134
 3059SOL    HW110076   1.020   2.961   5.052
 3059SOL    HW210077   1.170   2.944   5.114
 3060SOL     OW10078   0.124   6.400   1.593
 3060SOL    HW110079   0.113   6.347   1.678
 3060SOL    HW210080   0.136   6.337   1.516
 3061SOL     OW10081   0.122   0.501   5.475
 3061SOL    HW110082   0.091   0.522   5.568
 3061SOL    HW210083   0.213   0.539   5.462
 3062SOL     OW10084   2.719   6.263   0.876
 3062SOL    HW110085   2.731   6.210   0.792
 3062SOL    HW210086   2.689   6.355   0.854
 3063SOL     OW10087   1.663   5.230   1.539
 3063SOL    HW110088   1.623   5.300   1.598
 3063SOL    HW210089   1.739   5.186   1.587
 3064SOL     OW10090   6.460   3.825   3.139
 3064SOL    HW110091   6.520   3.867   3.071
 3064SOL    HW210092   6.402   3.756   3.096
 3065SOL     OW10093   1.654   0.802   0.008
 3065SOL    HW110094   1.671   0.827   0.103
 3065SOL    HW210095   1.558   0.820   7.009
 3066SOL     OW10096   6.326   4.803   1.286
 3066SOL    HW110097   6.380   4.885   1.266
 3066SOL    HW210098   6.252   4.795   1.220
 3067SOL     OW10099   4.871   6.809   4.154
 3067SOL    HW110100   4.954   6.765   4.119
 3067SOL    HW210101   4.813   6.837   4.078
 3068SOL     OW10102   5.753   5.057   1.190
 3068SOL    HW110103   5.831   4.994   1.185
 3068SOL    HW210104   5.787   5.151   1.195
 3069SOL     OW10105   0.491   5.592   1.964
 3069SOL    HW110106   0.546   5.661   2.012
 3069SOL    HW210107   0.507   5.502   2.006
 3070SOL     OW10108   2.732   1.348   3.486
 3070SOL    HW110109   2.776   1.362   3.574
 3070SOL    HW210110   2.652   1.290   3.498
 3071SOL     OW10111   6.001   0.098   3.817
 3071SOL    HW110112   6.027   0.080   3.911
 3071SOL    HW210113   6.061   0.167   3.778
 3072SOL     OW10114   0.386   6.797   2.516
 3072SOL    HW110115   0.421   6.889   2.534
 3072SOL    HW210116   0.424   6.764   2.430
 3073SOL     OW10117   1.101   3.569   5.217
 3073SOL    HW110118   1.078   3.472   5.208
 3073SOL    HW210119   1.031   3.616   5.270
 3074SOL     OW10120   3.888   3.101   6.413
 3074SOL    HW110121   3.969   3.043   6.404
 3074SOL    HW210122   3.916   3.194   6.437
 3075SOL     OW10123   1.458   5.936   1.264
 3075SOL    HW110124   1.456   5.837   1.253
 3075SOL    HW210125   1.428   5.960   1.357
 3076SOL     OW10126   6.224   0.694   5.098
 3076SOL    HW110127   6.233   0.673   5.195
 3076SOL    HW210128   6.151   0.760   5.085
 3077SOL     OW10129   5.855   4.560   4.237
 3077SOL    HW110130   5.887   4.491   4.303
 3077SOL    HW210131   5.889   4.650   4.264
 3078SOL     OW10132   1.534   3.702   1.910
 3078SOL    HW110133   1.622   3.658   1.925
 3078SOL    HW210134   1.460   3.639   1.936
 3079SOL     OW10135   6.864   2.250   5.344
 3079SOL    HW110136   6.806   2.282   5.269
 3079SOL    HW210137   6.960   2.249   5.313
 3080SOL     OW10138   6.335   5.054   0.893
 3080SOL    HW110139   6.430   5.052   0.862
 3080SOL    HW210140   6.284   4.981   0.848
 3081SOL     OW10141   0.716   4.232   5.545
 3081SOL    HW110142   0.719   4.218   5.644
 3081SOL    HW210143   0.800   4.277   5.515
 3082SOL     OW10144   3.358   0.207   2.324
 3082SOL    HW110145   3.306   0.199   2.409
 3082SOL    HW210146   3.364   0.118   2.279
 3083SOL     OW10147   3.388   0.640   1.947
 3083SOL    HW110148   3.465   0.696   1.915
 3083SOL    HW210149   3.423   0.558   1.991
 3084SOL     OW10150   5.549   5.372   4.704
 3084SOL    HW110151   5.465   5.335   4.743
 3084SOL    HW210152   5.601   5.299   4.659
 3085SOL     OW10153   6.968   5.700   2.658
 3085SOL    HW110154   0.038   5.715   2.628
 3085SOL    HW210155   6.908   5.766   2.613
 3086SOL     OW10156   4.601   1.861   3.147
 3086SOL    HW110157   4.609   1.935   3.214
 3086SOL    HW210158   4.544   1.891   3.070
 3087SOL     OW10159   6.078   4.004   3.017
 3087SOL    HW110160   6.122   3.916   3.036
 3087SOL    HW210161   5.987   3.988   2.979
 3088SOL     OW10162   2.467   4.354   5.400
 3088SOL    HW110163   2.448   4.260   5.429
 3088SOL    HW210164   2.412   4.376   5.320
 3089SOL     OW10165   1.552   2.450   0.138
 3089SOL    HW110166   1.584   2.543   0.154
 3089SOL    HW210167   1.512   2.413   0.222
 3090SOL     OW10168   1.449   1.824   1.154
 3090SOL    HW110169   1.483   1.915   1.129
 3090SOL    HW210170   1.396   1.830   1.238
 3091SOL     OW10171   2.192   6.467   0.556
 3091SOL    HW110172   2.277   6.417   0.571
 3091SOL    HW210173   2.186   6.496   0.460
 3092SOL     OW10174   6.045   6.816   1.062
 3092SOL    HW110175   6.127   6.859   1.025
 3092SOL    HW210176   5.964   6.860   1.024
 3093SOL     OW10177   6.337   5.419   5.533
 3093SOL    HW110178   6.333   5.341   5.595
 3093SOL    HW210179   6.263   5.482   5.554
 3094SOL     OW10180   3.163   5.953   5.327
 3094SOL    HW110181   3.077   5.941   5.278
 3094SOL    HW210182   3.145   5.962   5.425
 3095SOL     OW10183   2.835   4.798   4.561
 3095SOL    HW110184   2.909   4.831   4.502
 3095SOL    HW210185   2.862   4.713   4.606
 3096SOL     OW10186   0.447   0.365   4.873
 3096SOL    HW110187   0.427   0.463   4.864
 3096SOL    HW210188   0.441   0.339   4.970
 3097SOL     OW10189   0.818   2.943   0.402
 3097SOL    HW110190   0.769   2.964   0.318
 3097SOL    HW210191   0.789   3.005   0.475
 3098SOL     OW10192   2.201   3.324   0.465
 3098SOL    HW110193   2.133   3.382   0.420
 3098SOL    HW210194   2.273   3.300   0.400
 3099SOL     OW10195   0.641   5.608   5.850
 3099SOL    HW110196   0.734   5.584   5.823
 3099SOL    HW210197   0.608   5.542   5.917
 3100SOL     OW10198   6.785   6.729   6.637
 3100SOL    HW110199   6.691   6.697   6.624
 3100SOL    HW210200   6.787   6.828   6.638
 3101SOL     OW10201   5.131   6.646   6.487
 3101SOL    HW110202   5.120   6.729   6.541
 3101SOL    HW210203   5.041   6.606   6.468
 3102SOL     OW10204   1.538   3.986   0.819
 3102SOL    HW110205   1.516   4.083   0.823
 3102SOL    HW210206   1.455   3.932   0.829
 3103SOL     OW10207   4.051   2.655   1.686
 3103SOL    HW110208   4.143   2.631   1.717
 3103SOL    HW210209   4.018   2.586   1.621
 3104SOL     OW10210   5.644   5.766   4.281
 3104SOL    HW110211   5.690   5.732   4.363
 3104SOL    HW210212   5.618   5.861   4.294
 3105SOL     OW10213   5.842   6.542   4.186
 3105SOL    HW110214   5.784   6.590   4.120
 3105SOL    HW210215   5.886   6.464   4.142
 3106SOL     OW10216   6.702   2.808   2.723
 3106SOL    HW110217   6.751   2.816   2.636
 3106SOL    HW210218   6.768   2.791   2.796
 3107SOL     OW10219   3.019   0.224   3.702
 3107SOL    HW110220   2.957   0.252   3.775
 3107SOL    HW210221   2.967   0.216   3.616
 3108SOL     OW10222   2.233   0.840   3.888
 3108SOL    HW110223   2.232   0.769   3.958
 3108SOL    HW210224   2.231   0.930   3.933
 3109SOL     OW10225   5.147   5.991   3.414
 3109SOL    HW110226   5.244   6.003   3.434
 3109SOL    HW210227   5.136   5.923   3.341
 3110SOL     OW10228   1.379   3.302   2.812
 3110SOL    HW110229   1.316   3.256   2.749
 3110SOL    HW210230   1.326   3.346   2.885
 3111SOL     OW10231   6.915   4.997   3.620
 3111SOL    HW110232   6.984   5.055   3.577
 3111SOL    HW210233   6.946   4.969   3.711
 3112SOL     OW10234   4.691   3.930   6.717
 3112SOL    HW110235   4.734   4.015   6.690
 3112SOL    HW210236   4.631   3.947   6.795
 3113SOL     OW10237   2.356   6.887   3.253
 3113SOL    HW110238   2.343   6.911   3.157
 3113SOL    HW210239   2.453   6.895   3.276
 3114SOL     OW10240   6.127   4.628   1.036
 3114SOL    HW110241   6.068   4.630   0.955
 3114SOL    HW210242   6.217   4.663   1.013
 3115SOL     OW10243   3.542   4.307   0.426
 3115SOL    HW110244   3.537   4.208   0.423
 3115SOL    HW210245   3.482   4.346   0.355
 3116SOL     OW10246   6.508   2.136   0.237
 3116SOL    HW110247   6.426   2.173   0.194
 3116SOL    HW210248   6.589   2.179   0.197
 3117SOL     OW10249   4.079   3.199   4.805
 3117SOL    HW110250   4.015   3.148   4.862
 3117SOL    HW210251   4.171   3.190   4.843
 3118SOL     OW10252   6.170   4.176   0.565
 3118SOL    HW110253   6.238   4.114   0.526
 3118SOL    HW210254   6.213   4.235   0.633
 3119SOL     OW10255   1.517   4.547   4.992
 3119SOL    HW110256   1.419   4.547   5.010
 3119SOL    HW210257   1.563   4.604   5.060
 3120SOL     OW10258   2.966   5.611   4.714
 3120SOL    HW110259   3.003   5.544   4.777
 3120SOL    HW210260   2.877   5.644   4.747
 3121SOL     OW10261   6.831   1.226   2.568
 3121SOL    HW110262   6.914   1.186   2.608
 3121SOL    HW210263   6.753   1.168   2.590
 3122SOL     OW10264   2.919   5.729   6.609
 3122SOL    HW110265   2.937   5.700   6.515
 3122SOL    HW210266   2.920   5.649   6.669
 3123SOL     OW10267   3.741   6.439   3.751
 3123SOL    HW110268   3.655   6.411   3.707
 3123SOL    HW210269   3.733   6.428   3.850
 3124SOL     OW10270   4.359   1.356   5.500
 3124SOL    HW110271   4.324   1.410   5.577
 3124SOL    HW210272   4.394   1.269   5.533
 3125SOL     OW10273   6.343   1.966   6.283
 3125SOL    HW110274   6.347   2.056   6.326
 3125SOL    HW210275   6.436   1.933   6.266
 3126SOL     OW10276   4.385   5.941   0.321
 3126SOL    HW110277   4.439   5.880   0.263
 3126SOL    HW210278   4.288   5.927   0.304
 3127SOL     OW10279   0.807   1.719   4.227
 3127SOL    HW110280   0.795   1.750   4.133
 3127SOL    HW210281   0.902   1.731   4.255
 3128SOL     OW10282   2.214   1.349   0.776
 3128SOL    HW110283   2.251   1.312   0.861
 3128SOL    HW210284   2.122   1.313   0.762
 3129SOL     OW10285   6.579   3.854   5.352
 3129SOL    HW110286   6.582   3.877   5.449
 3129SOL    HW210287   6.509   3.784   5.336
 3130SOL     OW10288   2.148   4.506   1.913
 3130SOL    HW110289   2.147   4.605   1.904
 3130SOL    HW210290   2.114   4.480   2.004
 3131SOL     OW10291   6.964   3.373   2.726
 3131SOL    HW110292   0.039   3.357   2.726
 3131SOL    HW210293   6.944   3.455   2.779
 3132SOL     OW10294   5.540   6.290   5.464
 3132SOL    HW110295   5.570   6.195   5.465
 3132SOL    HW210296   5.544   6.325   5.370
 3133SOL     OW10297   3.281   1.916   3.104
 3133SOL    HW110298   3.276   1.902   3.005
 3133SOL    HW210299   3.192   1.895   3.144
 3134SOL     OW10300   4.748   3.586   1.618
 3134SOL    HW110301   4.758   3.580   1.519
 3134SOL    HW210302   4.806   3.517   1.662
 3135SOL     OW10303   3.541   2.081   3.755
 3135SOL    HW110304   3.462   2.141   3.769
 3135SOL    HW210305   3.593   2.075   3.840
 3136SOL     OW10306   6.167   6.234   5.558
 3136SOL    HW110307   6.221   6.185   5.489
 3136SOL    HW210308   6.209   6.323   5.575
 3137SOL     OW10309   5.794   1.926   4.079
 3137SOL    HW110310   5.785   1.852   4.146
 3137SOL    HW210311   5.752   2.009   4.114
 3138SOL     OW10312   6.384   1.522   4.770
 3138SOL    HW110313   6.358   1.611   4.734
 3138SOL    HW210314   6.327   1.499   4.849
 3139SOL     OW10315   4.966   6.192   5.120
 3139SOL    HW110316   4.885   6.226   5.168
 3139SOL    HW210317   5.048   6.217   5.172
 3140SOL     OW10318   6.681   6.349   6.707
 3140SOL    HW110319   6.767   6.298   6.699
 3140SOL    HW210320   6.633   6.321   6.790
 3141SOL     OW10321   1.439   5.585   0.461
 3141SOL    HW110322   1.530   5.616   0.435
 3141SOL    HW210323   1.445   5.492   0.498
 3142SOL     OW10324   4.422   6.516   6.376
 3142SOL    HW110325   4.454   6.427   6.407
 3142SOL    HW210326   4.326   6.510   6.349
 3143SOL     OW10327   6.590   1.401   0.439
 3143SOL    HW110328   6.566   1.442   0.527
 3143SOL    HW210329   6.572   1.467   0.366
 3144SOL     OW10330   2.393   3.349   6.446
 3144SOL    HW110331   2.312   3.404   6.465
 3144SOL    HW210332   2.387   3.263   6.496
 3145SOL     OW10333   3.025   5.588   2.547
 3145SOL    HW110334   3.109   5.567   2.597
 3145SOL    HW210335   2.998   5.682   2.566
 3146SOL     OW10336   1.322   0.266   3.166
 3146SOL    HW110337   1.378   0.216   3.233
 3146SOL    HW210338   1.282   0.201   3.102
 3147SOL     OW10339   5.125   3.835   0.371
 3147SOL    HW110340   5.198   3.809   0.307
 3147SOL    HW210341   5.036   3.811   0.332
 3148SOL     OW10342   3.940   5.389   4.665
 3148SOL    HW110343   3.878   5.335   4.721
 3148SOL    HW210344   3.917   5.377   4.568
 3149SOL     OW10345   3.506   0.854   5.771
 3149SOL    HW110346   3.498   0.827   5.867
 3149SOL    HW210347   3.439   0.804   5.717
 3150SOL     OW10348   5.953   6.282   4.611
 3150SOL    HW110349   5.865   6.235   4.598
 3150SOL    HW210350   5.960   6.357   4.546
 3151SOL     OW10351   4.360   1.586   6.267
 3151SOL    HW110352   4.431   1.601   6.198
 3151SOL    HW210353   4.288   1.528   6.228
 3152SOL     OW10354   0.811   5.751   1.219
 3152SOL    HW110355   0.784   5.826   1.279
 3152SOL    HW210356   0.907   5.763   1.191
 3153SOL     OW10357   6.925   4.204   2.184
 3153SOL    HW110358   6.995   4.175   2.118
 3153SOL    HW210359   6.837   4.212   2.137
 3154SOL     OW10360   5.651   2.346   6.249
 3154SOL    HW110361   5.573   2.300   6.205
 3154SOL    HW210362   5.706   2.391   6.179
 3155SOL     OW10363   5.847   5.353   0.907
 3155SOL    HW110364   5.787   5.375   0.830
 3155SOL    HW210365   5.938   5.391   0.889
 3156SOL     OW10366   3.712   3.866   3.663
 3156SOL    HW110367   3.731   3.768   3.654
 3156SOL    HW210368   3.689   3.886   3.759
 3157SOL     OW10369   2.198   4.114   3.849
 3157SOL    HW110370   2.174   4.029   3.896
 3157SOL    HW210371   2.208   4.096   3.751
 3158SOL     OW10372   4.811   6.828   1.184
 3158SOL    HW110373   4.803   6.860   1.279
 3158SOL    HW210374   4.777   6.899   1.122
 3159SOL     OW10375   5.224   5.604   6.912
 3159SOL    HW110376   5.192   5.527   6.966
 3159SOL    HW210377   5.183   5.688   6.946
 3160SOL     OW10378   4.915   4.185   0.163
 3160SOL    HW110379   4.827   4.203   0.207
 3160SOL    HW210380   4.987   4.185   0.233
 3161SOL     OW10381   1.432   1.434   3.045
 3161SOL    HW110382   1.450   1.434   2.947
 3161SOL    HW210383   1.337   1.461   3.061
 3162SOL     OW10384   0.408   5.135   6.361
 3162SOL    HW110385   0.335   5.103   6.300
 3162SOL    HW210386   0.424   5.232   6.346
 3163SOL     OW10387   2.860   4.190   6.354
 3163SOL    HW110388   2.840   4.224   6.262
 3163SOL    HW210389   2.808   4.106   6.370
 3164SOL     OW10390   5.102   4.638   0.236
 3164SOL    HW110391   5.061   4.574   0.171
 3164SOL    HW210392   5.039   4.714   0.252
 3165SOL     OW10393   0.168   1.029   1.811
 3165SOL    HW110394   0.158   1.081   1.896
 3165SOL    HW210395   0.193   0.935   1.832
 3166SOL     OW10396   5.573   3.241   6.608
 3166SOL    HW110397   5.667   3.230   6.640
 3166SOL    HW210398   5.573   3.257   6.509
 3167SOL     OW10399   0.037   5.106   1.978
 3167SOL    HW110400   0.000   5.133   2.067
 3167SOL    HW210401   0.062   5.188   1.925
 3168SOL     OW10402   5.515   3.624   1.226
 3168SOL    HW110403   5.506   3.551   1.294
 3168SOL    HW210404   5.518   3.583   1.134
 3169SOL     OW10405   1.194   2.743   5.305
 3169SOL    HW110406   1.291   2.730   5.283
 3169SOL    HW210407   1.149   2.793   5.231
 3170SOL     OW10408   4.394   0.610   0.229
 3170SOL    HW110409   4.331   0.604   0.151
 3170SOL    HW210410   4.388   0.527   0.283
 3171SOL     OW10411   5.696   6.405   3.179
 3171SOL    HW110412   5.616   6.433   3.232
 3171SOL    HW210413   5.774   6.391   3.240
 3172SOL     OW10414   6.303   0.519   4.900
 3172SOL    HW110415   6.377   0.553   4.842
 3172SOL    HW210416   6.279   0.589   4.968
 3173SOL     OW10417   2.778   0.385   1.193
 3173SOL    HW110418   2.831   0.336   1.124
 3173SOL    HW210419   2.700   0.430   1.150
 3174SOL     OW10420   2.320   2.929   6.322
 3174SOL    HW110421   2.326   2.839   6.364
 3174SOL    HW210422   2.271   2.921   6.235
 3175SOL     OW10423   0.670   6.475   0.879
 3175SOL    HW110424   0.755   6.485   0.931
 3175SOL    HW210425   0.687   6.500   0.783
 3176SOL     OW10426   0.612   4.673   6.486
 3176SOL    HW110427   0.635   4.575   6.483
 3176SOL    HW210428   0.654   4.714   6.567
 3177SOL     OW10429   5.840   5.956   5.633
 3177SOL    HW110430   5.876   6.046   5.606
 3177SOL    HW210431   5.786   5.965   5.716
 3178SOL     OW10432   0.950   3.493   1.366
 3178SOL    HW110433   0.869   3.480   1.423
 3178SOL    HW210434   0.972   3.590   1.361
 3179SOL     OW10435   1.938   1.436   2.737
 3179SOL    HW110436   1.896   1.494   2.807
 3179SOL    HW210437   1.910   1.468   2.646
 3180SOL     OW10438   5.626   0.671   5.951
 3180SOL    HW110439   5.590   0.760   5.926
 3180SOL    HW210440   5.726   0.674   5.953
 3181SOL     OW10441   0.910   1.125   2.865
 3181SOL    HW110442   0.923   1.224   2.869
 3181SOL    HW210443   0.963   1.087   2.789
 3182SOL     OW10444   2.092   5.492   5.277
 3182SOL    HW110445   2.127   5.419   5.218
 3182SOL    HW210446   2.014   5.537   5.231
 3183SOL     OW10447   3.291   3.138   1.493
 3183SOL    HW110448   3.283   3.162   1.590
 3183SOL    HW210449   3.253   3.047   1.478
 3184SOL     OW10450   2.512   1.935   1.842
 3184SOL    HW110451   2.439   1.969   1.783
 3184SOL    HW210452   2.600   1.964   1.805
 3185SOL     OW10453   6.814   7.024   5.706
 3185SOL    HW110454   6.727   6.993   5.742
 3185SOL    HW210455   6.861   0.058   5.773
 3186SOL     OW10456   3.001   1.175   2.357
 3186SOL    HW110457   2.921   1.148   2.304
 3186SOL    HW210458   3.012   1.274   2.354
 3187SOL     OW10459   3.704   4.778   0.101
 3187SOL    HW110460   3.756   4.731   0.029
 3187SOL    HW210461   3.717   4.730   0.188
 3188SOL     OW10462   4.202   6.201   3.194
 3188SOL    HW110463   4.280   6.235   3.142
 3188SOL    HW210464   4.231   6.128   3.255
 3189SOL     OW10465   0.866   6.255   2.648
 3189SOL    HW110466   0.818   6.169   2.635
 3189SOL    HW210467   0.806   6.321   2.693
 3190SOL     OW10468   0.925   5.772   2.364
 3190SOL    HW110469   1.008   5.828   2.356
 3190SOL    HW210470   0.887   5.756   2.273
 3191SOL     OW10471   3.946   0.982   1.111
 3191SOL    HW110472   3.857   0.983   1.157
 3191SOL    HW210473   3.937   1.021   1.019
 3192SOL     OW10474   0.877   3.255   2.759
 3192SOL    HW110475   0.836   3.297   2.839
 3192SOL    HW210476   0.845   3.161   2.750
 3193SOL     OW10477   4.329   3.140   6.390
 3193SOL    HW110478   4.325   3.198   6.471
 3193SOL    HW210479   4.319   3.044   6.418
 3194SOL     OW10480   0.020   3.478   6.144
 3194SOL    HW110481   0.085   3.403   6.139
 3194SOL    HW210482   0.045   3.549   6.079
 3195SOL     OW10483   0.938   3.219   3.481
 3195SOL    HW110484   1.030   3.223   3.443
 3195SOL    HW210485   0.941   3.180   3.573
 3196SOL     OW10486   6.657   0.150   5.510
 3196SOL    HW110487   6.697   0.072   5.558
 3196SOL    HW210488   6.695   0.235   5.546
 3197SOL     OW10489   0.983   4.572   3.770
 3197SOL    HW110490   1.005   4.559   3.866
 3197SOL    HW210491   0.951   4.486   3.730
 3198SOL     OW10492   6.668   1.389   0.076
 3198SOL    HW110493   6.707   1.298   0.092
 3198SOL    HW210494   6.679   1.445   0.158
 3199SOL     OW10495   4.597   2.279   2.073
 3199SOL    HW110496   4.553   2.358   2.030
 3199SOL    HW210497   4.692   2.302   2.097
 3200SOL     OW10498   6.856   1.618   1.566
 3200SOL    HW110499   6.885   1.650   1.656
 3200SOL    HW210500   6.923   1.555   1.530
 3201SOL     OW10501   4.533   4.507   2.779
 3201SOL    HW110502   4.446   4.540   2.743
 3201SOL    HW210503   4.563   4.427   2.727
 3202SOL     OW10504   2.014   5.790   1.815
 3202SOL    HW110505   2.085   5.827   1.873
 3202SOL    HW210506   2.044   5.791   1.719
 3203SOL     OW10507   6.581   6.908   1.950
 3203SOL    HW110508   6.638   6.827   1.932
 3203SOL    HW210509   6.513   6.885   2.019
 3204SOL     OW10510   6.416   5.297   1.876
 3204SOL    HW110511   6.423   5.289   1.777
 3204SOL    HW210512   6.330   5.341   1.900
 3205SOL     OW10513   0.406   3.584   3.664
 3205SOL    HW110514   0.480   3.521   3.639
 3205SOL    HW210515   0.324   3.561   3.612
 3206SOL     OW10516   1.046   0.212   6.555
 3206SOL    HW110517   1.123   0.180   6.500
 3206SOL    HW210518   0.972   0.241   6.494
 3207SOL     OW10519   0.259   1.285   4.362
 3207SOL    HW110520   0.359   1.280   4.357
 3207SOL    HW210521   0.232   1.369   4.410
 3208SOL     OW10522   5.462   6.840   5.394
 3208SOL    HW110523   5.518   6.922   5.406
 3208SOL    HW210524   5.376   6.864   5.348
 3209SOL     OW10525   2.380   0.690   3.726
 3209SOL    HW110526   2.354   0.775   3.771
 3209SOL    HW210527   2.480   0.680   3.729
 3210SOL     OW10528   0.231   4.532   3.049
 3210SOL    HW110529   0.170   4.559   3.123
 3210SOL    HW210530   0.322   4.567   3.066
 3211SOL     OW10531   1.874   4.682   2.135
 3211SOL    HW110532   1.836   4.721   2.219
 3211SOL    HW210533   1.844   4.736   2.056
 3212SOL     OW10534   4.707   2.229   5.772
 3212SOL    HW110535   4.807   2.234   5.783
 3212SOL    HW210536   4.671   2.321   5.758
 3213SOL     OW10537   6.412   6.278   1.801
 3213SOL    HW110538   6.483   6.216   1.834
 3213SOL    HW210539   6.397   6.351   1.868
 3214SOL     OW10540   4.523   5.577   6.126
 3214SOL    HW110541   4.547   5.652   6.064
 3214SOL    HW210542   4.607   5.534   6.160
 3215SOL     OW10543   5.855   1.541   6.816
 3215SOL    HW110544   5.882   1.604   6.888
 3215SOL    HW210545   5.859   1.447   6.850
 3216SOL     OW10546   5.484   6.332   4.163
 3216SOL    HW110547   5.430   6.348   4.246
 3216SOL    HW210548   5.473   6.238   4.133
 3217SOL     OW10549   6.859   3.812   1.673
 3217SOL    HW110550   6.957   3.829   1.682
 3217SOL    HW210551   6.809   3.862   1.744
 3218SOL     OW10552   2.775   0.509   2.528
 3218SOL    HW110553   2.805   0.417   2.552
 3218SOL    HW210554   2.807   0.574   2.597
 3219SOL     OW10555   6.751   0.403   3.753
 3219SOL    HW110556   6.741   0.380   3.850
 3219SOL    HW210557   6.670   0.371   3.703
 3220SOL     OW10558   6.214   3.339   5.575
 3220SOL    HW110559   6.125   3.341   5.621
 3220SOL    HW210560   6.253   3.431   5.573
 3221SOL     OW10561   2.611   0.146   3.311
 3221SOL    HW110562   2.601   0.234   3.265
 3221SOL    HW210563   2.646   0.079   3.245
 3222SOL     OW10564   5.699   2.827   2.936
 3222SOL    HW110565   5.660   2.885   2.864
 3222SOL    HW210566   5.643   2.745   2.947
 3223SOL     OW10567   2.482   5.029   5.085
 3223SOL    HW110568   2.432   4.968   5.022
 3223SOL    HW210569   2.567   4.985   5.113
 3224SOL     OW10570   3.908   5.335   0.403
 3224SOL    HW110571   3.999   5.365   0.373
 3224SOL    HW210572   3.882   5.387   0.484
 3225SOL     OW10573   2.567   3.595   0.061
 3225SOL    HW110574   2.490   3.554   0.012
 3225SOL    HW210575   2.587   3.685   0.022
 3226SOL     OW10576   1.167   0.262   4.204
 3226SOL    HW110577   1.078   0.231   4.172
 3226SOL    HW210578   1.232   0.263   4.128
 3227SOL     OW10579   2.438   1.414   6.239
 3227SOL    HW110580   2.523   1.373   6.273
 3227SOL    HW210581   2.362   1.351   6.256
 3228SOL     OW10582   5.375   3.511   5.264
 3228SOL    HW110583   5.399   3.527   5.360
 3228SOL    HW210584   5.283   3.546   5.246
 3229SOL     OW10585   3.976   2.494   5.368
 3229SOL    HW110586   4.034   2.551   5.310
 3229SOL    HW210587   4.020   2.406   5.385
 3230SOL     OW10588   1.103   0.287   3.537
 3230SOL    HW110589   1.180   0.340   3.503
 3230SOL    HW210590   1.047   0.257   3.460
 3231SOL     OW10591   6.129   5.386   1.246
 3231SOL    HW110592   6.122   5.443   1.164
 3231SOL    HW210593   6.049   5.327   1.253
 3232SOL     OW10594   2.112   4.666   3.527
 3232SOL    HW110595   2.141   4.572   3.541
 3232SOL    HW210596   2.170   4.727   3.581
 3233SOL     OW10597   0.827   4.171   1.575
 3233SOL    HW110598   0.804   4.265   1.548
 3233SOL    HW210599   0.795   4.108   1.505
 3234SOL     OW10600   0.185   1.624   5.293
 3234SOL    HW110601   0.127   1.706   5.294
 3234SOL    HW210602   0.193   1.591   5.199
 3235SOL     OW10603   5.408   0.244   2.302
 3235SOL    HW110604   5.472   0.171   2.328
 3235SOL    HW210605   5.367   0.222   2.214
 3236SOL     OW10606   0.812   2.915   1.779
 3236SOL    HW110607   0.723   2.956   1.758
 3236SOL    HW210608   0.861   2.973   1.845
 3237SOL     OW10609   3.225   0.381   4.556
 3237SOL    HW110610   3.222   0.474   4.519
 3237SOL    HW210611   3.163   0.373   4.634
 3238SOL     OW10612   7.010   6.538   6.786
 3238SOL    HW110613   0.030   6.594   6.857
 3238SOL    HW210614   6.929   6.585   6.752
 3239SOL     OW10615   6.974   6.398   5.440
 3239SOL    HW110616   6.903   6.464   5.462
 3239SOL    HW210617   0.013   6.437   5.374
 3240SOL     OW10618   1.084   1.483   4.455
 3240SOL    HW110619   1.017   1.473   4.381
 3240SOL    HW210620   1.050   1.551   4.521
 3241SOL     OW10621   5.630   0.911   4.284
 3241SOL    HW110622   5.661   0.951   4.198
 3241SOL    HW210623   5.638   0.811   4.278
 3242SOL     OW10624   3.547   6.609   6.947
 3242SOL    HW110625   3.621   6.646   7.003
 3242SOL    HW210626   3.577   6.525   6.902
 3243SOL     OW10627   3.272   5.515   0.660
 3243SOL    HW110628   3.273   5.490   0.563
 3243SOL    HW210629   3.353   5.570   0.681
 3244SOL     OW10630   2.877   6.226   6.228
 3244SOL    HW110631   2.834   6.297   6.285
 3244SOL    HW210632   2.862   6.247   6.132
 3245SOL     OW10633   3.853   2.288   6.183
 3245SOL    HW110634   3.829   2.195   6.211
 3245SOL    HW210635   3.950   2.304   6.200
 3246SOL     OW10636   5.252   6.376   3.408
 3246SOL    HW110637   5.200   6.318   3.346
 3246SOL    HW210638   5.228   6.354   3.503
 3247SOL     OW10639   0.169   2.438   4.882
 3247SOL    HW110640   0.254   2.410   4.837
 3247SOL    HW210641   0.160   2.537   4.877
 3248SOL     OW10642   5.780   3.724   2.236
 3248SOL    HW110643   5.803   3.821   2.237
 3248SOL    HW210644   5.862   3.670   2.256
 3249SOL     OW10645   2.339   4.388   5.148
 3249SOL    HW110646   2.397   4.451   5.096
 3249SOL    HW210647   2.305   4.317   5.086
 3250SOL     OW10648   4.144   6.569   1.580
 3250SOL    HW110649   4.098   6.485   1.550
 3250SOL    HW210650   4.168   6.561   1.676
 3251SOL     OW10651   2.999   1.111   3.289
 3251SOL    HW110652   3.085   1.062   3.273
 3251SOL    HW210653   2.926   1.070   3.235
 3252SOL     OW10654   3.452   2.095   3.216
 3252SOL    HW110655   3.395   2.021   3.181
 3252SOL    HW210656   3.423   2.119   3.309
 3253SOL     OW10657   4.729   3.339   1.097
 3253SOL    HW110658   4.758   3.395   1.019
 3253SOL    HW210659   4.777   3.251   1.094
 3254SOL     OW10660   5.876   5.185   2.812
 3254SOL    HW110661   5.970   5.153   2.816
 3254SOL    HW210662   5.855   5.215   2.718
 3255SOL     OW10663   3.738   4.492   0.573
 3255SOL    HW110664   3.670   4.462   0.506
 3255SOL    HW210665   3.746   4.592   0.570
 3256SOL     OW10666   6.624   6.057   5.602
 3256SOL    HW110667   6.649   6.154   5.612
 3256SOL    HW210668   6.574   6.044   5.516
 3257SOL     OW10669   2.110   2.271   0.671
 3257SOL    HW110670   2.014   2.293   0.688
 3257SOL    HW210671   2.117   2.176   0.641
 3258SOL     OW10672   5.766   6.857   1.554
 3258SOL    HW110673   5.760   6.783   1.487
 3258SOL    HW210674   5.810   6.936   1.513
 3259SOL     OW10675   5.816   6.262   3.382
 3259SOL    HW110676   5.763   6.283   3.464
 3259SOL    HW210677   5.852   6.168   3.389
 3260SOL     OW10678   1.017   2.793   0.073
 3260SOL    HW110679   0.995   2.890   0.077
 3260SOL    HW210680   1.053   2.772   7.006
 3261SOL     OW10681   4.191   0.621   3.105
 3261SOL    HW110682   4.281   0.593   3.137
 3261SOL    HW210683   4.130   0.634   3.184
 3262SOL     OW10684   3.533   1.546   3.562
 3262SOL    HW110685   3.449   1.493   3.573
 3262SOL    HW210686   3.611   1.483   3.558
 3263SOL     OW10687   3.081   5.445   1.991
 3263SOL    HW110688   3.068   5.508   1.914
 3263SOL    HW210689   3.068   5.494   2.077
 3264SOL     OW10690   5.201   4.957   6.251
 3264SOL    HW110691   5.150   4.873   6.230
 3264SOL    HW210692   5.152   5.035   6.212
 3265SOL     OW10693   4.419   0.494   6.773
 3265SOL    HW110694   4.395   0.505   6.870
 3265SOL    HW210695   4.466   0.576   6.741
 3266SOL     OW10696   0.801   1.396   5.661
 3266SOL    HW110697   0.743   1.472   5.631
 3266SOL    HW210698   0.781   1.376   5.757
 3267SOL     OW10699   3.804   2.271   1.271
 3267SOL    HW110700   3.749   2.333   1.327
 3267SOL    HW210701   3.840   2.322   1.192
 3268SOL     OW10702   0.398   4.614   6.348
 3268SOL    HW110703   0.480   4.638   6.400
 3268SOL    HW210704   0.422   4.596   6.253
 3269SOL     OW10705   4.432   3.472   0.668
 3269SOL    HW110706   4.515   3.476   0.613
 3269SOL    HW210707   4.434   3.544   0.737
 3270SOL     OW10708   1.118   5.948   4.757
 3270SOL    HW110709   1.064   5.868   4.782
 3270SOL    HW210710   1.177   5.973   4.834
 3271SOL     OW10711   5.709   1.911   1.285
 3271SOL    HW110712   5.662   1.990   1.244
 3271SOL    HW210713   5.769   1.942   1.358
 3272SOL     OW10714   5.910   6.693   0.289
 3272SOL    HW110715   5.910   6.792   0.305
 3272SOL    HW210716   5.953   6.647   0.367
 3273SOL     OW10717   6.767   0.215   2.319
 3273SOL    HW110718   6.783   0.207   2.220
 3273SOL    HW210719   6.696   0.149   2.346
 3274SOL     OW10720   3.958   1.618   6.277
 3274SOL    HW110721   3.865   1.587   6.299
 3274SOL    HW210722   4.017   1.607   6.357
 3275SOL     OW10723   3.274   0.869   6.934
 3275SOL    HW110724   3.175   0.866   6.924
 3275SOL    HW210725   3.314   0.926   6.862
 3276SOL     OW10726   3.276   6.474   6.970
 3276SOL    HW110727   3.217   6.506   0.021
 3276SOL    HW210728   3.350   6.540   6.957
 3277SOL     OW10729   0.081   6.507   5.232
 3277SOL    HW110730   0.019   6.472   5.161
 3277SOL    HW210731   0.110   6.599   5.208
 3278SOL     OW10732   0.984   1.069   0.026
 3278SOL    HW110733   1.055   1.092   6.983
 3278SOL    HW210734   1.023   1.067   0.118
 3279SOL     OW10735   2.202   0.221   0.879
 3279SOL    HW110736   2.115   0.270   0.867
 3279SOL    HW210737   2.278   0.284   0.863
 3280SOL     OW10738   1.433   5.335   5.843
 3280SOL    HW110739   1.483   5.330   5.757
 3280SOL    HW210740   1.498   5.355   5.917
 3281SOL     OW10741   3.220   6.095   6.996
 3281SOL    HW110742   3.243   6.091   6.898
 3281SOL    HW210743   3.124   6.121   7.006
 3282SOL     OW10744   1.952   5.542   2.875
 3282SOL    HW110745   1.941   5.611   2.803
 3282SOL    HW210746   2.014   5.577   2.945
 3283SOL     OW10747   2.147   0.293   3.628
 3283SOL    HW110748   2.052   0.264   3.617
 3283SOL    HW210749   2.194   0.227   3.687
 3284SOL     OW10750   0.297   3.796   6.915
 3284SOL    HW110751   0.256   3.707   6.894
 3284SOL    HW210752   0.339   3.833   6.833
 3285SOL     OW10753   6.584   2.067   4.207
 3285SOL    HW110754   6.675   2.087   4.241
 3285SOL    HW210755   6.546   2.147   4.161
 3286SOL     OW10756   3.830   4.905   5.415
 3286SOL    HW110757   3.870   4.935   5.502
 3286SOL    HW210758   3.731   4.899   5.425
 3287SOL     OW10759   0.964   5.235   1.042
 3287SOL    HW110760   0.953   5.196   0.951
 3287SOL    HW210761   0.946   5.165   1.111
 3288SOL     OW10762   1.093   6.542   0.301
 3288SOL    HW110763   1.071   6.576   0.392
 3288SOL    HW210764   1.054   6.602   0.232
 3289SOL     OW10765   1.306   5.719   4.285
 3289SOL    HW110766   1.277   5.754   4.374
 3289SOL    HW210767   1.364   5.787   4.239
 3290SOL     OW10768   6.750   5.182   1.838
 3290SOL    HW110769   6.730   5.121   1.915
 3290SOL    HW210770   6.770   5.273   1.873
 3291SOL     OW10771   2.450   0.080   1.032
 3291SOL    HW110772   2.378   0.012   1.044
 3291SOL    HW210773   2.410   0.164   0.997
 3292SOL     OW10774   0.784   5.953   5.810
 3292SOL    HW110775   0.750   6.011   5.736
 3292SOL    HW210776   0.823   5.870   5.771
 3293SOL     OW10777   6.745   0.615   3.099
 3293SOL    HW110778   6.695   0.556   3.163
 3293SOL    HW210779   6.785   0.559   3.027
 3294SOL     OW10780   0.230   0.013   0.140
 3294SOL    HW110781   0.190   0.063   0.062
 3294SOL    HW210782   0.156   7.006   0.200
 3295SOL     OW10783   1.089   2.497   6.609
 3295SOL    HW110784   1.018   2.469   6.674
 3295SOL    HW210785   1.179   2.474   6.646
 3296SOL     OW10786   0.557   6.494   2.073
 3296SOL    HW110787   0.510   6.417   2.030
 3296SOL    HW210788   0.637   6.462   2.122
 3297SOL     OW10789   3.169   2.436   5.917
 3297SOL    HW110790   3.146   2.469   5.825
 3297SOL    HW210791   3.267   2.415   5.921
 3298SOL     OW10792   5.963   3.041   3.383
 3298SOL    HW110793   6.012   3.001   3.306
 3298SOL    HW210794   5.927   2.969   3.441
 3299SOL     OW10795   1.620   0.249   4.896
 3299SOL    HW110796   1.548   0.311   4.866
 3299SOL    HW210797   1.596   0.156   4.871
 3300SOL     OW10798   6.356   6.955   4.652
 3300SOL    HW110799   6.345   0.008   4.589
 3300SOL    HW210800   6.266   6.918   4.675
 3301SOL     OW10801   0.608   3.654   2.938
 3301SOL    HW110802   0.592   3.733   2.998
 3301SOL    HW210803   0.691   3.669   2.884
 3302SOL     OW10804   0.826   4.958   4.024
 3302SOL    HW110805   0.888   4.880   4.034
 3302SOL    HW210806   0.843   5.003   3.936
 3303SOL     OW10807   3.873   3.786   3.358
 3303SOL    HW110808   3.904   3.816   3.448
 3303SOL    HW210809   3.918   3.840   3.288
 3304SOL     OW10810   0.773   6.467   4.314
 3304SOL    HW110811   0.689   6.480   4.368
 3304SOL    HW210812   0.796   6.552   4.267
 3305SOL     OW10813   1.647   1.155   1.802
 3305SOL    HW110814   1.705   1.091   1.751
 3305SOL    HW210815   1.694   1.242   1.812
 3306SOL     OW10816   1.283   3.711   2.574
 3306SOL    HW110817   1.188   3.725   2.600
 3306SOL    HW210818   1.314   3.786   2.516
 3307SOL     OW10819   0.334   5.758   0.667
 3307SOL    HW110820   0.348   5.724   0.760
 3307SOL    HW210821   0.259   5.708   0.624
 3308SOL     OW10822   4.431   5.836   0.728
 3308SOL    HW110823   4.401   5.915   0.780
 3308SOL    HW210824   4.483   5.774   0.787
 3309SOL     OW10825   0.681   5.345   2.718
 3309SOL    HW110826   0.696   5.253   2.684
 3309SOL    HW210827   0.762   5.375   2.770
 3310SOL     OW10828   1.642   6.433   1.346
 3310SOL    HW110829   1.728   6.458   1.390
 3310SOL    HW210830   1.660   6.386   1.260
 3311SOL     OW10831   3.651   6.188   0.628
 3311SOL    HW110832   3.737   6.190   0.679
 3311SOL    HW210833   3.627   6.093   0.607
 3312SOL     OW10834   2.259   3.841   0.049
 3312SOL    HW110835   2.235   3.747   0.072
 3312SOL    HW210836   2.353   3.845   0.016
 3313SOL     OW10837   6.848   5.365   4.213
 3313SOL    HW110838   6.906   5.447   4.214
 3313SOL    HW210839   6.776   5.376   4.144
 3314SOL     OW10840   0.630   3.281   6.218
 3314SOL    HW110841   0.579   3.200   6.189
 3314SOL    HW210842   0.715   3.287   6.166
 3315SOL     OW10843   0.148   3.053   3.078
 3315SOL    HW110844   0.208   2.973   3.080
 3315SOL    HW210845   0.112   3.070   3.170
 3316SOL     OW10846   4.356   0.513   0.541
 3316SOL    HW110847   4.323   0.466   0.623
 3316SOL    HW210848   4.299   0.593   0.524
 3317SOL     OW10849   4.485   2.450   1.396
 3317SOL    HW110850   4.556   2.521   1.391
 3317SOL    HW210851   4.468   2.428   1.492
 3318SOL     OW10852   2.774   5.633   4.928
 3318SOL    HW110853   2.683   5.675   4.932
 3318SOL    HW210854   2.789   5.578   5.010
 3319SOL     OW10855   0.535   5.315   5.448
 3319SOL    HW110856   0.436   5.327   5.459
 3319SOL    HW210857   0.560   5.327   5.352
 3320SOL     OW10858   6.955   1.511   6.478
 3320SOL    HW110859   6.923   1.603   6.452
 3320SOL    HW210860   0.017   1.519   6.528
 3321SOL     OW10861   3.115   4.034   3.866
 3321SOL    HW110862   3.063   4.042   3.781
 3321SOL    HW210863   3.078   3.959   3.921
 3322SOL     OW10864   4.363   1.970   1.516
 3322SOL    HW110865   4.285   1.975   1.579
 3322SOL    HW210866   4.346   1.899   1.448
 3323SOL     OW10867   2.481   5.408   0.265
 3323SOL    HW110868   2.400   5.466   0.271
 3323SOL    HW210869   2.506   5.376   0.357
 3324SOL     OW10870   0.634   2.518   0.570
 3324SOL    HW110871   0.660   2.578   0.493
 3324SOL    HW210872   0.686   2.545   0.651
 3325SOL     OW10873   1.848   3.485   0.482
 3325SOL    HW110874   1.895   3.522   0.403
 3325SOL    HW210875   1.847   3.385   0.477
 3326SOL     OW10876   6.393   0.284   2.021
 3326SOL    HW110877   6.300   0.297   2.057
 3326SOL    HW210878   6.388   0.235   1.934
 3327SOL     OW10879   3.068   6.872   1.677
 3327SOL    HW110880   3.001   6.873   1.751
 3327SOL    HW210881   3.160   6.883   1.715
 3328SOL     OW10882   4.602   0.761   3.116
 3328SOL    HW110883   4.618   0.742   3.019
 3328SOL    HW210884   4.507   0.792   3.128
 3329SOL     OW10885   5.002   0.801   4.916
 3329SOL    HW110886   5.001   0.900   4.927
 3329SOL    HW210887   4.960   0.758   4.996
 3330SOL     OW10888   6.767   5.393   2.988
 3330SOL    HW110889   6.685   5.406   2.933
 3330SOL    HW210890   6.773   5.466   3.056
 3331SOL     OW10891   2.156   3.467   2.624
 3331SOL    HW110892   2.160   3.415   2.538
 3331SOL    HW210893   2.061   3.482   2.649
 3332SOL     OW10894   3.438   5.120   1.264
 3332SOL    HW110895   3.365   5.116   1.195
 3332SOL    HW210896   3.431   5.205   1.315
 3333SOL     OW10897   2.534   3.008   1.657
 3333SOL    HW110898   2.525   2.967   1.566
 3333SOL    HW210899   2.629   3.003   1.686
 3334SOL     OW10900   2.224   2.191   1.950
 3334SOL    HW110901   2.192   2.132   2.024
 3334SOL    HW210902   2.154   2.259   1.929
 3335SOL     OW10903   3.744   4.470   5.576
 3335SOL    HW110904   3.705   4.449   5.665
 3335SOL    HW210905   3.675   4.513   5.518
 3336SOL     OW10906   5.235   5.376   4.410
 3336SOL    HW110907   5.180   5.388   4.327
 3336SOL    HW210908   5.256   5.466   4.449
 3337SOL     OW10909   3.400   3.345   3.022
 3337SOL    HW110910   3.324   3.338   3.088
 3337SOL    HW210911   3.480   3.382   3.068
 3338SOL     OW10912   2.725   2.709   1.562
 3338SOL    HW110913   2.636   2.741   1.529
 3338SOL    HW210914   2.710   2.642   1.635
 3339SOL     OW10915   1.763   0.161   6.242
 3339SOL    HW110916   1.823   0.158   6.322
 3339SOL    HW210917   1.782   0.245   6.189
 3340SOL     OW10918   4.021   0.515   4.019
 3340SOL    HW110919   3.939   0.509   3.962
 3340SOL    HW210920   4.005   0.579   4.094
 3341SOL     OW10921   1.322   3.778   2.866
 3341SOL    HW110922   1.372   3.717   2.928
 3341SOL    HW210923   1.312   3.735   2.777
 3342SOL     OW10924   0.072   1.142   2.600
 3342SOL    HW110925   0.155   1.108   2.644
 3342SOL    HW210926   0.097   1.191   2.516
 3343SOL     OW10927   4.456   5.236   0.073
 3343SOL    HW110928   4.360   5.223   0.096
 3343SOL    HW210929   4.493   5.312   0.126
 3344SOL     OW10930   0.672   3.283   2.287
 3344SOL    HW110931   0.614   3.349   2.240
 3344SOL    HW210932   0.762   3.281   2.244
 3345SOL     OW10933   6.320   5.379   6.697
 3345SOL    HW110934   6.414   5.360   6.667
 3345SOL    HW210935   6.267   5.411   6.619
 3346SOL     OW10936   1.344   1.144   0.057
 3346SOL    HW110937   1.293   1.222   0.020
 3346SOL    HW210938   1.413   1.176   0.121
 3347SOL     OW10939   0.252   3.949   6.039
 3347SOL    HW110940   0.159   3.977   6.017
 3347SOL    HW210941   0.280   3.876   5.977
 3348SOL     OW10942   3.029   4.103   6.018
 3348SOL    HW110943   2.988   4.104   5.928
 3348SOL    HW210944   3.091   4.025   6.026
 3349SOL     OW10945   1.744   5.243   3.636
 3349SOL    HW110946   1.764   5.155   3.679
 3349SOL    HW210947   1.787   5.248   3.546
 3350SOL     OW10948   1.658   4.457   4.357
 3350SOL    HW110949   1.646   4.409   4.270
 3350SOL    HW210950   1.742   4.510   4.355
 3351SOL     OW10951   5.257   0.939   1.657
 3351SOL    HW110952   5.232   1.036   1.663
 3351SOL    HW210953   5.351   0.927   1.690
 3352SOL     OW10954   6.044   0.558   6.924
 3352SOL    HW110955   6.134   0.600   6.939
 3352SOL    HW210956   6.002   0.599   6.843
 3353SOL     OW10957   4.061   0.555   1.388
 3353SOL    HW110958   3.998   0.557   1.311
 3353SOL    HW210959   4.009   0.550   1.473
 3354SOL     OW10960   2.749   4.262   6.082
 3354SOL    HW110961   2.836   4.226   6.049
 3354SOL    HW210962   2.674   4.226   6.026
 3355SOL     OW10963   1.882   0.500   4.921
 3355SOL    HW110964   1.835   0.584   4.897
 3355SOL    HW210965   1.895   0.496   5.020
 3356SOL     OW10966   1.576   0.767   6.359
 3356SOL    HW110967   1.551   0.711   6.438
 3356SOL    HW210968   1.615   0.853   6.390
 3357SOL     OW10969   3.041   3.033   2.061
 3357SOL    HW110970   2.988   3.111   2.096
 3357SOL    HW210971   3.013   2.950   2.110
 3358SOL     OW10972   6.884   0.815   1.747
 3358SOL    HW110973   6.795   0.854   1.727
 3358SOL    HW210974   6.952   0.888   1.756
 3359SOL     OW10975   0.640   0.068   4.990
 3359SOL    HW110976   0.563   0.101   5.044
 3359SOL    HW210977   0.618   0.076   4.892
 3360SOL     OW10978   1.446   3.616   4.445
 3360SOL    HW110979   1.482   3.704   4.414
 3360SOL    HW210980   1.375   3.585   4.382
 3361SOL     OW10981   6.261   6.778   4.843
 3361SOL    HW110982   6.320   6.703   4.873
 3361SOL    HW210983   6.298   6.865   4.877
 3362SOL     OW10984   3.703   0.315   3.616
 3362SOL    HW110985   3.608   0.295   3.641
 3362SOL    HW210986   3.755   0.229   3.615
 3363SOL     OW10987   5.413   4.034   0.262
 3363SOL    HW110988   5.464   3.984   0.191
 3363SOL    HW210989   5.400   3.975   0.341
 3364SOL     OW10990   1.822   3.412   3.618
 3364SOL    HW110991   1.728   3.405   3.585
 3364SOL    HW210992   1.885   3.391   3.544
 3365SOL     OW10993   1.664   4.018   3.401
 3365SOL    HW110994   1.698   4.095   3.455
 3365SOL    HW210995   1.707   3.933   3.433
 3366SOL     OW10996   6.016   3.902   4.707
 3366SOL    HW110997   6.013   3.904   4.607
 3366SOL    HW210998   5.923   3.914   4.743
 3367SOL     OW10999   4.028   3.876   3.845
 3367SOL    HW111000   4.012   3.834   3.756
 3367SOL    HW211001   4.114   3.928   3.843
 3368SOL     OW11002   2.044   0.899   1.916
 3368SOL    HW111003   2.057   0.801   1.907
 3368SOL    HW211004   2.095   0.933   1.995
 3369SOL     OW11005   4.848   1.979   1.331
 3369SOL    HW111006   4.756   2.002   1.363
 3369SOL    HW211007   4.843   1.900   1.270
 3370SOL     OW11008   0.468   5.479   2.603
 3370SOL    HW111009   0.515   5.563   2.576
 3370SOL    HW211010   0.528   5.425   2.662
 3371SOL     OW11011   2.167   2.936   2.270
 3371SOL    HW111012   2.251   2.886   2.293
 3371SOL    HW211013   2.159   2.945   2.171
 3372SOL     OW11014   6.174   3.654   2.782
 3372SOL    HW111015   6.162   3.555   2.791
 3372SOL    HW211016   6.085   3.696   2.762
 3373SOL     OW11017   6.750   3.148   1.702
 3373SOL    HW111018   6.721   3.071   1.645
 3373SOL    HW211019   6.825   3.118   1.762
 3374SOL     OW11020   0.669   6.260   4.170
 3374SOL    HW111021   0.707   6.344   4.207
 3374SOL    HW211022   0.704   6.182   4.221
 3375SOL     OW11023   0.366   5.726   6.048
 3375SOL    HW111024   0.375   5.627   6.056
 3375SOL    HW211025   0.390   5.754   5.955
 3376SOL     OW11026   3.144   3.210   3.901
 3376SOL    HW111027   3.136   3.111   3.903
 3376SOL    HW211028   3.211   3.237   3.832
 3377SOL     OW11029   6.502   4.738   3.618
 3377SOL    HW111030   6.404   4.749   3.604
 3377SOL    HW211031   6.547   4.827   3.614
 3378SOL     OW11032   1.340   6.385   0.222
 3378SOL    HW111033   1.265   6.442   0.255
 3378SOL    HW211034   1.331   6.293   0.259
 3379SOL     OW11035   6.486   3.977   3.500
 3379SOL    HW111036   6.392   3.981   3.533
 3379SOL    HW211037   6.499   4.043   3.425
 3380SOL     OW11038   2.392   4.960   0.208
 3380SOL    HW111039   2.378   5.058   0.194
 3380SOL    HW211040   2.308   4.920   0.246
 3381SOL     OW11041   2.003   3.508   6.247
 3381SOL    HW111042   1.942   3.456   6.188
 3381SOL    HW211043   2.095   3.510   6.207
 3382SOL     OW11044   6.658   3.668   0.954
 3382SOL    HW111045   6.704   3.670   1.042
 3382SOL    HW211046   6.645   3.761   0.921
 3383SOL     OW11047   4.454   5.181   0.446
 3383SOL    HW111048   4.398   5.230   0.379
 3383SOL    HW211049   4.526   5.243   0.479
 3384SOL     OW11050   3.143   4.164   6.394
 3384SOL    HW111051   3.185   4.077   6.419
 3384SOL    HW211052   3.058   4.146   6.344
 3385SOL     OW11053   6.899   2.060   4.266
 3385SOL    HW111054   6.954   1.980   4.289
 3385SOL    HW211055   6.954   2.143   4.278
 3386SOL     OW11056   0.135   4.974   4.892
 3386SOL    HW111057   0.048   4.967   4.941
 3386SOL    HW211058   0.205   5.012   4.953
 3387SOL     OW11059   6.714   1.072   3.082
 3387SOL    HW111060   6.801   1.062   3.032
 3387SOL    HW211061   6.639   1.041   3.024
 3388SOL     OW11062   6.645   3.693   1.250
 3388SOL    HW111063   6.648   3.770   1.313
 3388SOL    HW211064   6.739   3.662   1.230
 3389SOL     OW11065   5.453   6.125   6.937
 3389SOL    HW111066   5.475   6.036   6.976
 3389SOL    HW211067   5.527   6.189   6.958
 3390SOL     OW11068   3.293   5.846   6.221
 3390SOL    HW111069   3.262   5.936   6.253
 3390SOL    HW211070   3.215   5.790   6.197
 3391SOL     OW11071   5.688   3.649   3.788
 3391SOL    HW111072   5.626   3.587   3.836
 3391SOL    HW211073   5.686   3.739   3.832
 3392SOL     OW11074   5.103   0.536   5.851
 3392SOL    HW111075   5.026   0.562   5.793
 3392SOL    HW211076   5.185   0.529   5.795
 3393SOL     OW11077   4.459   6.213   0.633
 3393SOL    HW111078   4.491   6.137   0.575
 3393SOL    HW211079   4.359   6.209   0.640
 3394SOL     OW11080   2.590   4.886   1.120
 3394SOL    HW111081   2.587   4.803   1.175
 3394SOL    HW211082   2.622   4.962   1.177
 3395SOL     OW11083   2.212   6.880   3.562
 3395SOL    HW111084   2.296   6.829   3.581
 3395SOL    HW211085   2.219   6.924   3.473
 3396SOL     OW11086   4.562   0.814   4.057
 3396SOL    HW111087   4.546   0.747   4.129
 3396SOL    HW211088   4.653   0.802   4.018
 3397SOL     OW11089   2.413   5.784   6.778
 3397SOL    HW111090   2.325   5.824   6.752
 3397SOL    HW211091   2.470   5.775   6.696
 3398SOL     OW11092   6.064   2.585   4.777
 3398SOL    HW111093   6.040   2.577   4.680
 3398SOL    HW211094   6.164   2.584   4.786
 3399SOL     OW11095   6.711   6.056   1.749
 3399SOL    HW111096   6.644   5.982   1.757
 3399SOL    HW211097   6.770   6.057   1.830
 3400SOL     OW11098   4.160   2.835   5.913
 3400SOL    HW111099   4.124   2.928   5.914
 3400SOL    HW211100   4.247   2.832   5.962
 3401SOL     OW11101   6.025   4.130   5.910
 3401SOL    HW111102   6.113   4.089   5.934
 3401SOL    HW211103   6.025   4.154   5.813
 3402SOL     OW11104   6.604   3.241   0.925
 3402SOL    HW111105   6.571   3.248   1.019
 3402SOL    HW211106   6.578   3.323   0.874
 3403SOL     OW11107   5.603   6.727   6.804
 3403SOL    HW111108   5.634   6.817   6.834
 3403SOL    HW211109   5.527   6.739   6.739
 3404SOL     OW11110   5.256   4.174   4.740
 3404SOL    HW111111   5.258   4.192   4.642
 3404SOL    HW211112   5.235   4.259   4.789
 3405SOL     OW11113   4.907   6.383   0.291
 3405SOL    HW111114   4.966   6.347   0.218
 3405SOL    HW211115   4.958   6.386   0.377
 3406SOL     OW11116   2.614   5.560   1.468
 3406SOL    HW111117   2.528   5.602   1.438
 3406SOL    HW211118   2.647   5.497   1.398
 3407SOL     OW11119   0.767   3.868   6.924
 3407SOL    HW111120   0.844   3.865   6.861
 3407SOL    HW211121   0.795   3.829   7.012
 3408SOL     OW11122   4.962   0.614   3.579
 3408SOL    HW111123   4.998   0.525   3.552
 3408SOL    HW211124   4.906   0.603   3.661
 3409SOL     OW11125   4.349   0.694   0.913
 3409SOL    HW111126   4.343   0.736   1.004
 3409SOL    HW211127   4.436   0.645   0.904
 3410SOL     OW11128   6.119   0.217   3.283
 3410SOL    HW111129   6.027   0.252   3.267
 3410SOL    HW211130   6.186   0.285   3.253
 3411SOL     OW11131   6.101   3.458   6.304
 3411SOL    HW111132   6.049   3.436   6.387
 3411SOL    HW211133   6.197   3.474   6.329
 3412SOL     OW11134   5.437   3.414   1.421
 3412SOL    HW111135   5.350   3.384   1.460
 3412SOL    HW211136   5.511   3.356   1.455
 3413SOL     OW11137   6.816   1.175   0.136
 3413SOL    HW111138   6.883   1.102   0.126
 3413SOL    HW211139   6.803   1.197   0.233
 3414SOL     OW11140   3.088   4.392   1.118
 3414SOL    HW111141   3.015   4.460   1.120
 3414SOL    HW211142   3.079   4.335   1.037
 3415SOL     OW11143   2.251   1.266   5.968
 3415SOL    HW111144   2.294   1.229   6.050
 3415SOL    HW211145   2.159   1.297   5.989
 3416SOL     OW11146   6.402   6.893   6.630
 3416SOL    HW111147   6.338   6.820   6.653
 3416SOL    HW211148   6.461   6.864   6.556
 3417SOL     OW11149   6.055   6.419   3.261
 3417SOL    HW111150   6.020   6.336   3.304
 3417SOL    HW211151   6.153   6.429   3.281
 3418SOL     OW11152   3.878   5.369   0.997
 3418SOL    HW111153   3.800   5.316   1.030
 3418SOL    HW211154   3.956   5.355   1.057
 3419SOL     OW11155   2.671   5.406   5.642
 3419SOL    HW111156   2.718   5.412   5.730
 3419SOL    HW211157   2.594   5.343   5.651
 3420SOL     OW11158   4.662   1.734   2.547
 3420SOL    HW111159   4.564   1.716   2.548
 3420SOL    HW211160   4.696   1.740   2.641
 3421SOL     OW11161   0.393   2.274   4.925
 3421SOL    HW111162   0.378   2.176   4.940
 3421SOL    HW211163   0.447   2.286   4.841
 3422SOL     OW11164   2.190   6.195   1.030
 3422SOL    HW111165   2.266   6.256   1.054
 3422SOL    HW211166   2.205   6.159   0.938
 3423SOL     OW11167   1.471   4.710   5.419
 3423SOL    HW111168   1.384   4.753   5.444
 3423SOL    HW211169   1.455   4.614   5.395
 3424SOL     OW11170   5.093   1.551   2.026
 3424SOL    HW111171   5.065   1.606   1.948
 3424SOL    HW211172   5.015   1.538   2.088
 3425SOL     OW11173   6.373   3.504   6.434
 3425SOL    HW111174   6.449   3.451   6.397
 3425SOL    HW211175   6.404   3.555   6.514
 3426SOL     OW11176   6.332   2.981   6.174
 3426SOL    HW111177   6.335   2.978   6.274
 3426SOL    HW211178   6.365   3.069   6.142
 3427SOL     OW11179   0.590   2.080   0.336
 3427SOL    HW111180   0.606   1.988   0.371
 3427SOL    HW211181   0.508   2.118   0.379
 3428SOL     OW11182   4.201   6.452   4.882
 3428SOL    HW111183   4.103   6.463   4.865
 3428SOL    HW211184   4.217   6.439   4.980
 3429SOL     OW11185   5.244   6.956   1.458
 3429SOL    HW111186   5.325   6.977   1.512
 3429SOL    HW211187   5.253   6.865   1.417
 3430SOL     OW11188   2.253   4.618   5.468
 3430SOL    HW111189   2.275   4.551   5.397
 3430SOL    HW211190   2.200   4.573   5.541
 3431SOL     OW11191   0.638   4.934   2.507
 3431SOL    HW111192   0.670   4.850   2.550
 3431SOL    HW211193   0.584   4.912   2.426
 3432SOL     OW11194   0.886   4.434   0.043
 3432SOL    HW111195   0.834   4.376   7.003
 3432SOL    HW211196   0.877   4.530   0.016
 3433SOL     OW11197   3.112   1.146   6.885
 3433SOL    HW111198   3.079   1.104   6.801
 3433SOL    HW211199   3.147   1.237   6.864
 3434SOL     OW11200   3.592   2.554   1.716
 3434SOL    HW111201   3.496   2.545   1.690
 3434SOL    HW211202   3.615   2.485   1.784
 3435SOL     OW11203   2.209   1.582   1.018
 3435SOL    HW111204   2.121   1.547   0.987
 3435SOL    HW211205   2.279   1.512   1.004
 3436SOL     OW11206   3.447   7.021   5.983
 3436SOL    HW111207   3.490   0.032   5.900
 3436SOL    HW211208   3.495   6.938   6.013
 3437SOL     OW11209   1.497   0.169   6.345
 3437SOL    HW111210   1.569   0.166   6.275
 3437SOL    HW211211   1.436   0.246   6.327
 3438SOL     OW11212   1.796   3.975   0.955
 3438SOL    HW111213   1.864   3.966   0.882
 3438SOL    HW211214   1.717   3.917   0.935
 3439SOL     OW11215   2.302   5.471   1.279
 3439SOL    HW111216   2.203   5.469   1.270
 3439SOL    HW211217   2.329   5.541   1.344
 3440SOL     OW11218   3.735   4.074   5.119
 3440SOL    HW111219   3.702   4.006   5.184
 3440SOL    HW211220   3.741   4.163   5.164
 3441SOL     OW11221   5.524   4.763   6.302
 3441SOL    HW111222   5.532   4.680   6.247
 3441SOL    HW211223   5.456   4.748   6.374
 3442SOL     OW11224   2.570   3.647   1.147
 3442SOL    HW111225   2.540   3.562   1.103
 3442SOL    HW211226   2.639   3.691   1.089
 3443SOL     OW11227   0.337   6.221   2.213
 3443SOL    HW111228   0.282   6.164   2.274
 3443SOL    HW211229   0.418   6.253   2.263
 3444SOL     OW11230   6.058   4.056   6.224
 3444SOL    HW111231   6.041   4.101   6.136
 3444SOL    HW211232   6.077   4.126   6.294
 3445SOL     OW11233   6.315   4.911   4.088
 3445SOL    HW111234   6.354   4.913   3.996
 3445SOL    HW211235   6.390   4.914   4.155
 3446SOL     OW11236   4.410   0.995   1.462
 3446SOL    HW111237   4.364   0.914   1.427
 3446SOL    HW211238   4.395   1.072   1.399
 3447SOL     OW11239   5.249   0.939   6.189
 3447SOL    HW111240   5.321   0.985   6.137
 3447SOL    HW211241   5.238   0.845   6.155
 3448SOL     OW11242   1.696   4.808   5.097
 3448SOL    HW111243   1.598   4.826   5.091
 3448SOL    HW211244   1.725   4.811   5.193
 3449SOL     OW11245   0.002   4.601   5.738
 3449SOL    HW111246   7.009   4.644   5.649
 3449SOL    HW211247   0.066   4.526   5.727
 3450SOL     OW11248   2.315   6.317   1.629
 3450SOL    HW111249   2.273   6.289   1.542
 3450SOL    HW211250   2.312   6.416   1.636
 3451SOL     OW11251   2.077   1.704   1.378
 3451SOL    HW111252   2.173   1.689   1.358
 3451SOL    HW211253   2.068   1.748   1.467
 3452SOL     OW11254   4.612   1.027   4.822
 3452SOL    HW111255   4.615   0.974   4.907
 3452SOL    HW211256   4.671   0.983   4.753
 3453SOL     OW11257   4.114   6.544   6.556
 3453SOL    HW111258   4.105   6.615   6.626
 3453SOL    HW211259   4.124   6.588   6.466
 3454SOL     OW11260   6.892   2.913   1.168
 3454SOL    HW111261   6.991   2.917   1.158
 3454SOL    HW211262   6.869   2.884   1.261
 3455SOL     OW11263   0.317   3.202   5.897
 3455SOL    HW111264   0.300   3.157   5.809
 3455SOL    HW211265   0.372   3.284   5.882
 3456SOL     OW11266   5.313   5.547   3.655
 3456SOL    HW111267   5.339   5.566   3.750
 3456SOL    HW211268   5.371   5.474   3.619
 3457SOL     OW11269   3.230   4.297   6.165
 3457SOL    HW111270   3.221   4.265   6.260
 3457SOL    HW211271   3.181   4.235   6.104
 3458SOL     OW11272   4.399   1.206   2.340
 3458SOL    HW111273   4.442   1.142   2.277
 3458SOL    HW211274   4.396   1.166   2.432
 3459SOL     OW11275   5.403   6.122   2.398
 3459SOL    HW111276   5.375   6.210   2.435
 3459SOL    HW211277   5.481   6.134   2.336
 3460SOL     OW11278   4.013   1.864   5.225
 3460SOL    HW111279   4.094   1.834   5.175
 3460SOL    HW211280   3.970   1.939   5.176
 3461SOL     OW11281   5.451   4.784   4.843
 3461SOL    HW111282   5.439   4.706   4.904
 3461SOL    HW211283   5.371   4.792   4.784
 3462SOL     OW11284   1.198   3.298   6.302
 3462SOL    HW111285   1.104   3.297   6.335
 3462SOL    HW211286   1.212   3.377   6.242
 3463SOL     OW11287   5.251   4.090   0.013
 3463SOL    HW111288   5.275   4.183   7.009
 3463SOL    HW211289   5.306   4.062   0.091
 3464SOL     OW11290   0.440   4.403   4.558
 3464SOL    HW111291   0.414   4.308   4.578
 3464SOL    HW211292   0.359   4.461   4.565
 3465SOL     OW11293   0.987   1.510   2.197
 3465SOL    HW111294   1.005   1.523   2.099
 3465SOL    HW211295   1.051   1.443   2.234
 3466SOL     OW11296   6.446   3.484   5.537
 3466SOL    HW111297   6.450   3.519   5.443
 3466SOL    HW211298   6.459   3.385   5.536
 3467SOL     OW11299   2.012   2.894   6.411
 3467SOL    HW111300   2.046   2.871   6.320
 3467SOL    HW211301   1.994   2.992   6.416
 3468SOL     OW11302   4.047   6.753   2.958
 3468SOL    HW111303   3.989   6.711   3.028
 3468SOL    HW211304   4.093   6.833   2.996
 3469SOL     OW11305   4.957   3.522   1.985
 3469SOL    HW111306   4.896   3.528   1.906
 3469SOL    HW211307   5.029   3.456   1.967
 3470SOL     OW11308   6.851   5.629   1.112
 3470SOL    HW111309   6.842   5.546   1.056
 3470SOL    HW211310   6.777   5.631   1.180
 3471SOL     OW11311   4.404   0.341   4.520
 3471SOL    HW111312   4.386   0.254   4.476
 3471SOL    HW211313   4.478   0.331   4.586
 3472SOL     OW11314   4.211   1.214   5.029
 3472SOL    HW111315   4.273   1.264   5.089
 3472SOL    HW211316   4.252   1.126   5.005
 3473SOL     OW11317   4.622   0.111   4.219
 3473SOL    HW111318   4.559   0.039   4.190
 3473SOL    HW211319   4.625   0.183   4.149
 3474SOL     OW11320   5.120   4.292   0.789
 3474SOL    HW111321   5.152   4.320   0.699
 3474SOL    HW211322   5.169   4.343   0.860
 3475SOL     OW11323   1.846   6.482   4.856
 3475SOL    HW111324   1.922   6.510   4.798
 3475SOL    HW211325   1.781   6.428   4.802
 3476SOL     OW11326   4.759   1.202   4.510
 3476SOL    HW111327   4.791   1.156   4.427
 3476SOL    HW211328   4.764   1.301   4.498
 3477SOL     OW11329   4.305   5.242   2.057
 3477SOL    HW111330   4.292   5.340   2.069
 3477SOL    HW211331   4.264   5.193   2.134
 3478SOL     OW11332   4.276   4.972   6.740
 3478SOL    HW111333   4.328   4.908   6.683
 3478SOL    HW211334   4.279   4.942   6.835
 3479SOL     OW11335   1.218   6.990   1.862
 3479SOL    HW111336   1.214   0.017   1.777
 3479SOL    HW211337   1.244   6.895   1.843
 3480SOL     OW11338   1.461   1.025   4.013
 3480SOL    HW111339   1.462   1.118   4.048
 3480SOL    HW211340   1.510   0.965   4.076
 3481SOL     OW11341   2.441   0.088   6.940
 3481SOL    HW111342   2.536   0.110   6.960
 3481SOL    HW211343   2.430   0.076   6.841
 3482SOL     OW11344   0.923   1.671   1.220
 3482SOL    HW111345   1.005   1.709   1.263
 3482SOL    HW211346   0.935   1.667   1.121
 3483SOL     OW11347   4.214   1.731   0.735
 3483SOL    HW111348   4.163   1.645   0.730
 3483SOL    HW211349   4.257   1.739   0.825
 3484SOL     OW11350   2.932   3.543   3.649
 3484SOL    HW111351   2.892   3.562   3.559
 3484SOL    HW211352   2.913   3.448   3.674
 3485SOL     OW11353   6.663   1.369   4.702
 3485SOL    HW111354   6.673   1.468   4.713
 3485SOL    HW211355   6.566   1.346   4.691
 3486SOL     OW11356   5.050   1.620   3.086
 3486SOL    HW111357   5.116   1.682   3.128
 3486SOL    HW211358   4.960   1.664   3.083
 3487SOL     OW11359   0.329   0.342   6.928
 3487SOL    HW111360   0.321   0.378   7.021
 3487SOL    HW211361   0.423   0.350   6.897
 3488SOL     OW11362   6.089   3.063   3.644
 3488SOL    HW111363   6.050   3.104   3.561
 3488SOL    HW211364   6.023   3.070   3.719
 3489SOL     OW11365   2.129   6.612   0.245
 3489SOL    HW111366   2.219   6.630   0.286
 3489SOL    HW211367   2.068   6.688   0.265
 3490SOL     OW11368   4.001   2.484   1.419
 3490SOL    HW111369   4.060   2.413   1.381
 3490SOL    HW211370   3.918   2.443   1.456
 3491SOL     OW11371   6.597   2.893   5.124
 3491SOL    HW111372   6.599   2.874   5.223
 3491SOL    HW211373   6.681   2.939   5.097
 3492SOL     OW11374   5.828   5.075   6.121
 3492SOL    HW111375   5.865   4.982   6.117
 3492SOL    HW211376   5.864   5.121   6.202
 3493SOL     OW11377   0.048   4.584   1.065
 3493SOL    HW111378   0.045   4.675   1.023
 3493SOL    HW211379   0.123   4.581   1.132
 3494SOL     OW11380   2.962   6.236   1.035
 3494SOL    HW111381   2.891   6.234   0.964
 3494SOL    HW211382   3.033   6.301   1.008
 3495SOL     OW11383   5.155   4.597   0.841
 3495SOL    HW111384   5.091   4.606   0.764
 3495SOL    HW211385   5.103   4.597   0.927
 3496SOL     OW11386   1.452   4.543   0.554
 3496SOL    HW111387   1.451   4.451   0.516
 3496SOL    HW211388   1.519   4.547   0.628
 3497SOL     OW11389   4.300   6.519   3.653
 3497SOL    HW111390   4.318   6.600   3.709
 3497SOL    HW211391   4.202   6.512   3.634
 3498SOL     OW11392   1.960   1.938   1.294
 3498SOL    HW111393   1.997   1.850   1.324
 3498SOL    HW211394   2.007   1.968   1.211
 3499SOL     OW11395   5.993   3.853   4.446
 3499SOL    HW111396   6.002   3.906   4.361
 3499SOL    HW211397   6.081   3.814   4.470
 3500SOL     OW11398   6.768   2.660   0.790
 3500SOL    HW111399   6.814   2.649   0.878
 3500SOL    HW211400   6.670   2.642   0.801
 3501SOL     OW11401   0.578   4.441   4.330
 3501SOL    HW111402   0.500   4.409   4.384
 3501SOL    HW211403   0.659   4.388   4.354
 3502SOL     OW11404   1.137   4.043   1.937
 3502SOL    HW111405   1.072   4.081   1.871
 3502SOL    HW211406   1.229   4.074   1.915
 3503SOL     OW11407   4.086   6.380   3.849
 3503SOL    HW111408   4.014   6.414   3.790
 3503SOL    HW211409   4.154   6.331   3.795
 3504SOL     OW11410   2.134   3.036   2.526
 3504SOL    HW111411   2.155   2.991   2.439
 3504SOL    HW211412   2.096   3.126   2.508
 3505SOL     OW11413   4.365   5.737   5.371
 3505SOL    HW111414   4.451   5.685   5.372
 3505SOL    HW211415   4.327   5.735   5.278
 3506SOL     OW11416   5.816   4.967   2.353
 3506SOL    HW111417   5.877   4.893   2.324
 3506SOL    HW211418   5.801   5.030   2.278
 3507SOL     OW11419   0.448   0.716   6.421
 3507SOL    HW111420   0.466   0.637   6.363
 3507SOL    HW211421   0.401   0.688   6.504
 3508SOL     OW11422   6.740   3.462   0.464
 3508SOL    HW111423   6.777   3.371   0.448
 3508SOL    HW211424   6.741   3.482   0.562
 3509SOL     OW11425   6.728   0.037   0.908
 3509SOL    HW111426   6.656   0.018   0.974
 3509SOL    HW211427   6.817   0.033   0.953
 3510SOL     OW11428   1.489   2.766   1.626
 3510SOL    HW111429   1.474   2.800   1.533
 3510SOL    HW211430   1.471   2.668   1.630
 3511SOL     OW11431   0.896   0.761   5.299
 3511SOL    HW111432   0.848   0.813   5.370
 3511SOL    HW211433   0.848   0.674   5.285
 3512SOL     OW11434   2.956   3.568   0.933
 3512SOL    HW111435   2.901   3.588   0.852
 3512SOL    HW211436   2.933   3.633   1.006
 3513SOL     OW11437   6.051   4.109   1.495
 3513SOL    HW111438   6.130   4.095   1.556
 3513SOL    HW211439   5.967   4.112   1.550
 3514SOL     OW11440   1.724   6.706   1.730
 3514SOL    HW111441   1.799   6.641   1.743
 3514SOL    HW211442   1.637   6.659   1.745
 3515SOL     OW11443   3.279   6.208   2.762
 3515SOL    HW111444   3.224   6.232   2.683
 3515SOL    HW211445   3.257   6.115   2.792
 3516SOL     OW11446   3.619   0.985   0.434
 3516SOL    HW111447   3.563   0.972   0.352
 3516SOL    HW211448   3.692   1.050   0.414
 3517SOL     OW11449   1.167   0.501   6.625
 3517SOL    HW111450   1.266   0.506   6.630
 3517SOL    HW211451   1.139   0.410   6.594
 3518SOL     OW11452   4.609   3.504   5.646
 3518SOL    HW111453   4.563   3.423   5.681
 3518SOL    HW211454   4.634   3.564   5.722
 3519SOL     OW11455   2.992   6.447   0.564
 3519SOL    HW111456   2.941   6.516   0.615
 3519SOL    HW211457   3.079   6.429   0.610
 3520SOL     OW11458   3.532   5.555   1.779
 3520SOL    HW111459   3.600   5.482   1.782
 3520SOL    HW211460   3.550   5.614   1.701
 3521SOL     OW11461   5.334   2.257   6.715
 3521SOL    HW111462   5.359   2.179   6.772
 3521SOL    HW211463   5.394   2.259   6.634
 3522SOL     OW11464   3.106   5.546   1.438
 3522SOL    HW111465   3.127   5.542   1.536
 3522SOL    HW211466   3.075   5.455   1.408
 3523SOL     OW11467   2.212   5.200   5.403
 3523SOL    HW111468   2.250   5.292   5.414
 3523SOL    HW211469   2.278   5.143   5.354
 3524SOL     OW11470   2.494   6.985   1.278
 3524SOL    HW111471   2.500   0.014   1.193
 3524SOL    HW211472   2.584   6.978   1.320
 3525SOL     OW11473   1.790   3.298   2.462
 3525SOL    HW111474   1.772   3.314   2.366
 3525SOL    HW211475   1.712   3.251   2.504
 3526SOL     OW11476   2.711   0.030   3.044
 3526SOL    HW111477   2.746   6.963   3.064
 3526SOL    HW211478   2.662   0.028   2.957
 3527SOL     OW11479   4.937   3.250   5.824
 3527SOL    HW111480   4.847   3.250   5.869
 3527SOL    HW211481   4.944   3.172   5.762
 3528SOL     OW11482   1.292   6.995   4.312
 3528SOL    HW111483   1.221   7.011   4.243
 3528SOL    HW211484   1.314   0.058   4.358
 3529SOL     OW11485   3.457   6.123   6.822
 3529SOL    HW111486   3.440   6.149   6.727
 3529SOL    HW211487   3.546   6.078   6.829
 3530SOL     OW11488   1.451   5.474   2.925
 3530SOL    HW111489   1.490   5.443   2.838
 3530SOL    HW211490   1.383   5.545   2.908
 3531SOL     OW11491   4.801   3.629   6.719
 3531SOL    HW111492   4.736   3.698   6.688
 3531SOL    HW211493   4.865   3.670   6.784
 3532SOL     OW11494   1.799   6.852   0.428
 3532SOL    HW111495   1.777   6.776   0.489
 3532SOL    HW211496   1.805   6.937   0.481
 3533SOL     OW11497   1.130   1.165   4.183
 3533SOL    HW111498   1.214   1.201   4.224
 3533SOL    HW211499   1.139   1.066   4.171
 3534SOL     OW11500   4.919   0.515   4.497
 3534SOL    HW111501   4.887   0.442   4.437
 3534SOL    HW211502   4.943   0.477   4.586
 3535SOL     OW11503   4.112   6.344   6.741
 3535SOL    HW111504   4.119   6.416   6.671
 3535SOL    HW211505   4.084   6.384   6.828
 3536SOL     OW11506   1.023   3.981   3.135
 3536SOL    HW111507   1.030   3.997   3.234
 3536SOL    HW211508   0.980   4.061   3.092
 3537SOL     OW11509   2.199   5.076   0.771
 3537SOL    HW111510   2.267   5.106   0.838
 3537SOL    HW211511   2.213   4.979   0.751
 3538SOL     OW11512   2.979   0.946   3.567
 3538SOL    HW111513   3.047   0.877   3.541
 3538SOL    HW211514   3.026   1.033   3.585
 3539SOL     OW11515   5.053   6.233   6.719
 3539SOL    HW111516   5.138   6.199   6.678
 3539SOL    HW211517   4.976   6.208   6.661
 3540SOL     OW11518   3.000   4.401   5.912
 3540SOL    HW111519   3.012   4.373   6.007
 3540SOL    HW211520   2.923   4.464   5.906
 3541SOL     OW11521   2.182   2.941   1.331
 3541SOL    HW111522   2.279   2.962   1.319
 3541SOL    HW211523   2.159   2.939   1.428
 3542SOL     OW11524   5.593   1.443   6.807
 3542SOL    HW111525   5.690   1.461   6.821
 3542SOL    HW211526   5.579   1.345   6.796
 3543SOL     OW11527   0.808   2.212   3.868
 3543SOL    HW111528   0.724   2.167   3.898
 3543SOL    HW211529   0.862   2.148   3.813
 3544SOL     OW11530   3.202   3.932   0.042
 3544SOL    HW111531   3.127   3.952   7.003
 3544SOL    HW211532   3.289   3.963   0.003
 3545SOL     OW11533   4.060   0.063   0.864
 3545SOL    HW111534   4.139   0.025   0.913
 3545SOL    HW211535   4.020   0.137   0.918
 3546SOL     OW11536   6.290   4.181   2.635
 3546SOL    HW111537   6.377   4.149   2.598
 3546SOL    HW211538   6.248   4.110   2.691
 3547SOL     OW11539   1.076   3.658   4.523
 3547SOL    HW111540   1.152   3.643   4.586
 3547SOL    HW211541   1.046   3.753   4.528
 3548SOL     OW11542   5.851   0.410   5.230
 3548SOL    HW111543   5.807   0.407   5.320
 3548SOL    HW211544   5.857   0.317   5.194
 3549SOL     OW11545   2.690   6.690   0.076
 3549SOL    HW111546   2.693   6.734   7.010
 3549SOL    HW211547   2.666   6.594   0.065
 3550SOL     OW11548   5.401   1.120   5.060
 3550SOL    HW111549   5.389   1.131   4.961
 3550SOL    HW211550   5.313   1.134   5.106
 3551SOL     OW11551   4.639   2.078   4.435
 3551SOL    HW111552   4.684   1.990   4.447
 3551SOL    HW211553   4.545   2.063   4.405
 3552SOL     OW11554   6.603   0.046   3.446
 3552SOL    HW111555   6.575   6.996   3.385
 3552SOL    HW211556   6.560   0.132   3.418
 3553SOL     OW11557   5.975   5.638   6.924
 3553SOL    HW111558   5.988   5.541   6.900
 3553SOL    HW211559   6.028   5.695   6.862
 3554SOL     OW11560   5.906   4.322   0.054
 3554SOL    HW111561   5.935   4.290   0.144
 3554SOL    HW211562   5.863   4.246   0.004
 3555SOL     OW11563   3.139   1.603   4.701
 3555SOL    HW111564   3.099   1.680   4.751
 3555SOL    HW211565   3.227   1.579   4.742
 3556SOL     OW11566   5.459   0.910   6.782
 3556SOL    HW111567   5.419   0.874   6.698
 3556SOL    HW211568   5.553   0.877   6.791
 3557SOL     OW11569   5.922   0.479   1.272
 3557SOL    HW111570   5.844   0.534   1.301
 3557SOL    HW211571   5.989   0.538   1.226
 3558SOL     OW11572   3.677   5.700   2.211
 3558SOL    HW111573   3.600   5.667   2.156
 3558SOL    HW211574   3.704   5.791   2.179
 3559SOL     OW11575   4.782   6.990   6.134
 3559SOL    HW111576   4.857   7.022   6.192
 3559SOL    HW211577   4.707   6.958   6.192
 3560SOL     OW11578   2.044   5.546   4.274
 3560SOL    HW111579   2.143   5.555   4.277
 3560SOL    HW211580   2.018   5.475   4.209
 3561SOL     OW11581   4.510   3.444   5.380
 3561SOL    HW111582   4.547   3.480   5.466
 3561SOL    HW211583   4.561   3.481   5.303
 3562SOL     OW11584   2.133   1.603   6.344
 3562SOL    HW111585   2.140   1.507   6.372
 3562SOL    HW211586   2.215   1.652   6.374
 3563SOL     OW11587   6.139   2.825   6.079
 3563SOL    HW111588   6.198   2.892   6.124
 3563SOL    HW211589   6.054   2.816   6.132
 3564SOL     OW11590   5.880   3.547   1.916
 3564SOL    HW111591   5.897   3.487   1.994
 3564SOL    HW211592   5.820   3.501   1.851
 3565SOL     OW11593   4.004   5.883   4.517
 3565SOL    HW111594   3.983   5.900   4.613
 3565SOL    HW211595   4.067   5.805   4.509
 3566SOL     OW11596   1.050   6.797   4.844
 3566SOL    HW111597   1.134   6.836   4.805
 3566SOL    HW211598   1.010   6.862   4.908
 3567SOL     OW11599   6.947   3.002   6.404
 3567SOL    HW111600   6.947   2.927   6.470
 3567SOL    HW211601   6.886   2.980   6.328
 3568SOL     OW11602   5.270   4.193   6.316
 3568SOL    HW111603   5.348   4.199   6.377
 3568SOL    HW211604   5.216   4.278   6.321
 3569SOL     OW11605   1.426   0.682   4.399
 3569SOL    HW111606   1.398   0.668   4.494
 3569SOL    HW211607   1.495   0.614   4.374
 3570SOL     OW11608   5.254   1.740   3.670
 3570SOL    HW111609   5.303   1.681   3.606
 3570SOL    HW211610   5.256   1.835   3.636
 3571SOL     OW11611   6.410   6.601   5.394
 3571SOL    HW111612   6.333   6.587   5.456
 3571SOL    HW211613   6.379   6.651   5.313
 3572SOL     OW11614   6.565   6.021   4.443
 3572SOL    HW111615   6.508   5.972   4.508
 3572SOL    HW211616   6.513   6.096   4.402
 3573SOL     OW11617   1.532   1.908   1.915
 3573SOL    HW111618   1.498   1.873   1.828
 3573SOL    HW211619   1.468   1.976   1.951
 3574SOL     OW11620   6.506   3.586   0.125
 3574SOL    HW111621   6.479   3.571   0.221
 3574SOL    HW211622   6.579   3.522   0.101
 3575SOL     OW11623   6.239   5.910   1.787
 3575SOL    HW111624   6.213   5.973   1.713
 3575SOL    HW211625   6.168   5.841   1.798
 3576SOL     OW11626   0.686   1.929   6.205
 3576SOL    HW111627   0.606   1.960   6.153
 3576SOL    HW211628   0.767   1.935   6.147
 3577SOL     OW11629   1.642   2.713   0.204
 3577SOL    HW111630   1.601   2.780   0.142
 3577SOL    HW211631   1.724   2.674   0.163
 3578SOL     OW11632   3.647   5.251   1.089
 3578SOL    HW111633   3.629   5.334   1.142
 3578SOL    HW211634   3.587   5.250   1.009
 3579SOL     OW11635   0.559   3.998   4.926
 3579SOL    HW111636   0.623   4.070   4.953
 3579SOL    HW211637   0.467   4.024   4.955
 3580SOL     OW11638   6.875   1.985   1.918
 3580SOL    HW111639   6.917   2.063   1.963
 3580SOL    HW211640   6.863   1.911   1.984
 3581SOL     OW11641   6.285   0.440   3.230
 3581SOL    HW111642   6.317   0.507   3.297
 3581SOL    HW211643   6.228   0.485   3.162
 3582SOL     OW11644   0.318   0.502   6.087
 3582SOL    HW111645   0.260   0.583   6.093
 3582SOL    HW211646   0.382   0.501   6.164
 3583SOL     OW11647   2.222   5.578   0.162
 3583SOL    HW111648   2.237   5.487   0.124
 3583SOL    HW211649   2.275   5.645   0.109
 3584SOL     OW11650   5.152   6.856   5.649
 3584SOL    HW111651   5.108   6.902   5.572
 3584SOL    HW211652   5.226   6.913   5.684
 3585SOL     OW11653   2.773   4.768   3.808
 3585SOL    HW111654   2.734   4.676   3.815
 3585SOL    HW211655   2.738   4.825   3.882
 3586SOL     OW11656   6.693   1.937   6.452
 3586SOL    HW111657   6.745   2.020   6.470
 3586SOL    HW211658   6.647   1.945   6.363
 3587SOL     OW11659   4.039   0.153   6.128
 3587SOL    HW111660   4.087   0.218   6.185
 3587SOL    HW211661   4.068   0.163   6.033
 3588SOL     OW11662   2.429   1.622   5.551
 3588SOL    HW111663   2.396   1.703   5.599
 3588SOL    HW211664   2.526   1.609   5.569
 3589SOL     OW11665   3.089   0.586   5.282
 3589SOL    HW111666   3.040   0.558   5.365
 3589SOL    HW211667   3.173   0.634   5.309
 3590SOL     OW11668   1.774   5.282   6.604
 3590SOL    HW111669   1.691   5.228   6.589
 3590SOL    HW211670   1.842   5.259   6.534
 3591SOL     OW11671   4.995   2.305   5.840
 3591SOL    HW111672   5.095   2.308   5.840
 3591SOL    HW211673   4.960   2.396   5.862
 3592SOL     OW11674   4.923   2.955   1.829
 3592SOL    HW111675   4.946   3.029   1.766
 3592SOL    HW211676   4.856   2.988   1.896
 3593SOL     OW11677   1.480   4.989   3.159
 3593SOL    HW111678   1.534   4.906   3.142
 3593SOL    HW211679   1.418   5.004   3.082
 3594SOL     OW11680   3.121   0.864   4.261
 3594SOL    HW111681   3.050   0.859   4.331
 3594SOL    HW211682   3.116   0.952   4.215
 3595SOL     OW11683   2.775   6.201   5.199
 3595SOL    HW111684   2.767   6.183   5.101
 3595SOL    HW211685   2.769   6.299   5.216
 3596SOL     OW11686   6.801   2.863   3.002
 3596SOL    HW111687   6.870   2.832   3.068
 3596SOL    HW211688   6.709   2.843   3.038
 3597SOL     OW11689   4.219   5.962   3.516
 3597SOL    HW111690   4.227   5.914   3.428
 3597SOL    HW211691   4.124   5.959   3.547
 3598SOL     OW11692   0.935   0.101   0.128
 3598SOL    HW111693   0.901   0.129   0.218
 3598SOL    HW211694   0.977   0.010   0.136
 3599SOL     OW11695   0.034   1.882   4.386
 3599SOL    HW111696   0.021   1.801   4.444
 3599SOL    HW211697   0.050   1.962   4.445
 3600SOL     OW11698   6.045   0.703   0.722
 3600SOL    HW111699   6.029   0.703   0.623
 3600SOL    HW211700   6.034   0.796   0.757
 3601SOL     OW11701   6.218   3.753   5.598
 3601SOL    HW111702   6.284   3.827   5.581
 3601SOL    HW211703   6.199   3.746   5.696
 3602SOL     OW11704   1.954   1.857   0.136
 3602SOL    HW111705   1.907   1.769   0.134
 3602SOL    HW211706   1.992   1.878   0.046
 3603SOL     OW11707   4.036   4.883   4.991
 3603SOL    HW111708   4.031   4.974   5.033
 3603SOL    HW211709   4.126   4.871   4.949
 3604SOL     OW11710   0.542   3.345   3.177
 3604SOL    HW111711   0.565   3.321   3.083
 3604SOL    HW211712   0.542   3.262   3.233
 3605SOL     OW11713   6.244   3.298   6.626
 3605SOL    HW111714   6.244   3.380   6.569
 3605SOL    HW211715   6.211   3.321   6.718
 3606SOL     OW11716   0.896   4.392   5.087
 3606SOL    HW111717   0.989   4.360   5.107
 3606SOL    HW211718   0.893   4.491   5.093
 3607SOL     OW11719   4.847   0.052   0.055
 3607SOL    HW111720   4.920   0.116   0.076
 3607SOL    HW211721   4.772   0.100   0.009
 3608SOL     OW11722   1.087   2.277   2.815
 3608SOL    HW111723   1.105   2.179   2.804
 3608SOL    HW211724   1.138   2.328   2.746
 3609SOL     OW11725   6.548   0.531   4.627
 3609SOL    HW111726   6.509   0.473   4.555
 3609SOL    HW211727   6.640   0.498   4.649
 3610SOL     OW11728   1.352   6.162   5.146
 3610SOL    HW111729   1.391   6.208   5.226
 3610SOL    HW211730   1.423   6.150   5.077
 3611SOL     OW11731   3.853   5.486   5.050
 3611SOL    HW111732   3.789   5.410   5.065
 3611SOL    HW211733   3.823   5.541   4.973
 3612SOL     OW11734   1.676   0.182   1.294
 3612SOL    HW111735   1.612   0.224   1.358
 3612SOL    HW211736   1.626   0.119   1.234
 3613SOL     OW11737   4.846   5.848   6.933
 3613SOL    HW111738   4.938   5.808   6.938
 3613SOL    HW211739   4.844   5.932   6.987
 3614SOL     OW11740   3.467   2.910   3.208
 3614SOL    HW111741   3.512   2.977   3.149
 3614SOL    HW211742   3.370   2.906   3.186
 3615SOL     OW11743   6.895   6.520   6.421
 3615SOL    HW111744   6.865   6.565   6.505
 3615SOL    HW211745   6.920   6.590   6.354
 3616SOL     OW11746   6.832   1.085   4.812
 3616SOL    HW111747   6.891   1.130   4.744
 3616SOL    HW211748   6.886   1.017   4.862
 3617SOL     OW11749   6.659   0.683   6.684
 3617SOL    HW111750   6.660   0.664   6.782
 3617SOL    HW211751   6.593   0.755   6.665
 3618SOL     OW11752   2.558   1.399   5.964
 3618SOL    HW111753   2.568   1.498   5.956
 3618SOL    HW211754   2.488   1.378   6.032
 3619SOL     OW11755   5.866   2.380   4.057
 3619SOL    HW111756   5.891   2.475   4.078
 3619SOL    HW211757   5.784   2.355   4.109
 3620SOL     OW11758   6.219   0.757   4.061
 3620SOL    HW111759   6.256   0.813   3.987
 3620SOL    HW211760   6.181   0.673   4.024
 3621SOL     OW11761   1.937   3.939   5.734
 3621SOL    HW111762   2.023   3.956   5.781
 3621SOL    HW211763   1.954   3.884   5.652
 3622SOL     OW11764   0.691   2.702   1.194
 3622SOL    HW111765   0.679   2.603   1.196
 3622SOL    HW211766   0.698   2.736   1.288
 3623SOL     OW11767   6.742   5.042   4.138
 3623SOL    HW111768   6.818   4.996   4.184
 3623SOL    HW211769   6.760   5.141   4.136
 3624SOL     OW11770   2.675   0.225   1.848
 3624SOL    HW111771   2.735   0.299   1.818
 3624SOL    HW211772   2.636   0.180   1.768
 3625SOL     OW11773   0.069   3.198   4.877
 3625SOL    HW111774   0.031   3.146   4.800
 3625SOL    HW211775   0.082   3.138   4.955
 3626SOL     OW11776   2.551   3.779   5.329
 3626SOL    HW111777   2.483   3.839   5.287
 3626SOL    HW211778   2.512   3.688   5.342
 3627SOL     OW11779   3.000   3.738   4.286
 3627SOL    HW111780   2.977   3.748   4.383
 3627SOL    HW211781   3.013   3.641   4.265
 3628SOL     OW11782   3.338   5.022   2.666
 3628SOL    HW111783   3.317   5.119   2.678
 3628SOL    HW211784   3.361   4.982   2.754
 3629SOL     OW11785   6.280   2.582   5.122
 3629SOL    HW111786   6.285   2.605   5.219
 3629SOL    HW211787   6.304   2.663   5.067
 3630SOL     OW11788   6.093   1.922   4.258
 3630SOL    HW111789   6.060   2.016   4.248
 3630SOL    HW211790   6.185   1.916   4.218
 3631SOL     OW11791   2.283   1.035   4.561
 3631SOL    HW111792   2.237   0.984   4.489
 3631SOL    HW211793   2.366   1.078   4.525
 3632SOL     OW11794   4.606   0.325   6.678
 3632SOL    HW111795   4.599   0.307   6.580
 3632SOL    HW211796   4.524   0.373   6.710
 3633SOL     OW11797   1.892   3.092   5.800
 3633SOL    HW111798   1.838   3.157   5.852
 3633SOL    HW211799   1.866   3.097   5.703
 3634SOL     OW11800   1.632   5.953   5.078
 3634SOL    HW111801   1.688   5.957   5.162
 3634SOL    HW211802   1.559   5.886   5.090
 3635SOL     OW11803   2.692   1.395   5.488
 3635SOL    HW111804   2.758   1.325   5.461
 3635SOL    HW211805   2.700   1.473   5.426
 3636SOL     OW11806   1.064   5.673   5.992
 3636SOL    HW111807   1.120   5.756   5.985
 3636SOL    HW211808   1.019   5.670   6.081
 3637SOL     OW11809   5.563   1.428   2.164
 3637SOL    HW111810   5.498   1.466   2.229
 3637SOL    HW211811   5.514   1.387   2.087
 3638SOL     OW11812   6.990   4.959   4.242
 3638SOL    HW111813   0.017   4.973   4.158
 3638SOL    HW211814   0.000   4.878   4.289
 3639SOL     OW11815   1.784   4.886   6.733
 3639SOL    HW111816   1.767   4.971   6.784
 3639SOL    HW211817   1.882   4.873   6.721
 3640SOL     OW11818   3.483   5.687   1.009
 3640SOL    HW111819   3.496   5.781   1.040
 3640SOL    HW211820   3.393   5.678   0.965
 3641SOL     OW11821   2.230   0.888   5.098
 3641SOL    HW111822   2.204   0.885   5.002
 3641SOL    HW211823   2.322   0.924   5.107
 3642SOL     OW11824   5.622   0.075   4.471
 3642SOL    HW111825   5.610   0.101   4.376
 3642SOL    HW211826   5.615   6.999   4.480
 3643SOL     OW11827   2.667   4.675   4.759
 3643SOL    HW111828   2.675   4.655   4.856
 3643SOL    HW211829   2.641   4.771   4.747
 3644SOL     OW11830   0.017   0.743   0.675
 3644SOL    HW111831   0.027   0.663   0.733
 3644SOL    HW211832   6.961   0.797   0.705
 3645SOL     OW11833   3.607   0.671   3.455
 3645SOL    HW111834   3.583   0.729   3.378
 3645SOL    HW211835   3.700   0.691   3.484
 3646SOL     OW11836   6.980   4.701   5.495
 3646SOL    HW111837   0.021   4.770   5.463
 3646SOL    HW211838   6.887   4.731   5.474
 3647SOL     OW11839   2.353   3.070   1.031
 3647SOL    HW111840   2.277   3.134   1.042
 3647SOL    HW211841   2.418   3.107   0.965
 3648SOL     OW11842   2.862   6.501   2.348
 3648SOL    HW111843   2.843   6.426   2.412
 3648SOL    HW211844   2.960   6.508   2.333
 3649SOL     OW11845   3.483   3.648   1.317
 3649SOL    HW111846   3.486   3.718   1.246
 3649SOL    HW211847   3.575   3.636   1.356
 3650SOL     OW11848   0.392   6.651   1.414
 3650SOL    HW111849   0.482   6.608   1.418
 3650SOL    HW211850   0.385   6.723   1.483
 3651SOL     OW11851   1.949   5.938   2.790
 3651SOL    HW111852   2.043   5.910   2.772
 3651SOL    HW211853   1.913   5.888   2.869
 3652SOL     OW11854   4.642   5.422   3.245
 3652SOL    HW111855   4.616   5.388   3.336
 3652SOL    HW211856   4.560   5.425   3.186
 3653SOL     OW11857   7.012   2.136   3.546
 3653SOL    HW111858   0.002   2.085   3.461
 3653SOL    HW211859   6.972   2.225   3.525
 3654SOL     OW11860   1.434   6.588   1.445
 3654SOL    HW111861   1.509   6.538   1.400
 3654SOL    HW211862   1.386   6.527   1.508
 3655SOL     OW11863   1.909   0.414   4.652
 3655SOL    HW111864   1.820   0.453   4.628
 3655SOL    HW211865   1.930   0.435   4.747
 3656SOL     OW11866   1.870   2.794   2.043
 3656SOL    HW111867   1.790   2.749   2.082
 3656SOL    HW211868   1.928   2.726   1.998
 3657SOL     OW11869   3.819   5.673   1.312
 3657SOL    HW111870   3.899   5.664   1.371
 3657SOL    HW211871   3.782   5.765   1.321
 3658SOL     OW11872   1.821   6.222   6.133
 3658SOL    HW111873   1.818   6.238   6.231
 3658SOL    HW211874   1.733   6.186   6.102
 3659SOL     OW11875   2.532   4.401   0.264
 3659SOL    HW111876   2.628   4.427   0.253
 3659SOL    HW211877   2.515   4.317   0.214
 3660SOL     OW11878   4.679   5.904   1.694
 3660SOL    HW111879   4.703   5.945   1.606
 3660SOL    HW211880   4.751   5.924   1.760
 3661SOL     OW11881   4.839   0.692   0.363
 3661SOL    HW111882   4.774   0.616   0.367
 3661SOL    HW211883   4.919   0.665   0.310
 3662SOL     OW11884   3.452   0.096   5.186
 3662SOL    HW111885   3.531   0.043   5.153
 3662SOL    HW211886   3.374   0.035   5.199
 3663SOL     OW11887   1.200   2.869   6.620
 3663SOL    HW111888   1.130   2.891   6.688
 3663SOL    HW211889   1.231   2.953   6.575
 3664SOL     OW11890   4.864   1.344   1.023
 3664SOL    HW111891   4.948   1.368   1.072
 3664SOL    HW211892   4.812   1.277   1.076
 3665SOL     OW11893   0.769   0.181   5.761
 3665SOL    HW111894   0.686   0.236   5.764
 3665SOL    HW211895   0.775   0.134   5.673
 3666SOL     OW11896   1.387   4.458   4.074
 3666SOL    HW111897   1.456   4.387   4.085
 3666SOL    HW211898   1.432   4.545   4.053
 3667SOL     OW11899   6.166   1.407   6.330
 3667SOL    HW111900   6.235   1.480   6.336
 3667SOL    HW211901   6.191   1.333   6.392
 3668SOL     OW11902   1.220   5.886   2.341
 3668SOL    HW111903   1.194   5.886   2.244
 3668SOL    HW211904   1.288   5.814   2.357
 3669SOL     OW11905   6.686   2.664   3.323
 3669SOL    HW111906   6.622   2.602   3.369
 3669SOL    HW211907   6.635   2.739   3.281
 3670SOL     OW11908   2.199   5.860   5.966
 3670SOL    HW111909   2.225   5.954   5.990
 3670SOL    HW211910   2.273   5.818   5.913
 3671SOL     OW11911   1.138   0.285   2.834
 3671SOL    HW111912   1.151   0.242   2.745
 3671SOL    HW211913   1.224   0.328   2.863
 3672SOL     OW11914   6.536   0.780   0.419
 3672SOL    HW111915   6.448   0.787   0.467
 3672SOL    HW211916   6.568   0.685   0.420
 3673SOL     OW11917   5.281   0.155   6.516
 3673SOL    HW111918   5.353   0.147   6.585
 3673SOL    HW211919   5.198   0.189   6.560
 3674SOL     OW11920   0.898   6.258   0.743
 3674SOL    HW111921   0.817   6.222   0.789
 3674SOL    HW211922   0.871   6.329   0.678
 3675SOL     OW11923   1.883   2.417   5.222
 3675SOL    HW111924   1.810   2.364   5.266
 3675SOL    HW211925   1.969   2.368   5.231
 3676SOL     OW11926   3.022   5.707   3.524
 3676SOL    HW111927   2.961   5.639   3.565
 3676SOL    HW211928   2.996   5.723   3.430
 3677SOL     OW11929   6.486   6.741   4.525
 3677SOL    HW111930   6.427   6.727   4.446
 3677SOL    HW211931   6.461   6.826   4.571
 3678SOL     OW11932   1.115   1.418   3.442
 3678SOL    HW111933   1.122   1.346   3.512
 3678SOL    HW211934   1.188   1.485   3.456
 3679SOL     OW11935   0.462   0.810   1.965
 3679SOL    HW111936   0.373   0.798   1.922
 3679SOL    HW211937   0.530   0.755   1.915
 3680SOL     OW11938   6.829   2.866   4.395
 3680SOL    HW111939   6.777   2.943   4.431
 3680SOL    HW211940   6.888   2.898   4.321
 3681SOL     OW11941   0.063   6.552   5.744
 3681SOL    HW111942   0.069   6.600   5.832
 3681SOL    HW211943   7.004   6.580   5.696
 3682SOL     OW11944   6.459   1.589   6.577
 3682SOL    HW111945   6.520   1.644   6.635
 3682SOL    HW211946   6.506   1.565   6.493
 3683SOL     OW11947   5.645   6.507   4.378
 3683SOL    HW111948   5.563   6.479   4.328
 3683SOL    HW211949   5.726   6.474   4.329
 3684SOL     OW11950   1.607   3.353   1.250
 3684SOL    HW111951   1.607   3.402   1.338
 3684SOL    HW211952   1.517   3.313   1.234
 3685SOL     OW11953   6.336   6.399   6.496
 3685SOL    HW111954   6.352   6.303   6.473
 3685SOL    HW211955   6.318   6.451   6.413
 3686SOL     OW11956   5.917   4.694   1.739
 3686SOL    HW111957   5.986   4.694   1.812
 3686SOL    HW211958   5.930   4.774   1.681
 3687SOL     OW11959   3.866   0.845   0.238
 3687SOL    HW111960   3.861   0.944   0.224
 3687SOL    HW211961   3.804   0.819   0.312
 3688SOL     OW11962   1.264   3.278   0.191
 3688SOL    HW111963   1.316   3.203   0.232
 3688SOL    HW211964   1.185   3.300   0.248
 3689SOL     OW11965   1.889   0.527   3.993
 3689SOL    HW111966   1.915   0.437   3.960
 3689SOL    HW211967   1.944   0.551   4.072
 3690SOL     OW11968   5.922   6.966   5.749
 3690SOL    HW111969   5.999   6.905   5.768
 3690SOL    HW211970   5.836   6.915   5.759
 3691SOL     OW11971   2.861   2.964   6.721
 3691SOL    HW111972   2.797   3.020   6.773
 3691SOL    HW211973   2.840   2.867   6.734
 3692SOL     OW11974   1.649   0.049   5.313
 3692SOL    HW111975   1.576   0.103   5.355
 3692SOL    HW211976   1.732   0.105   5.307
 3693SOL     OW11977   3.058   2.186   2.999
 3693SOL    HW111978   2.973   2.231   3.029
 3693SOL    HW211979   3.110   2.158   3.080
 3694SOL     OW11980   2.010   6.181   3.298
 3694SOL    HW111981   2.099   6.162   3.257
 3694SOL    HW211982   1.939   6.173   3.228
 3695SOL     OW11983   2.046   1.831   2.029
 3695SOL    HW111984   2.098   1.867   2.106
 3695SOL    HW211985   2.090   1.748   1.995
 3696SOL     OW11986   4.065   6.905   6.195
 3696SOL    HW111987   4.074   7.004   6.203
 3696SOL    HW211988   4.003   6.883   6.120
 3697SOL     OW11989   6.400   0.393   4.135
 3697SOL    HW111990   6.366   0.358   4.222
 3697SOL    HW211991   6.329   0.385   4.066
 3698SOL     OW11992   2.776   0.852   5.949
 3698SOL    HW111993   2.802   0.839   6.045
 3698SOL    HW211994   2.822   0.932   5.912
 3699SOL     OW11995   0.307   3.846   2.832
 3699SOL    HW111996   0.321   3.941   2.804
 3699SOL    HW211997   0.252   3.799   2.763
 3700SOL     OW11998   0.141   6.954   4.062
 3700SOL    HW111999   0.098   0.019   4.048
 3700SOL    HW212000   0.203   6.934   3.986
 3701SOL     OW12001   6.343   1.309   4.603
 3701SOL    HW112002   6.370   1.326   4.509
 3701SOL    HW212003   6.305   1.393   4.643
 3702SOL     OW12004   3.585   1.105   0.054
 3702SOL    HW112005   3.651   1.073   7.010
 3702SOL    HW212006   3.631   1.167   0.118
 3703SOL     OW12007   4.192   4.692   6.646
 3703SOL    HW112008   4.245   4.657   6.724
 3703SOL    HW212009   4.252   4.746   6.587
 3704SOL     OW12010   2.300   0.077   2.639
 3704SOL    HW112011   2.246   0.149   2.684
 3704SOL    HW212012   2.397   0.099   2.647
 3705SOL     OW12013   5.192   0.723   3.824
 3705SOL    HW112014   5.234   0.771   3.746
 3705SOL    HW212015   5.116   0.778   3.859
 3706SOL     OW12016   2.022   2.695   3.876
 3706SOL    HW112017   2.092   2.625   3.863
 3706SOL    HW212018   1.997   2.699   3.973
 3707SOL     OW12019   4.706   2.701   5.230
 3707SOL    HW112020   4.766   2.690   5.151
 3707SOL    HW212021   4.610   2.701   5.200
 3708SOL     OW12022   5.731   0.402   6.702
 3708SOL    HW112023   5.640   0.419   6.738
 3708SOL    HW212024   5.725   0.376   6.605
 3709SOL     OW12025   3.386   0.871   6.484
 3709SOL    HW112026   3.385   0.784   6.534
 3709SOL    HW212027   3.354   0.856   6.390
 3710SOL     OW12028   0.038   4.826   0.496
 3710SOL    HW112029   7.007   4.903   0.527
 3710SOL    HW212030   0.111   4.809   0.563
 3711SOL     OW12031   6.590   5.070   2.551
 3711SOL    HW112032   6.680   5.051   2.512
 3711SOL    HW212033   6.599   5.081   2.650
 3712SOL     OW12034   1.433   0.036   0.339
 3712SOL    HW112035   1.378   6.979   0.360
 3712SOL    HW212036   1.458   0.082   0.424
 3713SOL     OW12037   3.588   5.653   5.679
 3713SOL    HW112038   3.567   5.712   5.757
 3713SOL    HW212039   3.552   5.561   5.695
 3714SOL     OW12040   3.805   0.517   4.695
 3714SOL    HW112041   3.779   0.612   4.681
 3714SOL    HW212042   3.732   0.470   4.745
 3715SOL     OW12043   5.579   4.276   4.902
 3715SOL    HW112044   5.581   4.253   4.805
 3715SOL    HW212045   5.558   4.194   4.955
 3716SOL     OW12046   6.968   0.423   4.343
 3716SOL    HW112047   6.946   0.490   4.271
 3716SOL    HW212048   0.006   0.353   4.305
 3717SOL     OW12049   6.367   6.556   0.992
 3717SOL    HW112050   6.399   6.598   1.077
 3717SOL    HW212051   6.443   6.506   0.950
 3718SOL     OW12052   1.694   5.588   0.333
 3718SOL    HW112053   1.638   5.522   0.285
 3718SOL    HW212054   1.737   5.650   0.267
 3719SOL     OW12055   3.965   4.616   5.598
 3719SOL    HW112056   3.972   4.639   5.695
 3719SOL    HW212057   3.874   4.579   5.579
 3720SOL     OW12058   5.666   1.682   5.771
 3720SOL    HW112059   5.705   1.672   5.679
 3720SOL    HW212060   5.592   1.616   5.783
 3721SOL     OW12061   5.091   4.216   0.364
 3721SOL    HW112062   5.161   4.264   0.312
 3721SOL    HW212063   5.133   4.171   0.443
 3722SOL     OW12064   6.529   5.797   2.571
 3722SOL    HW112065   6.517   5.787   2.472
 3722SOL    HW212066   6.488   5.718   2.617
 3723SOL     OW12067   5.196   0.572   1.156
 3723SOL    HW112068   5.163   0.540   1.067
 3723SOL    HW212069   5.181   0.670   1.165
 3724SOL     OW12070   1.538   5.492   6.259
 3724SOL    HW112071   1.582   5.457   6.176
 3724SOL    HW212072   1.579   5.580   6.283
 3725SOL     OW12073   0.141   6.016   6.565
 3725SOL    HW112074   0.218   6.039   6.506
 3725SOL    HW212075   0.055   6.032   6.516
 3726SOL     OW12076   5.321   3.952   1.431
 3726SOL    HW112077   5.399   3.935   1.370
 3726SOL    HW212078   5.246   3.992   1.380
 3727SOL     OW12079   2.155   3.140   5.192
 3727SOL    HW112080   2.231   3.104   5.138
 3727SOL    HW212081   2.188   3.167   5.283
 3728SOL     OW12082   1.710   3.498   6.603
 3728SOL    HW112083   1.687   3.407   6.637
 3728SOL    HW212084   1.771   3.543   6.668
 3729SOL     OW12085   0.751   2.020   3.493
 3729SOL    HW112086   0.683   1.955   3.527
 3729SOL    HW212087   0.706   2.084   3.430
 3730SOL     OW12088   3.439   0.951   0.237
 3730SOL    HW112089   3.451   0.867   0.184
 3730SOL    HW212090   3.442   1.030   0.176
 3731SOL     OW12091   4.337   0.056   7.023
 3731SOL    HW112092   4.391   0.139   7.006
 3731SOL    HW212093   4.397   7.004   0.022
 3732SOL     OW12094   2.211   3.709   5.176
 3732SOL    HW112095   2.221   3.807   5.160
 3732SOL    HW212096   2.301   3.665   5.169
 3733SOL     OW12097   2.907   3.765   1.357
 3733SOL    HW112098   2.998   3.772   1.398
 3733SOL    HW212099   2.838   3.794   1.424
 3734SOL     OW12100   5.394   1.042   2.640
 3734SOL    HW112101   5.375   0.985   2.560
 3734SOL    HW212102   5.341   1.127   2.634
 3735SOL     OW12103   3.126   2.086   2.240
 3735SOL    HW112104   3.071   2.124   2.314
 3735SOL    HW212105   3.103   2.132   2.154
 3736SOL     OW12106   6.085   2.218   0.750
 3736SOL    HW112107   6.143   2.197   0.828
 3736SOL    HW212108   6.049   2.132   0.711
 3737SOL     OW12109   4.846   6.813   3.546
 3737SOL    HW112110   4.946   6.813   3.553
 3737SOL    HW212111   4.817   6.881   3.478
 3738SOL     OW12112   0.187   7.011   3.506
 3738SOL    HW112113   0.256   0.038   3.454
 3738SOL    HW212114   0.194   0.012   3.603
 3739SOL     OW12115   0.386   4.121   2.450
 3739SOL    HW112116   0.369   4.168   2.364
 3739SOL    HW212117   0.485   4.111   2.464
 3740SOL     OW12118   5.579   1.038   0.107
 3740SOL    HW112119   5.488   1.050   0.067
 3740SOL    HW212120   5.569   1.012   0.203
 3741SOL     OW12121   4.054   2.472   0.017
 3741SOL    HW112122   4.106   2.492   0.100
 3741SOL    HW212123   4.000   2.389   0.031
 3742SOL     OW12124   3.365   3.014   5.535
 3742SOL    HW112125   3.372   2.929   5.483
 3742SOL    HW212126   3.412   3.004   5.623
 3743SOL     OW12127   0.026   4.976   0.034
 3743SOL    HW112128   0.117   4.952   0.001
 3743SOL    HW212129   0.001   4.915   0.110
 3744SOL     OW12130   0.584   5.596   3.820
 3744SOL    HW112131   0.622   5.506   3.842
 3744SOL    HW212132   0.626   5.665   3.878
 3745SOL     OW12133   4.259   5.929   2.343
 3745SOL    HW112134   4.196   5.857   2.372
 3745SOL    HW212135   4.260   6.002   2.411
 3746SOL     OW12136   4.396   1.403   1.933
 3746SOL    HW112137   4.351   1.486   1.965
 3746SOL    HW212138   4.329   1.346   1.884
 3747SOL     OW12139   3.400   0.699   0.077
 3747SOL    HW112140   3.363   0.756   0.004
 3747SOL    HW212141   3.343   0.617   0.087
 3748SOL     OW12142   6.100   1.032   2.706
 3748SOL    HW112143   6.039   0.989   2.639
 3748SOL    HW212144   6.105   1.130   2.688
 3749SOL     OW12145   1.238   6.928   5.424
 3749SOL    HW112146   1.337   6.922   5.414
 3749SOL    HW212147   1.215   7.016   5.466
 3750SOL     OW12148   0.093   4.090   0.587
 3750SOL    HW112149   0.171   4.027   0.593
 3750SOL    HW212150   0.108   4.167   0.649
 3751SOL     OW12151   0.611   4.134   2.892
 3751SOL    HW112152   0.520   4.127   2.851
 3751SOL    HW212153   0.625   4.227   2.925
 3752SOL     OW12154   5.850   0.397   6.057
 3752SOL    HW112155   5.885   0.320   6.003
 3752SOL    HW212156   5.768   0.368   6.107
 3753SOL     OW12157   6.662   6.995   4.432
 3753SOL    HW112158   6.679   6.966   4.527
 3753SOL    HW212159   6.719   6.940   4.370
 3754SOL     OW12160   2.335   1.606   0.692
 3754SOL    HW112161   2.324   1.684   0.752
 3754SOL    HW212162   2.296   1.524   0.735
 3755SOL     OW12163   2.965   5.126   3.413
 3755SOL    HW112164   3.028   5.115   3.337
 3755SOL    HW212165   3.010   5.177   3.487
 3756SOL     OW12166   2.108   6.298   0.203
 3756SOL    HW112167   2.027   6.239   0.203
 3756SOL    HW212168   2.082   6.389   0.236
 3757SOL     OW12169   6.564   4.680   1.307
 3757SOL    HW112170   6.638   4.725   1.257
 3757SOL    HW212171   6.477   4.721   1.281
 3758SOL     OW12172   1.946   6.805   3.570
 3758SOL    HW112173   1.872   6.872   3.575
 3758SOL    HW212174   2.034   6.852   3.561
 3759SOL     OW12175   5.027   0.426   4.193
 3759SOL    HW112176   4.973   0.386   4.267
 3759SOL    HW212177   5.101   0.481   4.233
 3760SOL     OW12178   0.481   1.258   3.145
 3760SOL    HW112179   0.495   1.286   3.050
 3760SOL    HW212180   0.480   1.338   3.204
 3761SOL     OW12181   5.596   1.220   3.617
 3761SOL    HW112182   5.582   1.261   3.707
 3761SOL    HW212183   5.673   1.264   3.571
 3762SOL     OW12184   0.221   2.685   2.740
 3762SOL    HW112185   0.314   2.699   2.775
 3762SOL    HW212186   0.156   2.732   2.799
 3763SOL     OW12187   0.658   4.519   0.716
 3763SOL    HW112188   0.611   4.462   0.783
 3763SOL    HW212189   0.702   4.461   0.648
 3764SOL     OW12190   2.250   0.744   2.992
 3764SOL    HW112191   2.326   0.769   2.931
 3764SOL    HW212192   2.283   0.738   3.086
 3765SOL     OW12193   5.653   2.561   1.960
 3765SOL    HW112194   5.745   2.525   1.943
 3765SOL    HW212195   5.655   2.624   2.038
 3766SOL     OW12196   1.071   3.706   3.359
 3766SOL    HW112197   1.028   3.796   3.369
 3766SOL    HW212198   1.152   3.701   3.417
 3767SOL     OW12199   1.019   5.153   6.057
 3767SOL    HW112200   0.994   5.192   6.145
 3767SOL    HW212201   1.036   5.226   5.991
 3768SOL     OW12202   0.999   0.094   3.935
 3768SOL    HW112203   1.051   0.029   3.992
 3768SOL    HW212204   0.956   0.162   3.994
 3769SOL     OW12205   5.671   5.207   5.011
 3769SOL    HW112206   5.699   5.275   5.079
 3769SOL    HW212207   5.728   5.216   4.929
 3770SOL     OW12208   1.977   1.109   1.040
 3770SOL    HW112209   2.013   1.146   1.126
 3770SOL    HW212210   1.934   1.183   0.988
 3771SOL     OW12211   6.529   5.320   0.123
 3771SOL    HW112212   6.508   5.386   0.195
 3771SOL    HW212213   6.448   5.307   0.065
 3772SOL     OW12214   1.714   6.061   0.637
 3772SOL    HW112215   1.735   6.059   0.735
 3772SOL    HW212216   1.728   5.969   0.599
 3773SOL     OW12217   5.303   4.427   6.473
 3773SOL    HW112218   5.398   4.445   6.501
 3773SOL    HW212219   5.254   4.513   6.461
 3774SOL     OW12220   6.618   4.809   1.789
 3774SOL    HW112221   6.633   4.879   1.858
 3774SOL    HW212222   6.598   4.852   1.701
 3775SOL     OW12223   4.378   4.821   4.469
 3775SOL    HW112224   4.436   4.894   4.503
 3775SOL    HW212225   4.303   4.805   4.533
 3776SOL     OW12226   3.542   2.920   5.713
 3776SOL    HW112227   3.591   2.875   5.639
 3776SOL    HW212228   3.606   2.971   5.770
 3777SOL     OW12229   2.975   5.981   4.186
 3777SOL    HW112230   2.964   5.918   4.263
 3777SOL    HW212231   3.065   6.025   4.192
 3778SOL     OW12232   3.367   5.399   6.112
 3778SOL    HW112233   3.357   5.424   6.208
 3778SOL    HW212234   3.278   5.373   6.075
 3779SOL     OW12235   0.004   4.625   7.021
 3779SOL    HW112236   7.020   4.592   0.091
 3779SOL    HW212237   0.081   4.688   7.013
 3780SOL     OW12238   5.789   4.105   1.621
 3780SOL    HW112239   5.747   4.026   1.577
 3780SOL    HW212240   5.751   4.189   1.582
 3781SOL     OW12241   3.058   6.354   4.757
 3781SOL    HW112242   3.116   6.436   4.763
 3781SOL    HW212243   3.114   6.273   4.772
 3782SOL     OW12244   4.940   6.022   1.800
 3782SOL    HW112245   5.009   6.025   1.872
 3782SOL    HW212246   4.954   6.098   1.737
 3783SOL     OW12247   5.160   5.353   4.814
 3783SOL    HW112248   5.215   5.310   4.743
 3783SOL    HW212249   5.140   5.447   4.788
 3784SOL     OW12250   6.613   1.921   3.919
 3784SOL    HW112251   6.629   1.918   4.017
 3784SOL    HW212252   6.686   1.871   3.871
 3785SOL     OW12253   2.040   3.485   4.136
 3785SOL    HW112254   1.949   3.475   4.175
 3785SOL    HW212255   2.072   3.579   4.149
 3786SOL     OW12256   2.382   2.653   4.574
 3786SOL    HW112257   2.379   2.597   4.658
 3786SOL    HW212258   2.315   2.618   4.509
 3787SOL     OW12259   4.301   7.010   3.330
 3787SOL    HW112260   4.396   6.986   3.349
 3787SOL    HW212261   4.245   6.927   3.327
 3788SOL     OW12262   6.562   3.693   5.031
 3788SOL    HW112263   6.531   3.787   5.046
 3788SOL    HW212264   6.482   3.633   5.026
 3789SOL     OW12265   1.464   2.575   2.556
 3789SOL    HW112266   1.491   2.494   2.608
 3789SOL    HW212267   1.541   2.606   2.500
 3790SOL     OW12268   0.778   6.624   1.795
 3790SOL    HW112269   0.698   6.661   1.842
 3790SOL    HW212270   0.790   6.671   1.707
 3791SOL     OW12271   4.844   0.982   5.498
 3791SOL    HW112272   4.940   0.963   5.478
 3791SOL    HW212273   4.815   1.064   5.448
 3792SOL     OW12274   0.179   0.805   4.445
 3792SOL    HW112275   0.253   0.737   4.440
 3792SOL    HW212276   0.159   0.826   4.540
 3793SOL     OW12277   4.637   5.162   0.671
 3793SOL    HW112278   4.600   5.069   0.679
 3793SOL    HW212279   4.679   5.173   0.582
 3794SOL     OW12280   0.793   4.117   6.702
 3794SOL    HW112281   0.700   4.117   6.664
 3794SOL    HW212282   0.801   4.046   6.772
 3795SOL     OW12283   1.649   6.372   1.660
 3795SOL    HW112284   1.555   6.364   1.626
 3795SOL    HW212285   1.712   6.347   1.586
 3796SOL     OW12286   4.959   1.565   6.890
 3796SOL    HW112287   4.984   1.478   6.847
 3796SOL    HW212288   4.877   1.553   6.945
 3797SOL     OW12289   1.142   4.516   2.406
 3797SOL    HW112290   1.067   4.450   2.409
 3797SOL    HW212291   1.105   4.608   2.392
 3798SOL     OW12292   1.614   6.252   3.319
 3798SOL    HW112293   1.599   6.166   3.367
 3798SOL    HW212294   1.683   6.307   3.367
 3799SOL     OW12295   0.193   1.628   3.365
 3799SOL    HW112296   0.153   1.566   3.297
 3799SOL    HW212297   0.161   1.601   3.456
 3800SOL     OW12298   5.434   2.565   2.819
 3800SOL    HW112299   5.504   2.496   2.804
 3800SOL    HW212300   5.404   2.604   2.732
 3801SOL     OW12301   5.912   1.301   2.020
 3801SOL    HW112302   5.961   1.375   2.066
 3801SOL    HW212303   5.846   1.261   2.084
 3802SOL     OW12304   6.398   2.751   1.973
 3802SOL    HW112305   6.496   2.768   1.963
 3802SOL    HW212306   6.359   2.724   1.885
 3803SOL     OW12307   3.036   3.434   3.989
 3803SOL    HW112308   3.074   3.348   3.955
 3803SOL    HW212309   3.021   3.428   4.088
 3804SOL     OW12310   4.109   6.096   2.817
 3804SOL    HW112311   4.045   6.079   2.893
 3804SOL    HW212312   4.197   6.125   2.854
 3805SOL     OW12313   2.883   2.677   6.986
 3805SOL    HW112314   2.834   2.741   0.022
 3805SOL    HW212315   2.910   2.597   0.016
 3806SOL     OW12316   3.643   4.481   1.453
 3806SOL    HW112317   3.659   4.423   1.373
 3806SOL    HW212318   3.595   4.429   1.523
 3807SOL     OW12319   1.948   4.218   4.686
 3807SOL    HW112320   1.880   4.160   4.642
 3807SOL    HW212321   1.906   4.306   4.710
 3808SOL     OW12322   3.400   6.909   6.433
 3808SOL    HW112323   3.499   6.908   6.421
 3808SOL    HW212324   3.366   7.003   6.430
 3809SOL     OW12325   5.006   2.249   1.269
 3809SOL    HW112326   5.086   2.308   1.253
 3809SOL    HW212327   5.037   2.159   1.300
 3810SOL     OW12328   5.897   2.395   1.946
 3810SOL    HW112329   5.984   2.438   1.968
 3810SOL    HW212330   5.868   2.338   2.023
 3811SOL     OW12331   0.585   5.376   5.177
 3811SOL    HW112332   0.571   5.472   5.200
 3811SOL    HW212333   0.676   5.347   5.208
 3812SOL     OW12334   4.787   6.449   1.424
 3812SOL    HW112335   4.750   6.542   1.414
 3812SOL    HW212336   4.792   6.406   1.334
 3813SOL     OW12337   6.049   4.214   0.305
 3813SOL    HW112338   6.082   4.124   0.274
 3813SOL    HW212339   6.083   4.232   0.397
 3814SOL     OW12340   6.670   0.518   4.978
 3814SOL    HW112341   6.655   0.432   5.028
 3814SOL    HW212342   6.678   0.499   4.880
 3815SOL     OW12343   6.271   3.707   5.906
 3815SOL    HW112344   6.318   3.653   5.976
 3815SOL    HW212345   6.188   3.747   5.945
 3816SOL     OW12346   0.474   5.570   7.006
 3816SOL    HW112347   0.480   5.657   6.958
 3816SOL    HW212348   0.403   5.575   0.052
 3817SOL     OW12349   5.037   4.110   1.816
 3817SOL    HW112350   5.015   4.014   1.799
 3817SOL    HW212351   5.055   4.123   1.913
 3818SOL     OW12352   6.025   0.238   2.935
 3818SOL    HW112353   5.967   0.266   3.012
 3818SOL    HW212354   6.121   0.250   2.959
 3819SOL     OW12355   7.014   4.125   3.958
 3819SOL    HW112356   6.936   4.071   3.926
 3819SOL    HW212357   0.062   4.123   3.889
 3820SOL     OW12358   4.512   6.902   4.574
 3820SOL    HW112359   4.460   6.899   4.488
 3820SOL    HW212360   4.483   6.828   4.634
 3821SOL     OW12361   1.388   0.492   0.288
 3821SOL    HW112362   1.451   0.509   0.212
 3821SOL    HW212363   1.335   0.409   0.269
 3822SOL     OW12364   4.494   1.121   1.686
 3822SOL    HW112365   4.522   1.207   1.643
 3822SOL    HW212366   4.445   1.066   1.619
 3823SOL     OW12367   4.582   6.010   6.860
 3823SOL    HW112368   4.618   5.961   6.938
 3823SOL    HW212369   4.529   5.948   6.802
 3824SOL     OW12370   2.105   3.064   0.160
 3824SOL    HW112371   2.095   2.966   0.147
 3824SOL    HW212372   2.073   3.089   0.252
 3825SOL     OW12373   1.366   3.757   5.619
 3825SOL    HW112374   1.322   3.722   5.701
 3825SOL    HW212375   1.438   3.821   5.645
 3826SOL     OW12376   5.981   3.977   3.288
 3826SOL    HW112377   5.922   3.950   3.212
 3826SOL    HW212378   6.076   3.981   3.257
 3827SOL     OW12379   1.360   1.188   1.747
 3827SOL    HW112380   1.458   1.172   1.755
 3827SOL    HW212381   1.314   1.104   1.720
 3828SOL     OW12382   3.837   4.022   3.970
 3828SOL    HW112383   3.902   3.951   3.941
 3828SOL    HW212384   3.759   4.022   3.908
 3829SOL     OW12385   1.045   3.782   2.683
 3829SOL    HW112386   0.981   3.705   2.686
 3829SOL    HW212387   1.020   3.843   2.608
 3830SOL     OW12388   6.405   1.344   4.305
 3830SOL    HW112389   6.400   1.246   4.287
 3830SOL    HW212390   6.481   1.384   4.255
 3831SOL     OW12391   4.235   1.948   3.586
 3831SOL    HW112392   4.232   1.964   3.488
 3831SOL    HW212393   4.153   1.987   3.629
 3832SOL     OW12394   6.706   0.898   3.592
 3832SOL    HW112395   6.757   0.984   3.598
 3832SOL    HW212396   6.644   0.901   3.513
 3833SOL     OW12397   0.442   1.746   5.755
 3833SOL    HW112398   0.421   1.729   5.851
 3833SOL    HW212399   0.443   1.844   5.737
 3834SOL     OW12400   4.675   4.174   0.270
 3834SOL    HW112401   4.593   4.230   0.283
 3834SOL    HW212402   4.647   4.081   0.246
 3835SOL     OW12403   4.340   5.466   4.518
 3835SOL    HW112404   4.301   5.558   4.524
 3835SOL    HW212405   4.313   5.413   4.599
 3836SOL     OW12406   0.430   6.363   5.678
 3836SOL    HW112407   0.464   6.277   5.639
 3836SOL    HW212408   0.330   6.359   5.684
 3837SOL     OW12409   4.127   5.010   5.462
 3837SOL    HW112410   4.069   5.013   5.543
 3837SOL    HW212411   4.197   4.939   5.474
 3838SOL     OW12412   1.094   1.442   3.893
 3838SOL    HW112413   1.056   1.495   3.817
 3838SOL    HW212414   1.193   1.437   3.884
 3839SOL     OW12415   3.954   0.634   3.303
 3839SOL    HW112416   3.889   0.564   3.277
 3839SOL    HW212417   3.977   0.625   3.400
 3840SOL     OW12418   2.363   1.014   6.773
 3840SOL    HW112419   2.326   0.949   6.840
 3840SOL    HW212420   2.357   1.107   6.809
 3841SOL     OW12421   6.507   4.164   3.814
 3841SOL    HW112422   6.556   4.245   3.846
 3841SOL    HW212423   6.560   4.082   3.838
 3842SOL     OW12424   2.172   2.838   5.118
 3842SOL    HW112425   2.187   2.756   5.064
 3842SOL    HW212426   2.219   2.916   5.075
 3843SOL     OW12427   5.135   2.386   0.074
 3843SOL    HW112428   5.233   2.371   0.059
 3843SOL    HW212429   5.083   2.334   0.006
 3844SOL     OW12430   1.458   6.057   0.503
 3844SOL    HW112431   1.401   5.999   0.560
 3844SOL    HW212432   1.537   6.088   0.555
 3845SOL     OW12433   1.836   6.072   0.900
 3845SOL    HW112434   1.757   6.027   0.942
 3845SOL    HW212435   1.920   6.028   0.932
 3846SOL     OW12436   1.073   2.637   3.433
 3846SOL    HW112437   1.116   2.652   3.344
 3846SOL    HW212438   1.120   2.563   3.481
 3847SOL     OW12439   6.492   1.191   6.138
 3847SOL    HW112440   6.464   1.116   6.078
 3847SOL    HW212441   6.558   1.249   6.091
 3848SOL     OW12442   5.254   3.530   2.211
 3848SOL    HW112443   5.343   3.569   2.188
 3848SOL    HW212444   5.183   3.599   2.198
 3849SOL     OW12445   6.937   5.625   6.775
 3849SOL    HW112446   7.006   5.687   6.738
 3849SOL    HW212447   6.889   5.669   6.850
 3850SOL     OW12448   2.679   2.486   1.364
 3850SOL    HW112449   2.776   2.485   1.338
 3850SOL    HW212450   2.657   2.575   1.404
 3851SOL     OW12451   0.462   5.820   2.721
 3851SOL    HW112452   0.424   5.754   2.786
 3851SOL    HW212453   0.389   5.879   2.687
 3852SOL     OW12454   3.341   5.943   5.614
 3852SOL    HW112455   3.311   6.030   5.654
 3852SOL    HW212456   3.426   5.958   5.564
 3853SOL     OW12457   2.495   1.304   3.788
 3853SOL    HW112458   2.584   1.316   3.833
 3853SOL    HW212459   2.505   1.244   3.709
 3854SOL     OW12460   1.918   2.425   2.737
 3854SOL    HW112461   1.907   2.515   2.696
 3854SOL    HW212462   1.914   2.433   2.837
 3855SOL     OW12463   3.845   6.985   0.507
 3855SOL    HW112464   3.895   6.907   0.470
 3855SOL    HW212465   3.906   0.039   0.516
 3856SOL     OW12466   0.685   1.663   6.324
 3856SOL    HW112467   0.590   1.655   6.294
 3856SOL    HW212468   0.717   1.757   6.308
 3857SOL     OW12469   2.281   1.325   5.252
 3857SOL    HW112470   2.304   1.378   5.170
 3857SOL    HW212471   2.275   1.387   5.330
 3858SOL     OW12472   4.268   0.951   4.940
 3858SOL    HW112473   4.361   0.923   4.965
 3858SOL    HW212474   4.253   0.932   4.843
 3859SOL     OW12475   5.494   0.436   1.631
 3859SOL    HW112476   5.506   0.341   1.604
 3859SOL    HW212477   5.397   0.458   1.634
 3860SOL     OW12478   1.615   0.462   4.421
 3860SOL    HW112479   1.607   0.441   4.323
 3860SOL    HW212480   1.618   0.376   4.473
 3861SOL     OW12481   4.242   5.641   1.758
 3861SOL    HW112482   4.215   5.715   1.821
 3861SOL    HW212483   4.341   5.645   1.743
 3862SOL     OW12484   1.149   6.809   3.683
 3862SOL    HW112485   1.148   6.761   3.595
 3862SOL    HW212486   1.057   6.840   3.705
 3863SOL     OW12487   4.797   0.666   0.716
 3863SOL    HW112488   4.727   0.611   0.670
 3863SOL    HW212489   4.815   0.749   0.663
 3864SOL     OW12490   2.836   0.313   4.451
 3864SOL    HW112491   2.890   0.388   4.414
 3864SOL    HW212492   2.754   0.350   4.496
 3865SOL     OW12493   3.926   0.613   0.084
 3865SOL    HW112494   3.924   0.533   0.145
 3865SOL    HW212495   3.881   0.690   0.129
 3866SOL     OW12496   2.402   2.822   6.953
 3866SOL    HW112497   2.403   2.837   6.854
 3866SOL    HW212498   2.446   2.734   6.974
 3867SOL     OW12499   0.718   3.972   2.680
 3867SOL    HW112500   0.669   3.887   2.662
 3867SOL    HW212501   0.684   4.012   2.765
 3868SOL     OW12502   3.821   1.146   6.586
 3868SOL    HW112503   3.811   1.053   6.622
 3868SOL    HW212504   3.736   1.197   6.601
 3869SOL     OW12505   6.558   3.161   3.062
 3869SOL    HW112506   6.587   3.069   3.087
 3869SOL    HW212507   6.491   3.157   2.988
 3870SOL     OW12508   6.514   0.435   3.571
 3870SOL    HW112509   6.590   0.483   3.527
 3870SOL    HW212510   6.466   0.497   3.632
 3871SOL     OW12511   3.304   5.469   3.786
 3871SOL    HW112512   3.274   5.561   3.813
 3871SOL    HW212513   3.272   5.450   3.693
 3872SOL     OW12514   3.312   3.524   4.345
 3872SOL    HW112515   3.379   3.580   4.296
 3872SOL    HW212516   3.360   3.456   4.400
 3873SOL     OW12517   4.656   2.382   0.496
 3873SOL    HW112518   4.629   2.475   0.470
 3873SOL    HW212519   4.632   2.318   0.422
 3874SOL     OW12520   4.006   0.173   0.595
 3874SOL    HW112521   3.931   0.240   0.598
 3874SOL    HW212522   4.025   0.140   0.688
 3875SOL     OW12523   1.345   2.133   5.290
 3875SOL    HW112524   1.272   2.068   5.272
 3875SOL    HW212525   1.429   2.103   5.243
 3876SOL     OW12526   4.228   6.378   1.208
 3876SOL    HW112527   4.183   6.467   1.200
 3876SOL    HW212528   4.325   6.392   1.226
 3877SOL     OW12529   0.134   2.243   0.573
 3877SOL    HW112530   0.067   2.175   0.541
 3877SOL    HW212531   0.224   2.222   0.534
 3878SOL     OW12532   4.469   6.906   3.996
 3878SOL    HW112533   4.424   6.831   4.044
 3878SOL    HW212534   4.405   6.982   3.985
 3879SOL     OW12535   4.853   5.226   7.002
 3879SOL    HW112536   4.843   5.228   6.903
 3879SOL    HW212537   4.784   5.165   0.018
 3880SOL     OW12538   5.300   4.596   4.400
 3880SOL    HW112539   5.376   4.620   4.340
 3880SOL    HW212540   5.219   4.648   4.374
 3881SOL     OW12541   1.410   4.169   0.242
 3881SOL    HW112542   1.449   4.079   0.257
 3881SOL    HW212543   1.371   4.174   0.150
 3882SOL     OW12544   1.045   1.645   0.588
 3882SOL    HW112545   1.005   1.736   0.601
 3882SOL    HW212546   1.054   1.627   0.490
 3883SOL     OW12547   4.303   6.421   3.406
 3883SOL    HW112548   4.302   6.460   3.498
 3883SOL    HW212549   4.324   6.492   3.339
 3884SOL     OW12550   1.230   5.858   3.516
 3884SOL    HW112551   1.154   5.795   3.500
 3884SOL    HW212552   1.315   5.806   3.525
 3885SOL     OW12553   5.653   0.110   2.981
 3885SOL    HW112554   5.674   0.198   2.940
 3885SOL    HW212555   5.720   0.088   3.052
 3886SOL     OW12556   4.307   6.654   5.637
 3886SOL    HW112557   4.305   6.646   5.737
 3886SOL    HW212558   4.380   6.597   5.600
 3887SOL     OW12559   0.456   6.381   1.268
 3887SOL    HW112560   0.519   6.430   1.328
 3887SOL    HW212561   0.388   6.332   1.323
 3888SOL     OW12562   6.254   6.059   4.410
 3888SOL    HW112563   6.298   6.112   4.337
 3888SOL    HW212564   6.238   5.966   4.378
 3889SOL     OW12565   6.384   2.895   7.019
 3889SOL    HW112566   6.371   2.973   0.056
 3889SOL    HW212567   6.467   2.845   0.021
 3890SOL     OW12568   5.704   4.137   4.333
 3890SOL    HW112569   5.640   4.121   4.258
 3890SOL    HW212570   5.674   4.085   4.413
 3891SOL     OW12571   5.690   4.648   3.758
 3891SOL    HW112572   5.633   4.731   3.758
 3891SOL    HW212573   5.707   4.621   3.663
 3892SOL     OW12574   7.004   2.252   1.191
 3892SOL    HW112575   6.954   2.294   1.115
 3892SOL    HW212576   0.074   2.287   1.192
 3893SOL     OW12577   4.432   3.383   1.593
 3893SOL    HW112578   4.480   3.384   1.505
 3893SOL    HW212579   4.399   3.291   1.612
 3894SOL     OW12580   5.001   0.185   6.632
 3894SOL    HW112581   4.957   0.270   6.658
 3894SOL    HW212582   5.025   0.132   6.713
 3895SOL     OW12583   1.496   6.834   5.437
 3895SOL    HW112584   1.579   6.874   5.400
 3895SOL    HW212585   1.504   6.734   5.436
 3896SOL     OW12586   0.604   0.879   0.150
 3896SOL    HW112587   0.571   0.797   0.196
 3896SOL    HW212588   0.562   0.960   0.193
 3897SOL     OW12589   4.378   5.969   1.767
 3897SOL    HW112590   4.414   5.897   1.707
 3897SOL    HW212591   4.454   6.016   1.811
 3898SOL     OW12592   3.814   2.397   6.695
 3898SOL    HW112593   3.756   2.420   6.773
 3898SOL    HW212594   3.770   2.326   6.640
 3899SOL     OW12595   4.949   0.291   5.965
 3899SOL    HW112596   5.002   0.366   5.926
 3899SOL    HW212597   4.975   0.205   5.921
 3900SOL     OW12598   5.418   3.622   3.575
 3900SOL    HW112599   5.325   3.617   3.539
 3900SOL    HW212600   5.482   3.578   3.511
 3901SOL     OW12601   2.998   0.511   6.376
 3901SOL    HW112602   2.932   0.452   6.423
 3901SOL    HW212603   2.960   0.602   6.365
 3902SOL     OW12604   5.812   3.136   2.344
 3902SOL    HW112605   5.800   3.037   2.357
 3902SOL    HW212606   5.772   3.163   2.257
 3903SOL     OW12607   3.606   6.369   6.812
 3903SOL    HW112608   3.541   6.310   6.859
 3903SOL    HW212609   3.683   6.315   6.779
 3904SOL     OW12610   0.756   0.609   6.815
 3904SOL    HW112611   0.679   0.670   6.835
 3904SOL    HW212612   0.766   0.600   6.716
 3905SOL     OW12613   0.122   6.370   6.388
 3905SOL    HW112614   0.043   6.431   6.400
 3905SOL    HW212615   0.138   6.354   6.291
 3906SOL     OW12616   5.909   6.172   5.445
 3906SOL    HW112617   5.918   6.205   5.351
 3906SOL    HW212618   5.993   6.192   5.496
 3907SOL     OW12619   6.190   2.038   3.374
 3907SOL    HW112620   6.141   2.050   3.288
 3907SOL    HW212621   6.135   1.981   3.436
 3908SOL     OW12622   0.639   2.602   6.574
 3908SOL    HW112623   0.701   2.529   6.603
 3908SOL    HW212624   0.576   2.567   6.505
 3909SOL     OW12625   4.971   5.634   4.561
 3909SOL    HW112626   5.062   5.655   4.526
 3909SOL    HW212627   4.973   5.628   4.660
 3910SOL     OW12628   3.256   3.678   2.612
 3910SOL    HW112629   3.158   3.667   2.600
 3910SOL    HW212630   3.290   3.747   2.548
 3911SOL     OW12631   5.941   1.929   4.873
 3911SOL    HW112632   6.033   1.897   4.851
 3911SOL    HW212633   5.942   2.029   4.882
 3912SOL     OW12634   5.691   2.040   5.197
 3912SOL    HW112635   5.707   2.123   5.144
 3912SOL    HW212636   5.746   1.965   5.159
 3913SOL     OW12637   1.210   0.361   6.350
 3913SOL    HW112638   1.260   0.448   6.351
 3913SOL    HW212639   1.125   0.373   6.298
 3914SOL     OW12640   2.933   0.079   0.251
 3914SOL    HW112641   3.022   0.036   0.239
 3914SOL    HW212642   2.946   0.176   0.274
 3915SOL     OW12643   4.900   5.062   1.022
 3915SOL    HW112644   4.820   5.115   0.995
 3915SOL    HW212645   4.936   5.097   1.108
 3916SOL     OW12646   0.867   6.821   2.704
 3916SOL    HW112647   0.897   6.802   2.797
 3916SOL    HW212648   0.787   6.765   2.682
 3917SOL     OW12649   1.104   6.874   0.143
 3917SOL    HW112650   1.046   6.795   0.123
 3917SOL    HW212651   1.165   6.891   0.066
 3918SOL     OW12652   5.185   4.547   1.527
 3918SOL    HW112653   5.282   4.524   1.517
 3918SOL    HW212654   5.150   4.506   1.612
 3919SOL     OW12655   4.216   0.029   0.464
 3919SOL    HW112656   4.189   0.039   0.369
 3919SOL    HW212657   4.158   0.087   0.521
 3920SOL     OW12658   2.190   3.735   0.389
 3920SOL    HW112659   2.240   3.695   0.312
 3920SOL    HW212660   2.095   3.750   0.363
 3921SOL     OW12661   0.731   3.928   1.520
 3921SOL    HW112662   0.682   3.885   1.444
 3921SOL    HW212663   0.733   3.865   1.598
 3922SOL     OW12664   0.037   3.553   1.846
 3922SOL    HW112665   0.058   3.497   1.926
 3922SOL    HW212666   6.962   3.565   1.838
 3923SOL     OW12667   0.695   0.878   0.555
 3923SOL    HW112668   0.656   0.806   0.498
 3923SOL    HW212669   0.790   0.857   0.576
 3924SOL     OW12670   6.195   4.513   4.172
 3924SOL    HW112671   6.160   4.594   4.123
 3924SOL    HW212672   6.132   4.437   4.161
 3925SOL     OW12673   1.428   4.726   1.479
 3925SOL    HW112674   1.403   4.769   1.566
 3925SOL    HW212675   1.513   4.767   1.445
 3926SOL     OW12676   4.385   4.602   2.465
 3926SOL    HW112677   4.358   4.632   2.557
 3926SOL    HW212678   4.309   4.617   2.402
 3927SOL     OW12679   6.657   3.010   5.983
 3927SOL    HW112680   6.701   2.994   6.072
 3927SOL    HW212681   6.577   2.951   5.975
 3928SOL     OW12682   4.703   6.010   0.122
 3928SOL    HW112683   4.674   5.919   0.151
 3928SOL    HW212684   4.641   6.079   0.160
 3929SOL     OW12685   0.925   0.262   5.034
 3929SOL    HW112686   0.896   0.270   4.939
 3929SOL    HW212687   1.008   0.316   5.049
 3930SOL     OW12688   2.481   2.058   4.001
 3930SOL    HW112689   2.572   2.025   3.974
 3930SOL    HW212690   2.416   1.982   3.994
 3931SOL     OW12691   0.511   1.406   1.725
 3931SOL    HW112692   0.500   1.471   1.649
 3931SOL    HW212693   0.438   1.338   1.721
 3932SOL     OW12694   0.269   3.139   4.360
 3932SOL    HW112695   0.326   3.127   4.278
 3932SOL    HW212696   0.228   3.230   4.358
 3933SOL     OW12697   1.772   0.168   5.900
 3933SOL    HW112698   1.699   0.235   5.888
 3933SOL    HW212699   1.737   0.077   5.880
 3934SOL     OW12700   5.906   0.208   5.860
 3934SOL    HW112701   5.959   0.276   5.810
 3934SOL    HW212702   5.909   0.121   5.810
 3935SOL     OW12703   3.596   0.280   0.767
 3935SOL    HW112704   3.500   0.253   0.770
 3935SOL    HW212705   3.623   0.316   0.856
 3936SOL     OW12706   6.701   5.690   4.632
 3936SOL    HW112707   6.777   5.749   4.657
 3936SOL    HW212708   6.616   5.743   4.636
 3937SOL     OW12709   0.552   1.860   2.523
 3937SOL    HW112710   0.508   1.939   2.567
 3937SOL    HW212711   0.622   1.823   2.584
 3938SOL     OW12712   0.564   1.630   3.188
 3938SOL    HW112713   0.652   1.654   3.229
 3938SOL    HW212714   0.512   1.573   3.252
 3939SOL     OW12715   2.877   1.840   2.605
 3939SOL    HW112716   2.872   1.776   2.528
 3939SOL    HW212717   2.857   1.932   2.573
 3940SOL     OW12718   4.114   3.330   1.513
 3940SOL    HW112719   4.019   3.325   1.481
 3940SOL    HW212720   4.117   3.310   1.611
 3941SOL     OW12721   4.596   5.088   5.819
 3941SOL    HW112722   4.612   5.165   5.880
 3941SOL    HW212723   4.652   5.098   5.737
 3942SOL     OW12724   6.436   6.633   6.984
 3942SOL    HW112725   6.535   6.639   7.000
 3942SOL    HW212726   6.393   6.586   0.036
 3943SOL     OW12727   0.553   3.130   4.398
 3943SOL    HW112728   0.597   3.215   4.428
 3943SOL    HW212729   0.457   3.131   4.426
 3944SOL     OW12730   4.699   2.636   4.924
 3944SOL    HW112731   4.672   2.579   4.846
 3944SOL    HW212732   4.776   2.694   4.897
 3945SOL     OW12733   6.837   1.625   0.466
 3945SOL    HW112734   6.838   1.638   0.367
 3945SOL    HW212735   6.754   1.665   0.504
 3946SOL     OW12736   4.831   4.423   4.029
 3946SOL    HW112737   4.883   4.477   3.964
 3946SOL    HW212738   4.883   4.341   4.054
 3947SOL     OW12739   4.500   6.465   0.499
 3947SOL    HW112740   4.514   6.394   0.569
 3947SOL    HW212741   4.545   6.437   0.414
 3948SOL     OW12742   6.666   4.332   1.556
 3948SOL    HW112743   6.652   4.431   1.555
 3948SOL    HW212744   6.742   4.309   1.617
 3949SOL     OW12745   4.882   5.338   2.991
 3949SOL    HW112746   4.831   5.423   2.992
 3949SOL    HW212747   4.902   5.309   3.085
 3950SOL     OW12748   1.534   5.682   1.219
 3950SOL    HW112749   1.567   5.620   1.148
 3950SOL    HW212750   1.590   5.670   1.301
 3951SOL     OW12751   4.732   0.609   1.156
 3951SOL    HW112752   4.750   0.671   1.232
 3951SOL    HW212753   4.739   0.514   1.187
 3952SOL     OW12754   0.235   2.324   1.102
 3952SOL    HW112755   0.266   2.414   1.074
 3952SOL    HW212756   0.313   2.262   1.108
 3953SOL     OW12757   3.726   3.559   1.953
 3953SOL    HW112758   3.774   3.537   2.037
 3953SOL    HW212759   3.780   3.528   1.874
 3954SOL     OW12760   4.231   5.743   5.610
 3954SOL    HW112761   4.274   5.739   5.520
 3954SOL    HW212762   4.177   5.660   5.626
 3955SOL     OW12763   3.491   2.009   5.642
 3955SOL    HW112764   3.560   2.079   5.662
 3955SOL    HW212765   3.510   1.969   5.552
 3956SOL     OW12766   1.539   0.957   2.276
 3956SOL    HW112767   1.539   0.886   2.346
 3956SOL    HW212768   1.623   0.950   2.222
 3957SOL     OW12769   4.035   0.197   4.464
 3957SOL    HW112770   4.005   0.224   4.373
 3957SOL    HW212771   4.134   0.180   4.463
 3958SOL     OW12772   6.206   2.508   4.212
 3958SOL    HW112773   6.206   2.578   4.283
 3958SOL    HW212774   6.117   2.505   4.167
 3959SOL     OW12775   4.911   5.081   0.506
 3959SOL    HW112776   4.979   5.140   0.463
 3959SOL    HW212777   4.936   5.064   0.602
 3960SOL     OW12778   5.532   1.515   5.139
 3960SOL    HW112779   5.578   1.426   5.129
 3960SOL    HW212780   5.543   1.567   5.055
 3961SOL     OW12781   5.160   0.712   3.393
 3961SOL    HW112782   5.121   0.685   3.481
 3961SOL    HW212783   5.252   0.749   3.407
 3962SOL     OW12784   0.832   5.002   5.831
 3962SOL    HW112785   0.809   5.028   5.925
 3962SOL    HW212786   0.748   4.988   5.779
 3963SOL     OW12787   5.102   6.353   2.119
 3963SOL    HW112788   5.170   6.344   2.046
 3963SOL    HW212789   5.067   6.447   2.121
 3964SOL     OW12790   4.705   4.387   3.276
 3964SOL    HW112791   4.649   4.382   3.193
 3964SOL    HW212792   4.779   4.319   3.270
 3965SOL     OW12793   4.888   3.595   4.431
 3965SOL    HW112794   4.899   3.576   4.334
 3965SOL    HW212795   4.816   3.663   4.444
 3966SOL     OW12796   3.698   5.981   6.837
 3966SOL    HW112797   3.700   5.943   6.744
 3966SOL    HW212798   3.734   5.913   6.901
 3967SOL     OW12799   2.644   4.391   1.233
 3967SOL    HW112800   2.585   4.313   1.252
 3967SOL    HW212801   2.715   4.398   1.303
 3968SOL     OW12802   4.607   0.384   0.584
 3968SOL    HW112803   4.515   0.420   0.576
 3968SOL    HW212804   4.626   0.363   0.680
 3969SOL     OW12805   1.362   5.455   1.864
 3969SOL    HW112806   1.438   5.403   1.825
 3969SOL    HW212807   1.376   5.552   1.847
 3970SOL     OW12808   5.826   5.704   2.262
 3970SOL    HW112809   5.741   5.757   2.261
 3970SOL    HW212810   5.813   5.622   2.317
 3971SOL     OW12811   2.588   5.898   4.134
 3971SOL    HW112812   2.685   5.883   4.114
 3971SOL    HW212813   2.533   5.839   4.075
 3972SOL     OW12814   1.353   3.811   6.507
 3972SOL    HW112815   1.417   3.735   6.502
 3972SOL    HW212816   1.287   3.804   6.432
 3973SOL     OW12817   1.033   5.546   0.841
 3973SOL    HW112818   1.007   5.638   0.812
 3973SOL    HW212819   0.980   5.520   0.922
 3974SOL     OW12820   1.941   0.526   6.063
 3974SOL    HW112821   1.860   0.566   6.106
 3974SOL    HW212822   1.996   0.478   6.132
 3975SOL     OW12823   5.145   1.954   6.151
 3975SOL    HW112824   5.121   2.000   6.237
 3975SOL    HW212825   5.181   1.863   6.171
 3976SOL     OW12826   1.921   6.134   2.585
 3976SOL    HW112827   2.003   6.188   2.568
 3976SOL    HW212828   1.934   6.080   2.668
 3977SOL     OW12829   1.442   3.537   6.555
 3977SOL    HW112830   1.506   3.492   6.617
 3977SOL    HW212831   1.348   3.511   6.579
 3978SOL     OW12832   6.657   4.700   3.237
 3978SOL    HW112833   6.679   4.714   3.140
 3978SOL    HW212834   6.669   4.603   3.260
 3979SOL     OW12835   3.584   1.033   6.423
 3979SOL    HW112836   3.518   0.961   6.444
 3979SOL    HW212837   3.676   0.993   6.415
 3980SOL     OW12838   6.169   6.482   6.721
 3980SOL    HW112839   6.169   6.415   6.796
 3980SOL    HW212840   6.229   6.451   6.648
 3981SOL     OW12841   4.858   5.983   0.909
 3981SOL    HW112842   4.796   5.905   0.900
 3981SOL    HW212843   4.951   5.954   0.888
 3982SOL     OW12844   2.239   6.855   2.277
 3982SOL    HW112845   2.318   6.794   2.268
 3982SOL    HW212846   2.265   6.948   2.249
 3983SOL     OW12847   4.879   5.333   3.988
 3983SOL    HW112848   4.953   5.334   3.921
 3983SOL    HW212849   4.792   5.346   3.941
 3984SOL     OW12850   6.136   1.483   2.800
 3984SOL    HW112851   6.189   1.568   2.794
 3984SOL    HW212852   6.198   1.405   2.805
 3985SOL     OW12853   3.890   5.514   6.621
 3985SOL    HW112854   3.852   5.596   6.664
 3985SOL    HW212855   3.894   5.440   6.688
 3986SOL     OW12856   4.789   1.657   3.141
 3986SOL    HW112857   4.716   1.724   3.151
 3986SOL    HW212858   4.774   1.582   3.205
 3987SOL     OW12859   3.445   4.968   4.534
 3987SOL    HW112860   3.416   4.873   4.530
 3987SOL    HW212861   3.405   5.019   4.458
 3988SOL     OW12862   4.131   5.838   0.316
 3988SOL    HW112863   4.143   5.784   0.232
 3988SOL    HW212864   4.148   5.780   0.395
 3989SOL     OW12865   6.248   2.156   0.491
 3989SOL    HW112866   6.187   2.189   0.564
 3989SOL    HW212867   6.302   2.079   0.524
 3990SOL     OW12868   5.069   2.306   1.697
 3990SOL    HW112869   5.125   2.323   1.615
 3990SOL    HW212870   5.100   2.366   1.771
 3991SOL     OW12871   0.768   1.309   2.549
 3991SOL    HW112872   0.752   1.338   2.454
 3991SOL    HW212873   0.743   1.212   2.559
 3992SOL     OW12874   3.367   2.032   0.714
 3992SOL    HW112875   3.436   2.024   0.786
 3992SOL    HW212876   3.315   1.947   0.709
 3993SOL     OW12877   1.162   2.946   2.063
 3993SOL    HW112878   1.117   3.022   2.015
 3993SOL    HW212879   1.131   2.943   2.158
 3994SOL     OW12880   2.647   0.031   4.763
 3994SOL    HW112881   2.598   0.031   4.676
 3994SOL    HW212882   2.612   6.982   4.822
 3995SOL     OW12883   1.825   3.412   5.411
 3995SOL    HW112884   1.868   3.495   5.374
 3995SOL    HW212885   1.769   3.369   5.339
 3996SOL     OW12886   6.885   6.722   5.376
 3996SOL    HW112887   6.810   6.771   5.332
 3996SOL    HW212888   6.927   6.660   5.309
 3997SOL     OW12889   5.483   1.255   4.424
 3997SOL    HW112890   5.442   1.289   4.508
 3997SOL    HW212891   5.577   1.227   4.442
 3998SOL     OW12892   3.479   1.853   4.013
 3998SOL    HW112893   3.470   1.865   4.112
 3998SOL    HW212894   3.477   1.755   3.991
 3999SOL     OW12895   6.077   2.640   4.491
 3999SOL    HW112896   6.152   2.706   4.492
 3999SOL    HW212897   5.995   2.682   4.452
 4000SOL     OW12898   3.289   6.667   3.847
 4000SOL    HW112899   3.383   6.676   3.880
 4000SOL    HW212900   3.260   6.754   3.806
 4001SOL     OW12901   1.894   2.054   4.015
 4001SOL    HW112902   1.917   2.146   3.983
 4001SOL    HW212903   1.947   1.987   3.963
 4002SOL     OW12904   2.544   3.661   1.713
 4002SOL    HW112905   2.501   3.751   1.717
 4002SOL    HW212906   2.509   3.604   1.788
 4003SOL     OW12907   3.450   6.961   4.676
 4003SOL    HW112908   3.373   6.903   4.649
 4003SOL    HW212909   3.436   0.030   4.640
 4004SOL     OW12910   6.901   2.379   4.958
 4004SOL    HW112911   6.968   2.448   4.930
 4004SOL    HW212912   6.949   2.301   5.000
 4005SOL     OW12913   4.697   6.307   6.900
 4005SOL    HW112914   4.695   6.207   6.893
 4005SOL    HW212915   4.604   6.341   6.914
 4006SOL     OW12916   3.882   5.231   2.180
 4006SOL    HW112917   3.881   5.330   2.170
 4006SOL    HW212918   3.825   5.205   2.258
 4007SOL     OW12919   0.198   2.550   6.898
 4007SOL    HW112920   0.248   2.589   6.976
 4007SOL    HW212921   0.167   2.624   6.838
 4008SOL     OW12922   2.687   2.480   4.705
 4008SOL    HW112923   2.756   2.550   4.721
 4008SOL    HW212924   2.731   2.391   4.696
 4009SOL     OW12925   3.903   3.660   2.296
 4009SOL    HW112926   3.832   3.719   2.258
 4009SOL    HW212927   3.993   3.688   2.260
 4010SOL     OW12928   2.714   3.317   0.711
 4010SOL    HW112929   2.732   3.307   0.809
 4010SOL    HW212930   2.615   3.320   0.696
 4011SOL     OW12931   0.857   2.122   1.568
 4011SOL    HW112932   0.833   2.166   1.655
 4011SOL    HW212933   0.911   2.185   1.512
 4012SOL     OW12934   6.521   4.078   2.553
 4012SOL    HW112935   6.546   3.981   2.555
 4012SOL    HW212936   6.588   4.131   2.605
 4013SOL     OW12937   4.565   2.175   4.128
 4013SOL    HW112938   4.475   2.150   4.091
 4013SOL    HW212939   4.569   2.152   4.225
 4014SOL     OW12940   5.700   6.246   2.954
 4014SOL    HW112941   5.662   6.155   2.968
 4014SOL    HW212942   5.722   6.287   3.042
 4015SOL     OW12943   4.855   4.068   5.471
 4015SOL    HW112944   4.768   4.115   5.453
 4015SOL    HW212945   4.901   4.111   5.548
 4016SOL     OW12946   3.391   5.662   6.020
 4016SOL    HW112947   3.411   5.732   6.088
 4016SOL    HW212948   3.385   5.573   6.066
 4017SOL     OW12949   6.535   5.997   6.827
 4017SOL    HW112950   6.620   6.006   6.776
 4017SOL    HW212951   6.498   6.089   6.845
 4018SOL     OW12952   3.954   5.841   1.518
 4018SOL    HW112953   3.996   5.759   1.556
 4018SOL    HW212954   4.015   5.919   1.532
 4019SOL     OW12955   5.221   4.842   3.770
 4019SOL    HW112956   5.206   4.884   3.680
 4019SOL    HW212957   5.178   4.898   3.840
 4020SOL     OW12958   5.471   2.219   5.774
 4020SOL    HW112959   5.561   2.180   5.755
 4020SOL    HW212960   5.428   2.169   5.849
 4021SOL     OW12961   3.310   4.649   5.708
 4021SOL    HW112962   3.214   4.671   5.725
 4021SOL    HW212963   3.324   4.550   5.721
 4022SOL     OW12964   5.265   0.604   0.476
 4022SOL    HW112965   5.201   0.681   0.478
 4022SOL    HW212966   5.334   0.616   0.547
 4023SOL     OW12967   6.044   1.152   5.472
 4023SOL    HW112968   6.013   1.202   5.391
 4023SOL    HW212969   6.068   1.059   5.447
 4024SOL     OW12970   4.321   4.852   4.019
 4024SOL    HW112971   4.396   4.910   4.050
 4024SOL    HW212972   4.239   4.871   4.074
 4025SOL     OW12973   0.449   4.224   3.224
 4025SOL    HW112974   0.418   4.213   3.318
 4025SOL    HW212975   0.531   4.169   3.209
 4026SOL     OW12976   5.088   6.030   4.211
 4026SOL    HW112977   5.007   6.083   4.234
 4026SOL    HW212978   5.069   5.933   4.222
 4027SOL     OW12979   4.077   5.152   1.917
 4027SOL    HW112980   4.140   5.222   1.952
 4027SOL    HW212981   4.005   5.136   1.984
 4028SOL     OW12982   2.277   1.600   4.370
 4028SOL    HW112983   2.199   1.655   4.341
 4028SOL    HW212984   2.268   1.577   4.467
 4029SOL     OW12985   1.688   4.771   4.780
 4029SOL    HW112986   1.656   4.765   4.874
 4029SOL    HW212987   1.721   4.681   4.750
 4030SOL     OW12988   0.312   2.192   5.510
 4030SOL    HW112989   0.290   2.265   5.574
 4030SOL    HW212990   0.404   2.207   5.473
 4031SOL     OW12991   4.229   5.506   3.797
 4031SOL    HW112992   4.257   5.602   3.808
 4031SOL    HW212993   4.162   5.483   3.867
 4032SOL     OW12994   5.081   0.096   4.415
 4032SOL    HW112995   5.084   7.021   4.403
 4032SOL    HW212996   5.075   0.118   4.512
 4033SOL     OW12997   2.955   3.800   5.543
 4033SOL    HW112998   3.043   3.790   5.495
 4033SOL    HW212999   2.947   3.728   5.611
 4034SOL     OW13000   0.179   2.202   3.746
 4034SOL    HW113001   0.111   2.177   3.677
 4034SOL    HW213002   0.149   2.282   3.797
 4035SOL     OW13003   6.602   4.466   0.363
 4035SOL    HW113004   6.584   4.371   0.336
 4035SOL    HW213005   6.535   4.526   0.320
 4036SOL     OW13006   7.021   0.106   2.675
 4036SOL    HW113007   0.012   0.032   2.741
 4036SOL    HW213008   0.070   0.174   2.686
 4037SOL     OW13009   0.351   3.879   0.149
 4037SOL    HW113010   0.331   3.844   0.057
 4037SOL    HW213011   0.332   3.977   0.153
 4038SOL     OW13012   5.931   4.623   3.852
 4038SOL    HW113013   5.833   4.628   3.835
 4038SOL    HW213014   5.980   4.635   3.766
 4039SOL     OW13015   4.783   6.230   0.963
 4039SOL    HW113016   4.859   6.280   1.004
 4039SOL    HW213017   4.812   6.137   0.939
 4040SOL     OW13018   3.752   6.317   1.611
 4040SOL    HW113019   3.830   6.312   1.673
 4040SOL    HW213020   3.770   6.383   1.538
 4041SOL     OW13021   1.544   6.482   4.041
 4041SOL    HW113022   1.614   6.553   4.050
 4041SOL    HW213023   1.506   6.483   3.948
 4042SOL     OW13024   6.146   5.359   1.951
 4042SOL    HW113025   6.059   5.380   1.907
 4042SOL    HW213026   6.164   5.426   2.023
 4043SOL     OW13027   6.286   2.519   1.087
 4043SOL    HW113028   6.302   2.424   1.062
 4043SOL    HW213029   6.195   2.527   1.129
 4044SOL     OW13030   6.741   5.903   3.638
 4044SOL    HW113031   6.782   5.952   3.716
 4044SOL    HW213032   6.730   5.807   3.662
 4045SOL     OW13033   2.737   6.238   5.939
 4045SOL    HW113034   2.673   6.172   5.900
 4045SOL    HW213035   2.732   6.324   5.888
 4046SOL     OW13036   1.406   3.176   1.209
 4046SOL    HW113037   1.454   3.152   1.293
 4046SOL    HW213038   1.313   3.138   1.212
 4047SOL     OW13039   2.689   4.121   0.925
 4047SOL    HW113040   2.783   4.156   0.916
 4047SOL    HW213041   2.686   4.027   0.891
 4048SOL     OW13042   5.576   0.917   1.219
 4048SOL    HW113043   5.665   0.939   1.258
 4048SOL    HW213044   5.579   0.826   1.178
 4049SOL     OW13045   5.768   0.405   4.448
 4049SOL    HW113046   5.693   0.347   4.479
 4049SOL    HW213047   5.747   0.442   4.358
 4050SOL     OW13048   2.999   0.399   0.746
 4050SOL    HW113049   2.941   0.333   0.794
 4050SOL    HW213050   2.982   0.491   0.782
 4051SOL     OW13051   3.042   4.028   0.652
 4051SOL    HW113052   3.072   3.934   0.640
 4051SOL    HW213053   2.949   4.039   0.617
 4052SOL     OW13054   1.112   6.569   1.606
 4052SOL    HW113055   1.031   6.522   1.643
 4052SOL    HW213056   1.100   6.583   1.508
 4053SOL     OW13057   3.526   5.004   3.435
 4053SOL    HW113058   3.610   4.950   3.437
 4053SOL    HW213059   3.549   5.101   3.441
 4054SOL     OW13060   5.141   1.969   0.785
 4054SOL    HW113061   5.068   1.901   0.778
 4054SOL    HW213062   5.203   1.959   0.707
 4055SOL     OW13063   3.228   2.095   0.286
 4055SOL    HW113064   3.182   2.136   0.365
 4055SOL    HW213065   3.160   2.057   0.224
 4056SOL     OW13066   4.032   3.523   0.375
 4056SOL    HW113067   4.126   3.508   0.407
 4056SOL    HW213068   3.968   3.497   0.448
 4057SOL     OW13069   5.316   2.603   6.736
 4057SOL    HW113070   5.280   2.694   6.753
 4057SOL    HW213071   5.253   2.554   6.675
 4058SOL     OW13072   0.749   0.301   4.565
 4058SOL    HW113073   0.726   0.396   4.543
 4058SOL    HW213074   0.682   0.265   4.631
 4059SOL     OW13075   0.304   2.269   4.591
 4059SOL    HW113076   0.396   2.286   4.628
 4059SOL    HW213077   0.297   2.313   4.501
 4060SOL     OW13078   4.586   5.667   3.576
 4060SOL    HW113079   4.593   5.676   3.477
 4060SOL    HW213080   4.539   5.747   3.614
 4061SOL     OW13081   2.963   3.092   1.362
 4061SOL    HW113082   2.907   3.023   1.317
 4061SOL    HW213083   3.018   3.049   1.434
 4062SOL     OW13084   2.336   0.001   3.023
 4062SOL    HW113085   2.410   7.016   2.957
 4062SOL    HW213086   2.338   0.092   3.064
 4063SOL     OW13087   3.136   5.298   6.056
 4063SOL    HW113088   3.051   5.345   6.080
 4063SOL    HW213089   3.116   5.216   6.002
 4064SOL     OW13090   6.869   6.838   3.934
 4064SOL    HW113091   6.967   6.850   3.920
 4064SOL    HW213092   6.828   6.925   3.963
 4065SOL     OW13093   6.187   4.929   7.011
 4065SOL    HW113094   6.091   4.906   0.005
 4065SOL    HW213095   6.234   4.948   0.074
 4066SOL     OW13096   6.010   5.111   1.971
 4066SOL    HW113097   5.925   5.131   1.922
 4066SOL    HW213098   6.075   5.185   1.956
 4067SOL     OW13099   5.991   0.907   2.143
 4067SOL    HW113100   6.009   0.947   2.053
 4067SOL    HW213101   5.966   0.811   2.132
 4068SOL     OW13102   6.357   0.680   3.409
 4068SOL    HW113103   6.443   0.728   3.391
 4068SOL    HW213104   6.358   0.644   3.502
 4069SOL     OW13105   6.663   5.645   1.375
 4069SOL    HW113106   6.575   5.601   1.391
 4069SOL    HW213107   6.716   5.646   1.459
 4070SOL     OW13108   0.984   3.299   3.165
 4070SOL    HW113109   1.063   3.254   3.207
 4070SOL    HW213110   0.938   3.356   3.233
 4071SOL     OW13111   1.839   6.564   4.047
 4071SOL    HW113112   1.837   6.494   3.975
 4071SOL    HW213113   1.933   6.575   4.079
 4072SOL     OW13114   0.767   0.523   4.205
 4072SOL    HW113115   0.752   0.476   4.118
 4072SOL    HW213116   0.813   0.610   4.189
 4073SOL     OW13117   2.125   5.119   0.489
 4073SOL    HW113118   2.188   5.188   0.454
 4073SOL    HW213119   2.117   5.128   0.588
 4074SOL     OW13120   1.631   2.585   0.714
 4074SOL    HW113121   1.578   2.501   0.702
 4074SOL    HW213122   1.604   2.651   0.644
 4075SOL     OW13123   5.272   1.076   3.982
 4075SOL    HW113124   5.318   1.109   3.899
 4075SOL    HW213125   5.176   1.102   3.980
 4076SOL     OW13126   1.778   2.683   3.662
 4076SOL    HW113127   1.683   2.701   3.639
 4076SOL    HW213128   1.782   2.619   3.739
 4077SOL     OW13129   2.628   1.683   0.791
 4077SOL    HW113130   2.720   1.651   0.812
 4077SOL    HW213131   2.580   1.615   0.736
 4078SOL     OW13132   5.451   3.879   1.954
 4078SOL    HW113133   5.448   3.888   1.854
 4078SOL    HW213134   5.360   3.859   1.988
 4079SOL     OW13135   0.440   1.102   3.977
 4079SOL    HW113136   0.460   1.200   3.973
 4079SOL    HW213137   0.351   1.089   4.021
 4080SOL     OW13138   3.871   3.054   2.454
 4080SOL    HW113139   3.936   3.128   2.472
 4080SOL    HW213140   3.891   3.014   2.364
 4081SOL     OW13141   2.256   2.681   6.448
 4081SOL    HW113142   2.225   2.645   6.536
 4081SOL    HW213143   2.215   2.629   6.374
 4082SOL     OW13144   1.163   2.905   5.694
 4082SOL    HW113145   1.209   2.961   5.624
 4082SOL    HW213146   1.188   2.938   5.785
 4083SOL     OW13147   5.757   4.593   3.204
 4083SOL    HW113148   5.673   4.562   3.247
 4083SOL    HW213149   5.827   4.609   3.274
 4084SOL     OW13150   4.694   0.143   3.291
 4084SOL    HW113151   4.678   0.112   3.385
 4084SOL    HW213152   4.792   0.139   3.271
 4085SOL     OW13153   4.048   4.871   2.463
 4085SOL    HW113154   3.956   4.839   2.440
 4085SOL    HW213155   4.111   4.793   2.467
 4086SOL     OW13156   6.158   5.061   6.250
 4086SOL    HW113157   6.174   5.069   6.348
 4086SOL    HW213158   6.244   5.076   6.201
 4087SOL     OW13159   2.414   0.459   1.901
 4087SOL    HW113160   2.325   0.459   1.854
 4087SOL    HW213161   2.477   0.397   1.854
 4088SOL     OW13162   0.122   1.867   4.738
 4088SOL    HW113163   0.066   1.863   4.820
 4088SOL    HW213164   0.214   1.834   4.759
 4089SOL     OW13165   1.290   0.529   3.252
 4089SOL    HW113166   1.212   0.555   3.309
 4089SOL    HW213167   1.275   0.438   3.214
 4090SOL     OW13168   3.042   1.730   5.960
 4090SOL    HW113169   3.013   1.724   6.055
 4090SOL    HW213170   2.978   1.679   5.903
 4091SOL     OW13171   3.384   5.982   1.349
 4091SOL    HW113172   3.371   5.988   1.448
 4091SOL    HW213173   3.369   5.887   1.319
 4092SOL     OW13174   5.489   3.071   3.940
 4092SOL    HW113175   5.400   3.086   3.982
 4092SOL    HW213176   5.537   3.158   3.931
 4093SOL     OW13177   5.259   4.700   4.096
 4093SOL    HW113178   5.337   4.762   4.105
 4093SOL    HW213179   5.203   4.730   4.019
 4094SOL     OW13180   6.622   5.942   0.090
 4094SOL    HW113181   6.560   5.865   0.103
 4094SOL    HW213182   6.573   6.028   0.105
 4095SOL     OW13183   0.794   5.291   0.399
 4095SOL    HW113184   0.770   5.212   0.342
 4095SOL    HW213185   0.797   5.373   0.343
 4096SOL     OW13186   0.371   0.904   6.815
 4096SOL    HW113187   0.271   0.902   6.809
 4096SOL    HW213188   0.409   0.935   6.728
 4097SOL     OW13189   6.619   4.712   5.019
 4097SOL    HW113190   6.669   4.741   5.101
 4097SOL    HW213191   6.607   4.612   5.021
 4098SOL     OW13192   2.104   4.196   2.798
 4098SOL    HW113193   2.029   4.150   2.751
 4098SOL    HW213194   2.068   4.250   2.873
 4099SOL     OW13195   4.724   4.116   6.340
 4099SOL    HW113196   4.761   4.057   6.269
 4099SOL    HW213197   4.633   4.148   6.313
 4100SOL     OW13198   1.563   0.870   4.240
 4100SOL    HW113199   1.640   0.808   4.227
 4100SOL    HW213200   1.496   0.828   4.302
 4101SOL     OW13201   6.495   5.694   0.123
 4101SOL    HW113202   6.553   5.639   0.063
 4101SOL    HW213203   6.399   5.673   0.104
 4102SOL     OW13204   1.569   0.321   6.942
 4102SOL    HW113205   1.509   0.401   6.942
 4102SOL    HW213206   1.616   0.314   0.005
 4103SOL     OW13207   2.166   6.232   3.596
 4103SOL    HW113208   2.144   6.269   3.686
 4103SOL    HW213209   2.181   6.307   3.532
 4104SOL     OW13210   1.872   5.825   4.699
 4104SOL    HW113211   1.961   5.868   4.714
 4104SOL    HW213212   1.885   5.742   4.645
 4105SOL     OW13213   4.599   0.723   1.480
 4105SOL    HW113214   4.521   0.778   1.447
 4105SOL    HW213215   4.682   0.754   1.435
 4106SOL     OW13216   1.208   0.876   3.383
 4106SOL    HW113217   1.244   0.903   3.294
 4106SOL    HW213218   1.197   0.777   3.386
 4107SOL     OW13219   0.974   0.373   0.335
 4107SOL    HW113220   0.943   0.287   0.374
 4107SOL    HW213221   1.065   0.361   0.294
 4108SOL     OW13222   6.496   5.565   5.702
 4108SOL    HW113223   6.447   5.487   5.663
 4108SOL    HW213224   6.447   5.649   5.682
 4109SOL     OW13225   5.711   6.008   3.775
 4109SOL    HW113226   5.611   6.015   3.772
 4109SOL    HW213227   5.737   5.913   3.788
 4110SOL     OW13228   4.922   2.849   0.409
 4110SOL    HW113229   5.005   2.869   0.460
 4110SOL    HW213230   4.914   2.751   0.394
 4111SOL     OW13231   6.630   3.769   4.349
 4111SOL    HW113232   6.615   3.670   4.349
 4111SOL    HW213233   6.654   3.799   4.256
 4112SOL     OW13234   4.301   6.256   5.117
 4112SOL    HW113235   4.388   6.207   5.114
 4112SOL    HW213236   4.300   6.318   5.196
 4113SOL     OW13237   4.325   5.238   4.366
 4113SOL    HW113238   4.277   5.171   4.422
 4113SOL    HW213239   4.343   5.320   4.420
 4114SOL     OW13240   0.214   1.229   1.371
 4114SOL    HW113241   0.226   1.279   1.285
 4114SOL    HW213242   0.119   1.200   1.380
 4115SOL     OW13243   4.273   5.824   4.152
 4115SOL    HW113244   4.312   5.758   4.088
 4115SOL    HW213245   4.254   5.910   4.105
 4116SOL     OW13246   4.827   3.957   2.307
 4116SOL    HW113247   4.804   3.864   2.277
 4116SOL    HW213248   4.786   4.023   2.245
 4117SOL     OW13249   1.313   1.717   4.075
 4117SOL    HW113250   1.308   1.718   4.174
 4117SOL    HW213251   1.405   1.693   4.046
 4118SOL     OW13252   0.215   6.300   0.320
 4118SOL    HW113253   0.176   6.208   0.328
 4118SOL    HW213254   0.157   6.366   0.367
 4119SOL     OW13255   0.326   0.217   4.363
 4119SOL    HW113256   0.259   0.230   4.290
 4119SOL    HW213257   0.354   0.305   4.399
 4120SOL     OW13258   1.901   0.871   6.413
 4120SOL    HW113259   1.986   0.901   6.457
 4120SOL    HW213260   1.922   0.828   6.325
 4121SOL     OW13261   6.818   6.543   2.637
 4121SOL    HW113262   6.842   6.606   2.711
 4121SOL    HW213263   6.733   6.496   2.659
 4122SOL     OW13264   0.382   4.193   2.734
 4122SOL    HW113265   0.368   4.177   2.636
 4122SOL    HW213266   0.349   4.284   2.758
 4123SOL     OW13267   4.730   4.743   1.330
 4123SOL    HW113268   4.704   4.737   1.427
 4123SOL    HW213269   4.667   4.806   1.283
 4124SOL     OW13270   5.759   5.550   0.169
 4124SOL    HW113271   5.817   5.569   0.247
 4124SOL    HW213272   5.776   5.618   0.097
 4125SOL     OW13273   6.054   1.873   1.042
 4125SOL    HW113274   5.975   1.841   0.989
 4125SOL    HW213275   6.069   1.813   1.120
 4126SOL     OW13276   1.545   3.094   2.331
 4126SOL    HW113277   1.607   3.110   2.254
 4126SOL    HW213278   1.459   3.054   2.297
 4127SOL     OW13279   4.437   1.928   4.780
 4127SOL    HW113280   4.528   1.919   4.820
 4127SOL    HW213281   4.419   1.850   4.719
 4128SOL     OW13282   1.009   3.056   0.115
 4128SOL    HW113283   1.077   3.082   0.046
 4128SOL    HW213284   0.952   3.135   0.137
 4129SOL     OW13285   2.692   2.742   0.171
 4129SOL    HW113286   2.707   2.715   0.266
 4129SOL    HW213287   2.601   2.783   0.162
 4130SOL     OW13288   6.064   3.131   0.677
 4130SOL    HW113289   6.134   3.201   0.661
 4130SOL    HW213290   6.092   3.045   0.637
 4131SOL     OW13291   4.627   6.947   3.139
 4131SOL    HW113292   4.596   6.952   3.044
 4131SOL    HW213293   4.628   0.015   3.178
 4132SOL     OW13294   0.520   5.419   4.076
 4132SOL    HW113295   0.576   5.405   3.994
 4132SOL    HW213296   0.517   5.335   4.130
 4133SOL     OW13297   5.765   0.170   2.703
 4133SOL    HW113298   5.786   0.148   2.608
 4133SOL    HW213299   5.816   0.109   2.763
 4134SOL     OW13300   1.450   3.767   1.481
 4134SOL    HW113301   1.492   3.810   1.561
 4134SOL    HW213302   1.501   3.793   1.399
 4135SOL     OW13303   6.600   0.474   1.973
 4135SOL    HW113304   6.573   0.553   2.027
 4135SOL    HW213305   6.542   0.396   1.996
 4136SOL     OW13306   1.303   4.866   1.209
 4136SOL    HW113307   1.295   4.773   1.243
 4136SOL    HW213308   1.242   4.926   1.261
 4137SOL     OW13309   1.255   2.412   0.621
 4137SOL    HW113310   1.256   2.503   0.579
 4137SOL    HW213311   1.226   2.344   0.553
 4138SOL     OW13312   5.097   6.987   6.820
 4138SOL    HW113313   5.190   7.011   6.848
 4138SOL    HW213314   5.052   6.938   6.894
 4139SOL     OW13315   2.200   3.902   2.871
 4139SOL    HW113316   2.174   3.837   2.800
 4139SOL    HW213317   2.179   3.995   2.840
 4140SOL     OW13318   1.939   0.878   6.102
 4140SOL    HW113319   2.035   0.849   6.105
 4140SOL    HW213320   1.880   0.798   6.092
 4141SOL     OW13321   5.238   0.265   6.221
 4141SOL    HW113322   5.248   0.307   6.130
 4141SOL    HW213323   5.214   0.335   6.288
 4142SOL     OW13324   0.909   5.014   2.248
 4142SOL    HW113325   0.986   4.968   2.292
 4142SOL    HW213326   0.898   5.105   2.287
 4143SOL     OW13327   5.804   3.127   6.729
 4143SOL    HW113328   5.903   3.139   6.726
 4143SOL    HW213329   5.776   3.099   6.821
 4144SOL     OW13330   6.236   1.007   0.695
 4144SOL    HW113331   6.238   0.972   0.788
 4144SOL    HW213332   6.202   1.101   0.695
 4145SOL     OW13333   6.864   0.011   1.678
 4145SOL    HW113334   6.902   0.041   1.766
 4145SOL    HW213335   6.887   0.077   1.607
 4146SOL     OW13336   5.117   5.892   2.374
 4146SOL    HW113337   5.132   5.982   2.334
 4146SOL    HW213338   5.206   5.846   2.385
 4147SOL     OW13339   4.403   4.958   6.307
 4147SOL    HW113340   4.310   4.995   6.296
 4147SOL    HW213341   4.465   5.002   6.242
 4148SOL     OW13342   2.234   1.450   5.480
 4148SOL    HW113343   2.290   1.533   5.490
 4148SOL    HW213344   2.268   1.379   5.541
 4149SOL     OW13345   1.934   3.200   6.466
 4149SOL    HW113346   1.848   3.217   6.515
 4149SOL    HW213347   2.008   3.253   6.508
 4150SOL     OW13348   5.300   1.765   6.864
 4150SOL    HW113349   5.267   1.859   6.856
 4150SOL    HW213350   5.395   1.765   6.895
 4151SOL     OW13351   3.362   5.837   4.055
 4151SOL    HW113352   3.288   5.786   4.009
 4151SOL    HW213353   3.350   5.830   4.154
 4152SOL     OW13354   3.102   4.685   1.455
 4152SOL    HW113355   3.160   4.765   1.466
 4152SOL    HW213356   3.046   4.695   1.373
 4153SOL     OW13357   7.017   5.765   1.611
 4153SOL    HW113358   0.020   5.814   1.694
 4153SOL    HW213359   0.074   5.749   1.555
 4154SOL     OW13360   1.278   6.185   3.833
 4154SOL    HW113361   1.314   6.216   3.920
 4154SOL    HW213362   1.335   6.113   3.796
 4155SOL     OW13363   0.712   0.494   1.573
 4155SOL    HW113364   0.802   0.525   1.603
 4155SOL    HW213365   0.676   0.428   1.639
 4156SOL     OW13366   0.686   5.107   6.125
 4156SOL    HW113367   0.705   5.203   6.144
 4156SOL    HW213368   0.685   5.055   6.211
 4157SOL     OW13369   6.316   6.125   1.609
 4157SOL    HW113370   6.395   6.106   1.550
 4157SOL    HW213371   6.341   6.192   1.678
 4158SOL     OW13372   1.067   2.618   1.509
 4158SOL    HW113373   1.095   2.670   1.590
 4158SOL    HW213374   1.079   2.674   1.427
 4159SOL     OW13375   3.204   0.144   4.171
 4159SOL    HW113376   3.175   0.089   4.092
 4159SOL    HW213377   3.196   0.241   4.149
 4160SOL     OW13378   6.625   0.158   6.901
 4160SOL    HW113379   6.568   0.234   6.930
 4160SOL    HW213380   6.714   0.163   6.946
 4161SOL     OW13381   3.572   3.356   1.886
 4161SOL    HW113382   3.634   3.412   1.942
 4161SOL    HW213383   3.501   3.414   1.847
 4162SOL     OW13384   5.471   5.723   1.806
 4162SOL    HW113385   5.382   5.702   1.765
 4162SOL    HW213386   5.521   5.638   1.823
 4163SOL     OW13387   3.609   6.028   1.658
 4163SOL    HW113388   3.621   5.970   1.738
 4163SOL    HW213389   3.655   6.116   1.673
 4164SOL     OW13390   6.727   0.614   5.436
 4164SOL    HW113391   6.702   0.638   5.342
 4164SOL    HW213392   6.659   0.652   5.499
 4165SOL     OW13393   4.750   0.809   4.723
 4165SOL    HW113394   4.759   0.788   4.820
 4165SOL    HW213395   4.840   0.810   4.680
 4166SOL     OW13396   5.733   1.494   1.470
 4166SOL    HW113397   5.743   1.519   1.373
 4166SOL    HW213398   5.721   1.577   1.524
 4167SOL     OW13399   3.629   5.515   4.132
 4167SOL    HW113400   3.675   5.569   4.062
 4167SOL    HW213401   3.552   5.466   4.091
 4168SOL     OW13402   5.310   3.794   6.766
 4168SOL    HW113403   5.376   3.854   6.811
 4168SOL    HW213404   5.342   3.772   6.674
 4169SOL     OW13405   4.868   3.051   5.640
 4169SOL    HW113406   4.921   3.062   5.556
 4169SOL    HW213407   4.773   3.030   5.617
 4170SOL     OW13408   7.017   2.625   4.299
 4170SOL    HW113409   0.025   2.716   4.326
 4170SOL    HW213410   6.919   2.619   4.316
 4171SOL     OW13411   0.495   2.455   0.166
 4171SOL    HW113412   0.555   2.510   0.108
 4171SOL    HW213413   0.551   2.404   0.232
 4172SOL     OW13414   2.639   4.699   0.786
 4172SOL    HW113415   2.556   4.754   0.788
 4172SOL    HW213416   2.667   4.685   0.691
 4173SOL     OW13417   4.519   2.440   6.410
 4173SOL    HW113418   4.600   2.402   6.367
 4173SOL    HW213419   4.546   2.513   6.474
 4174SOL     OW13420   3.263   0.572   5.075
 4174SOL    HW113421   3.183   0.577   5.135
 4174SOL    HW213422   3.278   0.477   5.048
 4175SOL     OW13423   0.717   4.443   6.799
 4175SOL    HW113424   0.751   4.430   6.706
 4175SOL    HW213425   0.629   4.491   6.796
 4176SOL     OW13426   5.259   0.080   5.997
 4176SOL    HW113427   5.247   0.125   6.085
 4176SOL    HW213428   5.357   0.069   5.978
 4177SOL     OW13429   4.054   4.746   2.826
 4177SOL    HW113430   4.060   4.794   2.913
 4177SOL    HW213431   3.959   4.726   2.804
 4178SOL     OW13432   4.081   5.572   1.429
 4178SOL    HW113433   4.037   5.503   1.372
 4178SOL    HW213434   4.105   5.532   1.518
 4179SOL     OW13435   5.472   2.781   5.793
 4179SOL    HW113436   5.485   2.704   5.730
 4179SOL    HW213437   5.510   2.864   5.753
 4180SOL     OW13438   4.248   4.062   0.194
 4180SOL    HW113439   4.269   3.970   0.161
 4180SOL    HW213440   4.332   4.107   0.225
 4181SOL     OW13441   4.715   6.508   4.733
 4181SOL    HW113442   4.763   6.524   4.819
 4181SOL    HW213443   4.618   6.492   4.750
 4182SOL     OW13444   6.948   6.463   4.776
 4182SOL    HW113445   6.967   6.376   4.730
 4182SOL    HW213446   0.008   6.517   4.780
 4183SOL     OW13447   3.789   2.059   1.046
 4183SOL    HW113448   3.829   2.067   1.137
 4183SOL    HW213449   3.799   2.146   0.998
 4184SOL     OW13450   3.579   5.672   3.608
 4184SOL    HW113451   3.604   5.766   3.632
 4184SOL    HW213452   3.497   5.673   3.551
 4185SOL     OW13453   5.767   3.008   3.128
 4185SOL    HW113454   5.738   2.933   3.069
 4185SOL    HW213455   5.775   2.974   3.222
 4186SOL     OW13456   1.486   6.416   0.625
 4186SOL    HW113457   1.504   6.384   0.718
 4186SOL    HW213458   1.389   6.406   0.605
 4187SOL     OW13459   2.113   3.412   6.492
 4187SOL    HW113460   2.076   3.459   6.412
 4187SOL    HW213461   2.057   3.435   6.572
 4188SOL     OW13462   4.476   0.099   0.462
 4188SOL    HW113463   4.509   0.085   0.555
 4188SOL    HW213464   4.379   0.074   0.457
 4189SOL     OW13465   5.069   4.984   3.978
 4189SOL    HW113466   5.122   4.989   4.063
 4189SOL    HW213467   4.972   4.974   4.000
 4190SOL     OW13468   6.768   6.058   1.081
 4190SOL    HW113469   6.701   5.995   1.120
 4190SOL    HW213470   6.757   6.061   0.982
 4191SOL     OW13471   4.689   4.468   6.649
 4191SOL    HW113472   4.745   4.546   6.623
 4191SOL    HW213473   4.706   4.444   6.745
 4192SOL     OW13474   1.262   3.526   1.504
 4192SOL    HW113475   1.330   3.590   1.542
 4192SOL    HW213476   1.257   3.538   1.405
 4193SOL     OW13477   0.314   0.434   0.862
 4193SOL    HW113478   0.307   0.365   0.790
 4193SOL    HW213479   0.409   0.444   0.890
 4194SOL     OW13480   4.464   1.196   5.214
 4194SOL    HW113481   4.443   1.103   5.182
 4194SOL    HW213482   4.413   1.214   5.298
 4195SOL     OW13483   3.587   6.126   1.196
 4195SOL    HW113484   3.582   6.083   1.106
 4195SOL    HW213485   3.524   6.079   1.258
 4196SOL     OW13486   6.559   3.083   2.010
 4196SOL    HW113487   6.502   3.105   1.931
 4196SOL    HW213488   6.500   3.068   2.090
 4197SOL     OW13489   3.874   0.829   6.695
 4197SOL    HW113490   3.890   0.732   6.714
 4197SOL    HW213491   3.777   0.850   6.705
 4198SOL     OW13492   6.451   1.897   2.453
 4198SOL    HW113493   6.478   1.910   2.358
 4198SOL    HW213494   6.523   1.932   2.513
 4199SOL     OW13495   0.454   3.939   5.682
 4199SOL    HW113496   0.419   3.872   5.748
 4199SOL    HW213497   0.552   3.925   5.669
 4200SOL     OW13498   4.836   1.123   3.437
 4200SOL    HW113499   4.863   1.032   3.466
 4200SOL    HW213500   4.791   1.117   3.348
 4201SOL     OW13501   5.578   6.337   3.912
 4201SOL    HW113502   5.555   6.353   4.008
 4201SOL    HW213503   5.510   6.276   3.871
 4202SOL     OW13504   4.811   3.870   0.962
 4202SOL    HW113505   4.880   3.913   0.905
 4202SOL    HW213506   4.782   3.933   1.034
 4203SOL     OW13507   6.249   5.679   6.606
 4203SOL    HW113508   6.202   5.594   6.583
 4203SOL    HW213509   6.193   5.731   6.671
 4204SOL     OW13510   2.576   3.518   6.650
 4204SOL    HW113511   2.521   3.455   6.595
 4204SOL    HW213512   2.639   3.466   6.708
 4205SOL     OW13513   3.774   6.667   5.286
 4205SOL    HW113514   3.818   6.582   5.257
 4205SOL    HW213515   3.720   6.704   5.211
 4206SOL     OW13516   1.496   2.367   4.816
 4206SOL    HW113517   1.578   2.316   4.788
 4206SOL    HW213518   1.510   2.407   4.907
 4207SOL     OW13519   1.531   2.410   2.306
 4207SOL    HW113520   1.593   2.485   2.285
 4207SOL    HW213521   1.458   2.406   2.239
 4208SOL     OW13522   2.026   3.674   4.757
 4208SOL    HW113523   2.057   3.766   4.733
 4208SOL    HW213524   1.928   3.674   4.773
 4209SOL     OW13525   6.793   6.559   2.275
 4209SOL    HW113526   6.806   6.622   2.198
 4209SOL    HW213527   6.875   6.559   2.332
 4210SOL     OW13528   4.078   3.719   4.858
 4210SOL    HW113529   4.057   3.816   4.846
 4210SOL    HW213530   4.058   3.692   4.952
 4211SOL     OW13531   4.372   2.537   5.442
 4211SOL    HW113532   4.447   2.566   5.501
 4211SOL    HW213533   4.296   2.505   5.499
 4212SOL     OW13534   0.101   2.594   3.632
 4212SOL    HW113535   0.077   2.548   3.718
 4212SOL    HW213536   0.198   2.617   3.632
 4213SOL     OW13537   3.205   0.623   3.752
 4213SOL    HW113538   3.290   0.620   3.699
 4213SOL    HW213539   3.127   0.609   3.691
 4214SOL     OW13540   0.488   5.912   3.879
 4214SOL    HW113541   0.516   5.994   3.929
 4214SOL    HW213542   0.532   5.911   3.789
 4215SOL     OW13543   4.572   6.555   5.157
 4215SOL    HW113544   4.529   6.643   5.173
 4215SOL    HW213545   4.622   6.526   5.239
 4216SOL     OW13546   2.560   5.789   1.843
 4216SOL    HW113547   2.562   5.887   1.861
 4216SOL    HW213548   2.608   5.740   1.916
 4217SOL     OW13549   1.145   0.539   2.727
 4217SOL    HW113550   1.106   0.452   2.758
 4217SOL    HW213551   1.097   0.615   2.770
 4218SOL     OW13552   2.969   1.443   1.711
 4218SOL    HW113553   3.057   1.450   1.664
 4218SOL    HW213554   2.934   1.535   1.729
 4219SOL     OW13555   4.629   6.001   3.411
 4219SOL    HW113556   4.550   6.059   3.430
 4219SOL    HW213557   4.687   6.046   3.342
 4220SOL     OW13558   5.138   2.425   1.944
 4220SOL    HW113559   5.117   2.377   2.029
 4220SOL    HW213560   5.080   2.506   1.937
 4221SOL     OW13561   0.850   5.862   0.192
 4221SOL    HW113562   0.753   5.883   0.177
 4221SOL    HW213563   0.884   5.914   0.271
 4222SOL     OW13564   4.702   2.830   3.744
 4222SOL    HW113565   4.721   2.923   3.775
 4222SOL    HW213566   4.661   2.778   3.819
 4223SOL     OW13567   4.151   3.585   2.130
 4223SOL    HW113568   4.164   3.583   2.031
 4223SOL    HW213569   4.235   3.615   2.174
 4224SOL     OW13570   4.976   3.536   4.675
 4224SOL    HW113571   4.948   3.565   4.583
 4224SOL    HW213572   4.922   3.457   4.702
 4225SOL     OW13573   0.238   1.940   5.462
 4225SOL    HW113574   0.249   2.024   5.514
 4225SOL    HW213575   0.327   1.896   5.449
 4226SOL     OW13576   1.389   5.497   5.069
 4226SOL    HW113577   1.313   5.524   5.010
 4226SOL    HW213578   1.407   5.570   5.135
 4227SOL     OW13579   5.726   5.417   2.499
 4227SOL    HW113580   5.675   5.391   2.417
 4227SOL    HW213581   5.664   5.460   2.565
 4228SOL     OW13582   1.343   5.041   4.349
 4228SOL    HW113583   1.377   4.948   4.360
 4228SOL    HW213584   1.352   5.069   4.253
 4229SOL     OW13585   6.365   4.939   5.246
 4229SOL    HW113586   6.407   4.924   5.157
 4229SOL    HW213587   6.315   4.857   5.274
 4230SOL     OW13588   0.337   0.656   2.274
 4230SOL    HW113589   0.412   0.609   2.320
 4230SOL    HW213590   0.326   0.618   2.182
 4231SOL     OW13591   5.888   1.960   5.534
 4231SOL    HW113592   5.820   1.887   5.541
 4231SOL    HW213593   5.976   1.926   5.566
 4232SOL     OW13594   1.790   5.659   3.913
 4232SOL    HW113595   1.698   5.682   3.944
 4232SOL    HW213596   1.786   5.593   3.839
 4233SOL     OW13597   4.953   5.338   3.561
 4233SOL    HW113598   5.002   5.287   3.631
 4233SOL    HW213599   4.856   5.312   3.563
 4234SOL     OW13600   3.061   5.710   6.152
 4234SOL    HW113601   2.962   5.699   6.153
 4234SOL    HW213602   3.099   5.664   6.072
 4235SOL     OW13603   0.617   5.701   5.551
 4235SOL    HW113604   0.683   5.773   5.527
 4235SOL    HW213605   0.657   5.642   5.621
 4236SOL     OW13606   0.281   5.434   2.847
 4236SOL    HW113607   0.281   5.460   2.750
 4236SOL    HW213608   0.190   5.451   2.886
 4237SOL     OW13609   6.986   4.490   3.754
 4237SOL    HW113610   6.947   4.455   3.839
 4237SOL    HW213611   6.934   4.570   3.725
 4238SOL     OW13612   2.420   6.577   2.876
 4238SOL    HW113613   2.466   6.594   2.962
 4238SOL    HW213614   2.449   6.645   2.808
 4239SOL     OW13615   4.210   1.221   3.880
 4239SOL    HW113616   4.262   1.306   3.881
 4239SOL    HW213617   4.237   1.167   3.800
 4240SOL     OW13618   0.060   6.429   1.214
 4240SOL    HW113619   0.089   6.478   1.296
 4240SOL    HW213620   0.053   6.331   1.234
 4241SOL     OW13621   6.395   3.098   0.581
 4241SOL    HW113622   6.409   3.076   0.677
 4241SOL    HW213623   6.328   3.036   0.541
 4242SOL     OW13624   2.022   1.449   3.562
 4242SOL    HW113625   2.115   1.450   3.526
 4242SOL    HW213626   1.986   1.542   3.565
 4243SOL     OW13627   4.881   0.096   2.978
 4243SOL    HW113628   4.942   0.061   3.049
 4243SOL    HW213629   4.907   0.190   2.955
 4244SOL     OW13630   3.428   3.529   2.358
 4244SOL    HW113631   3.504   3.469   2.336
 4244SOL    HW213632   3.463   3.619   2.387
 4245SOL     OW13633   5.882   2.263   6.492
 4245SOL    HW113634   5.849   2.189   6.434
 4245SOL    HW213635   5.981   2.254   6.504
 4246SOL     OW13636   0.874   3.593   1.801
 4246SOL    HW113637   0.858   3.511   1.855
 4246SOL    HW213638   0.961   3.634   1.828
 4247SOL     OW13639   0.365   5.279   5.036
 4247SOL    HW113640   0.376   5.351   4.967
 4247SOL    HW213641   0.443   5.280   5.098
 4248SOL     OW13642   1.623   3.030   5.561
 4248SOL    HW113643   1.632   3.005   5.465
 4248SOL    HW213644   1.690   3.100   5.584
 4249SOL     OW13645   5.533   3.964   6.291
 4249SOL    HW113646   5.452   3.973   6.234
 4249SOL    HW213647   5.542   3.869   6.322
 4250SOL     OW13648   0.014   4.648   3.191
 4250SOL    HW113649   0.004   4.549   3.193
 4250SOL    HW213650   7.000   4.688   3.275
 4251SOL     OW13651   5.891   4.380   0.740
 4251SOL    HW113652   5.865   4.470   0.707
 4251SOL    HW213653   5.876   4.312   0.668
 4252SOL     OW13654   0.570   5.323   5.794
 4252SOL    HW113655   0.581   5.224   5.787
 4252SOL    HW213656   0.624   5.368   5.723
 4253SOL     OW13657   4.336   6.842   2.270
 4253SOL    HW113658   4.317   6.871   2.364
 4253SOL    HW213659   4.250   6.837   2.219
 4254SOL     OW13660   2.443   4.619   1.023
 4254SOL    HW113661   2.521   4.641   0.964
 4254SOL    HW213662   2.472   4.614   1.118
 4255SOL     OW13663   0.466   2.721   4.614
 4255SOL    HW113664   0.372   2.745   4.642
 4255SOL    HW213665   0.511   2.803   4.580
 4256SOL     OW13666   2.039   0.111   1.578
 4256SOL    HW113667   2.122   0.113   1.522
 4256SOL    HW213668   1.960   0.094   1.519
 4257SOL     OW13669   4.006   1.861   4.742
 4257SOL    HW113670   3.921   1.835   4.697
 4257SOL    HW213671   4.052   1.779   4.777
 4258SOL     OW13672   5.401   6.491   2.709
 4258SOL    HW113673   5.490   6.511   2.751
 4258SOL    HW213674   5.329   6.505   2.777
 4259SOL     OW13675   2.198   2.610   0.054
 4259SOL    HW113676   2.296   2.593   0.040
 4259SOL    HW213677   2.184   2.659   0.140
 4260SOL     OW13678   4.861   5.692   3.643
 4260SOL    HW113679   4.928   5.638   3.592
 4260SOL    HW213680   4.770   5.653   3.630
 4261SOL     OW13681   1.590   6.551   2.077
 4261SOL    HW113682   1.541   6.571   1.993
 4261SOL    HW213683   1.639   6.464   2.068
 4262SOL     OW13684   0.783   5.120   6.637
 4262SOL    HW113685   0.752   5.060   6.563
 4262SOL    HW213686   0.785   5.069   6.723
 4263SOL     OW13687   2.813   4.899   5.597
 4263SOL    HW113688   2.888   4.928   5.656
 4263SOL    HW213689   2.753   4.836   5.646
 4264SOL     OW13690   0.521   0.980   1.153
 4264SOL    HW113691   0.530   1.039   1.073
 4264SOL    HW213692   0.599   0.917   1.157
 4265SOL     OW13693   6.800   1.491   0.787
 4265SOL    HW113694   6.775   1.404   0.744
 4265SOL    HW213695   6.788   1.565   0.721
 4266SOL     OW13696   2.301   5.332   0.454
 4266SOL    HW113697   2.282   5.429   0.436
 4266SOL    HW213698   2.292   5.314   0.552
 4267SOL     OW13699   1.764   3.617   5.103
 4267SOL    HW113700   1.744   3.659   5.192
 4267SOL    HW213701   1.863   3.616   5.089
 4268SOL     OW13702   2.095   0.977   0.546
 4268SOL    HW113703   2.118   1.059   0.494
 4268SOL    HW213704   2.091   0.898   0.485
 4269SOL     OW13705   3.148   3.202   0.232
 4269SOL    HW113706   3.184   3.110   0.216
 4269SOL    HW213707   3.092   3.229   0.153
 4270SOL     OW13708   3.251   3.005   4.732
 4270SOL    HW113709   3.208   2.965   4.651
 4270SOL    HW213710   3.349   2.986   4.730
 4271SOL     OW13711   0.677   6.927   6.484
 4271SOL    HW113712   0.748   6.857   6.489
 4271SOL    HW213713   0.598   6.898   6.538
 4272SOL     OW13714   0.135   4.652   4.793
 4272SOL    HW113715   0.154   4.599   4.711
 4272SOL    HW213716   0.141   4.749   4.772
 4273SOL     OW13717   5.467   6.655   5.836
 4273SOL    HW113718   5.409   6.620   5.910
 4273SOL    HW213719   5.420   6.642   5.748
 4274SOL     OW13720   1.569   6.554   3.652
 4274SOL    HW113721   1.627   6.563   3.571
 4274SOL    HW213722   1.545   6.645   3.686
 4275SOL     OW13723   0.790   6.966   6.227
 4275SOL    HW113724   0.726   6.982   6.303
 4275SOL    HW213725   0.853   0.020   6.220
 4276SOL     OW13726   2.071   4.259   2.458
 4276SOL    HW113727   2.070   4.211   2.546
 4276SOL    HW213728   2.138   4.215   2.397
 4277SOL     OW13729   0.110   5.378   3.548
 4277SOL    HW113730   0.185   5.445   3.555
 4277SOL    HW213731   0.048   5.389   3.626
 4278SOL     OW13732   6.619   6.780   5.063
 4278SOL    HW113733   6.620   6.880   5.052
 4278SOL    HW213734   6.670   6.755   5.145
 4279SOL     OW13735   3.486   6.313   5.075
 4279SOL    HW113736   3.461   6.220   5.100
 4279SOL    HW213737   3.481   6.372   5.156
 4280SOL     OW13738   5.557   2.385   4.306
 4280SOL    HW113739   5.574   2.455   4.375
 4280SOL    HW213740   5.503   2.424   4.231
 4281SOL     OW13741   2.142   4.224   4.960
 4281SOL    HW113742   2.176   4.141   5.003
 4281SOL    HW213743   2.115   4.205   4.866
 4282SOL     OW13744   2.113   2.617   1.147
 4282SOL    HW113745   2.143   2.695   1.202
 4282SOL    HW213746   2.022   2.635   1.111
 4283SOL     OW13747   2.058   0.289   4.371
 4283SOL    HW113748   2.156   0.308   4.370
 4283SOL    HW213749   2.025   0.288   4.465
 4284SOL     OW13750   5.839   2.123   2.357
 4284SOL    HW113751   5.759   2.068   2.330
 4284SOL    HW213752   5.861   2.188   2.284
 4285SOL     OW13753   1.087   0.053   5.636
 4285SOL    HW113754   1.012   7.014   5.616
 4285SOL    HW213755   1.104   0.111   5.556
 4286SOL     OW13756   4.856   6.023   0.509
 4286SOL    HW113757   4.763   6.060   0.512
 4286SOL    HW213758   4.908   6.070   0.437
 4287SOL     OW13759   5.852   6.708   4.572
 4287SOL    HW113760   5.754   6.718   4.553
 4287SOL    HW213761   5.890   6.636   4.514
 4288SOL     OW13762   1.562   6.419   2.829
 4288SOL    HW113763   1.547   6.370   2.914
 4288SOL    HW213764   1.658   6.413   2.803
 4289SOL     OW13765   5.574   2.770   1.125
 4289SOL    HW113766   5.591   2.786   1.028
 4289SOL    HW213767   5.629   2.834   1.179
 4290SOL     OW13768   2.427   0.783   1.674
 4290SOL    HW113769   2.332   0.777   1.641
 4290SOL    HW213770   2.488   0.741   1.607
 4291SOL     OW13771   6.193   3.530   0.959
 4291SOL    HW113772   6.190   3.572   1.049
 4291SOL    HW213773   6.106   3.482   0.942
 4292SOL     OW13774   5.782   5.116   6.528
 4292SOL    HW113775   5.808   5.150   6.437
 4292SOL    HW213776   5.796   5.188   6.596
 4293SOL     OW13777   0.105   2.769   6.757
 4293SOL    HW113778   0.178   2.833   6.732
 4293SOL    HW213779   0.019   2.818   6.765
 4294SOL     OW13780   4.283   2.474   6.005
 4294SOL    HW113781   4.350   2.540   5.970
 4294SOL    HW213782   4.290   2.389   5.953
 4295SOL     OW13783   3.457   0.017   4.291
 4295SOL    HW113784   3.508   0.059   4.366
 4295SOL    HW213785   3.369   0.062   4.281
 4296SOL     OW13786   2.652   1.797   1.291
 4296SOL    HW113787   2.604   1.810   1.204
 4296SOL    HW213788   2.585   1.793   1.366
 4297SOL     OW13789   5.508   0.583   5.231
 4297SOL    HW113790   5.460   0.659   5.187
 4297SOL    HW213791   5.592   0.617   5.273
 4298SOL     OW13792   2.854   5.850   1.389
 4298SOL    HW113793   2.788   5.854   1.464
 4298SOL    HW213794   2.842   5.929   1.329
 4299SOL     OW13795   0.661   3.575   6.232
 4299SOL    HW113796   0.751   3.612   6.256
 4299SOL    HW213797   0.654   3.480   6.265
 4300SOL     OW13798   4.429   1.153   6.856
 4300SOL    HW113799   4.359   1.211   6.814
 4300SOL    HW213800   4.507   1.144   6.794
 4301SOL     OW13801   2.813   1.788   0.489
 4301SOL    HW113802   2.735   1.836   0.530
 4301SOL    HW213803   2.843   1.715   0.551
 4302SOL     OW13804   0.881   6.539   6.919
 4302SOL    HW113805   0.930   6.453   6.902
 4302SOL    HW213806   0.943   6.616   6.904
 4303SOL     OW13807   0.272   3.266   2.340
 4303SOL    HW113808   0.353   3.208   2.331
 4303SOL    HW213809   0.285   3.331   2.415
 4304SOL     OW13810   3.488   3.670   4.145
 4304SOL    HW113811   3.582   3.643   4.126
 4304SOL    HW213812   3.486   3.766   4.174
 4305SOL     OW13813   6.361   1.395   3.448
 4305SOL    HW113814   6.340   1.493   3.457
 4305SOL    HW213815   6.282   1.341   3.476
 4306SOL     OW13816   6.490   4.715   5.552
 4306SOL    HW113817   6.545   4.797   5.536
 4306SOL    HW213818   6.549   4.641   5.582
 4307SOL     OW13819   5.000   3.900   6.105
 4307SOL    HW113820   5.000   3.991   6.064
 4307SOL    HW213821   4.997   3.830   6.033
 4308SOL     OW13822   5.291   5.951   4.638
 4308SOL    HW113823   5.279   5.887   4.563
 4308SOL    HW213824   5.384   5.944   4.674
 4309SOL     OW13825   1.527   1.305   0.411
 4309SOL    HW113826   1.595   1.262   0.351
 4309SOL    HW213827   1.533   1.404   0.402
 4310SOL     OW13828   1.925   1.826   2.947
 4310SOL    HW113829   1.878   1.779   3.021
 4310SOL    HW213830   2.009   1.868   2.983
 4311SOL     OW13831   2.266   6.019   3.294
 4311SOL    HW113832   2.363   6.000   3.282
 4311SOL    HW213833   2.254   6.091   3.362
 4312SOL     OW13834   2.236   5.503   2.238
 4312SOL    HW113835   2.308   5.439   2.211
 4312SOL    HW213836   2.181   5.526   2.157
 4313SOL     OW13837   4.842   1.450   1.773
 4313SOL    HW113838   4.760   1.439   1.829
 4313SOL    HW213839   4.817   1.446   1.676
 4314SOL     OW13840   4.883   3.358   2.527
 4314SOL    HW113841   4.861   3.347   2.430
 4314SOL    HW213842   4.928   3.275   2.560
 4315SOL     OW13843   2.670   0.585   1.956
 4315SOL    HW113844   2.709   0.614   1.869
 4315SOL    HW213845   2.583   0.538   1.939
 4316SOL     OW13846   6.029   0.722   1.773
 4316SOL    HW113847   6.125   0.749   1.779
 4316SOL    HW213848   6.005   0.667   1.852
 4317SOL     OW13849   3.381   1.167   4.077
 4317SOL    HW113850   3.411   1.077   4.109
 4317SOL    HW213851   3.285   1.180   4.099
 4318SOL     OW13852   0.401   3.051   3.772
 4318SOL    HW113853   0.361   2.962   3.750
 4318SOL    HW213854   0.487   3.063   3.722
 4319SOL     OW13855   2.720   3.965   6.341
 4319SOL    HW113856   2.632   3.953   6.294
 4319SOL    HW213857   2.768   3.878   6.344
 4320SOL     OW13858   0.492   6.550   2.881
 4320SOL    HW113859   0.446   6.549   2.792
 4320SOL    HW213860   0.454   6.624   2.937
 4321SOL     OW13861   6.626   0.291   5.131
 4321SOL    HW113862   6.544   0.326   5.177
 4321SOL    HW213863   6.703   0.293   5.194
 4322SOL     OW13864   5.712   0.807   0.025
 4322SOL    HW113865   5.651   0.882   0.050
 4322SOL    HW213866   5.765   0.832   6.969
 4323SOL     OW13867   6.499   3.313   2.560
 4323SOL    HW113868   6.588   3.352   2.535
 4323SOL    HW213869   6.451   3.375   2.621
 4324SOL     OW13870   6.040   4.258   6.402
 4324SOL    HW113871   5.973   4.331   6.391
 4324SOL    HW213872   6.109   4.286   6.469
 4325SOL     OW13873   1.746   1.510   6.436
 4325SOL    HW113874   1.690   1.431   6.410
 4325SOL    HW213875   1.764   1.508   6.534
 4326SOL     OW13876   6.154   3.254   5.151
 4326SOL    HW113877   6.228   3.311   5.186
 4326SOL    HW213878   6.157   3.164   5.195
 4327SOL     OW13879   6.349   6.514   2.634
 4327SOL    HW113880   6.286   6.443   2.662
 4327SOL    HW213881   6.303   6.603   2.638
 4328SOL     OW13882   5.163   5.315   7.002
 4328SOL    HW113883   5.075   5.285   6.966
 4328SOL    HW213884   5.236   5.285   6.941
 4329SOL     OW13885   4.321   2.263   5.837
 4329SOL    HW113886   4.354   2.302   5.751
 4329SOL    HW213887   4.300   2.167   5.824
 4330SOL     OW13888   1.272   0.086   6.134
 4330SOL    HW113889   1.294   0.033   6.216
 4330SOL    HW213890   1.228   0.027   6.067
 4331SOL     OW13891   5.718   2.357   6.722
 4331SOL    HW113892   5.774   2.310   6.654
 4331SOL    HW213893   5.750   2.451   6.732
 4332SOL     OW13894   4.896   3.224   1.978
 4332SOL    HW113895   4.974   3.192   1.924
 4332SOL    HW213896   4.829   3.150   1.986
 4333SOL     OW13897   5.450   0.991   4.511
 4333SOL    HW113898   5.440   1.090   4.497
 4333SOL    HW213899   5.511   0.953   4.441
 4334SOL     OW13900   4.049   1.914   2.228
 4334SOL    HW113901   4.052   2.011   2.250
 4334SOL    HW213902   3.957   1.879   2.246
 4335SOL     OW13903   3.021   4.010   5.141
 4335SOL    HW113904   2.929   3.973   5.149
 4335SOL    HW213905   3.055   3.996   5.048
 4336SOL     OW13906   1.252   6.551   4.484
 4336SOL    HW113907   1.313   6.480   4.449
 4336SOL    HW213908   1.303   6.614   4.542
 4337SOL     OW13909   6.764   5.479   0.414
 4337SOL    HW113910   6.691   5.541   0.385
 4337SOL    HW213911   6.827   5.527   0.475
 4338SOL     OW13912   6.499   6.076   4.047
 4338SOL    HW113913   6.599   6.081   4.052
 4338SOL    HW213914   6.471   5.980   4.037
 4339SOL     OW13915   6.173   1.851   5.523
 4339SOL    HW113916   6.191   1.902   5.439
 4339SOL    HW213917   6.162   1.754   5.501
 4340SOL     OW13918   5.474   3.890   1.202
 4340SOL    HW113919   5.469   3.919   1.106
 4340SOL    HW213920   5.494   3.792   1.206
 4341SOL     OW13921   2.048   4.343   1.555
 4341SOL    HW113922   2.122   4.283   1.522
 4341SOL    HW213923   2.088   4.423   1.599
 4342SOL     OW13924   1.304   2.875   2.925
 4342SOL    HW113925   1.386   2.931   2.914
 4342SOL    HW213926   1.314   2.790   2.873
 4343SOL     OW13927   3.170   1.394   0.908
 4343SOL    HW113928   3.157   1.332   0.985
 4343SOL    HW213929   3.099   1.465   0.910
 4344SOL     OW13930   1.983   4.941   3.387
 4344SOL    HW113931   1.997   4.866   3.451
 4344SOL    HW213932   2.046   4.931   3.309
 4345SOL     OW13933   1.692   2.298   5.475
 4345SOL    HW113934   1.741   2.213   5.458
 4345SOL    HW213935   1.749   2.359   5.531
 4346SOL     OW13936   1.983   3.407   1.844
 4346SOL    HW113937   2.039   3.473   1.893
 4346SOL    HW213938   2.024   3.388   1.754
 4347SOL     OW13939   5.646   6.858   2.712
 4347SOL    HW113940   5.651   6.843   2.811
 4347SOL    HW213941   5.598   6.943   2.693
 4348SOL     OW13942   1.670   4.010   6.894
 4348SOL    HW113943   1.647   4.107   6.881
 4348SOL    HW213944   1.596   3.953   6.861
 4349SOL     OW13945   0.329   1.174   3.730
 4349SOL    HW113946   0.338   1.141   3.824
 4349SOL    HW213947   0.255   1.124   3.684
 4350SOL     OW13948   5.448   2.295   4.024
 4350SOL    HW113949   5.351   2.281   4.005
 4350SOL    HW213950   5.468   2.264   4.118
 4351SOL     OW13951   2.875   6.071   1.952
 4351SOL    HW113952   2.776   6.075   1.952
 4351SOL    HW213953   2.907   6.024   2.035
 4352SOL     OW13954   6.677   1.256   2.059
 4352SOL    HW113955   6.587   1.235   2.097
 4352SOL    HW213956   6.748   1.236   2.126
 4353SOL     OW13957   3.429   5.771   6.686
 4353SOL    HW113958   3.360   5.707   6.654
 4353SOL    HW213959   3.403   5.806   6.776
 4354SOL     OW13960   2.751   0.079   6.955
 4354SOL    HW113961   2.755   0.032   0.020
 4354SOL    HW213962   2.823   0.148   6.950
 4355SOL     OW13963   4.544   1.086   0.315
 4355SOL    HW113964   4.500   0.997   0.321
 4355SOL    HW213965   4.573   1.116   0.406
 4356SOL     OW13966   3.960   4.085   0.496
 4356SOL    HW113967   3.909   4.005   0.465
 4356SOL    HW213968   3.931   4.109   0.588
 4357SOL     OW13969   6.216   0.238   7.000
 4357SOL    HW113970   6.239   0.164   0.040
 4357SOL    HW213971   6.199   0.201   6.909
 4358SOL     OW13972   0.791   6.968   1.782
 4358SOL    HW113973   0.820   0.009   1.852
 4358SOL    HW213974   0.757   7.018   1.702
 4359SOL     OW13975   0.350   2.202   3.955
 4359SOL    HW113976   0.302   2.142   4.018
 4359SOL    HW213977   0.313   2.189   3.862
 4360SOL     OW13978   1.330   3.113   1.681
 4360SOL    HW113979   1.236   3.142   1.665
 4360SOL    HW213980   1.331   3.018   1.713
 4361SOL     OW13981   4.964   2.688   2.263
 4361SOL    HW113982   4.942   2.784   2.277
 4361SOL    HW213983   5.054   2.681   2.220
 4362SOL     OW13984   6.526   4.317   4.673
 4362SOL    HW113985   6.438   4.292   4.713
 4362SOL    HW213986   6.522   4.410   4.637
 4363SOL     OW13987   5.066   2.754   5.498
 4363SOL    HW113988   5.059   2.734   5.595
 4363SOL    HW213989   5.045   2.851   5.482
 4364SOL     OW13990   3.137   4.065   4.620
 4364SOL    HW113991   3.084   4.145   4.591
 4364SOL    HW213992   3.161   4.010   4.540
 4365SOL     OW13993   4.097   2.264   2.505
 4365SOL    HW113994   3.999   2.276   2.520
 4365SOL    HW213995   4.142   2.249   2.593
 4366SOL     OW13996   5.667   5.578   1.251
 4366SOL    HW113997   5.755   5.595   1.206
 4366SOL    HW213998   5.594   5.579   1.183
 4367SOL     OW13999   1.594   6.489   6.370
 4367SOL    HW114000   1.659   6.563   6.391
 4367SOL    HW214001   1.638   6.401   6.388
 4368SOL     OW14002   5.389   3.956   1.690
 4368SOL    HW114003   5.348   3.970   1.600
 4368SOL    HW214004   5.439   4.038   1.718
 4369SOL     OW14005   4.336   5.514   2.053
 4369SOL    HW114006   4.435   5.508   2.066
 4369SOL    HW214007   4.309   5.610   2.046
 4370SOL     OW14008   6.133   4.639   3.643
 4370SOL    HW114009   6.060   4.647   3.575
 4370SOL    HW214010   6.200   4.711   3.628
 4371SOL     OW14011   6.060   1.491   2.154
 4371SOL    HW114012   6.084   1.498   2.251
 4371SOL    HW214013   6.088   1.574   2.107
 4372SOL     OW14014   4.382   1.437   3.870
 4372SOL    HW114015   4.302   1.483   3.831
 4372SOL    HW214016   4.410   1.483   3.955
 4373SOL     OW14017   6.246   1.722   6.585
 4373SOL    HW114018   6.332   1.672   6.572
 4373SOL    HW214019   6.224   1.770   6.500
 4374SOL     OW14020   2.017   2.658   1.632
 4374SOL    HW114021   1.946   2.655   1.703
 4374SOL    HW214022   2.065   2.570   1.630
 4375SOL     OW14023   2.454   6.512   4.707
 4375SOL    HW114024   2.470   6.520   4.805
 4375SOL    HW214025   2.532   6.550   4.657
 4376SOL     OW14026   5.700   0.704   2.967
 4376SOL    HW114027   5.772   0.762   2.931
 4376SOL    HW214028   5.740   0.628   3.017
 4377SOL     OW14029   5.880   4.497   6.861
 4377SOL    HW114030   5.882   4.448   6.948
 4377SOL    HW214031   5.790   4.538   6.847
 4378SOL     OW14032   1.818   0.206   4.239
 4378SOL    HW114033   1.806   0.116   4.281
 4378SOL    HW214034   1.893   0.255   4.284
 4379SOL     OW14035   2.686   2.242   5.206
 4379SOL    HW114036   2.598   2.194   5.207
 4379SOL    HW214037   2.669   2.341   5.203
 4380SOL     OW14038   0.256   1.236   1.647
 4380SOL    HW114039   0.247   1.220   1.549
 4380SOL    HW214040   0.242   1.150   1.696
 4381SOL     OW14041   2.656   6.497   5.798
 4381SOL    HW114042   2.565   6.462   5.776
 4381SOL    HW214043   2.709   6.508   5.714
 4382SOL     OW14044   6.827   3.614   5.711
 4382SOL    HW114045   6.789   3.696   5.669
 4382SOL    HW214046   6.753   3.552   5.736
 4383SOL     OW14047   5.526   2.973   6.994
 4383SOL    HW114048   5.489   2.881   6.983
 4383SOL    HW214049   5.472   3.023   0.039
 4384SOL     OW14050   6.595   6.416   3.777
 4384SOL    HW114051   6.618   6.321   3.798
 4384SOL    HW214052   6.590   6.468   3.862
 4385SOL     OW14053   5.850   1.991   4.427
 4385SOL    HW114054   5.800   2.044   4.359
 4385SOL    HW214055   5.928   1.946   4.383
 4386SOL     OW14056   0.753   3.480   5.452
 4386SOL    HW114057   0.654   3.497   5.447
 4386SOL    HW214058   0.775   3.396   5.404
 4387SOL     OW14059   6.670   1.888   0.311
 4387SOL    HW114060   6.672   1.894   0.410
 4387SOL    HW214061   6.587   1.933   0.277
 4388SOL     OW14062   4.801   1.914   6.606
 4388SOL    HW114063   4.887   1.908   6.656
 4388SOL    HW214064   4.818   1.903   6.508
 4389SOL     OW14065   0.451   3.555   1.671
 4389SOL    HW114066   0.493   3.479   1.718
 4389SOL    HW214067   0.363   3.526   1.633
 4390SOL     OW14068   6.421   0.626   1.685
 4390SOL    HW114069   6.456   0.532   1.690
 4390SOL    HW214070   6.326   0.625   1.654
 4391SOL     OW14071   2.120   6.107   6.503
 4391SOL    HW114072   2.080   6.053   6.430
 4391SOL    HW214073   2.049   6.164   6.545
 4392SOL     OW14074   2.192   2.539   5.136
 4392SOL    HW114075   2.154   2.461   5.087
 4392SOL    HW214076   2.276   2.511   5.182
 4393SOL     OW14077   4.888   0.533   1.563
 4393SOL    HW114078   4.886   0.563   1.659
 4393SOL    HW214079   4.882   0.613   1.503
 4394SOL     OW14080   1.526   0.395   1.482
 4394SOL    HW114081   1.468   0.371   1.404
 4394SOL    HW214082   1.470   0.444   1.550
 4395SOL     OW14083   2.590   5.484   1.031
 4395SOL    HW114084   2.605   5.579   1.003
 4395SOL    HW214085   2.502   5.477   1.078
 4396SOL     OW14086   2.293   0.252   3.130
 4396SOL    HW114087   2.371   0.299   3.088
 4396SOL    HW214088   2.208   0.298   3.104
 4397SOL     OW14089   2.871   1.855   4.131
 4397SOL    HW114090   2.943   1.871   4.064
 4397SOL    HW214091   2.791   1.910   4.108
 4398SOL     OW14092   2.173   2.846   5.684
 4398SOL    HW114093   2.115   2.832   5.764
 4398SOL    HW214094   2.217   2.935   5.689
 4399SOL     OW14095   3.023   0.003   2.338
 4399SOL    HW114096   3.099   7.008   2.400
 4399SOL    HW214097   2.965   6.946   2.330
 4400SOL     OW14098   2.061   5.522   4.899
 4400SOL    HW114099   2.131   5.514   4.828
 4400SOL    HW214100   2.072   5.447   4.964
 4401SOL     OW14101   3.784   0.028   6.189
 4401SOL    HW114102   3.736   0.109   6.222
 4401SOL    HW214103   3.857   0.056   6.127
 4402SOL     OW14104   1.444   0.335   2.868
 4402SOL    HW114105   1.410   0.351   2.961
 4402SOL    HW214106   1.464   0.424   2.825
 4403SOL     OW14107   1.349   5.111   0.920
 4403SOL    HW114108   1.278   5.041   0.933
 4403SOL    HW214109   1.439   5.072   0.942
 4404SOL     OW14110   0.721   6.252   6.326
 4404SOL    HW114111   0.627   6.225   6.345
 4404SOL    HW214112   0.783   6.178   6.352
 4405SOL     OW14113   1.947   5.069   3.784
 4405SOL    HW114114   1.856   5.028   3.781
 4405SOL    HW214115   1.992   5.046   3.871
 4406SOL     OW14116   6.180   3.483   2.210
 4406SOL    HW114117   6.234   3.423   2.269
 4406SOL    HW214118   6.126   3.545   2.267
 4407SOL     OW14119   6.217   6.180   2.033
 4407SOL    HW114120   6.162   6.263   2.037
 4407SOL    HW214121   6.258   6.171   1.942
 4408SOL     OW14122   4.119   0.544   0.940
 4408SOL    HW114123   4.180   0.623   0.927
 4408SOL    HW214124   4.035   0.575   0.985
 4409SOL     OW14125   3.557   0.684   2.321
 4409SOL    HW114126   3.586   0.732   2.404
 4409SOL    HW214127   3.618   0.607   2.304
 4410SOL     OW14128   0.934   6.105   1.138
 4410SOL    HW114129   0.996   6.028   1.121
 4410SOL    HW214130   0.988   6.185   1.165
 4411SOL     OW14131   3.439   4.480   5.302
 4411SOL    HW114132   3.340   4.495   5.298
 4411SOL    HW214133   3.481   4.554   5.355
 4412SOL     OW14134   5.042   6.333   2.515
 4412SOL    HW114135   5.006   6.425   2.529
 4412SOL    HW214136   5.138   6.339   2.487
 4413SOL     OW14137   4.311   6.259   3.756
 4413SOL    HW114138   4.311   6.344   3.704
 4413SOL    HW214139   4.405   6.238   3.785
 4414SOL     OW14140   4.340   4.028   1.116
 4414SOL    HW114141   4.293   4.046   1.030
 4414SOL    HW214142   4.426   4.079   1.118
 4415SOL     OW14143   2.853   3.809   1.102
 4415SOL    HW114144   2.885   3.781   1.193
 4415SOL    HW214145   2.903   3.892   1.074
 4416SOL     OW14146   4.551   2.578   2.769
 4416SOL    HW114147   4.588   2.618   2.853
 4416SOL    HW214148   4.485   2.507   2.792
 4417SOL     OW14149   0.194   3.542   3.993
 4417SOL    HW114150   0.179   3.631   3.951
 4417SOL    HW214151   0.228   3.478   3.923
 4418SOL     OW14152   6.164   6.749   6.730
 4418SOL    HW114153   6.077   6.788   6.762
 4418SOL    HW214154   6.159   6.649   6.734
 4419SOL     OW14155   6.457   5.755   6.404
 4419SOL    HW114156   6.418   5.809   6.330
 4419SOL    HW214157   6.398   5.760   6.484
 4420SOL     OW14158   3.861   2.592   0.691
 4420SOL    HW114159   3.805   2.511   0.713
 4420SOL    HW214160   3.957   2.570   0.703
 4421SOL     OW14161   1.569   2.702   5.333
 4421SOL    HW114162   1.639   2.677   5.265
 4421SOL    HW214163   1.587   2.653   5.418
 4422SOL     OW14164   6.703   4.307   6.827
 4422SOL    HW114165   6.801   4.327   6.823
 4422SOL    HW214166   6.662   4.356   6.903
 4423SOL     OW14167   5.516   4.054   5.155
 4423SOL    HW114168   5.551   4.124   5.218
 4423SOL    HW214169   5.417   4.065   5.145
 4424SOL     OW14170   4.825   5.966   3.656
 4424SOL    HW114171   4.753   5.987   3.590
 4424SOL    HW214172   4.840   5.867   3.659
 4425SOL     OW14173   2.057   5.582   2.031
 4425SOL    HW114174   2.026   5.616   2.121
 4425SOL    HW214175   2.031   5.649   1.961
 4426SOL     OW14176   1.104   6.926   4.094
 4426SOL    HW114177   1.032   6.892   4.155
 4426SOL    HW214178   1.135   6.852   4.034
 4427SOL     OW14179   2.901   6.265   2.544
 4427SOL    HW114180   2.847   6.181   2.534
 4427SOL    HW214181   2.998   6.243   2.538
 4428SOL     OW14182   5.908   0.397   3.617
 4428SOL    HW114183   5.972   0.337   3.568
 4428SOL    HW214184   5.855   0.343   3.682
 4429SOL     OW14185   2.466   6.286   3.170
 4429SOL    HW114186   2.555   6.315   3.206
 4429SOL    HW214187   2.394   6.313   3.234
 4430SOL     OW14188   5.348   4.353   5.163
 4430SOL    HW114189   5.326   4.256   5.174
 4430SOL    HW214190   5.309   4.386   5.077
 4431SOL     OW14191   3.179   0.075   3.880
 4431SOL    HW114192   3.118   0.142   3.838
 4431SOL    HW214193   3.140   7.007   3.870
 4432SOL     OW14194   1.135   3.729   6.214
 4432SOL    HW114195   1.108   3.822   6.239
 4432SOL    HW214196   1.235   3.724   6.207
 4433SOL     OW14197   0.807   0.697   5.001
 4433SOL    HW114198   0.858   0.704   5.087
 4433SOL    HW214199   0.723   0.751   5.008
 4434SOL     OW14200   6.969   0.703   2.230
 4434SOL    HW114201   6.991   0.770   2.159
 4434SOL    HW214202   6.964   0.749   2.318
 4435SOL     OW14203   2.313   3.558   0.185
 4435SOL    HW114204   2.409   3.542   0.208
 4435SOL    HW214205   2.275   3.476   0.141
 4436SOL     OW14206   4.209   1.255   1.730
 4436SOL    HW114207   4.151   1.335   1.746
 4436SOL    HW214208   4.253   1.263   1.641
 4437SOL     OW14209   0.116   3.931   0.882
 4437SOL    HW114210   0.207   3.967   0.860
 4437SOL    HW214211   0.090   3.961   0.974
 4438SOL     OW14212   3.951   0.544   6.123
 4438SOL    HW114213   3.910   0.617   6.178
 4438SOL    HW214214   3.940   0.566   6.026
 4439SOL     OW14215   1.970   6.621   2.401
 4439SOL    HW114216   1.898   6.557   2.376
 4439SOL    HW214217   2.007   6.596   2.490
 4440SOL     OW14218   1.272   4.571   0.001
 4440SOL    HW114219   1.284   4.511   0.080
 4440SOL    HW214220   1.305   4.663   0.024
 4441SOL     OW14221   0.102   1.041   0.422
 4441SOL    HW114222   0.176   1.067   0.360
 4441SOL    HW214223   0.136   1.036   0.515
 4442SOL     OW14224   1.865   4.680   6.406
 4442SOL    HW114225   1.830   4.634   6.488
 4442SOL    HW214226   1.840   4.627   6.325
 4443SOL     OW14227   0.175   5.512   6.592
 4443SOL    HW114228   0.265   5.494   6.553
 4443SOL    HW214229   0.180   5.593   6.651
 4444SOL     OW14230   5.530   4.700   0.152
 4444SOL    HW114231   5.551   4.619   0.098
 4444SOL    HW214232   5.587   4.702   0.233
 4445SOL     OW14233   0.147   5.532   0.188
 4445SOL    HW114234   0.080   5.553   0.259
 4445SOL    HW214235   0.175   5.436   0.196
 4446SOL     OW14236   5.297   0.826   0.848
 4446SOL    HW114237   5.219   0.877   0.811
 4446SOL    HW214238   5.315   0.855   0.942
 4447SOL     OW14239   5.193   5.306   5.485
 4447SOL    HW114240   5.230   5.361   5.560
 4447SOL    HW214241   5.264   5.295   5.415
 4448SOL     OW14242   3.873   6.472   2.036
 4448SOL    HW114243   3.867   6.566   2.002
 4448SOL    HW214244   3.968   6.440   2.029
 4449SOL     OW14245   3.263   1.399   5.217
 4449SOL    HW114246   3.277   1.497   5.229
 4449SOL    HW214247   3.320   1.349   5.281
 4450SOL     OW14248   3.153   6.724   0.301
 4450SOL    HW114249   3.063   6.726   0.260
 4450SOL    HW214250   3.152   6.666   0.382
 4451SOL     OW14251   4.994   4.483   3.022
 4451SOL    HW114252   4.906   4.454   3.058
 4451SOL    HW214253   5.051   4.403   3.003
 4452SOL     OW14254   4.990   5.969   4.609
 4452SOL    HW114255   5.088   5.970   4.629
 4452SOL    HW214256   4.950   6.058   4.632
 4453SOL     OW14257   7.023   3.735   0.727
 4453SOL    HW114258   6.999   3.660   0.789
 4453SOL    HW214259   0.056   3.801   0.777
 4454SOL     OW14260   0.328   2.741   6.515
 4454SOL    HW114261   0.263   2.667   6.531
 4454SOL    HW214262   0.398   2.711   6.450
 4455SOL     OW14263   0.265   6.747   5.164
 4455SOL    HW114264   0.322   6.700   5.232
 4455SOL    HW214265   0.234   6.834   5.201
 4456SOL     OW14266   1.939   6.943   4.560
 4456SOL    HW114267   1.911   0.013   4.579
 4456SOL    HW214268   1.901   6.914   4.472
 4457SOL     OW14269   1.015   2.553   4.867
 4457SOL    HW114270   0.919   2.581   4.871
 4457SOL    HW214271   1.064   2.610   4.801
 4458SOL     OW14272   1.791   3.564   6.945
 4458SOL    HW114273   1.824   3.657   6.960
 4458SOL    HW214274   1.797   3.512   0.006
 4459SOL     OW14275   1.418   2.560   3.024
 4459SOL    HW114276   1.464   2.471   3.030
 4459SOL    HW214277   1.404   2.584   2.928
 4460SOL     OW14278   6.606   3.103   4.189
 4460SOL    HW114279   6.593   3.106   4.288
 4460SOL    HW214280   6.543   3.167   4.145
 4461SOL     OW14281   2.952   0.716   1.159
 4461SOL    HW114282   2.999   0.630   1.178
 4461SOL    HW214283   2.983   0.785   1.225
 4462SOL     OW14284   6.417   4.591   3.044
 4462SOL    HW114285   6.468   4.656   3.101
 4462SOL    HW214286   6.319   4.605   3.058
 4463SOL     OW14287   6.028   1.736   0.365
 4463SOL    HW114288   6.016   1.703   0.459
 4463SOL    HW214289   6.125   1.739   0.342
 4464SOL     OW14290   0.194   5.343   0.454
 4464SOL    HW114291   0.173   5.422   0.511
 4464SOL    HW214292   0.117   5.326   0.392
 4465SOL     OW14293   2.959   5.926   1.081
 4465SOL    HW114294   2.934   6.020   1.107
 4465SOL    HW214295   2.970   5.871   1.163
 4466SOL     OW14296   1.328   2.274   3.298
 4466SOL    HW114297   1.236   2.309   3.314
 4466SOL    HW214298   1.395   2.333   3.343
 4467SOL     OW14299   4.535   5.934   2.812
 4467SOL    HW114300   4.548   5.966   2.718
 4467SOL    HW214301   4.625   5.919   2.854
 4468SOL     OW14302   1.779   2.960   1.473
 4468SOL    HW114303   1.810   3.005   1.557
 4468SOL    HW214304   1.686   2.988   1.453
 4469SOL     OW14305   3.206   6.355   0.981
 4469SOL    HW114306   3.201   6.400   0.892
 4469SOL    HW214307   3.300   6.324   0.998
 4470SOL     OW14308   1.532   0.200   2.513
 4470SOL    HW114309   1.630   0.181   2.508
 4470SOL    HW214310   1.481   0.131   2.462
 4471SOL     OW14311   0.937   0.935   6.246
 4471SOL    HW114312   0.849   0.914   6.289
 4471SOL    HW214313   1.008   0.940   6.316
 4472SOL     OW14314   1.448   2.338   0.832
 4472SOL    HW114315   1.502   2.267   0.786
 4472SOL    HW214316   1.373   2.366   0.773
 4473SOL     OW14317   6.998   3.036   4.670
 4473SOL    HW114318   7.011   3.116   4.612
 4473SOL    HW214319   6.902   3.030   4.697
 4474SOL     OW14320   2.966   5.641   0.984
 4474SOL    HW114321   2.959   5.616   1.080
 4474SOL    HW214322   2.948   5.739   0.973
 4475SOL     OW14323   1.464   3.798   1.163
 4475SOL    HW114324   1.449   3.891   1.130
 4475SOL    HW214325   1.561   3.783   1.178
 4476SOL     OW14326   4.990   1.342   3.447
 4476SOL    HW114327   4.945   1.253   3.447
 4476SOL    HW214328   4.998   1.376   3.541
 4477SOL     OW14329   1.844   0.800   5.288
 4477SOL    HW114330   1.849   0.829   5.383
 4477SOL    HW214331   1.756   0.755   5.271
 4478SOL     OW14332   1.583   0.404   0.455
 4478SOL    HW114333   1.503   0.442   0.409
 4478SOL    HW214334   1.606   0.460   0.535
 4479SOL     OW14335   1.289   2.889   0.791
 4479SOL    HW114336   1.208   2.948   0.788
 4479SOL    HW214337   1.315   2.864   0.698
 4480SOL     OW14338   1.089   5.770   4.137
 4480SOL    HW114339   1.166   5.752   4.197
 4480SOL    HW214340   1.067   5.868   4.139
 4481SOL     OW14341   2.275   3.849   6.378
 4481SOL    HW114342   2.241   3.933   6.420
 4481SOL    HW214343   2.208   3.776   6.392
 4482SOL     OW14344   2.768   5.888   6.771
 4482SOL    HW114345   2.801   5.800   6.736
 4482SOL    HW214346   2.843   5.954   6.771
 4483SOL     OW14347   1.145   3.110   1.120
 4483SOL    HW114348   1.091   3.191   1.097
 4483SOL    HW214349   1.184   3.072   1.036
 4484SOL     OW14350   1.927   2.166   0.214
 4484SOL    HW114351   1.842   2.192   0.260
 4484SOL    HW214352   1.921   2.071   0.185
 4485SOL     OW14353   5.482   2.803   5.043
 4485SOL    HW114354   5.560   2.801   5.106
 4485SOL    HW214355   5.441   2.712   5.038
 4486SOL     OW14356   4.865   5.154   5.636
 4486SOL    HW114357   4.888   5.210   5.557
 4486SOL    HW214358   4.937   5.087   5.653
 4487SOL     OW14359   0.800   3.220   0.188
 4487SOL    HW114360   0.768   3.275   0.265
 4487SOL    HW214361   0.754   3.131   0.189
 4488SOL     OW14362   6.914   3.994   4.215
 4488SOL    HW114363   6.971   4.032   4.143
 4488SOL    HW214364   6.948   4.024   4.304
 4489SOL     OW14365   4.487   5.389   5.590
 4489SOL    HW114366   4.407   5.376   5.531
 4489SOL    HW214367   4.457   5.407   5.684
 4490SOL     OW14368   5.114   1.376   1.201
 4490SOL    HW114369   5.150   1.288   1.234
 4490SOL    HW214370   5.088   1.433   1.279
 4491SOL     OW14371   0.915   2.893   3.140
 4491SOL    HW114372   1.014   2.888   3.153
 4491SOL    HW214373   0.874   2.941   3.218
 4492SOL     OW14374   6.180   0.562   2.366
 4492SOL    HW114375   6.264   0.511   2.347
 4492SOL    HW214376   6.104   0.497   2.376
 4493SOL     OW14377   4.562   1.416   4.686
 4493SOL    HW114378   4.557   1.341   4.621
 4493SOL    HW214379   4.554   1.380   4.779
 4494SOL     OW14380   1.248   6.838   0.877
 4494SOL    HW114381   1.186   6.793   0.941
 4494SOL    HW214382   1.296   6.912   0.923
 4495SOL     OW14383   4.868   5.230   1.613
 4495SOL    HW114384   4.784   5.186   1.644
 4495SOL    HW214385   4.939   5.161   1.599
 4496SOL     OW14386   3.735   5.957   6.278
 4496SOL    HW114387   3.710   5.910   6.194
 4496SOL    HW214388   3.802   5.903   6.329
 4497SOL     OW14389   4.312   1.575   6.548
 4497SOL    HW114390   4.285   1.670   6.559
 4497SOL    HW214391   4.372   1.566   6.468
 4498SOL     OW14392   1.425   5.026   5.435
 4498SOL    HW114393   1.494   4.954   5.431
 4498SOL    HW214394   1.411   5.053   5.530
 4499SOL     OW14395   5.818   2.258   2.623
 4499SOL    HW114396   5.833   2.218   2.533
 4499SOL    HW214397   5.905   2.292   2.660
 4500SOL     OW14398   3.742   5.627   6.892
 4500SOL    HW114399   3.743   5.634   6.992
 4500SOL    HW214400   3.810   5.559   6.863
 4501SOL     OW14401   5.477   0.849   3.062
 4501SOL    HW114402   5.547   0.813   3.001
 4501SOL    HW214403   5.521   0.889   3.143
 4502SOL     OW14404   0.358   3.639   6.531
 4502SOL    HW114405   0.335   3.611   6.438
 4502SOL    HW214406   0.274   3.646   6.585
 4503SOL     OW14407   2.474   0.382   2.700
 4503SOL    HW114408   2.458   0.477   2.675
 4503SOL    HW214409   2.486   0.375   2.799
 4504SOL     OW14410   0.256   2.579   3.007
 4504SOL    HW114411   0.354   2.569   3.022
 4504SOL    HW214412   0.229   2.525   2.927
 4505SOL     OW14413   6.085   4.175   3.947
 4505SOL    HW114414   6.066   4.271   3.965
 4505SOL    HW214415   6.136   4.167   3.861
 4506SOL     OW14416   5.012   2.996   5.013
 4506SOL    HW114417   5.098   3.005   5.063
 4506SOL    HW214418   4.978   3.086   4.987
 4507SOL     OW14419   6.535   2.832   3.133
 4507SOL    HW114420   6.516   2.778   3.051
 4507SOL    HW214421   6.452   2.840   3.187
 4508SOL     OW14422   0.268   5.260   0.913
 4508SOL    HW114423   0.220   5.212   0.987
 4508SOL    HW214424   0.208   5.267   0.834
 4509SOL     OW14425   4.748   2.740   2.041
 4509SOL    HW114426   4.736   2.839   2.033
 4509SOL    HW214427   4.822   2.721   2.106
 4510SOL     OW14428   4.298   1.455   4.328
 4510SOL    HW114429   4.337   1.362   4.324
 4510SOL    HW214430   4.207   1.451   4.370
 4511SOL     OW14431   0.189   4.289   0.769
 4511SOL    HW114432   0.142   4.288   0.857
 4511SOL    HW214433   0.155   4.365   0.714
 4512SOL     OW14434   3.117   3.071   5.454
 4512SOL    HW114435   3.210   3.051   5.485
 4512SOL    HW214436   3.086   2.999   5.392
 4513SOL     OW14437   1.065   6.518   0.606
 4513SOL    HW114438   1.124   6.595   0.631
 4513SOL    HW214439   1.120   6.435   0.600
 4514SOL     OW14440   3.189   4.627   6.563
 4514SOL    HW114441   3.160   4.710   6.515
 4514SOL    HW214442   3.210   4.649   6.658
 4515SOL     OW14443   4.941   0.550   6.473
 4515SOL    HW114444   4.868   0.592   6.419
 4515SOL    HW214445   5.009   0.510   6.411
 4516SOL     OW14446   3.449   1.637   4.762
 4516SOL    HW114447   3.389   1.717   4.753
 4516SOL    HW214448   3.531   1.662   4.813
 4517SOL     OW14449   3.764   1.345   5.296
 4517SOL    HW114450   3.860   1.321   5.288
 4517SOL    HW214451   3.744   1.370   5.390
 4518SOL     OW14452   1.485   0.013   1.216
 4518SOL    HW114453   1.474   0.026   1.118
 4518SOL    HW214454   1.445   6.950   1.243
 4519SOL     OW14455   4.954   6.824   7.013
 4519SOL    HW114456   4.908   6.907   0.021
 4519SOL    HW214457   4.942   6.751   0.057
 4520SOL     OW14458   4.417   5.760   4.889
 4520SOL    HW114459   4.470   5.675   4.887
 4520SOL    HW214460   4.427   5.808   4.802
 4521SOL     OW14461   4.326   2.354   4.347
 4521SOL    HW114462   4.285   2.399   4.267
 4521SOL    HW214463   4.406   2.406   4.376
 4522SOL     OW14464   5.084   4.433   3.340
 4522SOL    HW114465   5.088   4.375   3.422
 4522SOL    HW214466   4.994   4.476   3.335
 4523SOL     OW14467   0.073   3.658   5.689
 4523SOL    HW114468   7.002   3.628   5.693
 4523SOL    HW214469   0.090   3.702   5.601
 4524SOL     OW14470   0.927   3.600   3.161
 4524SOL    HW114471   0.946   3.658   3.081
 4524SOL    HW214472   0.995   3.618   3.232
 4525SOL     OW14473   3.035   1.988   5.160
 4525SOL    HW114474   3.101   2.063   5.162
 4525SOL    HW214475   2.952   2.018   5.114
 4526SOL     OW14476   0.522   0.300   5.753
 4526SOL    HW114477   0.465   0.288   5.834
 4526SOL    HW214478   0.464   0.319   5.674
 4527SOL     OW14479   6.838   0.780   2.833
 4527SOL    HW114480   6.783   0.723   2.895
 4527SOL    HW214481   6.781   0.814   2.759
 4528SOL     OW14482   4.199   0.973   5.249
 4528SOL    HW114483   4.251   0.963   5.164
 4528SOL    HW214484   4.136   0.896   5.259
 4529SOL     OW14485   2.484   0.851   4.134
 4529SOL    HW114486   2.432   0.863   4.050
 4529SOL    HW214487   2.427   0.805   4.202
 4530SOL     OW14488   3.524   5.186   6.088
 4530SOL    HW114489   3.530   5.146   6.180
 4530SOL    HW214490   3.480   5.276   6.095
 4531SOL     OW14491   0.723   5.380   6.109
 4531SOL    HW114492   0.789   5.386   6.183
 4531SOL    HW214493   0.771   5.370   6.022
 4532SOL     OW14494   5.835   0.568   2.533
 4532SOL    HW114495   5.771   0.526   2.597
 4532SOL    HW214496   5.904   0.620   2.584
 4533SOL     OW14497   2.892   0.408   1.741
 4533SOL    HW114498   2.991   0.410   1.731
 4533SOL    HW214499   2.852   0.492   1.705
 4534SOL     OW14500   4.581   1.223   3.562
 4534SOL    HW114501   4.623   1.285   3.629
 4534SOL    HW214502   4.652   1.177   3.509
 4535SOL     OW14503   2.781   0.847   1.015
 4535SOL    HW114504   2.746   0.927   1.064
 4535SOL    HW214505   2.850   0.801   1.071
 4536SOL     OW14506   2.951   1.215   5.706
 4536SOL    HW114507   2.988   1.180   5.792
 4536SOL    HW214508   2.879   1.281   5.726
 4537SOL     OW14509   2.884   3.339   3.380
 4537SOL    HW114510   2.851   3.301   3.466
 4537SOL    HW214511   2.876   3.439   3.383
 4538SOL     OW14512   0.294   1.979   0.909
 4538SOL    HW114513   0.259   1.977   1.003
 4538SOL    HW214514   0.285   1.888   0.869
 4539SOL     OW14515   1.933   6.360   5.432
 4539SOL    HW114516   1.888   6.291   5.377
 4539SOL    HW214517   1.921   6.338   5.529
 4540SOL     OW14518   0.506   0.482   0.157
 4540SOL    HW114519   0.459   0.399   0.188
 4540SOL    HW214520   0.599   0.460   0.130
 4541SOL     OW14521   4.389   2.810   5.609
 4541SOL    HW114522   4.333   2.768   5.537
 4541SOL    HW214523   4.340   2.889   5.647
 4542SOL     OW14524   6.968   2.066   0.445
 4542SOL    HW114525   6.973   2.044   0.347
 4542SOL    HW214526   6.901   2.006   0.489
 4543SOL     OW14527   3.723   2.460   6.963
 4543SOL    HW114528   3.638   2.460   7.016
 4543SOL    HW214529   3.797   2.500   7.017
 4544SOL     OW14530   5.533   6.203   0.398
 4544SOL    HW114531   5.484   6.160   0.322
 4544SOL    HW214532   5.560   6.133   0.464
 4545SOL     OW14533   2.150   3.141   4.837
 4545SOL    HW114534   2.087   3.208   4.876
 4545SOL    HW214535   2.221   3.119   4.903
 4546SOL     OW14536   2.867   1.433   6.114
 4546SOL    HW114537   2.960   1.467   6.125
 4546SOL    HW214538   2.864   1.369   6.036
 4547SOL     OW14539   6.588   0.570   0.142
 4547SOL    HW114540   6.488   0.568   0.138
 4547SOL    HW214541   6.617   0.641   0.206
 4548SOL     OW14542   2.446   2.037   3.025
 4548SOL    HW114543   2.456   2.101   3.101
 4548SOL    HW214544   2.350   2.010   3.016
 4549SOL     OW14545   6.319   4.063   4.569
 4549SOL    HW114546   6.323   3.963   4.577
 4549SOL    HW214547   6.383   4.104   4.635
 4550SOL     OW14548   1.557   4.357   3.227
 4550SOL    HW114549   1.526   4.283   3.167
 4550SOL    HW214550   1.478   4.405   3.265
 4551SOL     OW14551   1.374   2.932   5.187
 4551SOL    HW114552   1.448   2.909   5.251
 4551SOL    HW214553   1.345   3.026   5.202
 4552SOL     OW14554   5.552   1.430   0.887
 4552SOL    HW114555   5.452   1.425   0.896
 4552SOL    HW214556   5.595   1.400   0.972
 4553SOL     OW14557   6.592   5.331   6.695
 4553SOL    HW114558   6.690   5.340   6.713
 4553SOL    HW214559   6.558   5.247   6.736
 4554SOL     OW14560   6.582   6.318   3.239
 4554SOL    HW114561   6.600   6.231   3.194
 4554SOL    HW214562   6.629   6.321   3.327
 4555SOL     OW14563   1.655   0.982   6.752
 4555SOL    HW114564   1.643   0.972   6.653
 4555SOL    HW214565   1.566   0.976   6.797
 4556SOL     OW14566   5.852   4.676   5.037
 4556SOL    HW114567   5.827   4.769   5.062
 4556SOL    HW214568   5.952   4.666   5.039
 4557SOL     OW14569   6.789   4.315   3.063
 4557SOL    HW114570   6.768   4.224   3.099
 4557SOL    HW214571   6.709   4.352   3.017
 4558SOL     OW14572   0.500   3.536   5.412
 4558SOL    HW114573   0.460   3.569   5.327
 4558SOL    HW214574   0.491   3.436   5.417
 4559SOL     OW14575   6.968   2.800   3.224
 4559SOL    HW114576   6.928   2.721   3.271
 4559SOL    HW214577   6.960   2.881   3.281
 4560SOL     OW14578   6.061   4.334   2.717
 4560SOL    HW114579   6.056   4.352   2.815
 4560SOL    HW214580   6.147   4.287   2.697
 4561SOL     OW14581   3.957   2.092   4.359
 4561SOL    HW114582   3.862   2.104   4.388
 4561SOL    HW214583   3.974   1.996   4.337
 4562SOL     OW14584   3.401   1.336   1.383
 4562SOL    HW114585   3.368   1.327   1.478
 4562SOL    HW214586   3.464   1.261   1.363
 4563SOL     OW14587   0.754   4.192   1.976
 4563SOL    HW114588   0.675   4.139   1.945
 4563SOL    HW214589   0.818   4.203   1.901
 4564SOL     OW14590   1.380   3.838   2.109
 4564SOL    HW114591   1.395   3.937   2.114
 4564SOL    HW214592   1.439   3.799   2.037
 4565SOL     OW14593   1.972   5.741   6.059
 4565SOL    HW114594   2.043   5.803   6.027
 4565SOL    HW214595   1.973   5.657   6.005
 4566SOL     OW14596   6.011   4.848   2.753
 4566SOL    HW114597   5.982   4.790   2.677
 4566SOL    HW214598   5.936   4.854   2.820
 4567SOL     OW14599   0.273   0.320   6.644
 4567SOL    HW114600   0.291   0.355   6.736
 4567SOL    HW214601   0.359   0.299   6.598
 4568SOL     OW14602   1.485   5.726   3.656
 4568SOL    HW114603   1.485   5.683   3.746
 4568SOL    HW214604   1.578   5.725   3.619
 4569SOL     OW14605   2.122   0.857   3.505
 4569SOL    HW114606   2.069   0.794   3.449
 4569SOL    HW214607   2.196   0.896   3.450
 4570SOL     OW14608   5.681   6.091   2.209
 4570SOL    HW114609   5.614   6.154   2.170
 4570SOL    HW214610   5.755   6.075   2.143
 4571SOL     OW14611   3.088   3.211   6.797
 4571SOL    HW114612   3.030   3.224   6.716
 4571SOL    HW214613   3.180   3.185   6.769
 4572SOL     OW14614   3.158   3.265   1.716
 4572SOL    HW114615   3.162   3.332   1.641
 4572SOL    HW214616   3.105   3.303   1.791
 4573SOL     OW14617   2.749   5.473   1.710
 4573SOL    HW114618   2.701   5.491   1.624
 4573SOL    HW214619   2.826   5.411   1.692
 4574SOL     OW14620   5.360   1.210   1.478
 4574SOL    HW114621   5.297   1.135   1.457
 4574SOL    HW214622   5.453   1.175   1.486
 4575SOL     OW14623   0.197   6.980   5.264
 4575SOL    HW114624   0.174   7.009   5.357
 4575SOL    HW214625   0.162   0.023   5.198
 4576SOL     OW14626   2.677   4.843   5.122
 4576SOL    HW114627   2.707   4.775   5.055
 4576SOL    HW214628   2.696   4.810   5.214
 4577SOL     OW14629   1.533   1.743   2.153
 4577SOL    HW114630   1.441   1.766   2.183
 4577SOL    HW214631   1.556   1.795   2.070
 4578SOL     OW14632   1.896   1.170   2.406
 4578SOL    HW114633   1.880   1.186   2.308
 4578SOL    HW214634   1.928   1.255   2.448
 4579SOL     OW14635   4.692   1.393   2.619
 4579SOL    HW114636   4.773   1.428   2.666
 4579SOL    HW214637   4.691   1.294   2.623
 4580SOL     OW14638   6.896   2.325   0.421
 4580SOL    HW114639   6.923   2.232   0.446
 4580SOL    HW214640   6.839   2.364   0.493
 4581SOL     OW14641   3.557   0.686   1.347
 4581SOL    HW114642   3.540   0.717   1.441
 4581SOL    HW214643   3.492   0.614   1.324
 4582SOL     OW14644   6.054   1.505   3.641
 4582SOL    HW114645   5.989   1.565   3.593
 4582SOL    HW214646   6.147   1.532   3.618
 4583SOL     OW14647   0.927   0.312   6.792
 4583SOL    HW114648   0.846   0.255   6.807
 4583SOL    HW214649   0.989   0.265   6.730
 4584SOL     OW14650   1.439   0.459   4.856
 4584SOL    HW114651   1.425   0.473   4.758
 4584SOL    HW214652   1.420   0.544   4.905
 4585SOL     OW14653   1.744   3.784   3.524
 4585SOL    HW114654   1.842   3.773   3.507
 4585SOL    HW214655   1.695   3.704   3.491
 4586SOL     OW14656   5.656   4.753   6.554
 4586SOL    HW114657   5.608   4.838   6.575
 4586SOL    HW214658   5.724   4.769   6.483
 4587SOL     OW14659   2.974   3.179   4.941
 4587SOL    HW114660   2.908   3.217   5.006
 4587SOL    HW214661   3.016   3.097   4.979
 4588SOL     OW14662   3.088   3.690   5.955
 4588SOL    HW114663   3.139   3.764   5.999
 4588SOL    HW214664   3.126   3.673   5.864
 4589SOL     OW14665   6.244   6.656   3.166
 4589SOL    HW114666   6.329   6.652   3.218
 4589SOL    HW214667   6.181   6.721   3.208
 4590SOL     OW14668   3.218   5.473   1.163
 4590SOL    HW114669   3.226   5.461   1.064
 4590SOL    HW214670   3.145   5.414   1.197
 4591SOL     OW14671   1.864   0.478   5.440
 4591SOL    HW114672   1.860   0.460   5.538
 4591SOL    HW214673   1.811   0.561   5.420
 4592SOL     OW14674   1.733   1.454   3.897
 4592SOL    HW114675   1.793   1.533   3.885
 4592SOL    HW214676   1.755   1.408   3.983
 4593SOL     OW14677   1.483   6.077   4.492
 4593SOL    HW114678   1.556   6.020   4.530
 4593SOL    HW214679   1.519   6.129   4.414
 4594SOL     OW14680   1.697   0.642   3.102
 4594SOL    HW114681   1.691   0.722   3.162
 4594SOL    HW214682   1.683   0.671   3.007
 4595SOL     OW14683   5.395   2.053   6.869
 4595SOL    HW114684   5.492   2.061   6.843
 4595SOL    HW214685   5.384   2.078   6.965
 4596SOL     OW14686   0.153   1.257   2.375
 4596SOL    HW114687   0.235   1.293   2.421
 4596SOL    HW214688   0.177   1.172   2.328
 4597SOL     OW14689   2.965   6.231   0.083
 4597SOL    HW114690   2.882   6.217   0.137
 4597SOL    HW214691   2.995   6.325   0.093
 4598SOL     OW14692   1.594   4.498   0.161
 4598SOL    HW114693   1.571   4.595   0.162
 4598SOL    HW214694   1.641   4.476   0.075
 4599SOL     OW14695   2.350   5.760   2.257
 4599SOL    HW114696   2.447   5.748   2.235
 4599SOL    HW214697   2.309   5.671   2.278
 4600SOL     OW14698   0.116   6.730   5.929
 4600SOL    HW114699   0.174   6.740   6.010
 4600SOL    HW214700   0.069   6.816   5.911
 4601SOL     OW14701   2.084   1.182   4.841
 4601SOL    HW114702   2.118   1.222   4.927
 4601SOL    HW214703   2.112   1.086   4.836
 4602SOL     OW14704   2.880   2.269   6.506
 4602SOL    HW114705   2.806   2.323   6.464
 4602SOL    HW214706   2.889   2.295   6.602
 4603SOL     OW14707   5.008   0.034   0.678
 4603SOL    HW114708   5.098   0.056   0.715
 4603SOL    HW214709   4.964   0.117   0.645
 4604SOL     OW14710   5.645   6.828   5.739
 4604SOL    HW114711   5.595   6.749   5.773
 4604SOL    HW214712   5.713   6.799   5.673
 4605SOL     OW14713   3.740   0.479   1.892
 4605SOL    HW114714   3.701   0.565   1.858
 4605SOL    HW214715   3.824   0.498   1.941
 4606SOL     OW14716   6.698   6.572   4.414
 4606SOL    HW114717   6.794   6.586   4.390
 4606SOL    HW214718   6.674   6.629   4.492
 4607SOL     OW14719   2.069   2.392   1.346
 4607SOL    HW114720   2.048   2.478   1.299
 4607SOL    HW214721   1.983   2.347   1.373
 4608SOL     OW14722   6.518   3.154   4.681
 4608SOL    HW114723   6.493   3.068   4.725
 4608SOL    HW214724   6.450   3.224   4.703
 4609SOL     OW14725   4.315   6.156   6.689
 4609SOL    HW114726   4.240   6.218   6.711
 4609SOL    HW214727   4.379   6.152   6.766
 4610SOL     OW14728   5.360   3.361   0.367
 4610SOL    HW114729   5.458   3.369   0.383
 4610SOL    HW214730   5.343   3.358   0.268
 4611SOL     OW14731   1.037   0.690   6.485
 4611SOL    HW114732   1.104   0.746   6.436
 4611SOL    HW214733   1.083   0.611   6.524
 4612SOL     OW14734   2.591   0.982   1.320
 4612SOL    HW114735   2.497   0.957   1.298
 4612SOL    HW214736   2.595   1.014   1.415
 4613SOL     OW14737   1.946   4.544   1.369
 4613SOL    HW114738   1.976   4.480   1.440
 4613SOL    HW214739   2.026   4.583   1.324
 4614SOL     OW14740   6.383   4.270   4.322
 4614SOL    HW114741   6.300   4.285   4.376
 4614SOL    HW214742   6.392   4.173   4.302
 4615SOL     OW14743   1.082   2.566   0.216
 4615SOL    HW114744   1.044   2.652   0.181
 4615SOL    HW214745   1.051   2.490   0.159
 4616SOL     OW14746   6.370   2.617   6.065
 4616SOL    HW114747   6.343   2.527   6.099
 4616SOL    HW214748   6.290   2.677   6.062
 4617SOL     OW14749   0.049   3.180   3.288
 4617SOL    HW114750   0.056   3.253   3.221
 4617SOL    HW214751   0.088   3.210   3.375
 4618SOL     OW14752   1.823   4.407   5.645
 4618SOL    HW114753   1.827   4.324   5.701
 4618SOL    HW214754   1.758   4.472   5.686
 4619SOL     OW14755   3.991   6.257   6.041
 4619SOL    HW114756   3.894   6.234   6.050
 4619SOL    HW214757   4.037   6.186   5.987
 4620SOL     OW14758   0.119   4.591   2.106
 4620SOL    HW114759   0.107   4.641   2.192
 4620SOL    HW214760   0.212   4.553   2.102
 4621SOL     OW14761   4.036   0.320   3.176
 4621SOL    HW114762   4.038   0.342   3.273
 4621SOL    HW214763   4.130   0.307   3.143
 4622SOL     OW14764   5.436   5.973   1.927
 4622SOL    HW114765   5.450   5.893   1.869
 4622SOL    HW214766   5.478   6.053   1.885
 4623SOL     OW14767   2.843   4.909   0.892
 4623SOL    HW114768   2.788   4.826   0.885
 4623SOL    HW214769   2.842   4.957   0.804
 4624SOL     OW14770   4.478   0.989   2.153
 4624SOL    HW114771   4.483   0.889   2.146
 4624SOL    HW214772   4.437   1.026   2.070
 4625SOL     OW14773   1.569   5.873   1.979
 4625SOL    HW114774   1.580   5.845   2.074
 4625SOL    HW214775   1.491   5.826   1.939
 4626SOL     OW14776   4.282   3.867   1.576
 4626SOL    HW114777   4.276   3.966   1.586
 4626SOL    HW214778   4.351   3.831   1.639
 4627SOL     OW14779   5.699   6.953   5.173
 4627SOL    HW114780   5.618   6.995   5.132
 4627SOL    HW214781   5.716   6.865   5.130
 4628SOL     OW14782   5.614   5.081   4.276
 4628SOL    HW114783   5.583   5.011   4.341
 4628SOL    HW214784   5.535   5.119   4.228
 4629SOL     OW14785   2.424   6.081   6.696
 4629SOL    HW114786   2.348   6.081   6.760
 4629SOL    HW214787   2.407   6.149   6.624
 4630SOL     OW14788   1.819   3.331   2.152
 4630SOL    HW114789   1.773   3.322   2.063
 4630SOL    HW214790   1.906   3.282   2.149
 4631SOL     OW14791   6.968   0.703   3.486
 4631SOL    HW114792   0.009   0.670   3.417
 4631SOL    HW214793   6.944   0.798   3.466
 4632SOL     OW14794   3.312   4.883   2.400
 4632SOL    HW114795   3.394   4.870   2.345
 4632SOL    HW214796   3.330   4.946   2.475
 4633SOL     OW14797   5.278   1.353   4.231
 4633SOL    HW114798   5.369   1.315   4.240
 4633SOL    HW214799   5.240   1.371   4.322
 4634SOL     OW14800   2.900   3.751   4.951
 4634SOL    HW114801   2.903   3.675   5.016
 4634SOL    HW214802   2.806   3.782   4.939
 4635SOL     OW14803   4.862   6.716   1.675
 4635SOL    HW114804   4.916   6.779   1.619
 4635SOL    HW214805   4.899   6.624   1.666
 4636SOL     OW14806   1.996   5.581   0.611
 4636SOL    HW114807   2.059   5.599   0.535
 4636SOL    HW214808   1.911   5.542   0.575
 4637SOL     OW14809   2.839   1.464   2.814
 4637SOL    HW114810   2.846   1.464   2.714
 4637SOL    HW214811   2.923   1.429   2.854
 4638SOL     OW14812   3.441   4.721   0.194
 4638SOL    HW114813   3.465   4.704   0.099
 4638SOL    HW214814   3.471   4.812   0.222
 4639SOL     OW14815   2.966   2.342   1.084
 4639SOL    HW114816   2.908   2.378   1.011
 4639SOL    HW214817   3.052   2.310   1.046
 4640SOL     OW14818   6.396   2.538   6.826
 4640SOL    HW114819   6.302   2.554   6.853
 4640SOL    HW214820   6.451   2.619   6.848
 4641SOL     OW14821   1.179   5.696   3.895
 4641SOL    HW114822   1.271   5.734   3.886
 4641SOL    HW214823   1.143   5.716   3.986
 4642SOL     OW14824   0.019   1.348   3.715
 4642SOL    HW114825   0.017   1.437   3.670
 4642SOL    HW214826   0.085   1.289   3.668
 4643SOL     OW14827   0.076   1.954   6.964
 4643SOL    HW114828   0.162   2.003   6.975
 4643SOL    HW214829   0.094   1.855   6.960
 4644SOL     OW14830   1.252   1.261   0.383
 4644SOL    HW114831   1.341   1.307   0.380
 4644SOL    HW214832   1.262   1.174   0.432
 4645SOL     OW14833   0.843   1.765   3.918
 4645SOL    HW114834   0.924   1.807   3.876
 4645SOL    HW214835   0.787   1.721   3.848
 4646SOL     OW14836   2.294   5.183   3.928
 4646SOL    HW114837   2.251   5.195   3.838
 4646SOL    HW214838   2.223   5.177   3.998
 4647SOL     OW14839   1.285   6.212   2.219
 4647SOL    HW114840   1.301   6.177   2.126
 4647SOL    HW214841   1.372   6.220   2.267
 4648SOL     OW14842   2.768   1.840   4.817
 4648SOL    HW114843   2.799   1.858   4.724
 4648SOL    HW214844   2.833   1.779   4.863
 4649SOL     OW14845   6.300   0.918   6.964
 4649SOL    HW114846   6.278   0.857   0.016
 4649SOL    HW214847   6.274   0.873   6.878
 4650SOL     OW14848   5.845   5.808   1.573
 4650SOL    HW114849   5.750   5.840   1.564
 4650SOL    HW214850   5.873   5.814   1.669
 4651SOL     OW14851   6.373   3.634   6.166
 4651SOL    HW114852   6.394   3.570   6.240
 4651SOL    HW214853   6.340   3.720   6.205
 4652SOL     OW14854   0.298   6.573   4.960
 4652SOL    HW114855   0.288   6.643   5.031
 4652SOL    HW214856   0.317   6.485   5.002
 4653SOL     OW14857   5.544   5.461   0.813
 4653SOL    HW114858   5.540   5.455   0.913
 4653SOL    HW214859   5.479   5.396   0.773
 4654SOL     OW14860   0.804   0.073   5.250
 4654SOL    HW114861   0.708   0.098   5.262
 4654SOL    HW214862   0.841   0.119   5.169
 4655SOL     OW14863   4.549   2.776   1.381
 4655SOL    HW114864   4.626   2.724   1.418
 4655SOL    HW214865   4.470   2.767   1.442
 4656SOL     OW14866   0.429   1.097   1.940
 4656SOL    HW114867   0.523   1.110   1.911
 4656SOL    HW214868   0.410   0.999   1.950
 4657SOL     OW14869   4.971   0.209   2.156
 4657SOL    HW114870   4.906   0.155   2.103
 4657SOL    HW214871   5.063   0.191   2.124
 4658SOL     OW14872   1.771   2.726   5.941
 4658SOL    HW114873   1.718   2.781   5.877
 4658SOL    HW214874   1.712   2.655   5.980
 4659SOL     OW14875   2.334   4.520   0.123
 4659SOL    HW114876   2.385   4.481   0.200
 4659SOL    HW214877   2.383   4.598   0.087
 4660SOL     OW14878   1.072   6.288   4.181
 4660SOL    HW114879   1.042   6.378   4.148
 4660SOL    HW214880   1.030   6.269   4.270
 4661SOL     OW14881   0.828   2.423   5.529
 4661SOL    HW114882   0.744   2.428   5.583
 4661SOL    HW214883   0.895   2.368   5.577
 4662SOL     OW14884   2.611   6.656   5.403
 4662SOL    HW114885   2.545   6.581   5.412
 4662SOL    HW214886   2.597   6.703   5.316
 4663SOL     OW14887   1.226   0.275   0.254
 4663SOL    HW114888   1.186   0.271   0.162
 4663SOL    HW214889   1.196   0.195   0.306
 4664SOL     OW14890   0.076   6.677   7.011
 4664SOL    HW114891   0.162   6.719   0.017
 4664SOL    HW214892   0.002   6.744   7.016
 4665SOL     OW14893   2.323   0.137   4.381
 4665SOL    HW114894   2.363   0.174   4.465
 4665SOL    HW214895   2.343   0.199   4.304
 4666SOL     OW14896   2.817   1.952   5.364
 4666SOL    HW114897   2.872   2.034   5.380
 4666SOL    HW214898   2.851   1.905   5.283
 4667SOL     OW14899   6.585   3.585   1.546
 4667SOL    HW114900   6.658   3.538   1.596
 4667SOL    HW214901   6.616   3.606   1.453
 4668SOL     OW14902   4.308   2.114   4.044
 4668SOL    HW114903   4.240   2.150   4.109
 4668SOL    HW214904   4.297   2.159   3.956
 4669SOL     OW14905   5.789   6.709   6.462
 4669SOL    HW114906   5.838   6.627   6.492
 4669SOL    HW214907   5.829   6.742   6.376
 4670SOL     OW14908   0.361   2.453   0.575
 4670SOL    HW114909   0.459   2.470   0.588
 4670SOL    HW214910   0.308   2.519   0.627
 4671SOL     OW14911   0.840   3.728   1.101
 4671SOL    HW114912   0.742   3.727   1.084
 4671SOL    HW214913   0.858   3.760   1.194
 4672SOL     OW14914   2.534   3.847   6.959
 4672SOL    HW114915   2.625   3.826   6.922
 4672SOL    HW214916   2.516   3.945   6.946
 4673SOL     OW14917   5.931   0.453   0.135
 4673SOL    HW114918   5.834   0.476   0.129
 4673SOL    HW214919   5.979   0.495   0.057
 4674SOL     OW14920   1.592   2.132   0.764
 4674SOL    HW114921   1.666   2.115   0.699
 4674SOL    HW214922   1.610   2.082   0.849
 4675SOL     OW14923   2.220   5.928   0.124
 4675SOL    HW114924   2.239   5.944   0.220
 4675SOL    HW214925   2.283   5.858   0.089
 4676SOL     OW14926   0.244   6.090   4.168
 4676SOL    HW114927   0.271   5.999   4.200
 4676SOL    HW214928   0.295   6.160   4.219
 4677SOL     OW14929   4.613   0.282   6.381
 4677SOL    HW114930   4.700   0.255   6.340
 4677SOL    HW214931   4.561   0.339   6.318
 4678SOL     OW14932   2.232   4.641   6.527
 4678SOL    HW114933   2.312   4.675   6.576
 4678SOL    HW214934   2.259   4.614   6.434
 4679SOL     OW14935   3.031   0.985   5.975
 4679SOL    HW114936   3.093   1.013   6.048
 4679SOL    HW214937   3.083   0.947   5.899
 4680SOL     OW14938   1.782   4.676   0.511
 4680SOL    HW114939   1.770   4.602   0.445
 4680SOL    HW214940   1.741   4.651   0.598
 4681SOL     OW14941   0.693   5.743   5.027
 4681SOL    HW114942   0.696   5.843   5.029
 4681SOL    HW214943   0.640   5.709   5.104
 4682SOL     OW14944   4.107   6.593   0.739
 4682SOL    HW114945   4.153   6.681   0.729
 4682SOL    HW214946   4.010   6.604   0.721
 4683SOL     OW14947   6.485   4.463   3.568
 4683SOL    HW114948   6.511   4.559   3.578
 4683SOL    HW214949   6.568   4.406   3.570
 4684SOL     OW14950   1.719   0.687   4.637
 4684SOL    HW114951   1.733   0.691   4.736
 4684SOL    HW214952   1.626   0.657   4.617
 4685SOL     OW14953   5.147   4.797   5.005
 4685SOL    HW114954   5.190   4.808   4.916
 4685SOL    HW214955   5.071   4.861   5.014
 4686SOL     OW14956   3.823   5.888   0.044
 4686SOL    HW114957   3.846   5.928   0.133
 4686SOL    HW214958   3.824   5.788   0.051
 4687SOL     OW14959   6.124   6.094   4.643
 4687SOL    HW114960   6.171   6.083   4.556
 4687SOL    HW214961   6.051   6.162   4.634
 4688SOL     OW14962   0.534   2.065   6.533
 4688SOL    HW114963   0.476   1.991   6.501
 4688SOL    HW214964   0.630   2.043   6.513
 4689SOL     OW14965   1.059   5.858   5.126
 4689SOL    HW114966   1.044   5.761   5.143
 4689SOL    HW214967   1.137   5.869   5.065
 4690SOL     OW14968   1.657   2.215   6.763
 4690SOL    HW114969   1.645   2.268   6.678
 4690SOL    HW214970   1.584   2.239   6.827
 4691SOL     OW14971   2.597   5.453   0.700
 4691SOL    HW114972   2.678   5.431   0.754
 4691SOL    HW214973   2.625   5.481   0.608
 4692SOL     OW14974   0.486   5.276   3.435
 4692SOL    HW114975   0.432   5.288   3.352
 4692SOL    HW214976   0.517   5.365   3.468
 4693SOL     OW14977   0.439   1.389   3.629
 4693SOL    HW114978   0.533   1.371   3.603
 4693SOL    HW214979   0.396   1.304   3.660
 4694SOL     OW14980   1.015   2.245   6.242
 4694SOL    HW114981   1.037   2.220   6.147
 4694SOL    HW214982   1.086   2.211   6.303
 4695SOL     OW14983   3.473   3.113   2.015
 4695SOL    HW114984   3.519   3.199   1.991
 4695SOL    HW214985   3.387   3.106   1.965
 4696SOL     OW14986   0.087   3.278   6.767
 4696SOL    HW114987   0.090   3.181   6.792
 4696SOL    HW214988   0.042   3.288   6.678
 4697SOL     OW14989   0.694   5.234   0.072
 4697SOL    HW114990   0.597   5.208   0.079
 4697SOL    HW214991   0.749   5.152   0.054
 4698SOL     OW14992   5.555   3.089   1.009
 4698SOL    HW114993   5.632   3.072   0.947
 4698SOL    HW214994   5.507   3.172   0.979
 4699SOL     OW14995   0.072   0.410   3.372
 4699SOL    HW114996   0.026   0.426   3.459
 4699SOL    HW214997   0.171   0.424   3.383
 4700SOL     OW14998   4.887   0.825   0.963
 4700SOL    HW114999   4.823   0.875   0.904
 4700SOL    HW215000   4.876   0.726   0.947
 4701SOL     OW15001   0.840   0.997   1.286
 4701SOL    HW115002   0.936   0.977   1.305
 4701SOL    HW215003   0.791   0.911   1.268
 4702SOL     OW15004   3.248   4.109   0.388
 4702SOL    HW115005   3.205   4.132   0.476
 4702SOL    HW215006   3.181   4.069   0.327
 4703SOL     OW15007   2.176   0.731   1.594
 4703SOL    HW115008   2.144   0.713   1.688
 4703SOL    HW215009   2.108   0.696   1.529
 4704SOL     OW15010   5.064   6.708   0.543
 4704SOL    HW115011   5.003   6.774   0.499
 4704SOL    HW215012   5.152   6.751   0.563
 4705SOL     OW15013   3.246   3.718   4.528
 4705SOL    HW115014   3.259   3.645   4.461
 4705SOL    HW215015   3.150   3.723   4.554
 4706SOL     OW15016   3.843   5.766   0.568
 4706SOL    HW115017   3.912   5.838   0.569
 4706SOL    HW215018   3.877   5.687   0.620
 4707SOL     OW15019   2.412   5.936   1.121
 4707SOL    HW115020   2.388   5.859   1.062
 4707SOL    HW215021   2.419   6.019   1.065
 4708SOL     OW15022   2.399   2.539   2.056
 4708SOL    HW115023   2.439   2.613   2.110
 4708SOL    HW215024   2.304   2.525   2.083
 4709SOL     OW15025   3.954   4.459   5.962
 4709SOL    HW115026   3.871   4.502   5.997
 4709SOL    HW215027   4.033   4.495   6.012
 4710SOL     OW15028   5.185   1.596   0.707
 4710SOL    HW115029   5.202   1.683   0.660
 4710SOL    HW215030   5.270   1.563   0.747
 4711SOL     OW15031   3.273   0.507   2.377
 4711SOL    HW115032   3.317   0.577   2.320
 4711SOL    HW215033   3.242   0.432   2.320
 4712SOL     OW15034   2.018   4.849   0.632
 4712SOL    HW115035   2.083   4.773   0.642
 4712SOL    HW215036   1.930   4.814   0.601
 4713SOL     OW15037   1.833   5.615   1.040
 4713SOL    HW115038   1.741   5.576   1.047
 4713SOL    HW215039   1.881   5.575   0.962
 4714SOL     OW15040   3.172   2.576   0.911
 4714SOL    HW115041   3.251   2.629   0.943
 4714SOL    HW215042   3.155   2.501   0.975
 4715SOL     OW15043   6.608   3.574   3.501
 4715SOL    HW115044   6.604   3.639   3.577
 4715SOL    HW215045   6.560   3.490   3.526
 4716SOL     OW15046   3.317   5.982   0.851
 4716SOL    HW115047   3.301   6.041   0.930
 4716SOL    HW215048   3.285   5.889   0.872
 4717SOL     OW15049   1.979   5.923   3.814
 4717SOL    HW115050   1.893   5.871   3.820
 4717SOL    HW215051   1.976   5.985   3.736
 4718SOL     OW15052   5.843   1.273   5.767
 4718SOL    HW115053   5.861   1.326   5.850
 4718SOL    HW215054   5.857   1.331   5.687
 4719SOL     OW15055   4.339   2.802   1.151
 4719SOL    HW115056   4.289   2.740   1.211
 4719SOL    HW215057   4.397   2.863   1.206
 4720SOL     OW15058   2.734   0.791   4.815
 4720SOL    HW115059   2.668   0.726   4.853
 4720SOL    HW215060   2.742   0.776   4.716
 4721SOL     OW15061   1.222   2.112   1.547
 4721SOL    HW115062   1.315   2.099   1.582
 4721SOL    HW215063   1.191   2.204   1.568
 4722SOL     OW15064   2.198   0.402   0.438
 4722SOL    HW115065   2.185   0.303   0.438
 4722SOL    HW215066   2.113   0.447   0.410
 4723SOL     OW15067   2.350   6.824   6.747
 4723SOL    HW115068   2.348   6.859   6.841
 4723SOL    HW215069   2.386   6.895   6.686
 4724SOL     OW15070   4.391   6.197   1.464
 4724SOL    HW115071   4.435   6.221   1.550
 4724SOL    HW215072   4.433   6.248   1.390
 4725SOL     OW15073   5.296   6.167   3.048
 4725SOL    HW115074   5.235   6.155   3.127
 4725SOL    HW215075   5.391   6.162   3.079
 4726SOL     OW15076   0.164   5.150   6.741
 4726SOL    HW115077   0.113   5.201   6.672
 4726SOL    HW215078   0.238   5.208   6.776
 4727SOL     OW15079   0.623   6.119   0.172
 4727SOL    HW115080   0.713   6.157   0.152
 4727SOL    HW215081   0.553   6.170   0.121
 4728SOL     OW15082   0.063   0.865   0.002
 4728SOL    HW115083   0.031   0.928   6.956
 4728SOL    HW215084   0.160   0.846   7.012
 4729SOL     OW15085   3.466   0.636   1.599
 4729SOL    HW115086   3.399   0.634   1.524
 4729SOL    HW215087   3.490   0.542   1.625
 4730SOL     OW15088   1.864   0.148   5.614
 4730SOL    HW115089   1.849   0.062   5.566
 4730SOL    HW215090   1.960   0.174   5.605
 4731SOL     OW15091   5.541   1.521   5.488
 4731SOL    HW115092   5.467   1.460   5.460
 4731SOL    HW215093   5.627   1.469   5.494
 4732SOL     OW15094   0.090   1.816   0.333
 4732SOL    HW115095   0.040   1.782   0.412
 4732SOL    HW215096   0.027   1.860   0.270
 4733SOL     OW15097   6.715   3.030   3.469
 4733SOL    HW115098   6.750   3.112   3.424
 4733SOL    HW215099   6.792   2.974   3.502
 4734SOL     OW15100   4.134   4.304   6.895
 4734SOL    HW115101   4.061   4.307   6.827
 4734SOL    HW215102   4.203   4.238   6.867
 4735SOL     OW15103   1.074   4.999   3.259
 4735SOL    HW115104   1.068   5.096   3.233
 4735SOL    HW215105   1.034   4.943   3.187
 4736SOL     OW15106   1.118   0.728   0.804
 4736SOL    HW115107   1.183   0.729   0.880
 4736SOL    HW215108   1.028   0.700   0.838
 4737SOL     OW15109   2.452   5.244   1.814
 4737SOL    HW115110   2.500   5.282   1.893
 4737SOL    HW215111   2.399   5.316   1.768
 4738SOL     OW15112   6.928   6.133   2.394
 4738SOL    HW115113   6.951   6.149   2.490
 4738SOL    HW215114   6.997   6.176   2.336
 4739SOL     OW15115   4.660   0.526   0.908
 4739SOL    HW115116   4.665   0.558   1.002
 4739SOL    HW215117   4.728   0.574   0.853
 4740SOL     OW15118   0.730   1.906   3.172
 4740SOL    HW115119   0.766   1.826   3.220
 4740SOL    HW215120   0.630   1.899   3.166
 4741SOL     OW15121   4.097   3.798   1.824
 4741SOL    HW115122   4.125   3.833   1.735
 4741SOL    HW215123   4.052   3.871   1.876
 4742SOL     OW15124   3.156   6.661   0.781
 4742SOL    HW115125   3.167   6.747   0.731
 4742SOL    HW215126   3.113   6.678   0.869
 4743SOL     OW15127   2.170   5.069   1.338
 4743SOL    HW115128   2.249   5.128   1.319
 4743SOL    HW215129   2.117   5.109   1.413
 4744SOL     OW15130   2.400   5.863   0.832
 4744SOL    HW115131   2.490   5.829   0.860
 4744SOL    HW215132   2.329   5.804   0.871
 4745SOL     OW15133   1.039   4.558   0.251
 4745SOL    HW115134   0.980   4.498   0.197
 4745SOL    HW215135   1.131   4.519   0.254
 4746SOL     OW15136   4.801   5.566   4.169
 4746SOL    HW115137   4.711   5.549   4.210
 4746SOL    HW215138   4.828   5.488   4.113
 4747SOL     OW15139   1.220   1.997   0.302
 4747SOL    HW115140   1.203   1.981   0.400
 4747SOL    HW215141   1.161   1.938   0.247
 4748SOL     OW15142   1.664   6.811   2.967
 4748SOL    HW115143   1.632   6.904   2.948
 4748SOL    HW215144   1.750   6.815   3.017
 4749SOL     OW15145   2.135   1.311   6.423
 4749SOL    HW115146   2.157   1.221   6.385
 4749SOL    HW215147   2.180   1.321   6.512
 4750SOL     OW15148   4.747   2.678   5.533
 4750SOL    HW115149   4.845   2.689   5.521
 4750SOL    HW215150   4.700   2.708   5.450
 4751SOL     OW15151   4.434   0.560   3.182
 4751SOL    HW115152   4.435   0.470   3.226
 4751SOL    HW215153   4.523   0.604   3.195
 4752SOL     OW15154   4.618   1.639   0.175
 4752SOL    HW115155   4.616   1.560   0.113
 4752SOL    HW215156   4.531   1.688   0.168
 4753SOL     OW15157   3.327   6.088   5.073
 4753SOL    HW115158   3.280   6.063   4.989
 4753SOL    HW215159   3.272   6.060   5.152
 4754SOL     OW15160   4.933   5.178   6.457
 4754SOL    HW115161   4.962   5.106   6.519
 4754SOL    HW215162   4.886   5.138   6.378
 4755SOL     OW15163   1.536   0.929   1.422
 4755SOL    HW115164   1.492   0.907   1.335
 4755SOL    HW215165   1.565   1.025   1.422
 4756SOL     OW15166   6.119   3.952   6.638
 4756SOL    HW115167   6.113   4.052   6.638
 4756SOL    HW215168   6.207   3.924   6.600
 4757SOL     OW15169   2.025   3.855   1.452
 4757SOL    HW115170   2.121   3.880   1.439
 4757SOL    HW215171   1.969   3.894   1.379
 4758SOL     OW15172   3.117   6.176   3.176
 4758SOL    HW115173   3.181   6.232   3.123
 4758SOL    HW215174   3.112   6.211   3.270
 4759SOL     OW15175   0.716   5.321   1.528
 4759SOL    HW115176   0.814   5.341   1.536
 4759SOL    HW215177   0.664   5.406   1.534
 4760SOL     OW15178   1.111   6.299   1.298
 4760SOL    HW115179   1.136   6.329   1.206
 4760SOL    HW215180   1.183   6.240   1.335
 4761SOL     OW15181   6.564   6.441   1.597
 4761SOL    HW115182   6.525   6.369   1.655
 4761SOL    HW215183   6.632   6.401   1.536
 4762SOL     OW15184   1.728   0.242   1.950
 4762SOL    HW115185   1.716   0.284   1.860
 4762SOL    HW215186   1.649   0.184   1.971
 4763SOL     OW15187   5.491   4.601   1.726
 4763SOL    HW115188   5.457   4.684   1.769
 4763SOL    HW215189   5.579   4.575   1.767
 4764SOL     OW15190   4.474   3.073   0.309
 4764SOL    HW115191   4.524   3.108   0.388
 4764SOL    HW215192   4.383   3.116   0.306
 4765SOL     OW15193   3.744   1.712   4.247
 4765SOL    HW115194   3.727   1.643   4.318
 4765SOL    HW215195   3.843   1.721   4.232
 4766SOL     OW15196   0.558   0.060   4.213
 4766SOL    HW115197   0.483   0.126   4.219
 4766SOL    HW215198   0.623   0.077   4.287
 4767SOL     OW15199   1.533   4.659   3.948
 4767SOL    HW115200   1.587   4.596   3.891
 4767SOL    HW215201   1.445   4.676   3.903
 4768SOL     OW15202   4.085   2.873   6.941
 4768SOL    HW115203   4.107   2.968   6.965
 4768SOL    HW215204   4.159   2.813   6.972
 4769SOL     OW15205   2.250   4.697   0.614
 4769SOL    HW115206   2.308   4.732   0.540
 4769SOL    HW215207   2.281   4.734   0.701
 4770SOL     OW15208   1.006   1.565   5.530
 4770SOL    HW115209   0.965   1.513   5.605
 4770SOL    HW215210   0.944   1.640   5.505
 4771SOL     OW15211   1.957   6.652   5.055
 4771SOL    HW115212   1.890   6.614   4.992
 4771SOL    HW215213   2.022   6.709   5.005
 4772SOL     OW15214   2.786   5.018   2.000
 4772SOL    HW115215   2.840   5.097   2.028
 4772SOL    HW215216   2.846   4.940   1.985
 4773SOL     OW15217   2.041   5.019   4.793
 4773SOL    HW115218   2.051   4.943   4.857
 4773SOL    HW215219   2.049   5.106   4.843
 4774SOL     OW15220   1.374   4.166   6.993
 4774SOL    HW115221   1.426   4.194   6.912
 4774SOL    HW215222   1.333   4.077   6.977
 4775SOL     OW15223   6.384   6.235   5.324
 4775SOL    HW115224   6.454   6.300   5.350
 4775SOL    HW215225   6.362   6.246   5.227
 4776SOL     OW15226   0.214   1.144   6.250
 4776SOL    HW115227   0.251   1.231   6.217
 4776SOL    HW215228   0.187   1.153   6.346
 4777SOL     OW15229   1.053   6.891   2.488
 4777SOL    HW115230   1.005   6.872   2.573
 4777SOL    HW215231   1.130   6.828   2.478
 4778SOL     OW15232   1.157   1.488   6.397
 4778SOL    HW115233   1.229   1.557   6.408
 4778SOL    HW215234   1.199   1.398   6.385
 4779SOL     OW15235   5.509   0.207   4.223
 4779SOL    HW115236   5.456   0.262   4.288
 4779SOL    HW215237   5.467   0.117   4.212
 4780SOL     OW15238   6.048   2.851   4.866
 4780SOL    HW115239   5.981   2.861   4.939
 4780SOL    HW215240   6.028   2.769   4.813
 4781SOL     OW15241   2.016   5.877   2.450
 4781SOL    HW115242   2.113   5.860   2.432
 4781SOL    HW215243   2.006   5.963   2.500
 4782SOL     OW15244   6.828   6.631   4.095
 4782SOL    HW115245   6.854   6.705   4.033
 4782SOL    HW215246   6.891   6.628   4.172
 4783SOL     OW15247   6.104   3.805   7.009
 4783SOL    HW115248   6.043   3.806   6.930
 4783SOL    HW215249   6.199   3.807   6.977
 4784SOL     OW15250   5.160   3.173   6.828
 4784SOL    HW115251   5.152   3.271   6.811
 4784SOL    HW215252   5.165   3.124   6.741
 4785SOL     OW15253   0.113   6.481   4.464
 4785SOL    HW115254   0.130   6.480   4.563
 4785SOL    HW215255   0.200   6.484   4.415
 4786SOL     OW15256   1.850   5.792   0.243
 4786SOL    HW115257   1.770   5.849   0.223
 4786SOL    HW215258   1.902   5.835   0.317
 4787SOL     OW15259   3.335   1.426   3.799
 4787SOL    HW115260   3.402   1.406   3.871
 4787SOL    HW215261   3.358   1.373   3.717
 4788SOL     OW15262   6.216   6.189   0.436
 4788SOL    HW115263   6.273   6.201   0.518
 4788SOL    HW215264   6.152   6.114   0.451
 4789SOL     OW15265   6.042   1.130   2.960
 4789SOL    HW115266   5.945   1.128   2.984
 4789SOL    HW215267   6.056   1.089   2.870
 4790SOL     OW15268   6.630   1.906   5.000
 4790SOL    HW115269   6.622   1.978   4.931
 4790SOL    HW215270   6.642   1.817   4.955
 4791SOL     OW15271   0.060   0.683   0.407
 4791SOL    HW115272   0.151   0.716   0.381
 4791SOL    HW215273   0.035   0.720   0.496
 4792SOL     OW15274   2.240   2.975   2.768
 4792SOL    HW115275   2.236   3.062   2.817
 4792SOL    HW215276   2.211   2.988   2.673
 4793SOL     OW15277   0.753   3.724   5.797
 4793SOL    HW115278   0.823   3.790   5.769
 4793SOL    HW215279   0.788   3.631   5.786
 4794SOL     OW15280   4.307   1.575   4.649
 4794SOL    HW115281   4.276   1.482   4.629
 4794SOL    HW215282   4.407   1.579   4.642
 4795SOL     OW15283   6.862   0.868   6.237
 4795SOL    HW115284   6.931   0.802   6.264
 4795SOL    HW215285   6.790   0.822   6.184
 4796SOL     OW15286   4.459   0.941   5.129
 4796SOL    HW115287   4.437   0.870   5.195
 4796SOL    HW215288   4.548   0.922   5.087
 4797SOL     OW15289   1.172   5.081   5.286
 4797SOL    HW115290   1.224   5.121   5.210
 4797SOL    HW215291   1.202   5.121   5.372
 4798SOL     OW15292   4.025   5.083   6.735
 4798SOL    HW115293   3.950   5.026   6.770
 4798SOL    HW215294   4.111   5.033   6.744
 4799SOL     OW15295   3.359   2.994   0.283
 4799SOL    HW115296   3.378   2.923   0.215
 4799SOL    HW215297   3.402   3.080   0.254
 4800SOL     OW15298   1.090   4.284   0.405
 4800SOL    HW115299   1.090   4.357   0.473
 4800SOL    HW215300   1.155   4.213   0.432
 4801SOL     OW15301   5.508   2.780   1.526
 4801SOL    HW115302   5.460   2.805   1.610
 4801SOL    HW215303   5.465   2.827   1.448
 4802SOL     OW15304   6.481   0.071   4.024
 4802SOL    HW115305   6.532   0.099   4.106
 4802SOL    HW215306   6.544   0.065   3.947
 4803SOL     OW15307   4.968   4.182   6.070
 4803SOL    HW115308   4.882   4.225   6.042
 4803SOL    HW215309   5.027   4.250   6.113
 4804SOL     OW15310   4.879   1.552   1.319
 4804SOL    HW115311   4.867   1.630   1.257
 4804SOL    HW215312   4.937   1.579   1.396
 4805SOL     OW15313   6.656   0.950   6.958
 4805SOL    HW115314   6.559   0.940   6.984
 4805SOL    HW215315   6.695   1.028   7.006
 4806SOL     OW15316   1.097   1.174   3.247
 4806SOL    HW115317   1.009   1.127   3.242
 4806SOL    HW215318   1.083   1.267   3.282
 4807SOL     OW15319   0.341   3.594   5.643
 4807SOL    HW115320   0.396   3.609   5.561
 4807SOL    HW215321   0.244   3.591   5.618
 4808SOL     OW15322   4.094   5.440   1.658
 4808SOL    HW115323   4.159   5.369   1.630
 4808SOL    HW215324   4.142   5.510   1.712
 4809SOL     OW15325   3.633   4.278   1.242
 4809SOL    HW115326   3.541   4.283   1.279
 4809SOL    HW215327   3.662   4.182   1.239
 4810SOL     OW15328   0.351   4.840   3.930
 4810SOL    HW115329   0.434   4.887   3.961
 4810SOL    HW215330   0.371   4.791   3.845
 4811SOL     OW15331   3.214   4.104   4.110
 4811SOL    HW115332   3.146   4.168   4.146
 4811SOL    HW215333   3.201   4.091   4.012
 4812SOL     OW15334   1.030   0.210   2.395
 4812SOL    HW115335   0.987   0.123   2.421
 4812SOL    HW215336   1.109   0.227   2.455
 4813SOL     OW15337   6.445   1.692   5.893
 4813SOL    HW115338   6.352   1.658   5.909
 4813SOL    HW215339   6.448   1.742   5.807
 4814SOL     OW15340   6.257   4.066   1.653
 4814SOL    HW115341   6.334   4.020   1.697
 4814SOL    HW215342   6.258   4.163   1.678
 4815SOL     OW15343   5.682   5.045   1.922
 4815SOL    HW115344   5.693   4.964   1.864
 4815SOL    HW215345   5.643   5.119   1.868
 4816SOL     OW15346   2.110   1.027   2.371
 4816SOL    HW115347   2.012   1.044   2.375
 4816SOL    HW215348   2.155   1.074   2.447
 4817SOL     OW15349   4.014   2.310   0.503
 4817SOL    HW115350   4.084   2.247   0.470
 4817SOL    HW215351   4.058   2.384   0.554
 4818SOL     OW15352   4.028   0.412   5.714
 4818SOL    HW115353   4.031   0.321   5.757
 4818SOL    HW215354   3.958   0.468   5.759
 4819SOL     OW15355   3.302   0.574   1.397
 4819SOL    HW115356   3.253   0.542   1.316
 4819SOL    HW215357   3.240   0.630   1.453
 4820SOL     OW15358   5.784   4.306   1.975
 4820SOL    HW115359   5.738   4.217   1.981
 4820SOL    HW215360   5.813   4.322   1.880
 4821SOL     OW15361   0.095   4.542   1.509
 4821SOL    HW115362   0.003   4.575   1.532
 4821SOL    HW215363   0.153   4.548   1.590
 4822SOL     OW15364   1.879   4.050   2.742
 4822SOL    HW115365   1.821   4.112   2.795
 4822SOL    HW215366   1.872   3.957   2.778
 4823SOL     OW15367   1.414   1.085   4.501
 4823SOL    HW115368   1.509   1.065   4.526
 4823SOL    HW215369   1.367   1.000   4.476
 4824SOL     OW15370   5.272   3.102   1.800
 4824SOL    HW115371   5.202   3.104   1.729
 4824SOL    HW215372   5.228   3.114   1.890
 4825SOL     OW15373   0.572   3.117   3.364
 4825SOL    HW115374   0.657   3.064   3.361
 4825SOL    HW215375   0.494   3.055   3.368
 4826SOL     OW15376   6.201   6.331   6.922
 4826SOL    HW115377   6.156   6.251   6.883
 4826SOL    HW215378   6.176   6.339   7.019
 4827SOL     OW15379   5.800   0.892   1.395
 4827SOL    HW115380   5.748   0.810   1.371
 4827SOL    HW215381   5.858   0.874   1.474
 4828SOL     OW15382   5.497   3.696   0.446
 4828SOL    HW115383   5.516   3.733   0.538
 4828SOL    HW215384   5.509   3.597   0.447
 4829SOL     OW15385   2.959   0.633   5.811
 4829SOL    HW115386   2.905   0.710   5.843
 4829SOL    HW215387   3.044   0.627   5.864
 4830SOL     OW15388   3.985   0.259   4.962
 4830SOL    HW115389   3.994   0.345   5.012
 4830SOL    HW215390   3.941   0.277   4.874
 4831SOL     OW15391   6.264   4.005   5.919
 4831SOL    HW115392   6.353   4.034   5.882
 4831SOL    HW215393   6.271   3.910   5.950
 4832SOL     OW15394   2.356   3.659   6.795
 4832SOL    HW115395   2.410   3.732   6.835
 4832SOL    HW215396   2.414   3.600   6.739
 4833SOL     OW15397   5.250   1.820   3.111
 4833SOL    HW115398   5.311   1.820   3.191
 4833SOL    HW215399   5.292   1.765   3.038
 4834SOL     OW15400   5.472   0.862   2.418
 4834SOL    HW115401   5.525   0.837   2.337
 4834SOL    HW215402   5.467   0.783   2.479
 4835SOL     OW15403   2.293   0.675   6.529
 4835SOL    HW115404   2.329   0.617   6.602
 4835SOL    HW215405   2.208   0.719   6.561
 4836SOL     OW15406   5.266   2.341   3.658
 4836SOL    HW115407   5.206   2.358   3.579
 4836SOL    HW215408   5.332   2.416   3.665
 4837SOL     OW15409   1.256   3.761   0.318
 4837SOL    HW115410   1.193   3.811   0.258
 4837SOL    HW215411   1.322   3.711   0.263
 4838SOL     OW15412   2.583   5.690   2.517
 4838SOL    HW115413   2.568   5.607   2.572
 4838SOL    HW215414   2.576   5.667   2.420
 4839SOL     OW15415   0.444   6.304   6.743
 4839SOL    HW115416   0.373   6.329   6.809
 4839SOL    HW215417   0.459   6.205   6.746
 4840SOL     OW15418   0.079   6.500   0.477
 4840SOL    HW115419   0.037   6.585   0.447
 4840SOL    HW215420   0.013   6.446   0.529
 4841SOL     OW15421   2.767   5.708   2.034
 4841SOL    HW115422   2.823   5.769   2.091
 4841SOL    HW215423   2.827   5.648   1.982
 4842SOL     OW15424   4.264   5.718   1.276
 4842SOL    HW115425   4.185   5.690   1.330
 4842SOL    HW215426   4.235   5.743   1.184
 4843SOL     OW15427   0.140   3.201   0.047
 4843SOL    HW115428   0.226   3.219   0.095
 4843SOL    HW215429   0.140   3.107   0.013
 4844SOL     OW15430   6.104   1.912   5.979
 4844SOL    HW115431   6.081   1.821   5.944
 4844SOL    HW215432   6.193   1.907   6.026
 4845SOL     OW15433   6.306   5.611   3.831
 4845SOL    HW115434   6.285   5.557   3.750
 4845SOL    HW215435   6.222   5.650   3.868
 4846SOL     OW15436   1.358   4.215   0.842
 4846SOL    HW115437   1.370   4.197   0.939
 4846SOL    HW215438   1.261   4.234   0.824
 4847SOL     OW15439   4.112   2.224   4.557
 4847SOL    HW115440   4.090   2.159   4.485
 4847SOL    HW215441   4.148   2.308   4.516
 4848SOL     OW15442   2.760   2.357   2.745
 4848SOL    HW115443   2.763   2.265   2.782
 4848SOL    HW215444   2.845   2.377   2.697
 4849SOL     OW15445   1.488   6.633   0.350
 4849SOL    HW115446   1.436   6.548   0.339
 4849SOL    HW215447   1.575   6.625   0.300
 4850SOL     OW15448   4.260   0.440   2.136
 4850SOL    HW115449   4.337   0.496   2.166
 4850SOL    HW215450   4.221   0.478   2.053
 4851SOL     OW15451   5.266   6.237   4.835
 4851SOL    HW115452   5.333   6.218   4.907
 4851SOL    HW215453   5.194   6.167   4.836
 4852SOL     OW15454   1.795   1.155   6.963
 4852SOL    HW115455   1.748   1.092   6.902
 4852SOL    HW215456   1.831   1.105   0.018
 4853SOL     OW15457   3.123   1.818   2.168
 4853SOL    HW115458   3.215   1.780   2.167
 4853SOL    HW215459   3.127   1.918   2.160
 4854SOL     OW15460   4.979   6.921   1.503
 4854SOL    HW115461   4.917   6.973   1.444
 4854SOL    HW215462   5.070   6.919   1.463
 4855SOL     OW15463   0.357   2.304   2.334
 4855SOL    HW115464   0.292   2.310   2.411
 4855SOL    HW215465   0.399   2.394   2.320
 4856SOL     OW15466   2.677   4.746   3.515
 4856SOL    HW115467   2.651   4.653   3.490
 4856SOL    HW215468   2.725   4.744   3.603
 4857SOL     OW15469   6.610   1.971   6.185
 4857SOL    HW115470   6.639   1.890   6.133
 4857SOL    HW215471   6.669   2.048   6.161
 4858SOL     OW15472   1.359   1.384   3.862
 4858SOL    HW115473   1.371   1.342   3.952
 4858SOL    HW215474   1.446   1.381   3.812
 4859SOL     OW15475   2.624   5.807   4.636
 4859SOL    HW115476   2.588   5.900   4.642
 4859SOL    HW215477   2.620   5.763   4.726
 4860SOL     OW15478   4.401   5.030   1.023
 4860SOL    HW115479   4.324   5.059   0.966
 4860SOL    HW215480   4.366   4.981   1.103
 4861SOL     OW15481   5.328   3.789   5.065
 4861SOL    HW115482   5.335   3.744   4.976
 4861SOL    HW215483   5.412   3.774   5.117
 4862SOL     OW15484   1.193   6.489   2.249
 4862SOL    HW115485   1.208   6.535   2.337
 4862SOL    HW215486   1.243   6.403   2.248
 4863SOL     OW15487   6.086   4.255   6.713
 4863SOL    HW115488   6.030   4.338   6.719
 4863SOL    HW215489   6.181   4.277   6.737
 4864SOL     OW15490   2.602   1.114   3.259
 4864SOL    HW115491   2.654   1.079   3.181
 4864SOL    HW215492   2.620   1.213   3.269
 4865SOL     OW15493   2.253   6.305   4.729
 4865SOL    HW115494   2.174   6.360   4.702
 4865SOL    HW215495   2.334   6.363   4.735
 4866SOL     OW15496   6.775   3.913   0.132
 4866SOL    HW115497   6.786   3.866   0.219
 4866SOL    HW215498   6.719   3.858   0.071
 4867SOL     OW15499   5.263   0.222   2.691
 4867SOL    HW115500   5.166   0.197   2.691
 4867SOL    HW215501   5.275   0.313   2.652
 4868SOL     OW15502   6.714   4.627   0.884
 4868SOL    HW115503   6.722   4.567   0.804
 4868SOL    HW215504   6.737   4.575   0.966
 4869SOL     OW15505   0.569   1.122   0.292
 4869SOL    HW115506   0.616   1.080   0.369
 4869SOL    HW215507   0.629   1.189   0.249
 4870SOL     OW15508   0.676   5.806   2.078
 4870SOL    HW115509   0.643   5.866   2.005
 4870SOL    HW215510   0.775   5.794   2.069
 4871SOL     OW15511   1.288   1.724   4.434
 4871SOL    HW115512   1.323   1.817   4.446
 4871SOL    HW215513   1.359   1.658   4.457
 4872SOL     OW15514   5.549   6.938   3.641
 4872SOL    HW115515   5.613   6.953   3.716
 4872SOL    HW215516   5.490   7.018   3.631
 4873SOL     OW15517   6.721   5.853   5.762
 4873SOL    HW115518   6.809   5.896   5.781
 4873SOL    HW215519   6.671   5.908   5.695
 4874SOL     OW15520   4.967   2.742   3.107
 4874SOL    HW115521   4.893   2.786   3.160
 4874SOL    HW215522   4.951   2.643   3.104
 4875SOL     OW15523   5.599   6.644   5.303
 4875SOL    HW115524   5.538   6.720   5.326
 4875SOL    HW215525   5.693   6.668   5.326
 4876SOL     OW15526   2.126   1.070   2.829
 4876SOL    HW115527   2.043   1.115   2.861
 4876SOL    HW215528   2.183   1.136   2.780
 4877SOL     OW15529   0.074   2.199   4.968
 4877SOL    HW115530   0.139   2.126   4.988
 4877SOL    HW215531   0.124   2.284   4.952
 4878SOL     OW15532   1.328   2.658   2.770
 4878SOL    HW115533   1.238   2.617   2.761
 4878SOL    HW215534   1.376   2.653   2.682
 4879SOL     OW15535   5.444   1.784   3.303
 4879SOL    HW115536   5.468   1.691   3.330
 4879SOL    HW215537   5.491   1.808   3.218
 4880SOL     OW15538   6.043   2.570   6.439
 4880SOL    HW115539   5.992   2.499   6.489
 4880SOL    HW215540   6.101   2.527   6.370
 4881SOL     OW15541   1.483   3.347   1.758
 4881SOL    HW115542   1.422   3.392   1.822
 4881SOL    HW215543   1.431   3.282   1.702
 4882SOL     OW15544   4.627   2.478   4.708
 4882SOL    HW115545   4.544   2.448   4.756
 4882SOL    HW215546   4.640   2.424   4.626
 4883SOL     OW15547   6.467   3.939   1.756
 4883SOL    HW115548   6.559   3.977   1.768
 4883SOL    HW215549   6.458   3.855   1.809
 4884SOL     OW15550   2.305   6.592   1.675
 4884SOL    HW115551   2.378   6.647   1.634
 4884SOL    HW215552   2.291   6.621   1.770
 4885SOL     OW15553   1.074   4.384   0.646
 4885SOL    HW115554   1.064   4.297   0.695
 4885SOL    HW215555   1.136   4.444   0.696
 4886SOL     OW15556   2.974   1.453   2.298
 4886SOL    HW115557   2.958   1.498   2.210
 4886SOL    HW215558   3.058   1.489   2.339
 4887SOL     OW15559   0.075   6.928   1.477
 4887SOL    HW115560   0.069   6.829   1.488
 4887SOL    HW215561   0.077   6.972   1.567
 4888SOL     OW15562   3.690   6.260   3.057
 4888SOL    HW115563   3.616   6.262   2.989
 4888SOL    HW215564   3.775   6.289   3.014
 4889SOL     OW15565   6.934   2.884   3.565
 4889SOL    HW115566   7.001   2.810   3.554
 4889SOL    HW215567   6.963   2.943   3.640
 4890SOL     OW15568   0.644   1.615   4.823
 4890SOL    HW115569   0.712   1.543   4.808
 4890SOL    HW215570   0.660   1.690   4.759
 4891SOL     OW15571   2.791   5.653   6.210
 4891SOL    HW115572   2.763   5.659   6.306
 4891SOL    HW215573   2.752   5.729   6.159
 4892SOL     OW15574   5.266   6.164   2.780
 4892SOL    HW115575   5.276   6.185   2.877
 4892SOL    HW215576   5.351   6.123   2.746
 4893SOL     OW15577   0.495   3.286   1.994
 4893SOL    HW115578   0.452   3.373   2.019
 4893SOL    HW215579   0.425   3.215   1.986
 4894SOL     OW15580   4.693   6.756   1.979
 4894SOL    HW115581   4.787   6.741   1.949
 4894SOL    HW215582   4.666   6.851   1.959
 4895SOL     OW15583   6.793   4.601   4.190
 4895SOL    HW115584   6.767   4.650   4.273
 4895SOL    HW215585   6.758   4.650   4.110
 4896SOL     OW15586   2.020   4.916   4.003
 4896SOL    HW115587   2.116   4.888   4.007
 4896SOL    HW215588   1.962   4.839   4.028
 4897SOL     OW15589   2.158   6.366   5.556
 4897SOL    HW115590   2.212   6.291   5.517
 4897SOL    HW215591   2.073   6.375   5.505
 4898SOL     OW15592   4.185   1.859   3.987
 4898SOL    HW115593   4.215   1.948   4.020
 4898SOL    HW215594   4.197   1.791   4.059
 4899SOL     OW15595   6.929   4.947   1.650
 4899SOL    HW115596   6.884   4.991   1.729
 4899SOL    HW215597   6.901   4.852   1.645
 4900SOL     OW15598   3.765   6.167   5.738
 4900SOL    HW115599   3.820   6.122   5.810
 4900SOL    HW215600   3.819   6.239   5.695
 4901SOL     OW15601   6.945   1.150   6.226
 4901SOL    HW115602   0.019   1.132   6.236
 4901SOL    HW215603   6.897   1.064   6.208
 4902SOL     OW15604   1.862   0.465   5.783
 4902SOL    HW115605   1.900   0.488   5.873
 4902SOL    HW215606   1.882   0.369   5.763
 4903SOL     OW15607   5.248   5.034   1.909
 4903SOL    HW115608   5.302   5.114   1.935
 4903SOL    HW215609   5.178   5.061   1.843
 4904SOL     OW15610   1.954   0.542   0.413
 4904SOL    HW115611   1.910   0.466   0.366
 4904SOL    HW215612   1.892   0.620   0.417
 4905SOL     OW15613   3.134   6.602   2.293
 4905SOL    HW115614   3.219   6.648   2.317
 4905SOL    HW215615   3.110   6.623   2.199
 4906SOL     OW15616   5.160   3.275   4.942
 4906SOL    HW115617   5.095   3.351   4.936
 4906SOL    HW215618   5.127   3.208   5.007
 4907SOL     OW15619   4.744   1.437   6.410
 4907SOL    HW115620   4.658   1.451   6.458
 4907SOL    HW215621   4.816   1.492   6.453
 4908SOL     OW15622   4.091   6.727   6.998
 4908SOL    HW115623   4.019   6.786   6.962
 4908SOL    HW215624   4.107   6.749   0.070
 4909SOL     OW15625   5.554   4.679   4.285
 4909SOL    HW115626   5.564   4.758   4.225
 4909SOL    HW215627   5.637   4.623   4.281
 4910SOL     OW15628   4.764   1.417   5.563
 4910SOL    HW115629   4.691   1.485   5.559
 4910SOL    HW215630   4.851   1.462   5.578
 4911SOL     OW15631   0.194   2.113   1.935
 4911SOL    HW115632   0.192   2.040   2.003
 4911SOL    HW215633   0.274   2.101   1.876
 4912SOL     OW15634   6.013   2.169   4.232
 4912SOL    HW115635   5.968   2.213   4.154
 4912SOL    HW215636   6.014   2.231   4.309
 4913SOL     OW15637   6.466   2.850   5.673
 4913SOL    HW115638   6.500   2.815   5.760
 4913SOL    HW215639   6.491   2.946   5.664
 4914SOL     OW15640   4.753   0.313   3.607
 4914SOL    HW115641   4.829   0.248   3.608
 4914SOL    HW215642   4.758   0.368   3.524
 4915SOL     OW15643   3.842   5.422   5.798
 4915SOL    HW115644   3.773   5.350   5.790
 4915SOL    HW215645   3.933   5.381   5.792
 4916SOL     OW15646   6.376   2.065   3.889
 4916SOL    HW115647   6.397   2.153   3.932
 4916SOL    HW215648   6.453   2.002   3.901
 4917SOL     OW15649   4.803   6.867   0.714
 4917SOL    HW115650   4.874   6.935   0.693
 4917SOL    HW215651   4.726   6.880   0.651
 4918SOL     OW15652   6.406   5.498   2.428
 4918SOL    HW115653   6.490   5.512   2.376
 4918SOL    HW215654   6.392   5.401   2.443
 4919SOL     OW15655   3.662   4.143   2.472
 4919SOL    HW115656   3.562   4.146   2.462
 4919SOL    HW215657   3.688   4.176   2.562
 4920SOL     OW15658   5.826   0.760   5.294
 4920SOL    HW115659   5.860   0.738   5.385
 4920SOL    HW215660   5.899   0.745   5.227
 4921SOL     OW15661   0.208   0.036   2.363
 4921SOL    HW115662   0.126   0.089   2.382
 4921SOL    HW215663   0.236   7.012   2.446
 4922SOL     OW15664   3.680   2.258   6.500
 4922SOL    HW115665   3.716   2.182   6.445
 4922SOL    HW215666   3.584   2.239   6.523
 4923SOL     OW15667   3.886   1.656   2.606
 4923SOL    HW115668   3.817   1.684   2.673
 4923SOL    HW215669   3.871   1.705   2.520
 4924SOL     OW15670   2.472   0.613   5.464
 4924SOL    HW115671   2.439   0.550   5.534
 4924SOL    HW215672   2.449   0.578   5.373
 4925SOL     OW15673   5.419   5.963   3.694
 4925SOL    HW115674   5.427   5.929   3.600
 4925SOL    HW215675   5.337   5.925   3.736
 4926SOL     OW15676   5.472   2.364   0.652
 4926SOL    HW115677   5.552   2.340   0.707
 4926SOL    HW215678   5.477   2.316   0.564
 4927SOL     OW15679   3.623   1.706   6.510
 4927SOL    HW115680   3.554   1.777   6.496
 4927SOL    HW215681   3.699   1.743   6.562
 4928SOL     OW15682   0.277   2.021   0.152
 4928SOL    HW115683   0.248   1.960   0.225
 4928SOL    HW215684   0.261   2.116   0.180
 4929SOL     OW15685   0.525   6.801   5.025
 4929SOL    HW115686   0.433   6.815   5.061
 4929SOL    HW215687   0.585   6.875   5.056
 4930SOL     OW15688   5.308   6.381   2.484
 4930SOL    HW115689   5.342   6.393   2.577
 4930SOL    HW215690   5.324   6.464   2.431
 4931SOL     OW15691   6.276   5.865   0.874
 4931SOL    HW115692   6.183   5.895   0.852
 4931SOL    HW215693   6.294   5.777   0.830
 4932SOL     OW15694   2.935   3.380   1.877
 4932SOL    HW115695   2.901   3.355   1.967
 4932SOL    HW215696   2.865   3.361   1.808
 4933SOL     OW15697   2.992   6.244   5.366
 4933SOL    HW115698   2.940   6.159   5.355
 4933SOL    HW215699   3.013   6.282   5.276
 4934SOL     OW15700   3.774   4.899   3.035
 4934SOL    HW115701   3.751   4.909   2.938
 4934SOL    HW215702   3.872   4.890   3.045
 4935SOL     OW15703   0.429   0.944   6.266
 4935SOL    HW115704   0.430   0.875   6.338
 4935SOL    HW215705   0.346   0.999   6.273
 4936SOL     OW15706   2.808   3.621   0.700
 4936SOL    HW115707   2.825   3.523   0.706
 4936SOL    HW215708   2.886   3.667   0.658
 4937SOL     OW15709   4.480   2.665   5.084
 4937SOL    HW115710   4.395   2.697   5.042
 4937SOL    HW215711   4.546   2.644   5.012
 4938SOL     OW15712   4.325   5.867   5.830
 4938SOL    HW115713   4.419   5.900   5.832
 4938SOL    HW215714   4.315   5.797   5.760
 4939SOL     OW15715   4.600   2.980   5.731
 4939SOL    HW115716   4.648   2.943   5.810
 4939SOL    HW215717   4.549   2.907   5.686
 4940SOL     OW15718   2.314   6.167   4.119
 4940SOL    HW115719   2.378   6.206   4.053
 4940SOL    HW215720   2.321   6.067   4.117
 4941SOL     OW15721   5.548   0.404   0.704
 4941SOL    HW115722   5.567   0.351   0.787
 4941SOL    HW215723   5.567   0.501   0.722
 4942SOL     OW15724   4.789   3.676   5.376
 4942SOL    HW115725   4.883   3.654   5.348
 4942SOL    HW215726   4.725   3.644   5.306
 4943SOL     OW15727   4.428   2.244   1.223
 4943SOL    HW115728   4.471   2.266   1.135
 4943SOL    HW215729   4.450   2.315   1.290
 4944SOL     OW15730   2.289   4.885   2.377
 4944SOL    HW115731   2.274   4.984   2.380
 4944SOL    HW215732   2.229   4.844   2.308
 4945SOL     OW15733   0.872   6.836   4.240
 4945SOL    HW115734   0.855   6.933   4.257
 4945SOL    HW215735   0.786   6.785   4.251
 4946SOL     OW15736   1.319   3.976   2.431
 4946SOL    HW115737   1.248   4.046   2.429
 4946SOL    HW215738   1.364   3.972   2.341
 4947SOL     OW15739   0.662   6.790   0.671
 4947SOL    HW115740   0.611   6.707   0.690
 4947SOL    HW215741   0.648   6.817   0.576
 4948SOL     OW15742   2.130   1.344   2.066
 4948SOL    HW115743   2.156   1.276   2.134
 4948SOL    HW215744   2.107   1.298   1.980
 4949SOL     OW15745   5.507   1.567   4.017
 4949SOL    HW115746   5.572   1.625   3.968
 4949SOL    HW215747   5.553   1.525   4.095
 4950SOL     OW15748   2.996   5.834   4.961
 4950SOL    HW115749   3.063   5.765   4.985
 4950SOL    HW215750   2.924   5.793   4.904
 4951SOL     OW15751   4.322   2.364   3.569
 4951SOL    HW115752   4.348   2.381   3.474
 4951SOL    HW215753   4.404   2.340   3.622
 4952SOL     OW15754   0.748   6.199   5.104
 4952SOL    HW115755   0.847   6.192   5.105
 4952SOL    HW215756   0.721   6.293   5.128
 4953SOL     OW15757   1.647   5.093   1.856
 4953SOL    HW115758   1.559   5.062   1.820
 4953SOL    HW215759   1.633   5.147   1.939
 4954SOL     OW15760   5.306   6.066   6.701
 4954SOL    HW115761   5.350   6.060   6.790
 4954SOL    HW215762   5.251   5.984   6.685
 4955SOL     OW15763   1.313   6.715   1.230
 4955SOL    HW115764   1.240   6.754   1.287
 4955SOL    HW215765   1.362   6.646   1.281
 4956SOL     OW15766   4.661   6.332   4.152
 4956SOL    HW115767   4.597   6.391   4.105
 4956SOL    HW215768   4.749   6.379   4.162
 4957SOL     OW15769   0.892   0.231   4.141
 4957SOL    HW115770   0.831   0.309   4.125
 4957SOL    HW215771   0.862   0.181   4.222
 4958SOL     OW15772   6.878   6.013   0.164
 4958SOL    HW115773   6.921   6.063   0.089
 4958SOL    HW215774   6.782   5.993   0.140
 4959SOL     OW15775   0.677   0.772   1.321
 4959SOL    HW115776   0.605   0.750   1.387
 4959SOL    HW215777   0.725   0.688   1.294
 4960SOL     OW15778   4.307   6.762   4.973
 4960SOL    HW115779   4.317   6.780   4.875
 4960SOL    HW215780   4.237   6.692   4.987
 4961SOL     OW15781   4.761   0.427   5.214
 4961SOL    HW115782   4.755   0.345   5.271
 4961SOL    HW215783   4.753   0.401   5.118
 4962SOL     OW15784   6.972   1.006   1.096
 4962SOL    HW115785   6.958   0.909   1.078
 4962SOL    HW215786   6.883   1.053   1.097
 4963SOL     OW15787   0.158   4.852   1.587
 4963SOL    HW115788   0.161   4.777   1.654
 4963SOL    HW215789   0.075   4.906   1.601
 4964SOL     OW15790   3.735   6.516   3.073
 4964SOL    HW115791   3.726   6.417   3.066
 4964SOL    HW215792   3.829   6.540   3.095
 4965SOL     OW15793   6.940   6.646   4.341
 4965SOL    HW115794   7.014   6.592   4.381
 4965SOL    HW215795   6.937   6.736   4.385
 4966SOL     OW15796   3.763   4.976   3.841
 4966SOL    HW115797   3.702   5.053   3.854
 4966SOL    HW215798   3.790   4.939   3.930
 4967SOL     OW15799   4.120   2.420   5.635
 4967SOL    HW115800   4.056   2.381   5.700
 4967SOL    HW215801   4.098   2.516   5.620
 4968SOL     OW15802   5.946   3.184   5.852
 4968SOL    HW115803   5.919   3.279   5.869
 4968SOL    HW215804   5.998   3.150   5.931
 4969SOL     OW15805   1.131   1.662   1.507
 4969SOL    HW115806   1.089   1.694   1.592
 4969SOL    HW215807   1.129   1.562   1.505
 4970SOL     OW15808   0.755   2.641   5.852
 4970SOL    HW115809   0.832   2.577   5.847
 4970SOL    HW215810   0.723   2.661   5.759
 4971SOL     OW15811   5.896   5.749   3.739
 4971SOL    HW115812   5.957   5.785   3.668
 4971SOL    HW215813   5.950   5.717   3.817
 4972SOL     OW15814   1.327   2.747   6.002
 4972SOL    HW115815   1.233   2.726   6.029
 4972SOL    HW215816   1.369   2.666   5.962
 4973SOL     OW15817   5.735   5.973   2.672
 4973SOL    HW115818   5.750   5.912   2.750
 4973SOL    HW215819   5.669   6.043   2.698
 4974SOL     OW15820   5.761   6.933   2.117
 4974SOL    HW115821   5.779   7.004   2.186
 4974SOL    HW215822   5.804   6.848   2.146
 4975SOL     OW15823   6.036   5.902   0.750
 4975SOL    HW115824   5.974   5.825   0.766
 4975SOL    HW215825   6.008   5.979   0.806
 4976SOL     OW15826   3.999   0.318   4.697
 4976SOL    HW115827   4.037   0.286   4.610
 4976SOL    HW215828   3.934   0.392   4.681
 4977SOL     OW15829   3.519   4.039   0.463
 4977SOL    HW115830   3.457   4.014   0.389
 4977SOL    HW215831   3.487   3.999   0.549
 4978SOL     OW15832   5.560   3.276   6.331
 4978SOL    HW115833   5.583   3.213   6.257
 4978SOL    HW215834   5.523   3.361   6.293
 4979SOL     OW15835   1.220   1.448   5.407
 4979SOL    HW115836   1.266   1.384   5.468
 4979SOL    HW215837   1.144   1.492   5.455
 4980SOL     OW15838   2.383   5.284   2.161
 4980SOL    HW115839   2.454   5.262   2.093
 4980SOL    HW215840   2.294   5.290   2.115
 4981SOL     OW15841   4.536   6.508   5.534
 4981SOL    HW115842   4.563   6.581   5.472
 4981SOL    HW215843   4.558   6.419   5.492
 4982SOL     OW15844   2.749   2.929   0.540
 4982SOL    HW115845   2.714   2.877   0.618
 4982SOL    HW215846   2.696   3.013   0.530
 4983SOL     OW15847   5.266   3.185   4.141
 4983SOL    HW115848   5.332   3.236   4.196
 4983SOL    HW215849   5.213   3.125   4.200
 4984SOL     OW15850   4.769   4.043   2.571
 4984SOL    HW115851   4.810   3.970   2.626
 4984SOL    HW215852   4.752   4.010   2.479
 4985SOL     OW15853   5.574   4.445   2.459
 4985SOL    HW115854   5.636   4.503   2.510
 4985SOL    HW215855   5.486   4.441   2.505
 4986SOL     OW15856   4.907   4.863   1.798
 4986SOL    HW115857   4.972   4.841   1.871
 4986SOL    HW215858   4.826   4.905   1.838
 4987SOL     OW15859   0.291   3.558   1.334
 4987SOL    HW115860   0.283   3.482   1.270
 4987SOL    HW215861   0.385   3.592   1.334
 4988SOL     OW15862   0.292   1.976   5.038
 4988SOL    HW115863   0.278   1.988   5.137
 4988SOL    HW215864   0.384   1.940   5.022
 4989SOL     OW15865   0.453   0.947   0.667
 4989SOL    HW115866   0.529   0.918   0.609
 4989SOL    HW215867   0.406   0.867   0.703
 4990SOL     OW15868   0.425   2.681   5.711
 4990SOL    HW115869   0.502   2.618   5.706
 4990SOL    HW215870   0.373   2.677   5.626
 4991SOL     OW15871   1.513   2.703   4.590
 4991SOL    HW115872   1.489   2.699   4.687
 4991SOL    HW215873   1.570   2.784   4.573
 4992SOL     OW15874   3.250   0.689   6.168
 4992SOL    HW115875   3.281   0.610   6.221
 4992SOL    HW215876   3.227   0.764   6.229
 4993SOL     OW15877   2.876   5.893   3.943
 4993SOL    HW115878   2.863   5.796   3.921
 4993SOL    HW215879   2.924   5.901   4.031
 4994SOL     OW15880   6.970   6.885   2.485
 4994SOL    HW115881   6.971   6.973   2.533
 4994SOL    HW215882   0.000   6.818   2.536
 4995SOL     OW15883   5.540   3.093   6.056
 4995SOL    HW115884   5.598   3.035   6.113
 4995SOL    HW215885   5.583   3.106   5.967
 4996SOL     OW15886   1.063   1.161   3.904
 4996SOL    HW115887   1.068   1.156   4.004
 4996SOL    HW215888   1.058   1.257   3.876
 4997SOL     OW15889   0.528   2.415   3.450
 4997SOL    HW115890   0.620   2.426   3.412
 4997SOL    HW215891   0.461   2.455   3.387
 4998SOL     OW15892   1.614   5.408   4.908
 4998SOL    HW115893   1.533   5.428   4.963
 4998SOL    HW215894   1.668   5.492   4.897
 4999SOL     OW15895   6.396   4.303   1.653
 4999SOL    HW115896   6.389   4.403   1.655
 4999SOL    HW215897   6.490   4.277   1.634
 5000SOL     OW15898   6.974   6.244   4.601
 5000SOL    HW115899   6.972   6.327   4.545
 5000SOL    HW215900   0.008   6.176   4.558
 5001SOL     OW15901   4.616   4.044   5.708
 5001SOL    HW115902   4.676   3.965   5.694
 5001SOL    HW215903   4.529   4.028   5.662
 5002SOL     OW15904   2.417   1.389   1.271
 5002SOL    HW115905   2.393   1.485   1.288
 5002SOL    HW215906   2.369   1.330   1.336
 5003SOL     OW15907   6.641   5.737   3.042
 5003SOL    HW115908   6.717   5.768   2.985
 5003SOL    HW215909   6.675   5.674   3.112
 5004SOL     OW15910   3.261   5.685   6.984
 5004SOL    HW115911   3.272   5.589   7.011
 5004SOL    HW215912   3.319   5.743   0.017
 5005SOL     OW15913   4.397   2.112   6.745
 5005SOL    HW115914   4.397   2.204   6.783
 5005SOL    HW215915   4.483   2.097   6.696
 5006SOL     OW15916   5.406   5.532   3.925
 5006SOL    HW115917   5.486   5.474   3.943
 5006SOL    HW215918   5.425   5.625   3.957
 5007SOL     OW15919   3.969   1.606   5.341
 5007SOL    HW115920   4.041   1.537   5.329
 5007SOL    HW215921   4.001   1.694   5.304
 5008SOL     OW15922   6.250   1.810   3.919
 5008SOL    HW115923   6.295   1.824   4.007
 5008SOL    HW215924   6.159   1.852   3.922
 5009SOL     OW15925   1.842   6.361   3.452
 5009SOL    HW115926   1.842   6.461   3.442
 5009SOL    HW215927   1.915   6.323   3.395
 5010SOL     OW15928   3.934   3.187   4.567
 5010SOL    HW115929   3.995   3.199   4.646
 5010SOL    HW215930   3.974   3.232   4.487
 5011SOL     OW15931   1.679   2.660   2.384
 5011SOL    HW115932   1.654   2.653   2.287
 5011SOL    HW215933   1.701   2.755   2.406
 5012SOL     OW15934   6.142   3.008   6.852
 5012SOL    HW115935   6.134   3.104   6.878
 5012SOL    HW215936   6.235   2.975   6.873
 5013SOL     OW15937   4.323   0.898   6.802
 5013SOL    HW115938   4.353   0.993   6.797
 5013SOL    HW215939   4.265   0.886   6.883
 5014SOL     OW15940   6.124   6.708   0.049
 5014SOL    HW115941   6.145   6.731   0.144
 5014SOL    HW215942   6.192   6.643   0.015
 5015SOL     OW15943   4.706   2.444   3.458
 5015SOL    HW115944   4.637   2.407   3.397
 5015SOL    HW215945   4.697   2.543   3.463
 5016SOL     OW15946   1.940   6.994   2.652
 5016SOL    HW115947   1.972   6.946   2.570
 5016SOL    HW215948   1.997   6.969   2.730
 5017SOL     OW15949   2.497   2.801   1.448
 5017SOL    HW115950   2.427   2.733   1.472
 5017SOL    HW215951   2.492   2.820   1.350
 5018SOL     OW15952   6.398   5.198   4.135
 5018SOL    HW115953   6.349   5.284   4.121
 5018SOL    HW215954   6.357   5.149   4.212
 5019SOL     OW15955   2.697   5.219   6.082
 5019SOL    HW115956   2.738   5.129   6.092
 5019SOL    HW215957   2.601   5.209   6.054
 5020SOL     OW15958   4.816   6.049   6.651
 5020SOL    HW115959   4.784   6.046   6.745
 5020SOL    HW215960   4.738   6.063   6.590
 5021SOL     OW15961   1.583   5.279   5.630
 5021SOL    HW115962   1.680   5.299   5.648
 5021SOL    HW215963   1.567   5.276   5.531
 5022SOL     OW15964   1.431   5.296   0.399
 5022SOL    HW115965   1.472   5.247   0.476
 5022SOL    HW215966   1.479   5.271   0.314
 5023SOL     OW15967   6.394   2.849   2.407
 5023SOL    HW115968   6.488   2.816   2.409
 5023SOL    HW215969   6.362   2.865   2.500
 5024SOL     OW15970   5.696   3.374   4.933
 5024SOL    HW115971   5.776   3.373   4.993
 5024SOL    HW215972   5.635   3.449   4.959
 5025SOL     OW15973   6.278   1.573   3.179
 5025SOL    HW115974   6.350   1.506   3.159
 5025SOL    HW215975   6.321   1.662   3.197
 5026SOL     OW15976   0.612   6.321   3.098
 5026SOL    HW115977   0.591   6.383   3.022
 5026SOL    HW215978   0.696   6.352   3.144
 5027SOL     OW15979   1.152   6.667   3.445
 5027SOL    HW115980   1.156   6.736   3.373
 5027SOL    HW215981   1.219   6.594   3.425
 5028SOL     OW15982   0.941   0.511   2.486
 5028SOL    HW115983   0.960   0.523   2.388
 5028SOL    HW215984   1.027   0.518   2.537
 5029SOL     OW15985   7.016   0.974   2.143
 5029SOL    HW115986   7.019   1.056   2.086
 5029SOL    HW215987   0.075   0.969   2.198
 5030SOL     OW15988   1.483   5.918   6.774
 5030SOL    HW115989   1.516   6.012   6.779
 5030SOL    HW215990   1.532   5.870   6.700
 5031SOL     OW15991   5.515   0.349   4.558
 5031SOL    HW115992   5.513   0.251   4.581
 5031SOL    HW215993   5.437   0.369   4.498
 5032SOL     OW15994   1.456   5.930   0.809
 5032SOL    HW115995   1.397   5.859   0.848
 5032SOL    HW215996   1.532   5.887   0.760
 5033SOL     OW15997   1.623   4.622   5.688
 5033SOL    HW115998   1.537   4.599   5.641
 5033SOL    HW215999   1.663   4.704   5.647
 5034SOL     OW16000   6.717   3.766   0.528
 5034SOL    HW116001   6.806   3.726   0.507
 5034SOL    HW216002   6.647   3.695   0.525
 5035SOL     OW16003   6.008   4.096   1.025
 5035SOL    HW116004   6.064   4.014   1.013
 5035SOL    HW216005   6.054   4.174   0.983
 5036SOL     OW16006   1.893   0.618   1.988
 5036SOL    HW116007   1.806   0.640   1.943
 5036SOL    HW216008   1.891   0.652   2.082
 5037SOL     OW16009   4.533   2.280   3.692
 5037SOL    HW116010   4.526   2.316   3.785
 5037SOL    HW216011   4.514   2.182   3.693
 5038SOL     OW16012   2.808   6.561   5.589
 5038SOL    HW116013   2.840   6.471   5.561
 5038SOL    HW216014   2.748   6.599   5.518
 5039SOL     OW16015   1.983   1.334   4.271
 5039SOL    HW116016   2.036   1.315   4.353
 5039SOL    HW216017   2.035   1.396   4.212
 5040SOL     OW16018   2.568   3.503   6.286
 5040SOL    HW116019   2.517   3.434   6.338
 5040SOL    HW216020   2.658   3.467   6.262
 5041SOL     OW16021   1.332   5.402   0.870
 5041SOL    HW116022   1.333   5.303   0.880
 5041SOL    HW216023   1.239   5.436   0.884
 5042SOL     OW16024   5.512   2.329   6.525
 5042SOL    HW116025   5.554   2.264   6.463
 5042SOL    HW216026   5.569   2.338   6.607
 5043SOL     OW16027   4.157   0.381   3.411
 5043SOL    HW116028   4.181   0.448   3.482
 5043SOL    HW216029   4.240   0.355   3.362
 5044SOL     OW16030   6.243   4.210   2.954
 5044SOL    HW116031   6.202   4.300   2.956
 5044SOL    HW216032   6.175   4.141   2.978
 5045SOL     OW16033   6.349   2.935   6.446
 5045SOL    HW116034   6.265   2.987   6.461
 5045SOL    HW216035   6.338   2.842   6.482
 5046SOL     OW16036   3.175   3.005   5.018
 5046SOL    HW116037   3.184   3.009   4.918
 5046SOL    HW216038   3.239   3.069   5.059
 5047SOL     OW16039   0.919   0.893   2.470
 5047SOL    HW116040   0.866   0.976   2.453
 5047SOL    HW216041   0.861   0.813   2.454
 5048SOL     OW16042   5.655   3.013   1.237
 5048SOL    HW116043   5.712   3.089   1.267
 5048SOL    HW216044   5.629   3.027   1.141
 5049SOL     OW16045   1.249   2.358   2.623
 5049SOL    HW116046   1.256   2.306   2.539
 5049SOL    HW216047   1.244   2.456   2.602
 5050SOL     OW16048   0.925   3.332   1.139
 5050SOL    HW116049   0.918   3.383   1.225
 5050SOL    HW216050   0.842   3.346   1.085
 5051SOL     OW16051   2.877   5.125   0.291
 5051SOL    HW116052   2.804   5.062   0.264
 5051SOL    HW216053   2.943   5.135   0.217
 5052SOL     OW16054   5.421   4.023   0.912
 5052SOL    HW116055   5.506   3.977   0.887
 5052SOL    HW216056   5.440   4.115   0.945
 5053SOL     OW16057   2.000   4.597   6.958
 5053SOL    HW116058   2.058   4.541   7.017
 5053SOL    HW216059   2.021   4.576   6.862
 5054SOL     OW16060   4.068   5.623   4.754
 5054SOL    HW116061   4.000   5.549   4.747
 5054SOL    HW216062   4.038   5.690   4.821
 5055SOL     OW16063   1.396   2.014   4.397
 5055SOL    HW116064   1.446   1.951   4.339
 5055SOL    HW216065   1.336   2.071   4.341
 5056SOL     OW16066   2.018   2.516   5.494
 5056SOL    HW116067   2.000   2.430   5.542
 5056SOL    HW216068   1.962   2.520   5.411
 5057SOL     OW16069   0.907   4.760   2.774
 5057SOL    HW116070   0.953   4.681   2.816
 5057SOL    HW216071   0.811   4.762   2.803
 5058SOL     OW16072   3.166   3.763   6.653
 5058SOL    HW116073   3.257   3.791   6.684
 5058SOL    HW216074   3.097   3.821   6.696
 5059SOL     OW16075   3.300   1.371   3.512
 5059SOL    HW116076   3.331   1.329   3.426
 5059SOL    HW216077   3.228   1.315   3.553
 5060SOL     OW16078   0.109   3.639   5.953
 5060SOL    HW116079   0.206   3.628   5.975
 5060SOL    HW216080   0.096   3.636   5.854
 5061SOL     OW16081   3.853   2.607   5.583
 5061SOL    HW116082   3.924   2.651   5.638
 5061SOL    HW216083   3.893   2.572   5.499
 5062SOL     OW16084   5.644   0.958   3.265
 5062SOL    HW116085   5.610   1.032   3.323
 5062SOL    HW216086   5.640   0.872   3.315
 5063SOL     OW16087   1.272   0.989   2.080
 5063SOL    HW116088   1.330   1.024   2.154
 5063SOL    HW216089   1.180   0.973   2.115
 5064SOL     OW16090   5.234   5.720   1.316
 5064SOL    HW116091   5.312   5.724   1.378
 5064SOL    HW216092   5.265   5.697   1.224
 5065SOL     OW16093   2.254   0.642   2.584
 5065SOL    HW116094   2.209   0.693   2.511
 5065SOL    HW216095   2.349   0.624   2.558
 5066SOL     OW16096   2.581   4.892   2.298
 5066SOL    HW116097   2.554   4.831   2.224
 5066SOL    HW216098   2.517   4.881   2.375
 5067SOL     OW16099   4.723   3.033   0.522
 5067SOL    HW116100   4.671   2.962   0.569
 5067SOL    HW216101   4.799   2.991   0.472
 5068SOL     OW16102   2.997   5.949   0.800
 5068SOL    HW116103   3.087   5.978   0.767
 5068SOL    HW216104   3.001   5.936   0.899
 5069SOL     OW16105   3.422   4.854   5.343
 5069SOL    HW116106   3.500   4.897   5.297
 5069SOL    HW216107   3.344   4.850   5.279
 5070SOL     OW16108   5.715   3.751   4.185
 5070SOL    HW116109   5.812   3.735   4.169
 5070SOL    HW216110   5.678   3.805   4.110
 5071SOL     OW16111   2.857   0.316   3.898
 5071SOL    HW116112   2.787   0.245   3.888
 5071SOL    HW216113   2.841   0.367   3.983
 5072SOL     OW16114   0.489   1.571   0.122
 5072SOL    HW116115   0.564   1.520   0.164
 5072SOL    HW216116   0.405   1.517   0.127
 5073SOL     OW16117   2.542   1.133   2.567
 5073SOL    HW116118   2.465   1.134   2.632
 5073SOL    HW216119   2.521   1.195   2.491
 5074SOL     OW16120   3.457   2.253   1.735
 5074SOL    HW116121   3.422   2.175   1.787
 5074SOL    HW216122   3.526   2.301   1.788
 5075SOL     OW16123   0.910   3.559   0.412
 5075SOL    HW116124   0.956   3.532   0.328
 5075SOL    HW216125   0.975   3.603   0.474
 5076SOL     OW16126   5.916   0.035   6.186
 5076SOL    HW116127   5.926   0.072   6.278
 5076SOL    HW216128   5.820   0.043   6.158
 5077SOL     OW16129   0.498   4.182   3.767
 5077SOL    HW116130   0.554   4.099   3.767
 5077SOL    HW216131   0.444   4.186   3.851
 5078SOL     OW16132   0.482   1.876   4.485
 5078SOL    HW116133   0.435   1.798   4.444
 5078SOL    HW216134   0.570   1.846   4.522
 5079SOL     OW16135   1.325   3.070   5.515
 5079SOL    HW116136   1.343   3.091   5.419
 5079SOL    HW216137   1.410   3.041   5.560
 5080SOL     OW16138   5.782   5.797   0.015
 5080SOL    HW116139   5.698   5.775   6.991
 5080SOL    HW216140   5.860   5.753   6.993
 5081SOL     OW16141   3.004   5.552   5.595
 5081SOL    HW116142   2.941   5.624   5.563
 5081SOL    HW216143   3.081   5.595   5.642
 5082SOL     OW16144   5.551   5.842   2.165
 5082SOL    HW116145   5.507   5.876   2.082
 5082SOL    HW216146   5.595   5.918   2.213
 5083SOL     OW16147   1.510   0.080   2.797
 5083SOL    HW116148   1.497   0.179   2.791
 5083SOL    HW216149   1.562   0.048   2.718
 5084SOL     OW16150   1.948   5.121   5.395
 5084SOL    HW116151   2.031   5.176   5.397
 5084SOL    HW216152   1.969   5.027   5.421
 5085SOL     OW16153   0.476   4.330   5.636
 5085SOL    HW116154   0.448   4.250   5.689
 5085SOL    HW216155   0.564   4.311   5.591
 5086SOL     OW16156   1.657   5.377   2.027
 5086SOL    HW116157   1.584   5.346   2.087
 5086SOL    HW216158   1.711   5.447   2.073
 5087SOL     OW16159   6.160   4.479   2.083
 5087SOL    HW116160   6.091   4.435   2.140
 5087SOL    HW216161   6.221   4.535   2.140
 5088SOL     OW16162   5.515   6.256   2.019
 5088SOL    HW116163   5.560   6.268   1.931
 5088SOL    HW216164   5.419   6.282   2.012
 5089SOL     OW16165   5.729   5.256   5.610
 5089SOL    HW116166   5.716   5.219   5.702
 5089SOL    HW216167   5.656   5.221   5.550
 5090SOL     OW16168   3.307   6.932   5.025
 5090SOL    HW116169   3.268   7.019   5.054
 5090SOL    HW216170   3.346   6.942   4.933
 5091SOL     OW16171   6.198   6.798   6.406
 5091SOL    HW116172   6.137   6.810   6.485
 5091SOL    HW216173   6.247   6.884   6.390
 5092SOL     OW16174   3.039   3.466   4.268
 5092SOL    HW116175   3.002   3.459   4.360
 5092SOL    HW216176   3.139   3.465   4.272
 5093SOL     OW16177   2.547   2.294   3.176
 5093SOL    HW116178   2.611   2.220   3.198
 5093SOL    HW216179   2.586   2.351   3.104
 5094SOL     OW16180   2.310   5.750   5.369
 5094SOL    HW116181   2.347   5.699   5.291
 5094SOL    HW216182   2.374   5.823   5.394
 5095SOL     OW16183   6.733   1.738   3.192
 5095SOL    HW116184   6.808   1.795   3.225
 5095SOL    HW216185   6.755   1.642   3.206
 5096SOL     OW16186   5.578   3.087   5.343
 5096SOL    HW116187   5.525   3.172   5.339
 5096SOL    HW216188   5.548   3.033   5.422
 5097SOL     OW16189   1.148   0.354   5.988
 5097SOL    HW116190   1.224   0.304   6.028
 5097SOL    HW216191   1.156   0.451   6.011
 5098SOL     OW16192   3.181   2.877   1.502
 5098SOL    HW116193   3.268   2.831   1.523
 5098SOL    HW216194   3.106   2.812   1.509
 5099SOL     OW16195   1.677   0.248   1.671
 5099SOL    HW116196   1.633   0.312   1.608
 5099SOL    HW216197   1.662   0.154   1.639
 5100SOL     OW16198   5.279   4.691   2.427
 5100SOL    HW116199   5.238   4.776   2.459
 5100SOL    HW216200   5.314   4.639   2.505
 5101SOL     OW16201   3.834   0.490   6.420
 5101SOL    HW116202   3.802   0.482   6.326
 5101SOL    HW216203   3.932   0.469   6.425
 5102SOL     OW16204   4.938   4.345   4.672
 5102SOL    HW116205   4.926   4.365   4.575
 5102SOL    HW216206   4.911   4.251   4.691
 5103SOL     OW16207   0.702   0.835   6.299
 5103SOL    HW116208   0.666   0.752   6.341
 5103SOL    HW216209   0.639   0.865   6.226
 5104SOL     OW16210   3.749   3.630   1.342
 5104SOL    HW116211   3.781   3.536   1.342
 5104SOL    HW216212   3.828   3.692   1.339
 5105SOL     OW16213   4.230   3.618   6.399
 5105SOL    HW116214   4.131   3.625   6.414
 5105SOL    HW216215   4.246   3.566   6.315
 5106SOL     OW16216   4.458   2.534   0.700
 5106SOL    HW116217   4.446   2.544   0.798
 5106SOL    HW216218   4.542   2.581   0.672
 5107SOL     OW16219   4.731   3.348   0.151
 5107SOL    HW116220   4.681   3.416   0.098
 5107SOL    HW216221   4.828   3.354   0.129
 5108SOL     OW16222   4.313   4.871   6.975
 5108SOL    HW116223   4.355   4.839   0.036
 5108SOL    HW216224   4.214   4.855   6.979
 5109SOL     OW16225   1.073   2.771   1.268
 5109SOL    HW116226   1.148   2.791   1.204
 5109SOL    HW216227   1.065   2.846   1.333
 5110SOL     OW16228   4.865   0.659   5.729
 5110SOL    HW116229   4.790   0.611   5.774
 5110SOL    HW216230   4.853   0.653   5.630
 5111SOL     OW16231   0.518   6.491   4.467
 5111SOL    HW116232   0.519   6.403   4.513
 5111SOL    HW216233   0.514   6.564   4.535
 5112SOL     OW16234   0.189   0.189   3.188
 5112SOL    HW116235   0.193   0.218   3.093
 5112SOL    HW216236   0.275   0.212   3.234
 5113SOL     OW16237   1.850   3.831   6.986
 5113SOL    HW116238   1.802   3.900   6.932
 5113SOL    HW216239   1.906   3.877   0.032
 5114SOL     OW16240   4.529   5.491   0.992
 5114SOL    HW116241   4.611   5.437   0.971
 5114SOL    HW216242   4.469   5.439   1.053
 5115SOL     OW16243   2.183   3.688   1.191
 5115SOL    HW116244   2.270   3.734   1.172
 5115SOL    HW216245   2.119   3.707   1.117
 5116SOL     OW16246   2.034   0.528   6.589
 5116SOL    HW116247   2.110   0.580   6.552
 5116SOL    HW216248   1.948   0.576   6.571
 5117SOL     OW16249   1.399   2.454   3.953
 5117SOL    HW116250   1.358   2.402   3.878
 5117SOL    HW216251   1.402   2.397   4.035
 5118SOL     OW16252   4.935   5.997   6.139
 5118SOL    HW116253   5.013   5.934   6.137
 5118SOL    HW216254   4.948   6.063   6.213
 5119SOL     OW16255   5.271   1.339   0.359
 5119SOL    HW116256   5.263   1.395   0.277
 5119SOL    HW216257   5.187   1.286   0.372
 5120SOL     OW16258   5.612   6.405   5.848
 5120SOL    HW116259   5.595   6.504   5.843
 5120SOL    HW216260   5.655   6.375   5.763
 5121SOL     OW16261   1.418   3.729   6.202
 5121SOL    HW116262   1.468   3.813   6.184
 5121SOL    HW216263   1.478   3.663   6.248
 5122SOL     OW16264   5.474   5.573   4.467
 5122SOL    HW116265   5.530   5.603   4.390
 5122SOL    HW216266   5.528   5.513   4.526
 5123SOL     OW16267   5.055   3.126   1.603
 5123SOL    HW116268   5.081   3.047   1.549
 5123SOL    HW216269   4.955   3.137   1.602
 5124SOL     OW16270   2.134   5.840   4.744
 5124SOL    HW116271   2.204   5.810   4.808
 5124SOL    HW216272   2.152   5.802   4.654
 5125SOL     OW16273   0.121   1.686   3.868
 5125SOL    HW116274   0.090   1.653   3.957
 5125SOL    HW216275   0.113   1.786   3.865
 5126SOL     OW16276   2.095   0.119   0.347
 5126SOL    HW116277   2.068   0.026   0.375
 5126SOL    HW216278   2.169   0.113   0.280
 5127SOL     OW16279   1.978   5.286   6.794
 5127SOL    HW116280   1.902   5.270   6.731
 5127SOL    HW216281   2.064   5.282   6.745
 5128SOL     OW16282   6.174   6.902   2.330
 5128SOL    HW116283   6.135   6.979   2.280
 5128SOL    HW216284   6.161   6.915   2.428
 5129SOL     OW16285   5.681   6.826   1.135
 5129SOL    HW116286   5.590   6.848   1.101
 5129SOL    HW216287   5.750   6.867   1.075
 5130SOL     OW16288   6.996   4.758   3.449
 5130SOL    HW116289   0.054   4.807   3.480
 5130SOL    HW216290   6.914   4.805   3.482
 5131SOL     OW16291   2.622   2.451   2.975
 5131SOL    HW116292   2.528   2.478   2.957
 5131SOL    HW216293   2.678   2.463   2.893
 5132SOL     OW16294   2.833   5.922   5.267
 5132SOL    HW116295   2.800   6.010   5.233
 5132SOL    HW216296   2.758   5.857   5.271
 5133SOL     OW16297   3.661   6.808   6.046
 5133SOL    HW116298   3.688   6.898   6.078
 5133SOL    HW216299   3.627   6.754   6.123
 5134SOL     OW16300   6.832   3.632   0.269
 5134SOL    HW116301   6.799   3.571   0.341
 5134SOL    HW216302   6.906   3.689   0.305
 5135SOL     OW16303   6.589   1.939   4.551
 5135SOL    HW116304   6.670   1.915   4.498
 5135SOL    HW216305   6.613   2.009   4.619
 5136SOL     OW16306   4.077   1.083   4.372
 5136SOL    HW116307   4.138   1.146   4.323
 5136SOL    HW216308   4.024   1.030   4.307
 5137SOL     OW16309   3.264   4.339   6.575
 5137SOL    HW116310   3.216   4.426   6.585
 5137SOL    HW216311   3.206   4.275   6.523
 5138SOL     OW16312   2.475   3.687   6.090
 5138SOL    HW116313   2.473   3.781   6.124
 5138SOL    HW216314   2.516   3.628   6.160
 5139SOL     OW16315   0.753   0.285   3.360
 5139SOL    HW116316   0.766   0.250   3.452
 5139SOL    HW216317   0.825   0.250   3.300
 5140SOL     OW16318   3.577   2.824   1.224
 5140SOL    HW116319   3.604   2.835   1.128
 5140SOL    HW216320   3.484   2.787   1.228
 5141SOL     OW16321   6.591   3.174   0.048
 5141SOL    HW116322   6.645   3.258   0.041
 5141SOL    HW216323   6.554   3.167   0.141
 5142SOL     OW16324   5.221   3.306   3.906
 5142SOL    HW116325   5.242   3.259   3.991
 5142SOL    HW216326   5.181   3.241   3.841
 5143SOL     OW16327   6.422   5.368   4.431
 5143SOL    HW116328   6.465   5.362   4.341
 5143SOL    HW216329   6.401   5.276   4.465
 5144SOL     OW16330   1.646   1.278   5.374
 5144SOL    HW116331   1.654   1.236   5.464
 5144SOL    HW216332   1.684   1.370   5.376
 5145SOL     OW16333   3.242   5.662   5.671
 5145SOL    HW116334   3.287   5.575   5.692
 5145SOL    HW216335   3.286   5.704   5.591
 5146SOL     OW16336   3.129   4.894   0.015
 5146SOL    HW116337   3.206   4.854   6.990
 5146SOL    HW216338   3.103   4.836   0.092
 5147SOL     OW16339   6.150   5.056   6.759
 5147SOL    HW116340   6.191   5.011   6.838
 5147SOL    HW216341   6.079   5.120   6.790
 5148SOL     OW16342   0.472   6.045   1.503
 5148SOL    HW116343   0.433   6.027   1.413
 5148SOL    HW216344   0.422   5.993   1.572
 5149SOL     OW16345   6.758   1.451   5.137
 5149SOL    HW116346   6.758   1.412   5.229
 5149SOL    HW216347   6.721   1.384   5.072
 5150SOL     OW16348   1.625   5.034   4.483
 5150SOL    HW116349   1.560   5.109   4.474
 5150SOL    HW216350   1.580   4.955   4.526
 5151SOL     OW16351   4.543   0.760   6.702
 5151SOL    HW116352   4.470   0.814   6.743
 5151SOL    HW216353   4.623   0.762   6.762
 5152SOL     OW16354   0.555   4.681   0.291
 5152SOL    HW116355   0.522   4.675   0.385
 5152SOL    HW216356   0.547   4.775   0.258
 5153SOL     OW16357   1.994   1.596   0.651
 5153SOL    HW116358   1.965   1.549   0.568
 5153SOL    HW216359   2.094   1.594   0.657
 5154SOL     OW16360   2.154   3.115   4.574
 5154SOL    HW116361   2.168   3.208   4.541
 5154SOL    HW216362   2.167   3.112   4.674
 5155SOL     OW16363   3.034   0.901   2.419
 5155SOL    HW116364   3.002   0.988   2.382
 5155SOL    HW216365   3.128   0.884   2.388
 5156SOL     OW16366   5.823   2.892   5.451
 5156SOL    HW116367   5.861   2.982   5.469
 5156SOL    HW216368   5.774   2.860   5.532
 5157SOL     OW16369   5.677   3.244   3.385
 5157SOL    HW116370   5.774   3.254   3.408
 5157SOL    HW216371   5.667   3.225   3.287
 5158SOL     OW16372   4.615   1.589   1.623
 5158SOL    HW116373   4.609   1.584   1.723
 5158SOL    HW216374   4.677   1.663   1.597
 5159SOL     OW16375   1.155   3.025   4.182
 5159SOL    HW116376   1.231   3.007   4.244
 5159SOL    HW216377   1.088   3.084   4.227
 5160SOL     OW16378   1.770   2.823   4.390
 5160SOL    HW116379   1.805   2.740   4.433
 5160SOL    HW216380   1.763   2.810   4.291
 5161SOL     OW16381   1.408   2.911   6.238
 5161SOL    HW116382   1.377   2.829   6.287
 5161SOL    HW216383   1.347   2.930   6.162
 5162SOL     OW16384   6.483   6.294   4.525
 5162SOL    HW116385   6.468   6.287   4.426
 5162SOL    HW216386   6.457   6.386   4.556
 5163SOL     OW16387   5.647   3.900   0.888
 5163SOL    HW116388   5.731   3.895   0.942
 5163SOL    HW216389   5.667   3.879   0.793
 5164SOL     OW16390   5.863   4.473   6.448
 5164SOL    HW116391   5.859   4.571   6.466
 5164SOL    HW216392   5.788   4.447   6.387
 5165SOL     OW16393   6.582   4.451   4.349
 5165SOL    HW116394   6.518   4.374   4.347
 5165SOL    HW216395   6.614   4.469   4.256
 5166SOL     OW16396   1.484   6.584   1.821
 5166SOL    HW116397   1.446   6.498   1.786
 5166SOL    HW216398   1.413   6.653   1.827
 5167SOL     OW16399   0.596   6.590   5.632
 5167SOL    HW116400   0.528   6.517   5.638
 5167SOL    HW216401   0.684   6.552   5.604
 5168SOL     OW16402   4.128   2.226   2.768
 5168SOL    HW116403   4.087   2.220   2.858
 5168SOL    HW216404   4.183   2.144   2.750
 5169SOL     OW16405   3.705   4.487   6.119
 5169SOL    HW116406   3.616   4.506   6.160
 5169SOL    HW216407   3.755   4.422   6.177
 5170SOL     OW16408   5.346   3.946   4.436
 5170SOL    HW116409   5.308   3.862   4.473
 5170SOL    HW216410   5.425   3.974   4.490
 5171SOL     OW16411   2.494   4.490   4.666
 5171SOL    HW116412   2.406   4.475   4.710
 5171SOL    HW216413   2.554   4.542   4.727
 5172SOL     OW16414   1.645   5.430   1.760
 5172SOL    HW116415   1.667   5.527   1.756
 5172SOL    HW216416   1.640   5.400   1.855
 5173SOL     OW16417   5.789   3.779   6.060
 5173SOL    HW116418   5.878   3.743   6.088
 5173SOL    HW216419   5.719   3.747   6.124
 5174SOL     OW16420   1.318   4.629   5.856
 5174SOL    HW116421   1.266   4.617   5.941
 5174SOL    HW216422   1.414   4.605   5.871
 5175SOL     OW16423   0.565   4.758   6.952
 5175SOL    HW116424   0.542   4.814   0.008
 5175SOL    HW216425   0.663   4.763   6.936
 5176SOL     OW16426   5.391   3.339   0.842
 5176SOL    HW116427   5.332   3.305   0.915
 5176SOL    HW216428   5.392   3.439   0.843
 5177SOL     OW16429   5.559   6.886   6.459
 5177SOL    HW116430   5.487   6.840   6.406
 5177SOL    HW216431   5.640   6.828   6.462
 5178SOL     OW16432   2.477   2.281   1.979
 5178SOL    HW116433   2.396   2.226   1.962
 5178SOL    HW216434   2.450   2.377   1.990
 5179SOL     OW16435   2.938   6.092   5.812
 5179SOL    HW116436   2.895   6.140   5.889
 5179SOL    HW216437   2.889   6.007   5.794
 5180SOL     OW16438   2.963   2.171   1.321
 5180SOL    HW116439   2.959   2.242   1.251
 5180SOL    HW216440   3.045   2.183   1.377
 5181SOL     OW16441   3.567   6.217   1.971
 5181SOL    HW116442   3.667   6.219   1.979
 5181SOL    HW216443   3.526   6.242   2.058
 5182SOL     OW16444   4.924   4.411   2.021
 5182SOL    HW116445   4.862   4.487   2.004
 5182SOL    HW216446   5.017   4.438   1.996
 5183SOL     OW16447   4.481   0.520   2.332
 5183SOL    HW116448   4.549   0.448   2.319
 5183SOL    HW216449   4.470   0.537   2.430
 5184SOL     OW16450   0.914   1.407   2.866
 5184SOL    HW116451   0.978   1.484   2.859
 5184SOL    HW216452   0.831   1.427   2.816
 5185SOL     OW16453   3.833   0.550   2.432
 5185SOL    HW116454   3.776   0.516   2.507
 5185SOL    HW216455   3.922   0.579   2.468
 5186SOL     OW16456   6.089   4.647   0.759
 5186SOL    HW116457   6.094   4.617   0.664
 5186SOL    HW216458   6.131   4.737   0.768
 5187SOL     OW16459   4.990   1.743   3.699
 5187SOL    HW116460   5.087   1.770   3.701
 5187SOL    HW216461   4.961   1.730   3.604
 5188SOL     OW16462   1.140   3.841   5.448
 5188SOL    HW116463   1.078   3.769   5.417
 5188SOL    HW216464   1.217   3.800   5.495
 5189SOL     OW16465   4.741   5.463   6.244
 5189SOL    HW116466   4.777   5.555   6.260
 5189SOL    HW216467   4.713   5.423   6.331
 5190SOL     OW16468   1.354   2.365   3.680
 5190SOL    HW116469   1.378   2.269   3.669
 5190SOL    HW216470   1.418   2.422   3.629
 5191SOL     OW16471   3.738   0.231   1.752
 5191SOL    HW116472   3.834   0.241   1.776
 5191SOL    HW216473   3.681   0.275   1.822
 5192SOL     OW16474   6.288   4.684   2.773
 5192SOL    HW116475   6.326   4.652   2.860
 5192SOL    HW216476   6.216   4.750   2.791
 5193SOL     OW16477   4.938   3.883   2.705
 5193SOL    HW116478   4.926   3.795   2.658
 5193SOL    HW216479   5.012   3.934   2.661
 5194SOL     OW16480   6.171   0.619   5.377
 5194SOL    HW116481   6.260   0.600   5.417
 5194SOL    HW216482   6.110   0.657   5.447
 5195SOL     OW16483   5.974   5.869   5.944
 5195SOL    HW116484   5.905   5.797   5.933
 5195SOL    HW216485   5.965   5.910   6.034
 5196SOL     OW16486   0.564   3.305   1.714
 5196SOL    HW116487   0.534   3.229   1.657
 5196SOL    HW216488   0.559   3.280   1.810
 5197SOL     OW16489   3.353   6.317   4.840
 5197SOL    HW116490   3.398   6.306   4.928
 5197SOL    HW216491   3.386   6.400   4.795
 5198SOL     OW16492   4.295   6.673   5.323
 5198SOL    HW116493   4.374   6.714   5.278
 5198SOL    HW216494   4.239   6.746   5.363
 5199SOL     OW16495   0.979   4.894   1.652
 5199SOL    HW116496   0.950   4.842   1.732
 5199SOL    HW216497   1.025   4.978   1.681
 5200SOL     OW16498   6.589   0.759   5.013
 5200SOL    HW116499   6.579   0.802   4.924
 5200SOL    HW216500   6.618   0.663   5.002
 5201SOL     OW16501   6.557   5.094   4.672
 5201SOL    HW116502   6.616   5.087   4.591
 5201SOL    HW216503   6.475   5.147   4.649
 5202SOL     OW16504   3.837   3.012   6.111
 5202SOL    HW116505   3.889   3.082   6.063
 5202SOL    HW216506   3.870   3.003   6.205
 5203SOL     OW16507   2.177   0.320   6.885
 5203SOL    HW116508   2.213   0.380   6.814
 5203SOL    HW216509   2.189   0.364   6.975
 5204SOL     OW16510   2.663   0.232   0.668
 5204SOL    HW116511   2.752   0.220   0.712
 5204SOL    HW216512   2.659   0.177   0.585
 5205SOL     OW16513   0.457   5.855   1.032
 5205SOL    HW116514   0.550   5.824   1.017
 5205SOL    HW216515   0.436   5.930   0.971
 5206SOL     OW16516   1.034   4.729   4.225
 5206SOL    HW116517   1.001   4.699   4.315
 5206SOL    HW216518   1.021   4.655   4.159
 5207SOL     OW16519   6.762   0.349   4.022
 5207SOL    HW116520   6.789   0.440   4.052
 5207SOL    HW216521   6.745   0.291   4.101
 5208SOL     OW16522   5.069   1.800   0.515
 5208SOL    HW116523   5.009   1.849   0.578
 5208SOL    HW216524   5.035   1.707   0.501
 5209SOL     OW16525   5.947   5.818   2.896
 5209SOL    HW116526   5.950   5.898   2.955
 5209SOL    HW216527   5.989   5.839   2.808
 5210SOL     OW16528   5.269   4.345   6.953
 5210SOL    HW116529   5.178   4.382   6.970
 5210SOL    HW216530   5.318   4.405   6.889
 5211SOL     OW16531   4.936   2.765   4.888
 5211SOL    HW116532   4.980   2.763   4.798
 5211SOL    HW216533   4.948   2.856   4.929
 5212SOL     OW16534   1.123   3.635   0.563
 5212SOL    HW116535   1.209   3.636   0.512
 5212SOL    HW216536   1.130   3.569   0.637
 5213SOL     OW16537   4.087   3.726   2.995
 5213SOL    HW116538   4.079   3.680   2.907
 5213SOL    HW216539   4.106   3.659   3.067
 5214SOL     OW16540   5.506   3.563   5.581
 5214SOL    HW116541   5.495   3.463   5.585
 5214SOL    HW216542   5.547   3.595   5.667
 5215SOL     OW16543   0.269   3.689   4.908
 5215SOL    HW116544   0.291   3.752   4.982
 5215SOL    HW216545   0.197   3.626   4.938
 5216SOL     OW16546   5.206   5.296   1.296
 5216SOL    HW116547   5.297   5.275   1.259
 5216SOL    HW216548   5.156   5.211   1.311
 5217SOL     OW16549   4.535   5.998   3.096
 5217SOL    HW116550   4.485   6.001   3.010
 5217SOL    HW216551   4.604   5.925   3.091
 5218SOL     OW16552   0.840   6.994   0.968
 5218SOL    HW116553   0.755   6.945   0.951
 5218SOL    HW216554   0.908   6.931   1.007
 5219SOL     OW16555   3.508   1.429   4.547
 5219SOL    HW116556   3.606   1.415   4.566
 5219SOL    HW216557   3.470   1.488   4.618
 5220SOL     OW16558   2.286   4.860   4.143
 5220SOL    HW116559   2.336   4.946   4.154
 5220SOL    HW216560   2.351   4.787   4.122
 5221SOL     OW16561   6.370   5.709   1.149
 5221SOL    HW116562   6.404   5.644   1.217
 5221SOL    HW216563   6.433   5.785   1.141
 5222SOL     OW16564   5.899   3.728   0.928
 5222SOL    HW116565   5.991   3.766   0.943
 5222SOL    HW216566   5.861   3.697   1.015
 5223SOL     OW16567   6.933   3.016   0.649
 5223SOL    HW116568   6.912   3.090   0.586
 5223SOL    HW216569   6.874   3.023   0.730
 5224SOL     OW16570   0.215   2.498   5.147
 5224SOL    HW116571   0.223   2.467   5.053
 5224SOL    HW216572   0.293   2.558   5.169
 5225SOL     OW16573   0.045   1.664   4.571
 5225SOL    HW116574   7.004   1.603   4.617
 5225SOL    HW216575   0.070   1.739   4.632
 5226SOL     OW16576   0.727   6.656   3.623
 5226SOL    HW116577   0.805   6.672   3.562
 5226SOL    HW216578   0.647   6.629   3.569
 5227SOL     OW16579   6.868   2.909   5.390
 5227SOL    HW116580   6.941   2.859   5.435
 5227SOL    HW216581   6.779   2.874   5.419
 5228SOL     OW16582   1.251   1.238   5.624
 5228SOL    HW116583   1.155   1.258   5.605
 5228SOL    HW216584   1.267   1.139   5.612
 5229SOL     OW16585   3.444   1.973   5.910
 5229SOL    HW116586   3.468   1.963   5.814
 5229SOL    HW216587   3.517   2.022   5.958
 5230SOL     OW16588   6.963   6.936   2.196
 5230SOL    HW116589   6.949   6.914   2.293
 5230SOL    HW216590   0.026   6.983   2.185
 5231SOL     OW16591   6.846   2.090   1.393
 5231SOL    HW116592   6.861   1.993   1.375
 5231SOL    HW216593   6.895   2.145   1.325
 5232SOL     OW16594   1.695   3.078   6.119
 5232SOL    HW116595   1.759   3.003   6.100
 5232SOL    HW216596   1.676   3.082   6.217
 5233SOL     OW16597   2.940   0.223   2.874
 5233SOL    HW116598   2.913   0.226   2.778
 5233SOL    HW216599   2.964   0.315   2.905
 5234SOL     OW16600   2.455   1.895   6.707
 5234SOL    HW116601   2.419   1.837   6.781
 5234SOL    HW216602   2.487   1.981   6.745
 5235SOL     OW16603   2.169   2.434   1.586
 5235SOL    HW116604   2.142   2.357   1.644
 5235SOL    HW216605   2.132   2.421   1.494
 5236SOL     OW16606   3.216   5.209   1.734
 5236SOL    HW116607   3.301   5.187   1.686
 5236SOL    HW216608   3.160   5.127   1.743
 5237SOL     OW16609   2.024   1.778   2.684
 5237SOL    HW116610   1.972   1.795   2.767
 5237SOL    HW216611   1.974   1.717   2.624
 5238SOL     OW16612   0.757   6.418   2.858
 5238SOL    HW116613   0.660   6.431   2.837
 5238SOL    HW216614   0.788   6.491   2.919
 5239SOL     OW16615   1.967   3.944   0.740
 5239SOL    HW116616   2.045   3.944   0.677
 5239SOL    HW216617   1.882   3.937   0.688
 5240SOL     OW16618   2.040   3.682   6.001
 5240SOL    HW116619   2.118   3.663   6.060
 5240SOL    HW216620   2.032   3.610   5.932
 5241SOL     OW16621   0.295   5.790   2.011
 5241SOL    HW116622   0.295   5.783   2.111
 5241SOL    HW216623   0.360   5.723   1.973
 5242SOL     OW16624   4.681   0.554   0.077
 5242SOL    HW116625   4.691   0.520   0.170
 5242SOL    HW216626   4.677   0.654   0.077
 5243SOL     OW16627   2.432   6.558   2.155
 5243SOL    HW116628   2.433   6.587   2.059
 5243SOL    HW216629   2.526   6.549   2.188
 5244SOL     OW16630   4.755   1.954   0.431
 5244SOL    HW116631   4.758   2.024   0.360
 5244SOL    HW216632   4.663   1.917   0.437
 5245SOL     OW16633   3.372   3.562   1.585
 5245SOL    HW116634   3.308   3.505   1.534
 5245SOL    HW216635   3.426   3.617   1.521
 5246SOL     OW16636   6.365   3.895   6.851
 5246SOL    HW116637   6.350   3.918   6.755
 5246SOL    HW216638   6.353   3.977   6.908
 5247SOL     OW16639   4.445   2.006   6.310
 5247SOL    HW116640   4.536   1.999   6.352
 5247SOL    HW216641   4.376   2.013   6.382
 5248SOL     OW16642   6.182   1.201   3.468
 5248SOL    HW116643   6.189   1.130   3.537
 5248SOL    HW216644   6.085   1.216   3.446
 5249SOL     OW16645   0.310   4.579   0.235
 5249SOL    HW116646   0.299   4.537   0.325
 5249SOL    HW216647   0.402   4.618   0.228
 5250SOL     OW16648   1.598   6.033   1.037
 5250SOL    HW116649   1.548   5.973   1.100
 5250SOL    HW216650   1.543   6.046   0.954
 5251SOL     OW16651   0.825   4.757   0.261
 5251SOL    HW116652   0.903   4.695   0.251
 5251SOL    HW216653   0.740   4.705   0.256
 5252SOL     OW16654   3.787   6.724   2.373
 5252SOL    HW116655   3.750   6.726   2.466
 5252SOL    HW216656   3.802   6.629   2.345
 5253SOL     OW16657   0.066   5.610   4.890
 5253SOL    HW116658   0.035   5.558   4.969
 5253SOL    HW216659   0.045   5.560   4.806
 5254SOL     OW16660   5.442   6.554   3.789
 5254SOL    HW116661   5.508   6.492   3.831
 5254SOL    HW216662   5.474   6.581   3.698
 5255SOL     OW16663   6.428   1.879   5.675
 5255SOL    HW116664   6.365   1.850   5.604
 5255SOL    HW216665   6.506   1.927   5.634
 5256SOL     OW16666   0.361   1.693   2.412
 5256SOL    HW116667   0.438   1.746   2.448
 5256SOL    HW216668   0.367   1.690   2.312
 5257SOL     OW16669   4.123   1.239   6.306
 5257SOL    HW116670   4.167   1.153   6.329
 5257SOL    HW216671   4.048   1.256   6.370
 5258SOL     OW16672   4.179   1.312   3.271
 5258SOL    HW116673   4.141   1.404   3.269
 5258SOL    HW216674   4.275   1.316   3.300
 5259SOL     OW16675   6.275   4.883   3.568
 5259SOL    HW116676   6.235   4.895   3.659
 5259SOL    HW216677   6.257   4.965   3.513
 5260SOL     OW16678   2.385   0.676   0.610
 5260SOL    HW116679   2.312   0.616   0.641
 5260SOL    HW216680   2.473   0.642   0.644
 5261SOL     OW16681   5.529   4.326   0.058
 5261SOL    HW116682   5.481   4.378   7.012
 5261SOL    HW216683   5.593   4.262   0.015
 5262SOL     OW16684   2.147   0.775   2.341
 5262SOL    HW116685   2.229   0.782   2.284
 5262SOL    HW216686   2.118   0.866   2.370
 5263SOL     OW16687   0.987   6.212   2.294
 5263SOL    HW116688   0.969   6.310   2.297
 5263SOL    HW216689   1.083   6.196   2.269
 5264SOL     OW16690   6.297   1.372   1.758
 5264SOL    HW116691   6.302   1.334   1.851
 5264SOL    HW216692   6.201   1.383   1.732
 5265SOL     OW16693   6.567   4.797   4.733
 5265SOL    HW116694   6.584   4.769   4.828
 5265SOL    HW216695   6.535   4.892   4.733
 5266SOL     OW16696   1.847   0.656   6.911
 5266SOL    HW116697   1.830   0.654   6.812
 5266SOL    HW216698   1.777   0.710   6.956
 5267SOL     OW16699   5.311   2.519   4.742
 5267SOL    HW116700   5.217   2.504   4.773
 5267SOL    HW216701   5.310   2.567   4.654
 5268SOL     OW16702   5.513   0.126   6.372
 5268SOL    HW116703   5.537   0.029   6.376
 5268SOL    HW216704   5.421   0.139   6.408
 5269SOL     OW16705   0.558   6.997   3.943
 5269SOL    HW116706   0.620   0.045   3.911
 5269SOL    HW216707   0.529   7.017   4.037
 5270SOL     OW16708   0.171   1.817   6.204
 5270SOL    HW116709   0.146   1.720   6.210
 5270SOL    HW216710   0.128   1.868   6.278
 5271SOL     OW16711   0.387   4.872   3.261
 5271SOL    HW116712   0.426   4.790   3.221
 5271SOL    HW216713   0.461   4.929   3.299
 5272SOL     OW16714   4.489   0.360   0.061
 5272SOL    HW116715   4.453   0.369   0.154
 5272SOL    HW216716   4.548   0.438   0.041
 5273SOL     OW16717   1.667   1.875   2.809
 5273SOL    HW116718   1.677   1.917   2.718
 5273SOL    HW216719   1.758   1.852   2.844
 5274SOL     OW16720   4.748   5.295   1.245
 5274SOL    HW116721   4.714   5.318   1.336
 5274SOL    HW216722   4.676   5.250   1.193
 5275SOL     OW16723   4.603   2.105   6.587
 5275SOL    HW116724   4.632   2.200   6.589
 5275SOL    HW216725   4.682   2.045   6.599
 5276SOL     OW16726   4.581   6.559   2.113
 5276SOL    HW116727   4.481   6.554   2.112
 5276SOL    HW216728   4.612   6.629   2.049
 5277SOL     OW16729   2.352   2.892   1.823
 5277SOL    HW116730   2.406   2.954   1.767
 5277SOL    HW216731   2.397   2.803   1.829
 5278SOL     OW16732   4.453   3.640   1.696
 5278SOL    HW116733   4.545   3.637   1.735
 5278SOL    HW216734   4.441   3.563   1.633
 5279SOL     OW16735   2.200   5.498   2.991
 5279SOL    HW116736   2.262   5.570   2.961
 5279SOL    HW216737   2.244   5.409   2.982
 5280SOL     OW16738   4.882   6.733   4.564
 5280SOL    HW116739   4.887   6.698   4.658
 5280SOL    HW216740   4.880   6.833   4.566
 5281SOL     OW16741   0.495   2.529   1.999
 5281SOL    HW116742   0.464   2.621   2.023
 5281SOL    HW216743   0.560   2.534   1.924
 5282SOL     OW16744   4.965   1.861   2.247
 5282SOL    HW116745   4.953   1.766   2.217
 5282SOL    HW216746   4.967   1.921   2.168
 5283SOL     OW16747   5.508   5.208   6.376
 5283SOL    HW116748   5.534   5.175   6.285
 5283SOL    HW216749   5.529   5.138   6.444
 5284SOL     OW16750   5.125   3.144   3.744
 5284SOL    HW116751   5.037   3.156   3.699
 5284SOL    HW216752   5.120   3.069   3.809
 5285SOL     OW16753   3.302   5.978   2.438
 5285SOL    HW116754   3.375   5.975   2.506
 5285SOL    HW216755   3.233   5.909   2.461
 5286SOL     OW16756   2.182   4.790   1.925
 5286SOL    HW116757   2.280   4.789   1.939
 5286SOL    HW216758   2.138   4.843   1.997
 5287SOL     OW16759   0.769   1.539   1.404
 5287SOL    HW116760   0.830   1.609   1.367
 5287SOL    HW216761   0.747   1.473   1.332
 5288SOL     OW16762   4.296   1.351   0.577
 5288SOL    HW116763   4.368   1.283   0.568
 5288SOL    HW216764   4.241   1.353   0.493
 5289SOL     OW16765   1.897   5.870   1.111
 5289SOL    HW116766   1.868   5.783   1.072
 5289SOL    HW216767   1.833   5.898   1.183
 5290SOL     OW16768   5.048   5.702   0.762
 5290SOL    HW116769   5.088   5.640   0.829
 5290SOL    HW216770   5.083   5.794   0.775
 5291SOL     OW16771   2.075   5.240   5.811
 5291SOL    HW116772   2.117   5.154   5.781
 5291SOL    HW216773   2.138   5.315   5.792
 5292SOL     OW16774   4.974   2.381   6.140
 5292SOL    HW116775   5.054   2.346   6.090
 5292SOL    HW216776   4.951   2.472   6.106
 5293SOL     OW16777   1.038   1.227   4.522
 5293SOL    HW116778   1.067   1.207   4.615
 5293SOL    HW216779   1.056   1.323   4.501
 5294SOL     OW16780   5.085   2.287   5.473
 5294SOL    HW116781   5.070   2.375   5.429
 5294SOL    HW216782   4.996   2.247   5.497
 5295SOL     OW16783   5.757   0.489   1.811
 5295SOL    HW116784   5.770   0.495   1.712
 5295SOL    HW216785   5.830   0.539   1.858
 5296SOL     OW16786   0.992   3.876   0.480
 5296SOL    HW116787   1.041   3.795   0.511
 5296SOL    HW216788   1.058   3.946   0.452
 5297SOL     OW16789   1.899   3.107   1.653
 5297SOL    HW116790   1.862   3.186   1.604
 5297SOL    HW216791   1.999   3.112   1.652
 5298SOL     OW16792   1.185   5.184   1.424
 5298SOL    HW116793   1.213   5.195   1.329
 5298SOL    HW216794   1.243   5.115   1.467
 5299SOL     OW16795   3.239   0.325   1.622
 5299SOL    HW116796   3.160   0.264   1.626
 5299SOL    HW216797   3.292   0.304   1.540
 5300SOL     OW16798   6.658   4.999   3.608
 5300SOL    HW116799   6.755   4.999   3.631
 5300SOL    HW216800   6.648   5.002   3.509
 5301SOL     OW16801   4.950   0.296   0.332
 5301SOL    HW116802   5.042   0.327   0.308
 5301SOL    HW216803   4.957   0.223   0.401
 5302SOL     OW16804   6.589   4.227   3.289
 5302SOL    HW116805   6.638   4.313   3.294
 5302SOL    HW216806   6.492   4.244   3.273
 5303SOL     OW16807   0.528   5.125   3.656
 5303SOL    HW116808   0.494   5.174   3.576
 5303SOL    HW216809   0.471   5.146   3.736
 5304SOL     OW16810   5.323   2.097   5.541
 5304SOL    HW116811   5.234   2.141   5.547
 5304SOL    HW216812   5.381   2.130   5.616
 5305SOL     OW16813   2.833   1.129   2.617
 5305SOL    HW116814   2.734   1.131   2.608
 5305SOL    HW216815   2.874   1.120   2.526
 5306SOL     OW16816   2.456   0.250   4.636
 5306SOL    HW116817   2.421   0.246   4.729
 5306SOL    HW216818   2.536   0.310   4.632
 5307SOL     OW16819   4.385   6.879   6.766
 5307SOL    HW116820   4.474   6.915   6.793
 5307SOL    HW216821   4.337   6.947   6.710
 5308SOL     OW16822   0.267   1.380   2.963
 5308SOL    HW116823   0.283   1.476   2.945
 5308SOL    HW216824   0.340   1.325   2.923
 5309SOL     OW16825   4.023   3.290   4.337
 5309SOL    HW116826   4.036   3.387   4.321
 5309SOL    HW216827   4.020   3.242   4.250
 5310SOL     OW16828   5.667   1.729   0.576
 5310SOL    HW116829   5.619   1.673   0.643
 5310SOL    HW216830   5.618   1.816   0.565
 5311SOL     OW16831   1.813   5.787   6.756
 5311SOL    HW116832   1.797   5.767   6.853
 5311SOL    HW216833   1.874   5.866   6.749
 5312SOL     OW16834   0.395   2.439   1.589
 5312SOL    HW116835   0.437   2.527   1.568
 5312SOL    HW216836   0.445   2.395   1.664
 5313SOL     OW16837   1.218   5.822   6.635
 5313SOL    HW116838   1.298   5.846   6.690
 5313SOL    HW216839   1.193   5.900   6.577
 5314SOL     OW16840   3.185   4.868   0.673
 5314SOL    HW116841   3.275   4.829   0.656
 5314SOL    HW216842   3.119   4.794   0.685
 5315SOL     OW16843   5.052   3.107   2.427
 5315SOL    HW116844   5.081   3.194   2.389
 5315SOL    HW216845   4.977   3.070   2.372
 5316SOL     OW16846   6.482   5.546   5.348
 5316SOL    HW116847   6.441   5.487   5.417
 5316SOL    HW216848   6.579   5.526   5.340
 5317SOL     OW16849   5.709   5.629   3.021
 5317SOL    HW116850   5.689   5.570   2.944
 5317SOL    HW216851   5.775   5.699   2.994
 5318SOL     OW16852   0.459   2.650   5.166
 5318SOL    HW116853   0.392   2.710   5.123
 5318SOL    HW216854   0.526   2.706   5.215
 5319SOL     OW16855   3.985   0.057   1.321
 5319SOL    HW116856   3.953   0.059   1.416
 5319SOL    HW216857   4.084   0.071   1.319
 5320SOL     OW16858   5.784   3.692   5.789
 5320SOL    HW116859   5.778   3.727   5.882
 5320SOL    HW216860   5.837   3.755   5.733
 5321SOL     OW16861   1.884   5.573   6.405
 5321SOL    HW116862   1.952   5.511   6.367
 5321SOL    HW216863   1.897   5.579   6.504
 5322SOL     OW16864   3.250   6.208   0.412
 5322SOL    HW116865   3.209   6.293   0.447
 5322SOL    HW216866   3.330   6.231   0.356
 5323SOL     OW16867   6.237   3.362   0.177
 5323SOL    HW116868   6.291   3.409   0.107
 5323SOL    HW216869   6.228   3.422   0.257
 5324SOL     OW16870   3.962   2.949   1.903
 5324SOL    HW116871   4.047   2.940   1.851
 5324SOL    HW216872   3.893   2.887   1.865
 5325SOL     OW16873   4.913   5.839   4.379
 5325SOL    HW116874   4.919   5.886   4.467
 5325SOL    HW216875   4.938   5.743   4.391
 5326SOL     OW16876   0.556   0.251   2.205
 5326SOL    HW116877   0.460   0.280   2.203
 5326SOL    HW216878   0.593   0.266   2.297
 5327SOL     OW16879   6.795   1.077   4.503
 5327SOL    HW116880   6.771   0.988   4.465
 5327SOL    HW216881   6.890   1.099   4.480
 5328SOL     OW16882   3.887   4.999   1.022
 5328SOL    HW116883   3.788   4.984   1.014
 5328SOL    HW216884   3.915   4.987   1.117
 5329SOL     OW16885   6.384   5.447   0.329
 5329SOL    HW116886   6.287   5.463   0.317
 5329SOL    HW216887   6.427   5.528   0.370
 5330SOL     OW16888   3.789   5.116   0.335
 5330SOL    HW116889   3.838   5.199   0.358
 5330SOL    HW216890   3.835   5.070   0.259
 5331SOL     OW16891   4.306   2.523   6.679
 5331SOL    HW116892   4.287   2.485   6.589
 5331SOL    HW216893   4.220   2.538   6.727
 5332SOL     OW16894   6.107   2.933   0.271
 5332SOL    HW116895   6.050   2.883   0.206
 5332SOL    HW216896   6.184   2.974   0.223
 5333SOL     OW16897   1.204   2.126   4.259
 5333SOL    HW116898   1.136   2.199   4.257
 5333SOL    HW216899   1.187   2.061   4.185
 5334SOL     OW16900   3.205   5.800   1.809
 5334SOL    HW116901   3.111   5.824   1.783
 5334SOL    HW216902   3.222   5.704   1.788
 5335SOL     OW16903   0.245   4.566   1.273
 5335SOL    HW116904   0.196   4.567   1.360
 5335SOL    HW216905   0.329   4.619   1.281
 5336SOL     OW16906   1.532   3.006   4.943
 5336SOL    HW116907   1.500   3.100   4.947
 5336SOL    HW216908   1.553   2.974   5.036
 5337SOL     OW16909   6.465   5.061   0.535
 5337SOL    HW116910   6.456   4.969   0.572
 5337SOL    HW216911   6.553   5.100   0.561
 5338SOL     OW16912   6.463   3.465   0.898
 5338SOL    HW116913   6.528   3.526   0.944
 5338SOL    HW216914   6.370   3.489   0.925
 5339SOL     OW16915   4.931   3.619   2.624
 5339SOL    HW116916   5.029   3.625   2.645
 5339SOL    HW216917   4.911   3.529   2.585
 5340SOL     OW16918   4.841   3.745   2.126
 5340SOL    HW116919   4.824   3.808   2.050
 5340SOL    HW216920   4.859   3.653   2.090
 5341SOL     OW16921   4.378   4.654   3.609
 5341SOL    HW116922   4.441   4.619   3.539
 5341SOL    HW216923   4.414   4.633   3.700
 5342SOL     OW16924   6.721   5.614   5.104
 5342SOL    HW116925   6.813   5.612   5.144
 5342SOL    HW216926   6.691   5.709   5.093
 5343SOL     OW16927   3.386   2.773   6.093
 5343SOL    HW116928   3.458   2.839   6.116
 5343SOL    HW216929   3.423   2.680   6.101
 5344SOL     OW16930   0.302   1.405   6.143
 5344SOL    HW116931   0.395   1.376   6.164
 5344SOL    HW216932   0.287   1.403   6.044
 5345SOL     OW16933   5.071   1.338   6.777
 5345SOL    HW116934   5.056   1.293   6.865
 5345SOL    HW216935   5.160   1.385   6.779
 5346SOL     OW16936   2.908   5.959   3.173
 5346SOL    HW116937   2.950   6.020   3.106
 5346SOL    HW216938   2.821   5.996   3.203
 5347SOL     OW16939   6.032   1.981   3.942
 5347SOL    HW116940   6.083   2.067   3.941
 5347SOL    HW216941   6.002   1.961   4.035
 5348SOL     OW16942   5.029   2.571   4.638
 5348SOL    HW116943   5.049   2.520   4.555
 5348SOL    HW216944   5.006   2.665   4.615
 5349SOL     OW16945   0.896   3.772   1.379
 5349SOL    HW116946   0.988   3.811   1.374
 5349SOL    HW216947   0.841   3.824   1.444
 5350SOL     OW16948   1.089   6.106   6.964
 5350SOL    HW116949   1.007   6.064   6.925
 5350SOL    HW216950   1.138   6.038   7.019
 5351SOL     OW16951   6.676   6.345   3.502
 5351SOL    HW116952   6.671   6.354   3.601
 5351SOL    HW216953   6.738   6.415   3.465
 5352SOL     OW16954   1.353   3.157   6.109
 5352SOL    HW116955   1.449   3.160   6.136
 5352SOL    HW216956   1.297   3.202   6.179
 5353SOL     OW16957   3.938   4.824   3.640
 5353SOL    HW116958   4.017   4.809   3.699
 5353SOL    HW216959   3.860   4.854   3.696
 5354SOL     OW16960   3.713   5.905   1.394
 5354SOL    HW116961   3.800   5.898   1.444
 5354SOL    HW216962   3.641   5.931   1.458
 5355SOL     OW16963   5.556   4.445   5.526
 5355SOL    HW116964   5.575   4.370   5.463
 5355SOL    HW216965   5.539   4.409   5.617
 5356SOL     OW16966   0.369   5.627   0.894
 5356SOL    HW116967   0.446   5.591   0.841
 5356SOL    HW216968   0.396   5.712   0.940
 5357SOL     OW16969   6.159   3.750   3.049
 5357SOL    HW116970   6.140   3.706   2.962
 5357SOL    HW216971   6.150   3.683   3.123
 5358SOL     OW16972   4.614   1.064   6.666
 5358SOL    HW116973   4.655   1.134   6.608
 5358SOL    HW216974   4.587   0.986   6.610
 5359SOL     OW16975   3.398   2.193   6.530
 5359SOL    HW116976   3.330   2.204   6.458
 5359SOL    HW216977   3.361   2.137   6.603
 5360SOL     OW16978   5.820   4.995   4.134
 5360SOL    HW116979   5.754   5.052   4.183
 5360SOL    HW216980   5.790   4.985   4.039
 5361SOL     OW16981   1.309   5.125   2.366
 5361SOL    HW116982   1.323   5.097   2.461
 5361SOL    HW216983   1.396   5.123   2.318
 5362SOL     OW16984   5.728   1.770   2.617
 5362SOL    HW116985   5.731   1.723   2.705
 5362SOL    HW216986   5.803   1.738   2.560
 5363SOL     OW16987   5.555   4.911   3.791
 5363SOL    HW116988   5.636   4.962   3.763
 5363SOL    HW216989   5.476   4.942   3.739
 5364SOL     OW16990   4.516   1.926   2.857
 5364SOL    HW116991   4.585   1.855   2.876
 5364SOL    HW216992   4.506   1.935   2.758
 5365SOL     OW16993   2.956   3.418   4.532
 5365SOL    HW116994   2.983   3.404   4.627
 5365SOL    HW216995   2.923   3.331   4.494
 5366SOL     OW16996   6.143   6.195   3.512
 5366SOL    HW116997   6.170   6.188   3.608
 5366SOL    HW216998   6.061   6.141   3.496
 5367SOL     OW16999   6.084   5.502   1.486
 5367SOL    HW117000   6.082   5.596   1.455
 5367SOL    HW217001   6.083   5.440   1.407
 5368SOL     OW17002   6.786   5.809   4.303
 5368SOL    HW117003   6.716   5.746   4.337
 5368SOL    HW217004   6.865   5.756   4.273
 5369SOL     OW17005   3.842   5.967   2.354
 5369SOL    HW117006   3.922   5.933   2.403
 5369SOL    HW217007   3.778   6.008   2.420
 5370SOL     OW17008   1.587   2.961   0.474
 5370SOL    HW117009   1.582   2.969   0.574
 5370SOL    HW217010   1.659   2.897   0.450
 5371SOL     OW17011   6.107   5.333   4.889
 5371SOL    HW117012   6.159   5.415   4.913
 5371SOL    HW217013   6.088   5.280   4.971
 5372SOL     OW17014   1.612   0.058   3.058
 5372SOL    HW117015   1.545   0.073   2.986
 5372SOL    HW217016   1.700   0.096   3.029
 5373SOL     OW17017   3.138   1.264   6.495
 5373SOL    HW117018   3.112   1.175   6.534
 5373SOL    HW217019   3.163   1.327   6.569
 5374SOL     OW17020   2.129   3.993   1.973
 5374SOL    HW117021   2.069   4.029   2.045
 5374SOL    HW217022   2.114   3.895   1.964
 5375SOL     OW17023   2.367   4.822   4.927
 5375SOL    HW117024   2.404   4.856   4.840
 5375SOL    HW217025   2.282   4.773   4.910
 5376SOL     OW17026   0.614   0.206   6.081
 5376SOL    HW117027   0.535   0.241   6.031
 5376SOL    HW217028   0.698   0.231   6.034
 5377SOL     OW17029   1.569   1.386   2.791
 5377SOL    HW117030   1.500   1.439   2.742
 5377SOL    HW217031   1.615   1.324   2.726
 5378SOL     OW17032   4.342   0.219   2.809
 5378SOL    HW117033   4.249   0.190   2.789
 5378SOL    HW217034   4.347   0.319   2.811
 5379SOL     OW17035   2.333   2.258   4.513
 5379SOL    HW117036   2.431   2.257   4.533
 5379SOL    HW217037   2.293   2.171   4.540
 5380SOL     OW17038   4.289   6.234   1.870
 5380SOL    HW117039   4.235   6.156   1.838
 5380SOL    HW217040   4.386   6.216   1.855
 5381SOL     OW17041   2.849   0.241   3.464
 5381SOL    HW117042   2.756   0.205   3.462
 5381SOL    HW217043   2.907   0.187   3.403
 5382SOL     OW17044   4.634   0.997   2.417
 5382SOL    HW117045   4.658   0.904   2.445
 5382SOL    HW217046   4.542   0.997   2.378
 5383SOL     OW17047   2.297   2.868   4.448
 5383SOL    HW117048   2.264   2.936   4.514
 5383SOL    HW217049   2.343   2.794   4.497
 5384SOL     OW17050   5.911   5.419   5.482
 5384SOL    HW117051   5.864   5.345   5.528
 5384SOL    HW217052   5.847   5.494   5.464
 5385SOL     OW17053   3.862   3.389   6.169
 5385SOL    HW117054   3.786   3.392   6.234
 5385SOL    HW217055   3.830   3.418   6.079
 5386SOL     OW17056   5.054   4.773   4.478
 5386SOL    HW117057   4.983   4.773   4.548
 5386SOL    HW217058   5.034   4.704   4.409
 5387SOL     OW17059   1.097   1.714   4.264
 5387SOL    HW117060   1.117   1.800   4.218
 5387SOL    HW217061   1.162   1.699   4.338
 5388SOL     OW17062   0.431   6.739   3.075
 5388SOL    HW117063   0.333   6.755   3.078
 5388SOL    HW217064   0.477   6.797   3.143
 5389SOL     OW17065   5.161   1.111   3.422
 5389SOL    HW117066   5.223   1.116   3.343
 5389SOL    HW217067   5.103   1.193   3.423
 5390SOL     OW17068   6.864   3.705   3.510
 5390SOL    HW117069   6.770   3.676   3.492
 5390SOL    HW217070   6.901   3.749   3.428
 5391SOL     OW17071   3.134   2.860   0.679
 5391SOL    HW117072   3.181   2.776   0.651
 5391SOL    HW217073   3.101   2.908   0.599
 5392SOL     OW17074   6.066   0.556   3.815
 5392SOL    HW117075   6.004   0.628   3.849
 5392SOL    HW217076   6.035   0.525   3.725
 5393SOL     OW17077   4.532   2.514   4.398
 5393SOL    HW117078   4.611   2.455   4.418
 5393SOL    HW217079   4.556   2.609   4.415
 5394SOL     OW17080   0.712   1.925   1.482
 5394SOL    HW117081   0.770   1.993   1.526
 5394SOL    HW217082   0.669   1.868   1.552
 5395SOL     OW17083   6.515   1.108   0.706
 5395SOL    HW117084   6.534   1.011   0.722
 5395SOL    HW217085   6.489   1.122   0.611
 5396SOL     OW17086   4.455   3.934   0.546
 5396SOL    HW117087   4.373   3.986   0.523
 5396SOL    HW217088   4.443   3.891   0.636
 5397SOL     OW17089   0.062   0.800   2.724
 5397SOL    HW117090   6.995   0.760   2.741
 5397SOL    HW217091   0.118   0.792   2.806
 5398SOL     OW17092   6.315   3.031   2.196
 5398SOL    HW117093   6.347   2.964   2.263
 5398SOL    HW217094   6.236   2.993   2.147
 5399SOL     OW17095   1.641   2.123   0.215
 5399SOL    HW117096   1.647   2.027   0.242
 5399SOL    HW217097   1.548   2.144   0.185
 5400SOL     OW17098   4.818   2.957   1.296
 5400SOL    HW117099   4.891   2.944   1.362
 5400SOL    HW217100   4.741   3.003   1.340
 5401SOL     OW17101   5.255   2.384   1.209
 5401SOL    HW117102   5.338   2.437   1.224
 5401SOL    HW217103   5.256   2.347   1.116
 5402SOL     OW17104   1.541   6.194   2.342
 5402SOL    HW117105   1.606   6.162   2.274
 5402SOL    HW217106   1.590   6.237   2.418
 5403SOL     OW17107   4.598   2.502   0.030
 5403SOL    HW117108   4.617   2.585   7.003
 5403SOL    HW217109   4.679   2.474   0.082
 5404SOL     OW17110   5.092   0.200   0.079
 5404SOL    HW117111   5.043   0.284   0.057
 5404SOL    HW217112   5.167   0.188   0.014
 5405SOL     OW17113   0.162   4.797   0.254
 5405SOL    HW117114   0.117   4.796   0.343
 5405SOL    HW217115   0.229   4.723   0.249
 5406SOL     OW17116   2.307   1.004   5.891
 5406SOL    HW117117   2.259   0.968   5.811
 5406SOL    HW217118   2.303   1.104   5.890
 5407SOL     OW17119   1.647   7.004   3.314
 5407SOL    HW117120   1.747   7.009   3.317
 5407SOL    HW217121   1.614   0.041   3.242
 5408SOL     OW17122   2.157   1.799   4.707
 5408SOL    HW117123   2.241   1.826   4.753
 5408SOL    HW217124   2.169   1.707   4.668
 5409SOL     OW17125   1.126   2.602   2.205
 5409SOL    HW117126   1.160   2.661   2.132
 5409SOL    HW217127   1.027   2.592   2.196
 5410SOL     OW17128   6.502   2.384   0.545
 5410SOL    HW117129   6.443   2.455   0.584
 5410SOL    HW217130   6.473   2.364   0.452
 5411SOL     OW17131   3.475   5.530   6.840
 5411SOL    HW117132   3.410   5.606   6.841
 5411SOL    HW217133   3.568   5.566   6.844
 5412SOL     OW17134   0.263   2.365   6.098
 5412SOL    HW117135   0.331   2.293   6.084
 5412SOL    HW217136   0.309   2.452   6.114
 5413SOL     OW17137   1.023   5.252   4.572
 5413SOL    HW117138   1.041   5.336   4.522
 5413SOL    HW217139   1.107   5.199   4.580
 5414SOL     OW17140   5.047   4.471   5.944
 5414SOL    HW117141   5.046   4.540   6.017
 5414SOL    HW217142   5.123   4.489   5.882
 5415SOL     OW17143   3.866   1.123   0.368
 5415SOL    HW117144   3.892   1.093   0.460
 5415SOL    HW217145   3.918   1.204   0.342
 5416SOL     OW17146   3.803   5.629   0.121
 5416SOL    HW117147   3.733   5.651   0.188
 5416SOL    HW217148   3.810   5.529   0.112
 5417SOL     OW17149   4.519   6.505   3.990
 5417SOL    HW117150   4.552   6.586   4.038
 5417SOL    HW217151   4.579   6.485   3.913
 5418SOL     OW17152   6.539   3.111   5.622
 5418SOL    HW117153   6.636   3.137   5.625
 5418SOL    HW217154   6.510   3.102   5.527
 5419SOL     OW17155   4.074   1.607   5.902
 5419SOL    HW117156   4.126   1.563   5.975
 5419SOL    HW217157   4.111   1.699   5.886
 5420SOL     OW17158   1.555   2.259   1.847
 5420SOL    HW117159   1.517   2.196   1.914
 5420SOL    HW217160   1.650   2.235   1.829
 5421SOL     OW17161   3.563   4.854   2.277
 5421SOL    HW117162   3.591   4.793   2.202
 5421SOL    HW217163   3.533   4.942   2.239
 5422SOL     OW17164   2.960   5.012   4.043
 5422SOL    HW117165   2.922   4.924   4.072
 5422SOL    HW217166   3.046   4.997   3.993
 5423SOL     OW17167   4.983   6.677   1.964
 5423SOL    HW117168   5.061   6.675   2.026
 5423SOL    HW217169   5.013   6.710   1.874
 5424SOL     OW17170   3.996   3.455   5.439
 5424SOL    HW117171   4.005   3.407   5.526
 5424SOL    HW217172   4.036   3.400   5.366
 5425SOL     OW17173   1.550   4.269   5.758
 5425SOL    HW117174   1.607   4.231   5.685
 5425SOL    HW217175   1.456   4.278   5.726
 5426SOL     OW17176   6.699   5.108   1.405
 5426SOL    HW117177   6.658   5.103   1.496
 5426SOL    HW217178   6.798   5.114   1.414
 5427SOL     OW17179   4.051   3.112   0.455
 5427SOL    HW117180   4.093   3.171   0.523
 5427SOL    HW217181   4.047   3.018   0.490
 5428SOL     OW17182   5.402   5.332   3.260
 5428SOL    HW117183   5.445   5.411   3.216
 5428SOL    HW217184   5.304   5.349   3.269
 5429SOL     OW17185   2.938   0.015   4.606
 5429SOL    HW117186   3.016   0.045   4.551
 5429SOL    HW217187   2.877   0.092   4.623
 5430SOL     OW17188   2.609   3.814   5.609
 5430SOL    HW117189   2.659   3.761   5.678
 5430SOL    HW217190   2.647   3.795   5.518
 5431SOL     OW17191   4.513   4.740   0.430
 5431SOL    HW117192   4.598   4.791   0.418
 5431SOL    HW217193   4.449   4.794   0.485
 5432SOL     OW17194   0.394   5.326   6.846
 5432SOL    HW117195   0.331   5.393   6.884
 5432SOL    HW217196   0.471   5.314   6.909
 5433SOL     OW17197   3.499   0.366   1.249
 5433SOL    HW117198   3.404   0.335   1.259
 5433SOL    HW217199   3.549   0.345   1.333
 5434SOL     OW17200   4.655   0.676   4.511
 5434SOL    HW117201   4.722   0.602   4.504
 5434SOL    HW217202   4.672   0.729   4.594
 5435SOL     OW17203   6.620   5.062   0.857
 5435SOL    HW117204   6.691   5.120   0.897
 5435SOL    HW217205   6.662   4.987   0.806
 5436SOL     OW17206   2.006   4.620   2.805
 5436SOL    HW117207   1.921   4.590   2.848
 5436SOL    HW217208   2.017   4.573   2.717
 5437SOL     OW17209   3.486   6.408   1.003
 5437SOL    HW117210   3.553   6.334   0.998
 5437SOL    HW217211   3.523   6.489   0.958
 5438SOL     OW17212   4.623   6.060   2.271
 5438SOL    HW117213   4.638   6.015   2.184
 5438SOL    HW217214   4.711   6.089   2.310
 5439SOL     OW17215   0.986   4.398   1.337
 5439SOL    HW117216   1.066   4.347   1.370
 5439SOL    HW217217   1.011   4.493   1.320
 5440SOL     OW17218   6.036   6.437   3.748
 5440SOL    HW117219   6.023   6.342   3.719
 5440SOL    HW217220   6.016   6.498   3.672
 5441SOL     OW17221   5.564   2.567   4.793
 5441SOL    HW117222   5.474   2.529   4.769
 5441SOL    HW217223   5.600   2.519   4.873
 5442SOL     OW17224   3.120   0.613   6.593
 5442SOL    HW117225   3.044   0.629   6.657
 5442SOL    HW217226   3.086   0.563   6.514
 5443SOL     OW17227   5.368   1.228   2.974
 5443SOL    HW117228   5.417   1.291   3.033
 5443SOL    HW217229   5.363   1.265   2.881
 5444SOL     OW17230   6.659   0.723   6.138
 5444SOL    HW117231   6.584   0.706   6.075
 5444SOL    HW217232   6.624   0.724   6.232
 5445SOL     OW17233   5.639   5.819   6.093
 5445SOL    HW117234   5.668   5.865   6.009
 5445SOL    HW217235   5.694   5.852   6.170
 5446SOL     OW17236   6.924   4.419   6.216
 5446SOL    HW117237   7.004   4.471   6.184
 5446SOL    HW217238   6.948   4.371   6.300
 5447SOL     OW17239   0.045   1.393   1.806
 5447SOL    HW117240   0.069   1.369   1.712
 5447SOL    HW217241   6.971   1.417   1.811
 5448SOL     OW17242   5.181   4.680   2.996
 5448SOL    HW117243   5.104   4.617   2.986
 5448SOL    HW217244   5.154   4.771   2.967
 5449SOL     OW17245   3.077   1.124   2.021
 5449SOL    HW117246   3.028   1.210   2.011
 5449SOL    HW217247   3.012   1.048   2.019
 5450SOL     OW17248   4.231   5.788   2.050
 5450SOL    HW117249   4.281   5.871   2.075
 5450SOL    HW217250   4.146   5.783   2.103
 5451SOL     OW17251   6.333   6.374   3.417
 5451SOL    HW117252   6.273   6.295   3.430
 5451SOL    HW217253   6.428   6.346   3.431
 5452SOL     OW17254   2.009   3.770   2.408
 5452SOL    HW117255   2.050   3.855   2.376
 5452SOL    HW217256   2.007   3.703   2.334
 5453SOL     OW17257   6.712   4.690   3.949
 5453SOL    HW117258   6.682   4.783   3.929
 5453SOL    HW217259   6.703   4.634   3.866
 5454SOL     OW17260   6.245   3.991   3.288
 5454SOL    HW117261   6.315   3.938   3.241
 5454SOL    HW217262   6.243   3.965   3.385
 5455SOL     OW17263   2.580   2.052   3.616
 5455SOL    HW117264   2.600   1.983   3.546
 5455SOL    HW217265   2.603   2.143   3.581
 5456SOL     OW17266   5.234   2.403   0.791
 5456SOL    HW117267   5.315   2.382   0.736
 5456SOL    HW217268   5.195   2.490   0.760
 5457SOL     OW17269   5.530   1.186   6.343
 5457SOL    HW117270   5.541   1.198   6.442
 5457SOL    HW217271   5.469   1.258   6.307
 5458SOL     OW17272   5.836   3.469   0.234
 5458SOL    HW117273   5.843   3.440   0.139
 5458SOL    HW217274   5.870   3.396   0.294
 5459SOL     OW17275   1.779   3.556   4.818
 5459SOL    HW117276   1.750   3.564   4.914
 5459SOL    HW217277   1.789   3.459   4.795
 5460SOL     OW17278   1.068   0.755   1.237
 5460SOL    HW117279   0.986   0.750   1.294
 5460SOL    HW217280   1.107   0.847   1.243
 5461SOL     OW17281   6.553   0.726   5.642
 5461SOL    HW117282   6.529   0.797   5.576
 5461SOL    HW217283   6.572   0.767   5.731
 5462SOL     OW17284   5.041   4.362   6.355
 5462SOL    HW117285   5.078   4.433   6.415
 5462SOL    HW217286   5.047   4.273   6.401
 5463SOL     OW17287   0.966   3.022   6.003
 5463SOL    HW117288   0.922   3.104   6.039
 5463SOL    HW217289   0.930   2.942   6.051
 5464SOL     OW17290   1.996   5.839   5.690
 5464SOL    HW117291   1.952   5.856   5.778
 5464SOL    HW217292   2.008   5.926   5.642
 5465SOL     OW17293   0.596   6.784   4.321
 5465SOL    HW117294   0.602   6.866   4.265
 5465SOL    HW217295   0.541   6.715   4.273
 5466SOL     OW17296   5.835   2.213   4.720
 5466SOL    HW117297   5.797   2.123   4.703
 5466SOL    HW217298   5.902   2.235   4.649
 5467SOL     OW17299   4.829   3.224   4.166
 5467SOL    HW117300   4.850   3.301   4.105
 5467SOL    HW217301   4.855   3.247   4.260
 5468SOL     OW17302   0.147   0.955   0.719
 5468SOL    HW117303   0.111   0.867   0.689
 5468SOL    HW217304   0.187   0.946   0.810
 5469SOL     OW17305   3.716   0.440   4.069
 5469SOL    HW117306   3.748   0.490   4.150
 5469SOL    HW217307   3.654   0.367   4.097
 5470SOL     OW17308   4.153   5.164   4.063
 5470SOL    HW117309   4.189   5.117   3.982
 5470SOL    HW217310   4.143   5.099   4.138
 5471SOL     OW17311   4.952   0.965   3.050
 5471SOL    HW117312   5.034   0.915   3.079
 5471SOL    HW217313   4.978   1.050   3.005
 5472SOL     OW17314   3.147   3.486   6.624
 5472SOL    HW117315   3.154   3.579   6.588
 5472SOL    HW217316   3.079   3.435   6.571
 5473SOL     OW17317   2.443   4.862   1.923
 5473SOL    HW117318   2.534   4.830   1.897
 5473SOL    HW217319   2.447   4.958   1.952
 5474SOL     OW17320   1.078   4.950   2.641
 5474SOL    HW117321   1.173   4.965   2.670
 5474SOL    HW217322   1.032   4.890   2.706
 5475SOL     OW17323   0.884   1.060   4.893
 5475SOL    HW117324   0.820   1.063   4.969
 5475SOL    HW217325   0.978   1.061   4.929
 5476SOL     OW17326   2.518   6.951   5.007
 5476SOL    HW117327   2.579   6.988   5.077
 5476SOL    HW217328   2.423   6.967   5.034
 5477SOL     OW17329   1.725   4.078   3.974
 5477SOL    HW117330   1.772   4.067   3.887
 5477SOL    HW217331   1.635   4.033   3.968
 5478SOL     OW17332   5.034   4.774   6.147
 5478SOL    HW117333   4.991   4.814   6.066
 5478SOL    HW217334   4.989   4.688   6.170
 5479SOL     OW17335   4.991   1.662   4.826
 5479SOL    HW117336   4.891   1.663   4.826
 5479SOL    HW217337   5.023   1.568   4.841
 5480SOL     OW17338   0.717   3.608   4.015
 5480SOL    HW117339   0.758   3.553   4.088
 5480SOL    HW217340   0.618   3.594   4.015
 5481SOL     OW17341   4.695   1.803   6.100
 5481SOL    HW117342   4.644   1.881   6.063
 5481SOL    HW217343   4.648   1.719   6.074
 5482SOL     OW17344   5.411   2.968   1.349
 5482SOL    HW117345   5.482   3.017   1.299
 5482SOL    HW217346   5.367   3.030   1.414
 5483SOL     OW17347   6.639   2.689   6.542
 5483SOL    HW117348   6.623   2.751   6.619
 5483SOL    HW217349   6.590   2.722   6.461
 5484SOL     OW17350   6.781   6.667   4.659
 5484SOL    HW117351   6.725   6.719   4.723
 5484SOL    HW217352   6.820   6.587   4.705
 5485SOL     OW17353   3.513   0.302   5.357
 5485SOL    HW117354   3.507   0.395   5.322
 5485SOL    HW217355   3.493   0.237   5.283
 5486SOL     OW17356   1.230   0.505   3.933
 5486SOL    HW117357   1.229   0.580   3.999
 5486SOL    HW217358   1.143   0.456   3.936
 5487SOL     OW17359   4.520   4.722   1.030
 5487SOL    HW117360   4.569   4.655   1.085
 5487SOL    HW217361   4.442   4.758   1.082
 5488SOL     OW17362   4.700   0.984   5.895
 5488SOL    HW117363   4.642   0.947   5.823
 5488SOL    HW217364   4.727   1.078   5.871
 5489SOL     OW17365   0.737   4.146   3.231
 5489SOL    HW117366   0.738   4.046   3.235
 5489SOL    HW217367   0.753   4.183   3.323
 5490SOL     OW17368   1.879   2.031   6.741
 5490SOL    HW117369   1.837   1.992   6.660
 5490SOL    HW217370   1.818   2.099   6.782
 5491SOL     OW17371   0.167   5.312   1.702
 5491SOL    HW117372   0.247   5.301   1.643
 5491SOL    HW217373   0.085   5.325   1.645
 5492SOL     OW17374   1.592   1.086   5.193
 5492SOL    HW117375   1.667   1.064   5.131
 5492SOL    HW217376   1.622   1.157   5.258
 5493SOL     OW17377   2.851   3.016   0.103
 5493SOL    HW117378   2.798   3.080   0.046
 5493SOL    HW217379   2.930   2.983   0.051
 5494SOL     OW17380   6.093   2.904   2.120
 5494SOL    HW117381   6.126   2.832   2.059
 5494SOL    HW217382   6.006   2.940   2.085
 5495SOL     OW17383   3.501   2.833   2.361
 5495SOL    HW117384   3.551   2.769   2.303
 5495SOL    HW217385   3.416   2.861   2.315
 5496SOL     OW17386   3.478   5.702   1.510
 5496SOL    HW117387   3.448   5.681   1.417
 5496SOL    HW217388   3.443   5.791   1.537
 5497SOL     OW17389   6.410   6.871   2.176
 5497SOL    HW117390   6.327   6.885   2.232
 5497SOL    HW217391   6.443   6.778   2.188
 5498SOL     OW17392   4.570   0.596   5.268
 5498SOL    HW117393   4.594   0.667   5.334
 5498SOL    HW217394   4.652   0.543   5.245
 5499SOL     OW17395   0.254   1.987   4.171
 5499SOL    HW117396   0.233   1.892   4.195
 5499SOL    HW217397   0.211   2.049   4.237
 5500SOL     OW17398   1.840   5.910   1.978
 5500SOL    HW117399   1.744   5.883   1.985
 5500SOL    HW217400   1.888   5.846   1.918
 5501SOL     OW17401   2.199   6.859   2.551
 5501SOL    HW117402   2.225   6.955   2.541
 5501SOL    HW217403   2.152   6.828   2.468
 5502SOL     OW17404   4.531   4.024   0.018
 5502SOL    HW117405   4.456   3.967   7.009
 5502SOL    HW217406   4.499   4.118   0.032
 5503SOL     OW17407   1.657   5.438   4.374
 5503SOL    HW117408   1.715   5.441   4.456
 5503SOL    HW217409   1.644   5.531   4.339
 5504SOL     OW17410   3.337   2.043   5.038
 5504SOL    HW117411   3.431   2.060   5.009
 5504SOL    HW217412   3.290   2.130   5.050
 5505SOL     OW17413   2.610   4.721   5.727
 5505SOL    HW117414   2.663   4.637   5.722
 5505SOL    HW217415   2.541   4.721   5.654
 5506SOL     OW17416   6.419   0.051   5.401
 5506SOL    HW117417   6.502   0.093   5.438
 5506SOL    HW217418   6.367   0.120   5.350
 5507SOL     OW17419   3.160   5.672   3.964
 5507SOL    HW117420   3.072   5.628   3.982
 5507SOL    HW217421   3.152   5.733   3.886
 5508SOL     OW17422   2.224   0.902   6.143
 5508SOL    HW117423   2.278   0.821   6.166
 5508SOL    HW217424   2.256   0.940   6.057
 5509SOL     OW17425   5.727   6.249   6.759
 5509SOL    HW117426   5.763   6.167   6.804
 5509SOL    HW217427   5.708   6.319   6.828
 5510SOL     OW17428   5.148   0.799   5.234
 5510SOL    HW117429   5.153   0.884   5.287
 5510SOL    HW217430   5.237   0.780   5.192
 5511SOL     OW17431   0.588   1.386   2.316
 5511SOL    HW117432   0.601   1.313   2.248
 5511SOL    HW217433   0.543   1.464   2.272
 5512SOL     OW17434   2.065   0.182   1.196
 5512SOL    HW117435   2.078   0.150   1.103
 5512SOL    HW217436   2.038   0.106   1.255
 5513SOL     OW17437   3.770   4.889   4.441
 5513SOL    HW117438   3.714   4.968   4.467
 5513SOL    HW217439   3.711   4.809   4.430
 5514SOL     OW17440   5.733   5.317   3.331
 5514SOL    HW117441   5.728   5.412   3.301
 5514SOL    HW217442   5.644   5.273   3.319
 5515SOL     OW17443   6.764   2.606   1.466
 5515SOL    HW117444   6.691   2.651   1.415
 5515SOL    HW217445   6.747   2.508   1.471
 5516SOL     OW17446   1.582   3.430   6.143
 5516SOL    HW117447   1.538   3.483   6.071
 5516SOL    HW217448   1.606   3.491   6.219
 5517SOL     OW17449   2.525   1.395   2.869
 5517SOL    HW117450   2.537   1.353   2.779
 5517SOL    HW217451   2.473   1.480   2.859
 5518SOL     OW17452   5.927   4.694   4.607
 5518SOL    HW117453   5.871   4.748   4.669
 5518SOL    HW217454   6.003   4.750   4.573
 5519SOL     OW17455   4.909   3.598   4.157
 5519SOL    HW117456   4.843   3.549   4.100
 5519SOL    HW217457   4.996   3.608   4.108
 5520SOL     OW17458   1.819   3.892   1.634
 5520SOL    HW117459   1.823   3.990   1.655
 5520SOL    HW217460   1.881   3.871   1.558
 5521SOL     OW17461   5.355   5.292   1.948
 5521SOL    HW117462   5.402   5.286   2.036
 5521SOL    HW217463   5.291   5.369   1.950
 5522SOL     OW17464   2.232   3.628   1.674
 5522SOL    HW117465   2.274   3.583   1.753
 5522SOL    HW217466   2.297   3.691   1.634
 5523SOL     OW17467   2.890   0.931   2.003
 5523SOL    HW117468   2.799   0.895   2.023
 5523SOL    HW217469   2.933   0.875   1.933
 5524SOL     OW17470   0.110   5.876   6.036
 5524SOL    HW117471   0.205   5.848   6.052
 5524SOL    HW217472   0.084   5.946   6.102
 5525SOL     OW17473   0.138   5.327   5.179
 5525SOL    HW117474   0.075   5.267   5.130
 5525SOL    HW217475   0.226   5.330   5.131
 5526SOL     OW17476   6.359   2.933   4.772
 5526SOL    HW117477   6.328   2.906   4.863
 5526SOL    HW217478   6.389   2.851   4.722
 5527SOL     OW17479   1.963   3.501   1.293
 5527SOL    HW117480   1.889   3.544   1.242
 5527SOL    HW217481   1.989   3.415   1.249
 5528SOL     OW17482   0.402   3.272   3.543
 5528SOL    HW117483   0.435   3.300   3.633
 5528SOL    HW217484   0.462   3.201   3.506
 5529SOL     OW17485   1.538   1.502   5.079
 5529SOL    HW117486   1.465   1.461   5.024
 5529SOL    HW217487   1.533   1.601   5.073
 5530SOL     OW17488   0.795   2.602   0.783
 5530SOL    HW117489   0.884   2.647   0.793
 5530SOL    HW217490   0.799   2.510   0.822
 5531SOL     OW17491   3.372   2.745   5.799
 5531SOL    HW117492   3.403   2.834   5.763
 5531SOL    HW217493   3.377   2.747   5.899
 5532SOL     OW17494   2.837   1.574   1.065
 5532SOL    HW117495   2.913   1.633   1.041
 5532SOL    HW217496   2.817   1.582   1.162
 5533SOL     OW17497   4.262   0.891   1.117
 5533SOL    HW117498   4.165   0.882   1.095
 5533SOL    HW217499   4.284   0.837   1.198
 5534SOL     OW17500   0.017   3.982   5.904
 5534SOL    HW117501   6.985   4.057   5.938
 5534SOL    HW217502   0.010   3.977   5.804
 5535SOL     OW17503   6.303   2.849   3.296
 5535SOL    HW117504   6.220   2.878   3.248
 5535SOL    HW217505   6.284   2.839   3.393
 5536SOL     OW17506   1.856   0.612   3.540
 5536SOL    HW117507   1.882   0.635   3.634
 5536SOL    HW217508   1.799   0.530   3.540
 5537SOL     OW17509   4.329   0.995   4.410
 5537SOL    HW117510   4.372   1.016   4.322
 5537SOL    HW217511   4.242   1.044   4.417
 5538SOL     OW17512   5.225   1.775   0.285
 5538SOL    HW117513   5.154   1.793   0.354
 5538SOL    HW217514   5.182   1.768   0.195
 5539SOL     OW17515   3.215   7.001   0.295
 5539SOL    HW117516   3.291   7.019   0.233
 5539SOL    HW217517   3.186   6.905   0.285
 5540SOL     OW17518   5.432   0.499   6.660
 5540SOL    HW117519   5.446   0.405   6.630
 5540SOL    HW217520   5.372   0.500   6.740
 5541SOL     OW17521   4.545   3.657   5.878
 5541SOL    HW117522   4.604   3.673   5.957
 5541SOL    HW217523   4.490   3.574   5.893
 5542SOL     OW17524   4.092   4.725   0.249
 5542SOL    HW117525   4.057   4.729   0.343
 5542SOL    HW217526   4.079   4.633   0.213
 5543SOL     OW17527   1.277   0.412   1.024
 5543SOL    HW117528   1.269   0.507   1.052
 5543SOL    HW217529   1.265   0.405   0.925
 5544SOL     OW17530   3.933   5.796   5.874
 5544SOL    HW117531   3.908   5.832   5.784
 5544SOL    HW217532   3.860   5.736   5.907
 5545SOL     OW17533   3.774   0.472   3.119
 5545SOL    HW117534   3.855   0.413   3.107
 5545SOL    HW217535   3.732   0.453   3.208
 5546SOL     OW17536   0.794   5.534   4.885
 5546SOL    HW117537   0.831   5.467   4.949
 5546SOL    HW217538   0.775   5.619   4.932
 5547SOL     OW17539   5.388   1.378   4.657
 5547SOL    HW117540   5.472   1.366   4.709
 5547SOL    HW217541   5.390   1.467   4.610
 5548SOL     OW17542   6.280   4.700   5.362
 5548SOL    HW117543   6.344   4.725   5.435
 5548SOL    HW217544   6.247   4.607   5.378
 5549SOL     OW17545   4.482   2.869   0.927
 5549SOL    HW117546   4.394   2.855   0.972
 5549SOL    HW217547   4.495   2.967   0.909
 5550SOL     OW17548   1.729   3.598   2.124
 5550SOL    HW117549   1.749   3.501   2.140
 5550SOL    HW217550   1.814   3.647   2.105
 5551SOL     OW17551   2.009   5.094   4.353
 5551SOL    HW117552   2.079   5.141   4.300
 5551SOL    HW217553   1.978   5.154   4.427
 5552SOL     OW17554   0.350   6.614   6.895
 5552SOL    HW117555   0.446   6.598   6.870
 5552SOL    HW217556   0.343   6.634   6.992
 5553SOL     OW17557   4.640   0.164   6.931
 5553SOL    HW117558   4.620   0.194   6.838
 5553SOL    HW217559   4.591   0.223   6.996
 5554SOL     OW17560   5.165   2.565   1.459
 5554SOL    HW117561   5.187   2.476   1.498
 5554SOL    HW217562   5.187   2.567   1.362
 5555SOL     OW17563   1.806   4.242   2.304
 5555SOL    HW117564   1.752   4.192   2.372
 5555SOL    HW217565   1.903   4.239   2.330
 5556SOL     OW17566   6.965   0.329   4.973
 5556SOL    HW117567   6.959   0.393   5.050
 5556SOL    HW217568   6.925   0.371   4.891
 5557SOL     OW17569   3.215   6.523   1.760
 5557SOL    HW117570   3.206   6.443   1.700
 5557SOL    HW217571   3.189   6.606   1.710
 5558SOL     OW17572   3.802   4.657   6.904
 5558SOL    HW117573   3.758   4.567   6.911
 5558SOL    HW217574   3.831   4.672   6.810
 5559SOL     OW17575   1.819   0.192   2.520
 5559SOL    HW117576   1.869   0.118   2.564
 5559SOL    HW217577   1.824   0.181   2.421
 5560SOL     OW17578   0.388   5.933   3.045
 5560SOL    HW117579   0.401   5.835   3.026
 5560SOL    HW217580   0.441   5.987   2.980
 5561SOL     OW17581   3.447   0.092   3.880
 5561SOL    HW117582   3.491   0.102   3.969
 5561SOL    HW217583   3.348   0.085   3.892
 5562SOL     OW17584   4.013   3.750   1.342
 5562SOL    HW117585   4.041   3.844   1.365
 5562SOL    HW217586   4.084   3.686   1.373
 5563SOL     OW17587   2.796   4.734   2.875
 5563SOL    HW117588   2.753   4.708   2.962
 5563SOL    HW217589   2.888   4.768   2.893
 5564SOL     OW17590   5.560   0.904   5.832
 5564SOL    HW117591   5.590   1.000   5.838
 5564SOL    HW217592   5.472   0.899   5.786
 5565SOL     OW17593   2.866   2.361   6.755
 5565SOL    HW117594   2.939   2.426   6.775
 5565SOL    HW217595   2.830   2.323   6.840
 5566SOL     OW17596   0.940   3.271   6.419
 5566SOL    HW117597   0.890   3.210   6.480
 5566SOL    HW217598   0.945   3.363   6.459
 5567SOL     OW17599   6.633   4.610   1.570
 5567SOL    HW117600   6.578   4.672   1.625
 5567SOL    HW217601   6.615   4.626   1.473
 5568SOL     OW17602   4.604   6.556   1.811
 5568SOL    HW117603   4.641   6.642   1.848
 5568SOL    HW217604   4.628   6.481   1.872
 5569SOL     OW17605   2.273   2.782   4.191
 5569SOL    HW117606   2.256   2.811   4.285
 5569SOL    HW217607   2.356   2.725   4.188
 5570SOL     OW17608   0.205   3.667   2.993
 5570SOL    HW117609   0.230   3.662   3.090
 5570SOL    HW217610   0.251   3.746   2.951
 5571SOL     OW17611   6.611   5.018   2.013
 5571SOL    HW117612   6.602   4.933   2.066
 5571SOL    HW217613   6.533   5.077   2.032
 5572SOL     OW17614   1.262   3.024   4.837
 5572SOL    HW117615   1.355   3.020   4.875
 5572SOL    HW217616   1.263   2.990   4.743
 5573SOL     OW17617   2.726   5.215   4.408
 5573SOL    HW117618   2.738   5.200   4.506
 5573SOL    HW217619   2.643   5.268   4.392
 5574SOL     OW17620   0.102   1.956   6.403
 5574SOL    HW117621   0.084   2.054   6.392
 5574SOL    HW217622   0.039   1.918   6.470
 5575SOL     OW17623   0.437   0.049   1.454
 5575SOL    HW117624   0.359   0.111   1.449
 5575SOL    HW217625   0.409   6.987   1.497
 5576SOL     OW17626   1.957   4.249   3.411
 5576SOL    HW117627   1.903   4.282   3.334
 5576SOL    HW217628   1.998   4.161   3.388
 5577SOL     OW17629   1.644   3.596   6.335
 5577SOL    HW117630   1.607   3.557   6.419
 5577SOL    HW217631   1.723   3.653   6.356
 5578SOL     OW17632   3.705   3.275   2.623
 5578SOL    HW117633   3.639   3.210   2.585
 5578SOL    HW217634   3.786   3.226   2.655
 5579SOL     OW17635   0.399   2.881   1.380
 5579SOL    HW117636   0.308   2.862   1.343
 5579SOL    HW217637   0.433   2.967   1.344
 5580SOL     OW17638   4.934   1.937   5.166
 5580SOL    HW117639   4.978   1.859   5.211
 5580SOL    HW217640   4.835   1.931   5.181
 5581SOL     OW17641   0.550   1.789   6.910
 5581SOL    HW117642   0.560   1.700   6.953
 5581SOL    HW217643   0.549   1.860   6.980
 5582SOL     OW17644   2.399   3.106   6.557
 5582SOL    HW117645   2.387   3.028   6.496
 5582SOL    HW217646   2.492   3.103   6.596
 5583SOL     OW17647   5.165   1.288   2.044
 5583SOL    HW117648   5.164   1.388   2.046
 5583SOL    HW217649   5.226   1.256   1.972
 5584SOL     OW17650   0.302   4.230   5.320
 5584SOL    HW117651   0.394   4.211   5.286
 5584SOL    HW217652   0.262   4.305   5.268
 5585SOL     OW17653   4.436   4.979   1.991
 5585SOL    HW117654   4.368   5.015   2.056
 5585SOL    HW217655   4.527   4.983   2.033
 5586SOL     OW17656   6.761   2.893   6.219
 5586SOL    HW117657   6.668   2.888   6.256
 5586SOL    HW217658   6.797   2.801   6.207
 5587SOL     OW17659   5.213   0.544   6.372
 5587SOL    HW117660   5.242   0.570   6.280
 5587SOL    HW217661   5.251   0.608   6.439
 5588SOL     OW17662   3.342   6.466   1.244
 5588SOL    HW117663   3.393   6.434   1.323
 5588SOL    HW217664   3.394   6.447   1.161
 5589SOL     OW17665   5.911   4.743   6.418
 5589SOL    HW117666   5.929   4.783   6.328
 5589SOL    HW217667   5.974   4.782   6.485
 5590SOL     OW17668   5.973   5.760   4.346
 5590SOL    HW117669   5.906   5.834   4.349
 5590SOL    HW217670   5.982   5.720   4.437
 5591SOL     OW17671   6.022   1.524   1.431
 5591SOL    HW117672   6.079   1.474   1.496
 5591SOL    HW217673   5.927   1.493   1.439
 5592SOL     OW17674   0.896   4.672   3.373
 5592SOL    HW117675   0.937   4.725   3.447
 5592SOL    HW217676   0.814   4.625   3.407
 5593SOL     OW17677   6.333   1.931   0.390
 5593SOL    HW117678   6.372   2.005   0.336
 5593SOL    HW217679   6.309   1.854   0.331
 5594SOL     OW17680   5.503   2.209   5.359
 5594SOL    HW117681   5.533   2.138   5.295
 5594SOL    HW217682   5.411   2.187   5.393
 5595SOL     OW17683   0.758   3.070   5.418
 5595SOL    HW117684   0.782   2.987   5.469
 5595SOL    HW217685   0.841   3.123   5.400
 5596SOL     OW17686   4.341   6.880   2.585
 5596SOL    HW117687   4.242   6.881   2.599
 5596SOL    HW217688   4.379   6.970   2.608
 5597SOL     OW17689   4.913   3.545   3.444
 5597SOL    HW117690   4.888   3.642   3.443
 5597SOL    HW217691   4.907   3.508   3.351
 5598SOL     OW17692   5.281   2.202   4.503
 5598SOL    HW117693   5.358   2.227   4.562
 5598SOL    HW217694   5.214   2.150   4.555
 5599SOL     OW17695   0.515   2.031   4.246
 5599SOL    HW117696   0.437   2.035   4.183
 5599SOL    HW217697   0.501   1.957   4.311
 5600SOL     OW17698   1.430   2.662   4.123
 5600SOL    HW117699   1.421   2.591   4.052
 5600SOL    HW217700   1.522   2.700   4.120
 5601SOL     OW17701   2.578   1.262   5.696
 5601SOL    HW117702   2.602   1.325   5.622
 5601SOL    HW217703   2.599   1.304   5.784
 5602SOL     OW17704   0.792   1.203   0.814
 5602SOL    HW117705   0.818   1.239   0.903
 5602SOL    HW217706   0.735   1.270   0.766
 5603SOL     OW17707   5.333   2.113   0.105
 5603SOL    HW117708   5.409   2.052   0.128
 5603SOL    HW217709   5.316   2.176   0.181
 5604SOL     OW17710   5.797   2.182   5.694
 5604SOL    HW117711   5.772   2.127   5.615
 5604SOL    HW217712   5.821   2.123   5.771
 5605SOL     OW17713   0.625   2.068   4.559
 5605SOL    HW117714   0.557   2.010   4.516
 5605SOL    HW217715   0.698   2.089   4.494
 5606SOL     OW17716   4.636   0.210   1.672
 5606SOL    HW117717   4.622   0.111   1.668
 5606SOL    HW217718   4.715   0.234   1.617
 5607SOL     OW17719   5.352   1.862   1.892
 5607SOL    HW117720   5.356   1.779   1.947
 5607SOL    HW217721   5.334   1.838   1.796
 5608SOL     OW17722   4.252   0.312   4.866
 5608SOL    HW117723   4.167   0.261   4.852
 5608SOL    HW217724   4.237   0.408   4.846
 5609SOL     OW17725   2.456   6.540   6.675
 5609SOL    HW117726   2.486   6.503   6.763
 5609SOL    HW217727   2.386   6.610   6.690
 5610SOL     OW17728   5.377   0.247   0.288
 5610SOL    HW117729   5.303   0.185   0.261
 5610SOL    HW217730   5.465   0.208   0.260
 5611SOL     OW17731   1.314   4.950   3.392
 5611SOL    HW117732   1.223   4.976   3.360
 5611SOL    HW217733   1.381   4.966   3.319
 5612SOL     OW17734   3.115   0.861   5.744
 5612SOL    HW117735   3.116   0.916   5.661
 5612SOL    HW217736   3.073   0.772   5.724
 5613SOL     OW17737   4.425   4.586   2.096
 5613SOL    HW117738   4.434   4.579   1.996
 5613SOL    HW217739   4.455   4.500   2.137
 5614SOL     OW17740   4.692   2.645   3.001
 5614SOL    HW117741   4.735   2.726   3.042
 5614SOL    HW217742   4.739   2.563   3.033
 5615SOL     OW17743   1.644   0.553   0.153
 5615SOL    HW117744   1.630   0.641   0.108
 5615SOL    HW217745   1.675   0.569   0.247
 5616SOL     OW17746   2.121   0.899   4.347
 5616SOL    HW117747   2.102   0.956   4.267
 5616SOL    HW217748   2.038   0.851   4.374
 5617SOL     OW17749   2.107   0.641   4.725
 5617SOL    HW117750   2.012   0.635   4.693
 5617SOL    HW217751   2.123   0.571   4.794
 5618SOL     OW17752   6.345   4.069   4.074
 5618SOL    HW117753   6.378   4.037   4.163
 5618SOL    HW217754   6.337   4.168   4.075
 5619SOL     OW17755   2.334   3.896   5.612
 5619SOL    HW117756   2.413   3.844   5.645
 5619SOL    HW217757   2.255   3.834   5.602
 5620SOL     OW17758   3.516   2.298   6.754
 5620SOL    HW117759   3.454   2.335   6.824
 5620SOL    HW217760   3.466   2.283   6.669
 5621SOL     OW17761   1.582   1.866   5.444
 5621SOL    HW117762   1.614   1.944   5.390
 5621SOL    HW217763   1.526   1.806   5.387
 5622SOL     OW17764   4.773   0.774   6.049
 5622SOL    HW117765   4.752   0.700   5.985
 5622SOL    HW217766   4.718   0.854   6.027
 5623SOL     OW17767   1.562   6.603   6.678
 5623SOL    HW117768   1.515   6.682   6.716
 5623SOL    HW217769   1.641   6.634   6.624
 5624SOL     OW17770   0.977   4.794   3.612
 5624SOL    HW117771   0.981   4.718   3.676
 5624SOL    HW217772   0.995   4.879   3.660
 5625SOL     OW17773   6.590   2.717   4.895
 5625SOL    HW117774   6.607   2.759   4.984
 5625SOL    HW217775   6.640   2.767   4.824
 5626SOL     OW17776   3.852   0.160   5.184
 5626SOL    HW117777   3.781   0.228   5.207
 5626SOL    HW217778   3.898   0.188   5.100
 5627SOL     OW17779   1.050   5.808   1.411
 5627SOL    HW117780   1.062   5.763   1.322
 5627SOL    HW217781   1.128   5.868   1.428
 5628SOL     OW17782   2.276   2.142   5.097
 5628SOL    HW117783   2.242   2.156   5.004
 5628SOL    HW217784   2.355   2.081   5.095
 5629SOL     OW17785   3.628   3.830   2.695
 5629SOL    HW117786   3.716   3.787   2.717
 5629SOL    HW217787   3.614   3.909   2.753
 5630SOL     OW17788   0.768   4.682   1.106
 5630SOL    HW117789   0.805   4.589   1.104
 5630SOL    HW217790   0.719   4.700   1.020
 5631SOL     OW17791   4.741   1.188   0.516
 5631SOL    HW117792   4.756   1.107   0.458
 5631SOL    HW217793   4.805   1.187   0.592
 5632SOL     OW17794   4.386   4.021   6.725
 5632SOL    HW117795   4.417   4.104   6.771
 5632SOL    HW217796   4.415   4.023   6.629
 5633SOL     OW17797   6.411   2.744   4.555
 5633SOL    HW117798   6.454   2.660   4.523
 5633SOL    HW217799   6.403   2.809   4.479
 5634SOL     OW17800   4.068   5.426   4.315
 5634SOL    HW117801   4.090   5.518   4.348
 5634SOL    HW217802   4.153   5.376   4.296
 5635SOL     OW17803   2.444   2.445   4.811
 5635SOL    HW117804   2.428   2.493   4.897
 5635SOL    HW217805   2.526   2.481   4.767
 5636SOL     OW17806   4.267   5.448   2.797
 5636SOL    HW117807   4.316   5.535   2.786
 5636SOL    HW217808   4.174   5.466   2.830
 5637SOL     OW17809   5.723   6.704   3.964
 5637SOL    HW117810   5.714   6.664   3.872
 5637SOL    HW217811   5.633   6.730   3.997
 5638SOL     OW17812   5.409   3.023   6.755
 5638SOL    HW117813   5.484   3.022   6.821
 5638SOL    HW217814   5.415   3.106   6.699
 5639SOL     OW17815   1.212   1.795   6.071
 5639SOL    HW117816   1.145   1.756   6.009
 5639SOL    HW217817   1.291   1.734   6.078
 5640SOL     OW17818   2.478   0.109   3.548
 5640SOL    HW117819   2.510   0.128   3.456
 5640SOL    HW217820   2.502   0.016   3.574
 5641SOL     OW17821   6.653   5.137   5.561
 5641SOL    HW117822   6.575   5.173   5.510
 5641SOL    HW217823   6.638   5.151   5.659
 5642SOL     OW17824   1.518   1.904   6.316
 5642SOL    HW117825   1.503   1.991   6.362
 5642SOL    HW217826   1.589   1.853   6.363
 5643SOL     OW17827   6.061   2.349   4.462
 5643SOL    HW117828   6.116   2.310   4.536
 5643SOL    HW217829   6.084   2.446   4.451
 5644SOL     OW17830   3.078   6.971   6.566
 5644SOL    HW117831   3.026   6.890   6.538
 5644SOL    HW217832   3.175   6.957   6.545
 5645SOL     OW17833   5.925   3.315   3.832
 5645SOL    HW117834   5.894   3.221   3.828
 5645SOL    HW217835   5.959   3.335   3.924
 5646SOL     OW17836   1.717   4.198   2.903
 5646SOL    HW117837   1.623   4.205   2.936
 5646SOL    HW217838   1.747   4.287   2.869
 5647SOL     OW17839   6.572   5.967   3.254
 5647SOL    HW117840   6.655   5.911   3.255
 5647SOL    HW217841   6.555   6.001   3.347
 5648SOL     OW17842   4.211   6.442   2.750
 5648SOL    HW117843   4.130   6.453   2.692
 5648SOL    HW217844   4.222   6.524   2.806
 5649SOL     OW17845   0.547   6.168   3.940
 5649SOL    HW117846   0.578   6.225   4.017
 5649SOL    HW217847   0.602   6.188   3.859
 5650SOL     OW17848   6.700   4.176   0.697
 5650SOL    HW117849   6.690   4.132   0.608
 5650SOL    HW217850   6.788   4.152   0.737
 5651SOL     OW17851   1.639   0.673   1.404
 5651SOL    HW117852   1.649   0.621   1.489
 5651SOL    HW217853   1.578   0.751   1.419
 5652SOL     OW17854   1.385   5.721   1.617
 5652SOL    HW117855   1.293   5.683   1.618
 5652SOL    HW217856   1.451   5.649   1.594
 5653SOL     OW17857   0.258   6.559   1.759
 5653SOL    HW117858   0.181   6.614   1.791
 5653SOL    HW217859   0.226   6.494   1.691
 5654SOL     OW17860   2.510   5.714   4.979
 5654SOL    HW117861   2.430   5.772   4.963
 5654SOL    HW217862   2.481   5.627   5.019
 5655SOL     OW17863   6.248   2.803   4.329
 5655SOL    HW117864   6.185   2.881   4.320
 5655SOL    HW217865   6.306   2.798   4.248
 5656SOL     OW17866   0.374   3.321   6.890
 5656SOL    HW117867   0.370   3.223   6.869
 5656SOL    HW217868   0.285   3.362   6.873
 5657SOL     OW17869   4.536   5.522   4.835
 5657SOL    HW117870   4.465   5.460   4.869
 5657SOL    HW217871   4.617   5.469   4.809
 5658SOL     OW17872   1.947   1.891   5.699
 5658SOL    HW117873   2.044   1.907   5.679
 5658SOL    HW217874   1.923   1.933   5.786
 5659SOL     OW17875   3.620   4.145   6.375
 5659SOL    HW117876   3.695   4.144   6.309
 5659SOL    HW217877   3.599   4.240   6.399
 5660SOL     OW17878   4.171   0.555   6.617
 5660SOL    HW117879   4.237   0.487   6.649
 5660SOL    HW217880   4.208   0.603   6.537
 5661SOL     OW17881   0.916   5.434   5.877
 5661SOL    HW117882   0.991   5.493   5.907
 5661SOL    HW217883   0.912   5.434   5.777
 5662SOL     OW17884   2.578   6.178   2.291
 5662SOL    HW117885   2.654   6.199   2.231
 5662SOL    HW217886   2.496   6.160   2.236
 5663SOL     OW17887   1.017   2.764   0.508
 5663SOL    HW117888   0.947   2.829   0.478
 5663SOL    HW217889   1.108   2.806   0.499
 5664SOL     OW17890   5.013   4.261   4.104
 5664SOL    HW117891   5.050   4.174   4.137
 5664SOL    HW217892   5.088   4.317   4.069
 5665SOL     OW17893   2.712   1.119   1.109
 5665SOL    HW117894   2.777   1.191   1.131
 5665SOL    HW217895   2.674   1.081   1.193
 5666SOL     OW17896   5.855   1.122   5.017
 5666SOL    HW117897   5.930   1.057   5.018
 5666SOL    HW217898   5.785   1.092   4.953
 5667SOL     OW17899   2.696   5.280   4.762
 5667SOL    HW117900   2.717   5.189   4.727
 5667SOL    HW217901   2.781   5.333   4.769
 5668SOL     OW17902   5.259   3.107   3.435
 5668SOL    HW117903   5.248   3.166   3.515
 5668SOL    HW217904   5.173   3.058   3.417
 5669SOL     OW17905   6.334   4.320   6.805
 5669SOL    HW117906   6.333   4.411   6.846
 5669SOL    HW217907   6.424   4.301   6.766
 5670SOL     OW17908   1.247   2.341   2.167
 5670SOL    HW117909   1.219   2.436   2.177
 5670SOL    HW217910   1.241   2.295   2.256
 5671SOL     OW17911   0.504   6.928   3.258
 5671SOL    HW117912   0.476   6.906   3.351
 5671SOL    HW217913   0.496   0.003   3.243
 5672SOL     OW17914   5.090   3.770   5.309
 5672SOL    HW117915   5.081   3.676   5.275
 5672SOL    HW217916   5.184   3.785   5.341
 5673SOL     OW17917   0.886   0.655   0.917
 5673SOL    HW117918   0.854   0.737   0.966
 5673SOL    HW217919   0.809   0.610   0.873
 5674SOL     OW17920   1.910   5.610   5.560
 5674SOL    HW117921   1.929   5.695   5.608
 5674SOL    HW217922   1.983   5.591   5.494
 5675SOL     OW17923   2.114   1.852   0.350
 5675SOL    HW117924   2.081   1.920   0.416
 5675SOL    HW217925   2.066   1.864   0.263
 5676SOL     OW17926   2.754   1.992   1.686
 5676SOL    HW117927   2.764   2.084   1.723
 5676SOL    HW217928   2.776   1.992   1.589
 5677SOL     OW17929   6.982   0.600   1.600
 5677SOL    HW117930   6.907   0.563   1.546
 5677SOL    HW217931   6.946   0.666   1.667
 5678SOL     OW17932   3.378   2.057   1.915
 5678SOL    HW117933   3.286   2.018   1.922
 5678SOL    HW217934   3.427   2.013   1.840
 5679SOL     OW17935   5.847   3.562   5.395
 5679SOL    HW117936   5.815   3.536   5.305
 5679SOL    HW217937   5.797   3.643   5.426
 5680SOL     OW17938   1.874   5.994   5.905
 5680SOL    HW117939   1.879   6.054   5.985
 5680SOL    HW217940   1.824   5.910   5.930
 5681SOL     OW17941   0.774   3.873   3.274
 5681SOL    HW117942   0.841   3.912   3.210
 5681SOL    HW217943   0.786   3.774   3.278
 5682SOL     OW17944   2.199   4.233   1.831
 5682SOL    HW117945   2.125   4.294   1.858
 5682SOL    HW217946   2.176   4.139   1.855
 5683SOL     OW17947   5.225   1.584   6.374
 5683SOL    HW117948   5.248   1.654   6.441
 5683SOL    HW217949   5.236   1.493   6.415
 5684SOL     OW17950   2.252   2.681   5.384
 5684SOL    HW117951   2.187   2.613   5.419
 5684SOL    HW217952   2.230   2.703   5.290
 5685SOL     OW17953   2.546   1.553   3.628
 5685SOL    HW117954   2.527   1.461   3.662
 5685SOL    HW217955   2.511   1.562   3.534
 5686SOL     OW17956   3.438   6.484   6.402
 5686SOL    HW117957   3.442   6.384   6.406
 5686SOL    HW217958   3.468   6.522   6.489
 5687SOL     OW17959   2.392   6.585   6.236
 5687SOL    HW117960   2.354   6.677   6.226
 5687SOL    HW217961   2.472   6.576   6.177
 5688SOL     OW17962   2.191   2.960   3.486
 5688SOL    HW117963   2.218   3.039   3.431
 5688SOL    HW217964   2.207   2.980   3.583
 5689SOL     OW17965   0.596   1.795   1.688
 5689SOL    HW117966   0.671   1.815   1.751
 5689SOL    HW217967   0.533   1.872   1.685
 5690SOL     OW17968   1.475   5.743   7.001
 5690SOL    HW117969   1.499   5.785   6.914
 5690SOL    HW217970   1.514   5.652   7.006
 5691SOL     OW17971   3.868   1.055   2.722
 5691SOL    HW117972   3.781   1.094   2.692
 5691SOL    HW217973   3.853   0.963   2.758
 5692SOL     OW17974   4.270   4.794   1.143
 5692SOL    HW117975   4.266   4.784   1.242
 5692SOL    HW217976   4.201   4.736   1.100
 5693SOL     OW17977   3.874   1.242   1.203
 5693SOL    HW117978   3.905   1.211   1.113
 5693SOL    HW217979   3.774   1.245   1.205
 5694SOL     OW17980   1.029   6.708   1.971
 5694SOL    HW117981   0.947   6.695   1.916
 5694SOL    HW217982   1.009   6.770   2.047
 5695SOL     OW17983   1.618   0.549   0.704
 5695SOL    HW117984   1.529   0.594   0.703
 5695SOL    HW217985   1.676   0.591   0.774
 5696SOL     OW17986   1.702   6.776   3.954
 5696SOL    HW117987   1.743   6.865   3.976
 5696SOL    HW217988   1.766   6.703   3.976
 5697SOL     OW17989   6.265   2.630   0.274
 5697SOL    HW117990   6.274   2.532   0.295
 5697SOL    HW217991   6.348   2.678   0.304
 5698SOL     OW17992   2.576   2.484   3.932
 5698SOL    HW117993   2.509   2.411   3.918
 5698SOL    HW217994   2.534   2.572   3.908
 5699SOL     OW17995   2.224   2.447   2.652
 5699SOL    HW117996   2.130   2.462   2.685
 5699SOL    HW217997   2.248   2.351   2.663
 5700SOL     OW17998   6.073   0.738   3.304
 5700SOL    HW117999   6.056   0.730   3.206
 5700SOL    HW218000   6.171   0.745   3.320
 5701SOL     OW18001   0.314   0.646   1.233
 5701SOL    HW118002   0.341   0.631   1.328
 5701SOL    HW218003   0.396   0.655   1.176
 5702SOL     OW18004   2.687   6.723   4.710
 5702SOL    HW118005   2.681   6.802   4.649
 5702SOL    HW218006   2.783   6.703   4.728
 5703SOL     OW18007   6.914   2.767   6.530
 5703SOL    HW118008   6.915   2.781   6.629
 5703SOL    HW218009   6.831   2.715   6.504
 5704SOL     OW18010   5.293   4.436   3.975
 5704SOL    HW118011   5.356   4.382   4.032
 5704SOL    HW218012   5.293   4.531   4.006
 5705SOL     OW18013   6.207   6.670   6.008
 5705SOL    HW118014   6.137   6.599   6.020
 5705SOL    HW218015   6.169   6.746   5.955
 5706SOL     OW18016   4.958   2.244   6.969
 5706SOL    HW118017   4.876   2.280   6.925
 5706SOL    HW218018   4.940   2.150   6.999
 5707SOL     OW18019   5.619   5.687   2.529
 5707SOL    HW118020   5.597   5.782   2.506
 5707SOL    HW218021   5.536   5.632   2.526
 5708SOL     OW18022   4.358   5.700   2.754
 5708SOL    HW118023   4.393   5.772   2.813
 5708SOL    HW218024   4.365   5.728   2.658
 5709SOL     OW18025   0.787   1.549   2.390
 5709SOL    HW118026   0.714   1.486   2.362
 5709SOL    HW218027   0.858   1.549   2.319
 5710SOL     OW18028   2.453   2.107   0.798
 5710SOL    HW118029   2.525   2.119   0.866
 5710SOL    HW218030   2.461   2.179   0.729
 5711SOL     OW18031   5.409   2.450   2.127
 5711SOL    HW118032   5.360   2.474   2.044
 5711SOL    HW218033   5.470   2.525   2.153
 5712SOL     OW18034   6.347   6.391   1.382
 5712SOL    HW118035   6.316   6.379   1.288
 5712SOL    HW218036   6.441   6.357   1.391
 5713SOL     OW18037   2.408   6.320   0.679
 5713SOL    HW118038   2.413   6.235   0.732
 5713SOL    HW218039   2.471   6.387   0.717
 5714SOL     OW18040   6.314   6.790   1.321
 5714SOL    HW118041   6.239   6.728   1.300
 5714SOL    HW218042   6.369   6.753   1.396
 5715SOL     OW18043   0.938   0.134   1.471
 5715SOL    HW118044   0.854   0.144   1.525
 5715SOL    HW218045   0.983   0.223   1.463
 5716SOL     OW18046   6.681   4.647   5.977
 5716SOL    HW118047   6.597   4.701   5.982
 5716SOL    HW218048   6.751   4.689   6.035
 5717SOL     OW18049   1.316   5.040   2.959
 5717SOL    HW118050   1.341   4.990   2.876
 5717SOL    HW218051   1.223   5.017   2.985
 5718SOL     OW18052   0.712   3.363   0.392
 5718SOL    HW118053   0.647   3.387   0.320
 5718SOL    HW218054   0.778   3.437   0.403
 5719SOL     OW18055   2.326   4.052   0.773
 5719SOL    HW118056   2.397   4.121   0.762
 5719SOL    HW218057   2.292   4.025   0.683
 5720SOL     OW18058   2.339   4.701   5.844
 5720SOL    HW118059   2.439   4.703   5.844
 5720SOL    HW218060   2.306   4.632   5.780
 5721SOL     OW18061   4.018   4.241   0.270
 5721SOL    HW118062   4.080   4.187   0.213
 5721SOL    HW218063   4.021   4.208   0.364
 5722SOL     OW18064   0.279   0.698   5.703
 5722SOL    HW118065   0.183   0.670   5.712
 5722SOL    HW218066   0.286   0.796   5.723
 5723SOL     OW18067   4.434   3.058   6.826
 5723SOL    HW118068   4.379   3.097   6.899
 5723SOL    HW218069   4.418   2.959   6.820
 5724SOL     OW18070   5.744   2.478   3.655
 5724SOL    HW118071   5.751   2.560   3.711
 5724SOL    HW218072   5.706   2.502   3.565
 5725SOL     OW18073   6.796   4.001   3.825
 5725SOL    HW118074   6.731   3.943   3.873
 5725SOL    HW218075   6.758   4.029   3.737
 5726SOL     OW18076   5.274   4.973   2.500
 5726SOL    HW118077   5.284   5.050   2.563
 5726SOL    HW218078   5.179   4.965   2.472
 5727SOL     OW18079   0.553   2.366   5.162
 5727SOL    HW118080   0.555   2.464   5.141
 5727SOL    HW218081   0.471   2.325   5.124
 5728SOL     OW18082   4.880   6.267   4.646
 5728SOL    HW118083   4.814   6.337   4.676
 5728SOL    HW218084   4.968   6.284   4.690
 5729SOL     OW18085   2.041   1.645   5.375
 5729SOL    HW118086   2.061   1.743   5.378
 5729SOL    HW218087   2.115   1.595   5.420
 5730SOL     OW18088   6.687   4.210   5.272
 5730SOL    HW118089   6.725   4.157   5.195
 5730SOL    HW218090   6.761   4.239   5.332
 5731SOL     OW18091   0.597   6.219   1.886
 5731SOL    HW118092   0.663   6.278   1.932
 5731SOL    HW218093   0.510   6.267   1.878
 5732SOL     OW18094   1.356   7.019   3.684
 5732SOL    HW118095   1.293   6.942   3.693
 5732SOL    HW218096   1.317   0.077   3.727
 5733SOL     OW18097   3.736   0.574   5.429
 5733SOL    HW118098   3.738   0.513   5.508
 5733SOL    HW218099   3.695   0.662   5.456
 5734SOL     OW18100   2.161   6.211   2.775
 5734SOL    HW118101   2.243   6.237   2.826
 5734SOL    HW218102   2.183   6.207   2.677
 5735SOL     OW18103   3.085   1.550   2.080
 5735SOL    HW118104   3.107   1.618   2.010
 5735SOL    HW218105   3.048   1.468   2.037
 5736SOL     OW18106   1.604   5.269   0.172
 5736SOL    HW118107   1.685   5.258   0.114
 5736SOL    HW218108   1.561   5.180   0.186
 5737SOL     OW18109   5.281   4.819   0.921
 5737SOL    HW118110   5.246   4.728   0.895
 5737SOL    HW218111   5.380   4.814   0.934
 5738SOL     OW18112   1.457   3.984   6.070
 5738SOL    HW118113   1.535   4.034   6.033
 5738SOL    HW218114   1.397   4.048   6.118
 5739SOL     OW18115   0.896   1.211   1.121
 5739SOL    HW118116   0.961   1.268   1.171
 5739SOL    HW218117   0.865   1.136   1.179
 5740SOL     OW18118   4.233   5.987   6.345
 5740SOL    HW118119   4.269   5.896   6.325
 5740SOL    HW218120   4.219   5.997   6.443
 5741SOL     OW18121   0.707   4.802   3.624
 5741SOL    HW118122   0.755   4.880   3.583
 5741SOL    HW218123   0.772   4.730   3.645
 5742SOL     OW18124   6.573   6.716   4.190
 5742SOL    HW118125   6.626   6.688   4.270
 5742SOL    HW218126   6.624   6.694   4.107
 5743SOL     OW18127   1.811   6.618   5.433
 5743SOL    HW118128   1.844   6.524   5.432
 5743SOL    HW218129   1.888   6.681   5.438
 5744SOL     OW18130   5.810   6.990   2.411
 5744SOL    HW118131   5.801   6.899   2.451
 5744SOL    HW218132   5.897   0.006   2.439
 5745SOL     OW18133   1.050   1.870   3.789
 5745SOL    HW118134   1.147   1.850   3.787
 5745SOL    HW218135   1.028   1.938   3.718
 5746SOL     OW18136   5.772   3.690   0.364
 5746SOL    HW118137   5.681   3.724   0.340
 5746SOL    HW218138   5.785   3.598   0.327
 5747SOL     OW18139   1.264   5.841   3.161
 5747SOL    HW118140   1.268   5.933   3.200
 5747SOL    HW218141   1.182   5.794   3.195
 5748SOL     OW18142   2.497   6.177   2.707
 5748SOL    HW118143   2.452   6.228   2.781
 5748SOL    HW218144   2.482   6.079   2.719
 5749SOL     OW18145   2.186   1.681   3.677
 5749SOL    HW118146   2.238   1.763   3.702
 5749SOL    HW218147   2.167   1.627   3.759
 5750SOL     OW18148   6.690   5.550   2.620
 5750SOL    HW118149   6.669   5.581   2.527
 5750SOL    HW218150   6.782   5.579   2.645
 5751SOL     OW18151   2.329   4.144   6.080
 5751SOL    HW118152   2.262   4.115   6.013
 5751SOL    HW218153   2.293   4.221   6.132
 5752SOL     OW18154   6.452   0.384   6.965
 5752SOL    HW118155   6.434   0.478   6.994
 5752SOL    HW218156   6.373   0.326   6.988
 5753SOL     OW18157   3.419   2.372   0.435
 5753SOL    HW118158   3.455   2.280   0.448
 5753SOL    HW218159   3.492   2.439   0.449
 5754SOL     OW18160   6.201   4.452   1.272
 5754SOL    HW118161   6.131   4.381   1.271
 5754SOL    HW218162   6.188   4.514   1.195
 5755SOL     OW18163   3.601   3.946   1.492
 5755SOL    HW118164   3.502   3.934   1.487
 5755SOL    HW218165   3.640   3.873   1.548
 5756SOL     OW18166   0.393   6.208   4.588
 5756SOL    HW118167   0.478   6.161   4.567
 5756SOL    HW218168   0.347   6.163   4.665
 5757SOL     OW18169   0.410   5.041   1.327
 5757SOL    HW118170   0.442   5.016   1.235
 5757SOL    HW218171   0.384   4.958   1.377
 5758SOL     OW18172   0.840   1.981   5.609
 5758SOL    HW118173   0.936   1.988   5.635
 5758SOL    HW218174   0.828   1.910   5.540
 5759SOL     OW18175   5.326   1.957   4.886
 5759SOL    HW118176   5.272   1.952   4.970
 5759SOL    HW218177   5.272   1.919   4.810
 5760SOL     OW18178   1.658   5.642   2.202
 5760SOL    HW118179   1.616   5.728   2.230
 5760SOL    HW218180   1.587   5.577   2.174
 5761SOL     OW18181   4.958   7.016   4.866
 5761SOL    HW118182   4.905   6.954   4.923
 5761SOL    HW218183   5.046   6.974   4.843
 5762SOL     OW18184   5.692   6.105   1.772
 5762SOL    HW118185   5.783   6.077   1.803
 5762SOL    HW218186   5.654   6.035   1.713
 5763SOL     OW18187   0.857   1.191   1.664
 5763SOL    HW118188   0.943   1.195   1.614
 5763SOL    HW218189   0.785   1.155   1.605
 5764SOL     OW18190   4.090   3.807   5.344
 5764SOL    HW118191   4.154   3.803   5.420
 5764SOL    HW218192   4.060   3.901   5.329
 5765SOL     OW18193   5.594   4.703   0.653
 5765SOL    HW118194   5.673   4.675   0.707
 5765SOL    HW218195   5.510   4.673   0.698
 5766SOL     OW18196   2.936   1.367   3.214
 5766SOL    HW118197   2.880   1.390   3.294
 5766SOL    HW218198   2.970   1.274   3.223
 5767SOL     OW18199   0.109   6.610   1.415
 5767SOL    HW118200   0.111   6.544   1.490
 5767SOL    HW218201   0.202   6.633   1.389
 5768SOL     OW18202   6.647   1.368   2.968
 5768SOL    HW118203   6.626   1.373   3.065
 5768SOL    HW218204   6.739   1.403   2.952
 5769SOL     OW18205   2.417   5.343   3.639
 5769SOL    HW118206   2.321   5.370   3.629
 5769SOL    HW218207   2.458   5.332   3.548
 5770SOL     OW18208   6.173   0.357   1.507
 5770SOL    HW118209   6.109   0.311   1.568
 5770SOL    HW218210   6.267   0.342   1.539
 5771SOL     OW18211   0.603   1.630   1.952
 5771SOL    HW118212   0.673   1.694   1.919
 5771SOL    HW218213   0.561   1.584   1.874
 5772SOL     OW18214   6.492   3.962   0.215
 5772SOL    HW118215   6.508   3.965   0.116
 5772SOL    HW218216   6.408   3.912   0.234
 5773SOL     OW18217   5.859   5.747   4.094
 5773SOL    HW118218   5.926   5.689   4.140
 5773SOL    HW218219   5.775   5.751   4.148
 5774SOL     OW18220   2.288   5.215   3.257
 5774SOL    HW118221   2.320   5.226   3.163
 5774SOL    HW218222   2.222   5.139   3.261
 5775SOL     OW18223   0.039   0.414   0.516
 5775SOL    HW118224   6.986   0.439   0.574
 5775SOL    HW218225   0.064   0.492   0.458
 5776SOL     OW18226   5.333   1.033   5.648
 5776SOL    HW118227   5.375   1.124   5.652
 5776SOL    HW218228   5.256   1.030   5.712
 5777SOL     OW18229   6.488   0.733   5.272
 5777SOL    HW118230   6.514   0.734   5.175
 5777SOL    HW218231   6.476   0.826   5.305
 5778SOL     OW18232   2.646   0.176   3.764
 5778SOL    HW118233   2.588   0.163   3.684
 5778SOL    HW218234   2.701   0.094   3.779
 5779SOL     OW18235   4.356   1.068   2.578
 5779SOL    HW118236   4.286   1.137   2.598
 5779SOL    HW218237   4.313   0.978   2.570
 5780SOL     OW18238   6.024   3.784   1.562
 5780SOL    HW118239   5.997   3.738   1.478
 5780SOL    HW218240   6.098   3.848   1.543
 5781SOL     OW18241   2.479   5.289   4.989
 5781SOL    HW118242   2.545   5.287   4.914
 5781SOL    HW218243   2.463   5.195   5.021
 5782SOL     OW18244   2.611   1.364   3.137
 5782SOL    HW118245   2.566   1.360   3.048
 5782SOL    HW218246   2.710   1.376   3.124
 5783SOL     OW18247   2.328   6.861   0.956
 5783SOL    HW118248   2.284   6.771   0.943
 5783SOL    HW218249   2.403   6.871   0.891
 5784SOL     OW18250   1.848   5.506   6.904
 5784SOL    HW118251   1.873   5.498   7.001
 5784SOL    HW218252   1.891   5.433   6.852
 5785SOL     OW18253   2.176   1.538   0.246
 5785SOL    HW118254   2.264   1.577   0.275
 5785SOL    HW218255   2.106   1.561   0.314
 5786SOL     OW18256   1.381   3.318   0.968
 5786SOL    HW118257   1.386   3.409   1.009
 5786SOL    HW218258   1.382   3.249   1.040
 5787SOL     OW18259   6.895   2.888   5.826
 5787SOL    HW118260   6.947   2.973   5.836
 5787SOL    HW218261   6.811   2.894   5.880
 5788SOL     OW18262   1.988   2.350   1.903
 5788SOL    HW118263   2.043   2.433   1.892
 5788SOL    HW218264   1.929   2.338   1.823
 5789SOL     OW18265   3.051   5.153   0.104
 5789SOL    HW118266   3.130   5.211   0.085
 5789SOL    HW218267   3.072   5.059   0.077
 5790SOL     OW18268   6.366   5.774   3.478
 5790SOL    HW118269   6.371   5.833   3.398
 5790SOL    HW218270   6.454   5.727   3.490
 5791SOL     OW18271   4.154   1.293   2.137
 5791SOL    HW118272   4.239   1.266   2.183
 5791SOL    HW218273   4.138   1.390   2.152
 5792SOL     OW18274   4.834   3.008   2.682
 5792SOL    HW118275   4.761   3.075   2.691
 5792SOL    HW218276   4.802   2.932   2.626
 5793SOL     OW18277   3.981   2.482   6.456
 5793SOL    HW118278   4.068   2.435   6.451
 5793SOL    HW218279   3.919   2.432   6.517
 5794SOL     OW18280   3.977   6.477   7.017
 5794SOL    HW118281   4.016   6.567   7.002
 5794SOL    HW218282   3.882   6.486   0.024
 5795SOL     OW18283   2.338   5.969   1.402
 5795SOL    HW118284   2.244   5.995   1.424
 5795SOL    HW218285   2.348   5.961   1.303
 5796SOL     OW18286   5.381   0.787   6.546
 5796SOL    HW118287   5.410   0.694   6.568
 5796SOL    HW218288   5.281   0.792   6.546
 5797SOL     OW18289   6.383   2.785   1.141
 5797SOL    HW118290   6.324   2.861   1.169
 5797SOL    HW218291   6.327   2.704   1.123
 5798SOL     OW18292   1.630   3.802   4.764
 5798SOL    HW118293   1.716   3.837   4.799
 5798SOL    HW218294   1.635   3.703   4.757
 5799SOL     OW18295   2.554   6.874   3.621
 5799SOL    HW118296   2.501   6.797   3.586
 5799SOL    HW218297   2.589   6.852   3.712
 5800SOL     OW18298   1.884   0.370   1.419
 5800SOL    HW118299   1.902   0.287   1.366
 5800SOL    HW218300   1.787   0.394   1.413
 5801SOL     OW18301   2.154   1.599   1.927
 5801SOL    HW118302   2.240   1.619   1.879
 5801SOL    HW218303   2.167   1.518   1.985
 5802SOL     OW18304   0.704   0.386   2.002
 5802SOL    HW118305   0.786   0.438   2.028
 5802SOL    HW218306   0.655   0.359   2.085
 5803SOL     OW18307   0.430   5.770   4.112
 5803SOL    HW118308   0.377   5.685   4.106
 5803SOL    HW218309   0.445   5.806   4.020
 5804SOL     OW18310   5.993   1.857   2.905
 5804SOL    HW118311   5.913   1.896   2.858
 5804SOL    HW218312   6.022   1.920   2.978
 5805SOL     OW18313   1.472   2.488   2.006
 5805SOL    HW118314   1.495   2.410   1.947
 5805SOL    HW218315   1.387   2.530   1.973
 5806SOL     OW18316   6.724   4.016   1.806
 5806SOL    HW118317   6.727   4.019   1.906
 5806SOL    HW218318   6.750   4.105   1.769
 5807SOL     OW18319   2.144   1.038   1.508
 5807SOL    HW118320   2.184   0.963   1.456
 5807SOL    HW218321   2.154   1.021   1.606
 5808SOL     OW18322   6.819   0.388   5.539
 5808SOL    HW118323   6.911   0.372   5.503
 5808SOL    HW218324   6.774   0.459   5.485
 5809SOL     OW18325   0.146   2.302   5.296
 5809SOL    HW118326   0.172   2.368   5.225
 5809SOL    HW218327   0.225   2.284   5.355
 5810SOL     OW18328   3.071   6.403   5.127
 5810SOL    HW118329   3.137   6.469   5.161
 5810SOL    HW218330   3.099   6.370   5.036
 5811SOL     OW18331   4.012   4.640   6.439
 5811SOL    HW118332   4.076   4.669   6.367
 5811SOL    HW218333   4.053   4.658   6.528
 5812SOL     OW18334   5.204   2.844   6.859
 5812SOL    HW118335   5.275   2.904   6.824
 5812SOL    HW218336   5.219   2.829   6.957
 5813SOL     OW18337   4.768   5.510   0.578
 5813SOL    HW118338   4.787   5.494   0.675
 5813SOL    HW218339   4.803   5.599   0.551
 5814SOL     OW18340   5.373   1.245   1.879
 5814SOL    HW118341   5.443   1.243   1.808
 5814SOL    HW218342   5.365   1.154   1.921
 5815SOL     OW18343   6.281   2.601   3.955
 5815SOL    HW118344   6.365   2.571   3.909
 5815SOL    HW218345   6.284   2.573   4.051
 5816SOL     OW18346   0.143   3.693   2.655
 5816SOL    HW118347   0.127   3.712   2.558
 5816SOL    HW218348   0.060   3.711   2.707
 5817SOL     OW18349   5.990   3.608   3.390
 5817SOL    HW118350   6.076   3.659   3.396
 5817SOL    HW218351   5.987   3.539   3.461
 5818SOL     OW18352   2.347   0.739   4.330
 5818SOL    HW118353   2.375   0.700   4.418
 5818SOL    HW218354   2.263   0.792   4.343
 5819SOL     OW18355   4.011   4.533   0.569
 5819SOL    HW118356   3.941   4.479   0.522
 5819SOL    HW218357   4.077   4.472   0.612
 5820SOL     OW18358   5.864   6.431   2.645
 5820SOL    HW118359   5.959   6.416   2.669
 5820SOL    HW218360   5.841   6.378   2.563
 5821SOL     OW18361   7.020   0.227   1.555
 5821SOL    HW118362   6.953   0.230   1.482
 5821SOL    HW218363   0.088   0.226   1.516
 5822SOL     OW18364   1.430   3.619   3.276
 5822SOL    HW118365   1.351   3.666   3.315
 5822SOL    HW218366   1.414   3.601   3.179
 5823SOL     OW18367   1.632   6.267   3.631
 5823SOL    HW118368   1.719   6.299   3.593
 5823SOL    HW218369   1.588   6.342   3.681
 5824SOL     OW18370   1.361   7.023   2.387
 5824SOL    HW118371   1.434   6.975   2.340
 5824SOL    HW218372   1.282   0.007   2.326
 5825SOL     OW18373   5.078   1.433   4.067
 5825SOL    HW118374   5.120   1.476   3.987
 5825SOL    HW218375   5.149   1.391   4.123
 5826SOL     OW18376   1.046   6.673   5.971
 5826SOL    HW118377   1.134   6.630   5.992
 5826SOL    HW218378   1.004   6.626   5.893
 5827SOL     OW18379   2.027   4.386   3.661
 5827SOL    HW118380   1.966   4.346   3.593
 5827SOL    HW218381   2.001   4.354   3.752
 5828SOL     OW18382   3.929   0.826   5.704
 5828SOL    HW118383   3.997   0.881   5.656
 5828SOL    HW218384   3.839   0.837   5.660
 5829SOL     OW18385   2.197   0.540   3.441
 5829SOL    HW118386   2.222   0.613   3.378
 5829SOL    HW218387   2.100   0.518   3.430
 5830SOL     OW18388   4.178   5.059   4.587
 5830SOL    HW118389   4.096   5.066   4.530
 5830SOL    HW218390   4.179   4.971   4.633
 5831SOL     OW18391   1.580   2.066   5.180
 5831SOL    HW118392   1.643   2.123   5.127
 5831SOL    HW218393   1.556   1.985   5.127
 5832SOL     OW18394   2.954   5.217   2.067
 5832SOL    HW118395   2.995   5.295   2.020
 5832SOL    HW218396   2.979   5.220   2.164
 5833SOL     OW18397   3.832   5.358   0.133
 5833SOL    HW118398   3.886   5.289   0.085
 5833SOL    HW218399   3.847   5.350   0.231
 5834SOL     OW18400   5.791   2.650   6.704
 5834SOL    HW118401   5.757   2.624   6.613
 5834SOL    HW218402   5.867   2.713   6.694
 5835SOL     OW18403   4.929   2.332   2.739
 5835SOL    HW118404   4.944   2.255   2.677
 5835SOL    HW218405   5.004   2.337   2.805
 5836SOL     OW18406   5.005   6.200   2.755
 5836SOL    HW118407   4.982   6.247   2.670
 5836SOL    HW218408   5.104   6.185   2.760
 5837SOL     OW18409   2.899   5.429   6.102
 5837SOL    HW118410   2.839   5.499   6.143
 5837SOL    HW218411   2.854   5.340   6.108
 5838SOL     OW18412   3.963   2.807   0.513
 5838SOL    HW118413   3.911   2.738   0.563
 5838SOL    HW218414   3.900   2.861   0.457
 5839SOL     OW18415   1.425   2.371   0.391
 5839SOL    HW118416   1.385   2.457   0.422
 5839SOL    HW218417   1.352   2.303   0.378
 5840SOL     OW18418   6.962   3.422   3.613
 5840SOL    HW118419   6.926   3.353   3.550
 5840SOL    HW218420   6.917   3.509   3.596
 5841SOL     OW18421   4.873   1.214   0.757
 5841SOL    HW118422   4.880   1.279   0.833
 5841SOL    HW218423   4.824   1.132   0.788
 5842SOL     OW18424   2.267   2.265   0.920
 5842SOL    HW118425   2.189   2.283   0.860
 5842SOL    HW218426   2.333   2.208   0.872
 5843SOL     OW18427   2.598   3.829   0.828
 5843SOL    HW118428   2.500   3.819   0.813
 5843SOL    HW218429   2.640   3.739   0.832
 5844SOL     OW18430   0.453   5.874   4.666
 5844SOL    HW118431   0.512   5.802   4.630
 5844SOL    HW218432   0.499   5.962   4.657
 5845SOL     OW18433   1.656   6.953   2.309
 5845SOL    HW118434   1.730   7.008   2.272
 5845SOL    HW218435   1.669   6.940   2.407
 5846SOL     OW18436   0.154   3.800   5.446
 5846SOL    HW118437   0.248   3.825   5.420
 5846SOL    HW218438   0.090   3.865   5.405
 5847SOL     OW18439   1.681   4.134   6.371
 5847SOL    HW118440   1.743   4.169   6.441
 5847SOL    HW218441   1.735   4.087   6.300
 5848SOL     OW18442   1.643   5.512   2.496
 5848SOL    HW118443   1.664   5.527   2.399
 5848SOL    HW218444   1.722   5.470   2.541
 5849SOL     OW18445   3.483   5.839   5.848
 5849SOL    HW118446   3.433   5.782   5.912
 5849SOL    HW218447   3.429   5.853   5.765
 5850SOL     OW18448   0.725   1.199   2.122
 5850SOL    HW118449   0.822   1.220   2.137
 5850SOL    HW218450   0.706   1.196   2.024
 5851SOL     OW18451   6.329   3.352   4.356
 5851SOL    HW118452   6.245   3.398   4.326
 5851SOL    HW218453   6.306   3.282   4.424
 5852SOL     OW18454   4.920   4.199   2.185
 5852SOL    HW118455   4.924   4.270   2.115
 5852SOL    HW218456   4.979   4.123   2.159
 5853SOL     OW18457   4.857   5.018   6.238
 5853SOL    HW118458   4.905   4.931   6.232
 5853SOL    HW218459   4.796   5.028   6.159
 5854SOL     OW18460   3.295   4.900   5.631
 5854SOL    HW118461   3.311   4.809   5.668
 5854SOL    HW218462   3.274   4.894   5.533
 5855SOL     OW18463   2.292   2.833   2.978
 5855SOL    HW118464   2.281   2.892   2.898
 5855SOL    HW218465   2.255   2.880   3.059
 5856SOL     OW18466   1.267   5.680   2.914
 5856SOL    HW118467   1.303   5.739   2.987
 5856SOL    HW218468   1.250   5.735   2.833
 5857SOL     OW18469   5.534   5.006   6.578
 5857SOL    HW118470   5.631   5.028   6.571
 5857SOL    HW218471   5.506   5.002   6.674
 5858SOL     OW18472   1.882   0.707   2.263
 5858SOL    HW118473   1.831   0.675   2.343
 5858SOL    HW218474   1.980   0.697   2.280
 5859SOL     OW18475   5.485   5.688   1.425
 5859SOL    HW118476   5.455   5.606   1.475
 5859SOL    HW218477   5.553   5.662   1.357
 5860SOL     OW18478   0.107   4.041   2.937
 5860SOL    HW118479   0.144   3.953   2.909
 5860SOL    HW218480   0.178   4.094   2.984
 5861SOL     OW18481   5.191   0.845   4.735
 5861SOL    HW118482   5.177   0.844   4.636
 5861SOL    HW218483   5.115   0.798   4.780
 5862SOL     OW18484   6.336   5.623   2.664
 5862SOL    HW118485   6.343   5.563   2.584
 5862SOL    HW218486   6.295   5.572   2.739
 5863SOL     OW18487   4.191   6.913   6.461
 5863SOL    HW118488   4.233   7.003   6.476
 5863SOL    HW218489   4.161   6.907   6.365
 5864SOL     OW18490   3.332   3.957   2.391
 5864SOL    HW118491   3.413   3.901   2.408
 5864SOL    HW218492   3.297   3.936   2.299
 5865SOL     OW18493   6.623   0.341   6.182
 5865SOL    HW118494   6.669   0.412   6.129
 5865SOL    HW218495   6.684   0.263   6.195
 5866SOL     OW18496   3.203   3.053   2.628
 5866SOL    HW118497   3.278   3.120   2.629
 5866SOL    HW218498   3.155   3.058   2.540
 5867SOL     OW18499   2.874   1.770   2.013
 5867SOL    HW118500   2.880   1.870   2.015
 5867SOL    HW218501   2.916   1.732   2.096
 5868SOL     OW18502   0.829   1.454   6.244
 5868SOL    HW118503   0.779   1.538   6.262
 5868SOL    HW218504   0.884   1.430   6.324
 5869SOL     OW18505   1.262   6.076   3.327
 5869SOL    HW118506   1.238   6.086   3.424
 5869SOL    HW218507   1.274   6.167   3.286
 5870SOL     OW18508   3.323   5.809   4.338
 5870SOL    HW118509   3.394   5.856   4.391
 5870SOL    HW218510   3.264   5.757   4.400
 5871SOL     OW18511   2.937   3.235   3.640
 5871SOL    HW118512   2.995   3.154   3.636
 5871SOL    HW218513   2.906   3.250   3.734
 5872SOL     OW18514   4.979   5.694   1.189
 5872SOL    HW118515   4.974   5.596   1.173
 5872SOL    HW218516   5.055   5.714   1.251
 5873SOL     OW18517   4.354   6.039   2.112
 5873SOL    HW118518   4.407   6.124   2.125
 5873SOL    HW218519   4.343   5.993   2.200
 5874SOL     OW18520   1.377   3.994   5.329
 5874SOL    HW118521   1.320   3.939   5.268
 5874SOL    HW218522   1.348   3.981   5.424
 5875SOL     OW18523   3.213   2.020   1.154
 5875SOL    HW118524   3.202   2.064   1.064
 5875SOL    HW218525   3.169   2.077   1.224
 5876SOL     OW18526   3.468   2.797   1.528
 5876SOL    HW118527   3.517   2.731   1.584
 5876SOL    HW218528   3.472   2.769   1.432
 5877SOL     OW18529   5.827   4.451   1.129
 5877SOL    HW118530   5.732   4.425   1.115
 5877SOL    HW218531   5.872   4.383   1.187
 5878SOL     OW18532   2.174   4.683   2.504
 5878SOL    HW118533   2.243   4.614   2.525
 5878SOL    HW218534   2.218   4.773   2.495
 5879SOL     OW18535   0.484   4.132   4.424
 5879SOL    HW118536   0.573   4.117   4.381
 5879SOL    HW218537   0.471   4.066   4.498
 5880SOL     OW18538   3.018   5.560   0.512
 5880SOL    HW118539   3.071   5.637   0.475
 5880SOL    HW218540   3.013   5.488   0.442
 5881SOL     OW18541   1.475   5.849   4.787
 5881SOL    HW118542   1.529   5.856   4.704
 5881SOL    HW218543   1.418   5.767   4.783
 5882SOL     OW18544   4.707   0.733   2.451
 5882SOL    HW118545   4.759   0.650   2.472
 5882SOL    HW218546   4.657   0.720   2.365
 5883SOL     OW18547   0.433   3.245   5.213
 5883SOL    HW118548   0.442   3.233   5.312
 5883SOL    HW218549   0.487   3.175   5.166
 5884SOL     OW18550   0.672   1.325   3.514
 5884SOL    HW118551   0.731   1.278   3.579
 5884SOL    HW218552   0.703   1.307   3.421
 5885SOL     OW18553   5.841   6.956   0.949
 5885SOL    HW118554   5.856   6.967   0.851
 5885SOL    HW218555   5.800   0.016   0.986
 5886SOL     OW18556   7.004   0.953   6.518
 5886SOL    HW118557   6.913   0.969   6.554
 5886SOL    HW218558   7.003   0.873   6.458
 5887SOL     OW18559   4.436   6.600   3.207
 5887SOL    HW118560   4.499   6.676   3.225
 5887SOL    HW218561   4.394   6.612   3.118
 5888SOL     OW18562   1.556   0.518   3.340
 5888SOL    HW118563   1.623   0.525   3.266
 5888SOL    HW218564   1.464   0.527   3.302
 5889SOL     OW18565   2.685   0.523   0.668
 5889SOL    HW118566   2.739   0.544   0.750
 5889SOL    HW218567   2.681   0.423   0.656
 5890SOL     OW18568   3.318   5.063   5.934
 5890SOL    HW118569   3.350   5.095   5.845
 5890SOL    HW218570   3.359   5.118   6.006
 5891SOL     OW18571   2.087   3.487   6.794
 5891SOL    HW118572   2.014   3.499   6.861
 5891SOL    HW218573   2.166   3.543   6.820
 5892SOL     OW18574   1.298   0.259   2.078
 5892SOL    HW118575   1.210   0.213   2.085
 5892SOL    HW218576   1.372   0.191   2.086
 5893SOL     OW18577   1.972   1.168   3.175
 5893SOL    HW118578   1.941   1.196   3.084
 5893SOL    HW218579   2.000   1.072   3.173
 5894SOL     OW18580   0.652   3.277   3.720
 5894SOL    HW118581   0.642   3.345   3.647
 5894SOL    HW218582   0.715   3.205   3.690
 5895SOL     OW18583   5.161   3.755   3.782
 5895SOL    HW118584   5.232   3.823   3.794
 5895SOL    HW218585   5.161   3.723   3.687
 5896SOL     OW18586   4.454   2.274   5.585
 5896SOL    HW118587   4.530   2.220   5.620
 5896SOL    HW218588   4.475   2.305   5.492
 5897SOL     OW18589   4.031   0.248   1.772
 5897SOL    HW118590   4.127   0.271   1.754
 5897SOL    HW218591   4.022   0.212   1.865
 5898SOL     OW18592   1.503   0.084   2.049
 5898SOL    HW118593   1.522   0.064   2.145
 5898SOL    HW218594   1.517   0.001   1.995
 5899SOL     OW18595   5.497   6.898   3.947
 5899SOL    HW118596   5.474   6.885   4.043
 5899SOL    HW218597   5.587   6.943   3.940
 5900SOL     OW18598   4.321   5.159   2.367
 5900SOL    HW118599   4.317   5.192   2.461
 5900SOL    HW218600   4.238   5.108   2.345
 5901SOL     OW18601   3.587   6.878   5.463
 5901SOL    HW118602   3.545   6.787   5.471
 5901SOL    HW218603   3.606   6.897   5.367
 5902SOL     OW18604   6.066   1.127   6.593
 5902SOL    HW118605   6.131   1.202   6.592
 5902SOL    HW218606   5.978   1.159   6.558
 5903SOL     OW18607   6.594   3.393   6.201
 5903SOL    HW118608   6.632   3.381   6.109
 5903SOL    HW218609   6.649   3.342   6.267
 5904SOL     OW18610   0.289   4.568   2.400
 5904SOL    HW118611   0.312   4.588   2.495
 5904SOL    HW218612   0.265   4.653   2.353
 5905SOL     OW18613   6.707   4.747   2.482
 5905SOL    HW118614   6.786   4.687   2.477
 5905SOL    HW218615   6.737   4.843   2.487
 5906SOL     OW18616   6.536   1.482   4.086
 5906SOL    HW118617   6.557   1.411   4.018
 5906SOL    HW218618   6.460   1.537   4.054
 5907SOL     OW18619   1.979   0.141   1.858
 5907SOL    HW118620   2.022   0.116   1.772
 5907SOL    HW218621   1.880   0.148   1.846
 5908SOL     OW18622   0.322   2.817   6.182
 5908SOL    HW118623   0.381   2.784   6.255
 5908SOL    HW218624   0.277   2.902   6.211
 5909SOL     OW18625   6.660   3.882   0.781
 5909SOL    HW118626   6.738   3.926   0.824
 5909SOL    HW218627   6.688   3.842   0.693
 5910SOL     OW18628   2.082   1.897   3.903
 5910SOL    HW118629   2.167   1.877   3.952
 5910SOL    HW218630   2.095   1.978   3.845
 5911SOL     OW18631   6.997   5.377   6.201
 5911SOL    HW118632   7.010   5.434   6.281
 5911SOL    HW218633   6.905   5.337   6.203
 5912SOL     OW18634   0.526   0.840   3.833
 5912SOL    HW118635   0.612   0.879   3.800
 5912SOL    HW218636   0.471   0.912   3.876
 5913SOL     OW18637   5.287   1.496   6.810
 5913SOL    HW118638   5.378   1.463   6.786
 5913SOL    HW218639   5.294   1.587   6.851
 5914SOL     OW18640   6.983   5.841   0.731
 5914SOL    HW118641   6.951   5.935   0.714
 5914SOL    HW218642   7.002   5.829   0.828
 5915SOL     OW18643   3.841   1.500   5.781
 5915SOL    HW118644   3.917   1.524   5.841
 5915SOL    HW218645   3.758   1.546   5.812
 5916SOL     OW18646   1.104   6.079   2.543
 5916SOL    HW118647   1.045   6.153   2.511
 5916SOL    HW218648   1.157   6.043   2.465
 5917SOL     OW18649   3.657   4.669   0.356
 5917SOL    HW118650   3.673   4.732   0.432
 5917SOL    HW218651   3.562   4.675   0.327
 5918SOL     OW18652   3.099   6.496   5.417
 5918SOL    HW118653   3.048   6.562   5.473
 5918SOL    HW218654   3.048   6.410   5.412
 5919SOL     OW18655   3.233   2.945   3.969
 5919SOL    HW118656   3.203   2.886   4.044
 5919SOL    HW218657   3.302   3.009   4.002
 5920SOL     OW18658   5.962   0.633   4.793
 5920SOL    HW118659   6.042   0.641   4.734
 5920SOL    HW218660   5.909   0.552   4.767
 5921SOL     OW18661   2.553   4.552   6.031
 5921SOL    HW118662   2.466   4.527   5.989
 5921SOL    HW218663   2.574   4.487   6.105
 5922SOL     OW18664   5.199   3.625   2.656
 5922SOL    HW118665   5.241   3.538   2.681
 5922SOL    HW218666   5.254   3.669   2.585
 5923SOL     OW18667   6.786   0.254   3.156
 5923SOL    HW118668   6.699   0.209   3.133
 5923SOL    HW218669   6.842   0.191   3.209
 5924SOL     OW18670   5.717   0.078   3.317
 5924SOL    HW118671   5.719   0.148   3.388
 5924SOL    HW218672   5.723   7.011   3.358
 5925SOL     OW18673   4.300   0.461   1.289
 5925SOL    HW118674   4.374   0.461   1.356
 5925SOL    HW218675   4.216   0.497   1.332
 5926SOL     OW18676   4.786   4.987   4.025
 5926SOL    HW118677   4.817   5.049   4.098
 5926SOL    HW218678   4.781   4.894   4.061
 5927SOL     OW18679   0.955   4.560   2.033
 5927SOL    HW118680   0.917   4.652   2.020
 5927SOL    HW218681   0.905   4.513   2.106
 5928SOL     OW18682   2.974   0.715   0.391
 5928SOL    HW118683   3.056   0.713   0.448
 5928SOL    HW218684   2.985   0.784   0.319
 5929SOL     OW18685   1.677   1.015   6.460
 5929SOL    HW118686   1.767   0.974   6.445
 5929SOL    HW218687   1.673   1.106   6.417
 5930SOL     OW18688   1.326   3.587   2.239
 5930SOL    HW118689   1.372   3.584   2.328
 5930SOL    HW218690   1.358   3.666   2.188
 5931SOL     OW18691   4.787   6.038   2.893
 5931SOL    HW118692   4.728   6.118   2.881
 5931SOL    HW218693   4.875   6.055   2.849
 5932SOL     OW18694   2.834   1.047   6.783
 5932SOL    HW118695   2.760   0.989   6.747
 5932SOL    HW218696   2.803   1.142   6.785
 5933SOL     OW18697   6.113   5.989   4.155
 5933SOL    HW118698   6.166   5.920   4.204
 5933SOL    HW218699   6.050   6.034   4.218
 5934SOL     OW18700   3.258   3.521   6.273
 5934SOL    HW118701   3.311   3.487   6.196
 5934SOL    HW218702   3.258   3.453   6.346
 5935SOL     OW18703   1.132   5.875   6.245
 5935SOL    HW118704   1.047   5.853   6.199
 5935SOL    HW218705   1.165   5.795   6.296
 5936SOL     OW18706   3.229   3.042   1.882
 5936SOL    HW118707   3.172   3.050   1.964
 5936SOL    HW218708   3.197   3.106   1.813
 5937SOL     OW18709   0.138   3.023   1.695
 5937SOL    HW118710   0.141   3.036   1.596
 5937SOL    HW218711   0.151   3.111   1.741
 5938SOL     OW18712   0.609   4.613   4.618
 5938SOL    HW118713   0.556   4.535   4.586
 5938SOL    HW218714   0.690   4.625   4.560
 5939SOL     OW18715   3.451   0.903   4.818
 5939SOL    HW118716   3.513   0.942   4.750
 5939SOL    HW218717   3.361   0.890   4.777
 5940SOL     OW18718   5.442   5.554   2.114
 5940SOL    HW118719   5.468   5.645   2.146
 5940SOL    HW218720   5.344   5.539   2.132
 5941SOL     OW18721   0.225   2.329   2.573
 5941SOL    HW118722   0.133   2.290   2.580
 5941SOL    HW218723   0.263   2.341   2.664
 5942SOL     OW18724   5.074   3.021   6.403
 5942SOL    HW118725   5.108   3.115   6.394
 5942SOL    HW218726   5.134   2.959   6.352
 5943SOL     OW18727   3.064   4.263   1.745
 5943SOL    HW118728   3.015   4.342   1.784
 5943SOL    HW218729   3.111   4.292   1.662
 5944SOL     OW18730   0.176   3.543   6.816
 5944SOL    HW118731   0.139   3.451   6.808
 5944SOL    HW218732   0.124   3.605   6.757
 5945SOL     OW18733   6.795   6.190   4.848
 5945SOL    HW118734   6.729   6.116   4.859
 5945SOL    HW218735   6.863   6.164   4.779
 5946SOL     OW18736   2.954   4.256   0.901
 5946SOL    HW118737   3.022   4.236   0.831
 5946SOL    HW218738   2.920   4.349   0.890
 5947SOL     OW18739   3.728   3.329   4.708
 5947SOL    HW118740   3.790   3.391   4.755
 5947SOL    HW218741   3.773   3.292   4.627
 5948SOL     OW18742   4.709   3.852   1.689
 5948SOL    HW118743   4.691   3.756   1.668
 5948SOL    HW218744   4.626   3.905   1.676
 5949SOL     OW18745   6.710   4.331   2.369
 5949SOL    HW118746   6.808   4.349   2.359
 5949SOL    HW218747   6.690   4.238   2.338
 5950SOL     OW18748   4.399   0.413   5.060
 5950SOL    HW118749   4.423   0.347   5.132
 5950SOL    HW218750   4.336   0.370   4.995
 5951SOL     OW18751   0.508   3.809   6.295
 5951SOL    HW118752   0.410   3.813   6.317
 5951SOL    HW218753   0.530   3.719   6.257
 5952SOL     OW18754   3.954   5.139   0.809
 5952SOL    HW118755   3.938   5.077   0.886
 5952SOL    HW218756   3.874   5.198   0.796
 5953SOL     OW18757   6.320   2.842   5.042
 5953SOL    HW118758   6.232   2.872   5.081
 5953SOL    HW218759   6.395   2.884   5.094
 5954SOL     OW18760   1.909   5.838   4.176
 5954SOL    HW118761   1.941   5.930   4.195
 5954SOL    HW218762   1.979   5.772   4.204
 5955SOL     OW18763   5.597   3.389   0.487
 5955SOL    HW118764   5.688   3.430   0.492
 5955SOL    HW218765   5.601   3.294   0.515
 5956SOL     OW18766   5.335   2.579   5.089
 5956SOL    HW118767   5.241   2.612   5.090
 5956SOL    HW218768   5.339   2.489   5.046
 5957SOL     OW18769   0.973   1.825   2.946
 5957SOL    HW118770   0.895   1.877   2.981
 5957SOL    HW218771   1.043   1.818   3.017
 5958SOL     OW18772   3.560   0.039   2.549
 5958SOL    HW118773   3.627   0.010   2.480
 5958SOL    HW218774   3.507   0.116   2.514
 5959SOL     OW18775   5.029   2.361   4.445
 5959SOL    HW118776   5.013   2.402   4.355
 5959SOL    HW218777   5.125   2.334   4.452
 5960SOL     OW18778   4.533   0.431   6.167
 5960SOL    HW118779   4.608   0.485   6.129
 5960SOL    HW218780   4.471   0.404   6.093
 5961SOL     OW18781   2.773   2.130   3.211
 5961SOL    HW118782   2.856   2.140   3.265
 5961SOL    HW218783   2.771   2.040   3.168
 5962SOL     OW18784   4.960   6.456   1.108
 5962SOL    HW118785   4.938   6.473   1.012
 5962SOL    HW218786   5.043   6.401   1.114
 5963SOL     OW18787   3.300   4.117   6.835
 5963SOL    HW118788   3.292   4.170   6.751
 5963SOL    HW218789   3.360   4.165   6.899
 5964SOL     OW18790   2.432   6.772   2.669
 5964SOL    HW118791   2.371   6.839   2.626
 5964SOL    HW218792   2.429   6.686   2.617
 5965SOL     OW18793   1.984   0.529   0.079
 5965SOL    HW118794   1.946   0.567   7.019
 5965SOL    HW218795   1.910   0.500   0.140
 5966SOL     OW18796   2.606   1.079   4.893
 5966SOL    HW118797   2.696   1.061   4.933
 5966SOL    HW218798   2.610   1.068   4.794
 5967SOL     OW18799   3.433   1.859   4.289
 5967SOL    HW118800   3.422   1.760   4.301
 5967SOL    HW218801   3.363   1.907   4.342
 5968SOL     OW18802   5.441   2.561   1.298
 5968SOL    HW118803   5.507   2.621   1.253
 5968SOL    HW218804   5.467   2.549   1.394
 5969SOL     OW18805   5.064   0.748   6.984
 5969SOL    HW118806   5.034   0.821   6.923
 5969SOL    HW218807   5.164   0.749   6.991
 5970SOL     OW18808   0.315   3.281   0.875
 5970SOL    HW118809   0.373   3.206   0.906
 5970SOL    HW218810   0.219   3.256   0.887
 5971SOL     OW18811   0.419   6.806   3.495
 5971SOL    HW118812   0.454   6.714   3.478
 5971SOL    HW218813   0.321   6.801   3.511
 5972SOL     OW18814   4.643   5.185   0.954
 5972SOL    HW118815   4.567   5.124   0.976
 5972SOL    HW218816   4.643   5.205   0.856
 5973SOL     OW18817   2.333   2.233   2.796
 5973SOL    HW118818   2.377   2.180   2.724
 5973SOL    HW218819   2.380   2.218   2.883
 5974SOL     OW18820   5.609   2.024   5.544
 5974SOL    HW118821   5.595   2.102   5.484
 5974SOL    HW218822   5.618   1.941   5.489
 5975SOL     OW18823   4.527   4.921   0.741
 5975SOL    HW118824   4.435   4.927   0.702
 5975SOL    HW218825   4.521   4.888   0.835
 5976SOL     OW18826   2.558   3.537   5.862
 5976SOL    HW118827   2.517   3.446   5.867
 5976SOL    HW218828   2.527   3.593   5.939
 5977SOL     OW18829   6.391   3.995   0.523
 5977SOL    HW118830   6.482   4.033   0.510
 5977SOL    HW218831   6.379   3.917   0.461
 5978SOL     OW18832   2.756   4.331   0.627
 5978SOL    HW118833   2.763   4.271   0.547
 5978SOL    HW218834   2.660   4.344   0.652
 5979SOL     OW18835   5.539   0.665   1.753
 5979SOL    HW118836   5.540   0.629   1.846
 5979SOL    HW218837   5.521   0.591   1.688
 5980SOL     OW18838   2.981   3.311   1.184
 5980SOL    HW118839   2.970   3.250   1.262
 5980SOL    HW218840   3.021   3.397   1.214
 5981SOL     OW18841   2.526   2.326   0.658
 5981SOL    HW118842   2.464   2.350   0.583
 5981SOL    HW218843   2.620   2.325   0.625
 5982SOL     OW18844   5.616   2.775   0.846
 5982SOL    HW118845   5.666   2.845   0.796
 5982SOL    HW218846   5.657   2.685   0.829
 5983SOL     OW18847   0.135   0.697   3.718
 5983SOL    HW118848   0.067   0.750   3.667
 5983SOL    HW218849   0.123   0.712   3.816
 5984SOL     OW18850   6.810   0.023   3.615
 5984SOL    HW118851   6.725   0.044   3.567
 5984SOL    HW218852   6.828   6.948   3.611
 5985SOL     OW18853   5.620   2.977   2.685
 5985SOL    HW118854   5.638   3.072   2.662
 5985SOL    HW218855   5.522   2.962   2.691
 5986SOL     OW18856   4.037   3.648   5.104
 5986SOL    HW118857   4.093   3.684   5.179
 5986SOL    HW218858   3.981   3.572   5.139
 5987SOL     OW18859   6.992   6.942   5.507
 5987SOL    HW118860   6.921   6.979   5.566
 5987SOL    HW218861   6.973   6.846   5.488
 5988SOL     OW18862   1.126   2.495   6.332
 5988SOL    HW118863   1.073   2.419   6.294
 5988SOL    HW218864   1.115   2.497   6.431
 5989SOL     OW18865   0.494   6.032   6.844
 5989SOL    HW118866   0.466   5.983   6.927
 5989SOL    HW218867   0.501   5.967   6.768
 5990SOL     OW18868   3.525   4.934   1.771
 5990SOL    HW118869   3.562   4.846   1.803
 5990SOL    HW218870   3.437   4.950   1.814
 5991SOL     OW18871   5.183   6.876   0.851
 5991SOL    HW118872   5.120   6.899   0.776
 5991SOL    HW218873   5.132   6.878   0.937
 5992SOL     OW18874   4.004   6.310   1.734
 5992SOL    HW118875   4.079   6.359   1.778
 5992SOL    HW218876   4.022   6.211   1.738
 5993SOL     OW18877   6.256   1.740   0.207
 5993SOL    HW118878   6.333   1.687   0.244
 5993SOL    HW218879   6.190   1.677   0.166
 5994SOL     OW18880   0.656   3.481   0.689
 5994SOL    HW118881   0.744   3.459   0.646
 5994SOL    HW218882   0.653   3.579   0.709
 5995SOL     OW18883   4.510   4.046   1.376
 5995SOL    HW118884   4.533   4.082   1.466
 5995SOL    HW218885   4.581   3.982   1.347
 5996SOL     OW18886   2.981   5.208   1.036
 5996SOL    HW118887   2.947   5.139   0.972
 5996SOL    HW218888   2.973   5.298   0.994
 5997SOL     OW18889   6.729   0.101   3.886
 5997SOL    HW118890   6.754   0.095   3.790
 5997SOL    HW218891   6.707   0.196   3.910
 5998SOL     OW18892   6.038   6.720   1.329
 5998SOL    HW118893   6.060   6.749   1.236
 5998SOL    HW218894   5.940   6.698   1.335
 5999SOL     OW18895   5.211   2.855   1.182
 5999SOL    HW118896   5.190   2.775   1.126
 5999SOL    HW218897   5.309   2.860   1.198
 6000SOL     OW18898   0.518   3.834   1.344
 6000SOL    HW118899   0.458   3.894   1.396
 6000SOL    HW218900   0.537   3.874   1.254
 6001SOL     OW18901   6.496   5.156   5.863
 6001SOL    HW118902   6.399   5.170   5.843
 6001SOL    HW218903   6.544   5.244   5.854
 6002SOL     OW18904   6.285   5.217   4.696
 6002SOL    HW118905   6.237   5.279   4.758
 6002SOL    HW218906   6.232   5.133   4.686
 6003SOL     OW18907   0.661   2.916   4.587
 6003SOL    HW118908   0.705   3.005   4.599
 6003SOL    HW218909   0.728   2.843   4.602
 6004SOL     OW18910   5.275   2.932   4.337
 6004SOL    HW118911   5.189   2.904   4.295
 6004SOL    HW218912   5.265   2.935   4.436
 6005SOL     OW18913   3.829   5.250   6.484
 6005SOL    HW118914   3.761   5.220   6.551
 6005SOL    HW218915   3.866   5.339   6.512
 6006SOL     OW18916   3.185   6.137   5.759
 6006SOL    HW118917   3.241   6.114   5.839
 6006SOL    HW218918   3.089   6.119   5.779
 6007SOL     OW18919   2.539   5.683   6.349
 6007SOL    HW118920   2.591   5.753   6.399
 6007SOL    HW218921   2.468   5.727   6.294
 6008SOL     OW18922   3.244   3.917   6.004
 6008SOL    HW118923   3.327   3.897   6.056
 6008SOL    HW218924   3.267   3.937   5.909
 6009SOL     OW18925   3.152   5.098   3.180
 6009SOL    HW118926   3.198   5.023   3.227
 6009SOL    HW218927   3.148   5.079   3.082
 6010SOL     OW18928   0.604   5.505   4.690
 6010SOL    HW118929   0.688   5.505   4.745
 6010SOL    HW218930   0.596   5.592   4.642
 6011SOL     OW18931   6.104   1.907   1.503
 6011SOL    HW118932   6.160   1.981   1.541
 6011SOL    HW218933   6.089   1.837   1.573
 6012SOL     OW18934   6.851   0.186   6.204
 6012SOL    HW118935   6.919   0.197   6.278
 6012SOL    HW218936   6.846   0.090   6.177
 6013SOL     OW18937   5.958   1.686   2.481
 6013SOL    HW118938   6.033   1.750   2.467
 6013SOL    HW218939   5.994   1.594   2.497
 6014SOL     OW18940   3.891   3.369   3.973
 6014SOL    HW118941   3.909   3.287   4.027
 6014SOL    HW218942   3.973   3.427   3.974
 6015SOL     OW18943   5.822   1.608   4.506
 6015SOL    HW118944   5.911   1.627   4.464
 6015SOL    HW218945   5.816   1.510   4.527
 6016SOL     OW18946   5.218   0.966   4.378
 6016SOL    HW118947   5.164   1.047   4.401
 6016SOL    HW218948   5.301   0.965   4.434
 6017SOL     OW18949   6.767   2.242   5.595
 6017SOL    HW118950   6.800   2.330   5.630
 6017SOL    HW218951   6.781   2.239   5.496
 6018SOL     OW18952   3.331   1.134   5.355
 6018SOL    HW118953   3.296   1.110   5.446
 6018SOL    HW218954   3.264   1.107   5.286
 6019SOL     OW18955   6.833   3.715   6.878
 6019SOL    HW118956   6.748   3.736   6.927
 6019SOL    HW218957   6.910   3.754   6.928
 6020SOL     OW18958   0.784   4.806   6.730
 6020SOL    HW118959   0.836   4.836   6.650
 6020SOL    HW218960   0.845   4.759   6.794
 6021SOL     OW18961   4.928   0.008   3.389
 6021SOL    HW118962   5.026   7.014   3.386
 6021SOL    HW218963   4.908   0.076   3.460
 6022SOL     OW18964   6.136   1.766   1.748
 6022SOL    HW118965   6.225   1.742   1.785
 6022SOL    HW218966   6.070   1.695   1.770
 6023SOL     OW18967   4.191   0.553   1.907
 6023SOL    HW118968   4.197   0.486   1.833
 6023SOL    HW218969   4.268   0.616   1.903
 6024SOL     OW18970   1.114   5.774   0.155
 6024SOL    HW118971   1.018   5.798   0.144
 6024SOL    HW218972   1.132   5.751   0.250
 6025SOL     OW18973   3.224   0.660   4.439
 6025SOL    HW118974   3.257   0.709   4.519
 6025SOL    HW218975   3.191   0.725   4.371
 6026SOL     OW18976   6.540   4.566   4.586
 6026SOL    HW118977   6.559   4.658   4.620
 6026SOL    HW218978   6.594   4.549   4.504
 6027SOL     OW18979   5.855   4.147   6.822
 6027SOL    HW118980   5.945   4.166   6.782
 6027SOL    HW218981   5.788   4.212   6.788
 6028SOL     OW18982   5.718   5.416   6.243
 6028SOL    HW118983   5.637   5.474   6.229
 6028SOL    HW218984   5.715   5.340   6.178
 6029SOL     OW18985   2.019   0.878   3.108
 6029SOL    HW118986   2.106   0.874   3.058
 6029SOL    HW218987   2.022   0.813   3.184
 6030SOL     OW18988   5.378   3.601   4.075
 6030SOL    HW118989   5.408   3.554   3.992
 6030SOL    HW218990   5.294   3.651   4.056
 6031SOL     OW18991   0.780   6.304   4.689
 6031SOL    HW118992   0.729   6.382   4.726
 6031SOL    HW218993   0.810   6.245   4.765
 6032SOL     OW18994   3.427   6.302   3.451
 6032SOL    HW118995   3.387   6.393   3.460
 6032SOL    HW218996   3.456   6.270   3.542
 6033SOL     OW18997   1.861   1.626   2.537
 6033SOL    HW118998   1.917   1.598   2.459
 6033SOL    HW218999   1.780   1.675   2.505
 6034SOL     OW19000   0.575   0.691   0.357
 6034SOL    HW119001   0.563   0.611   0.298
 6034SOL    HW219002   0.485   0.734   0.373
 6035SOL     OW19003   2.100   0.462   3.040
 6035SOL    HW119004   2.148   0.548   3.022
 6035SOL    HW219005   2.001   0.476   3.034
 6036SOL     OW19006   6.482   2.670   0.903
 6036SOL    HW119007   6.485   2.721   0.989
 6036SOL    HW219008   6.438   2.581   0.919
 6037SOL     OW19009   5.129   2.276   0.330
 6037SOL    HW119010   5.068   2.301   0.405
 6037SOL    HW219011   5.097   2.319   0.246
 6038SOL     OW19012   0.239   1.379   5.881
 6038SOL    HW119013   0.166   1.318   5.911
 6038SOL    HW219014   0.203   1.445   5.815
 6039SOL     OW19015   3.743   3.347   3.566
 6039SOL    HW119016   3.818   3.311   3.511
 6039SOL    HW219017   3.656   3.328   3.518
 6040SOL     OW19018   0.415   1.775   0.333
 6040SOL    HW119019   0.316   1.770   0.333
 6040SOL    HW219020   0.451   1.723   0.255
 6041SOL     OW19021   2.390   3.342   5.879
 6041SOL    HW119022   2.320   3.302   5.819
 6041SOL    HW219023   2.366   3.323   5.974
 6042SOL     OW19024   3.554   6.126   3.253
 6042SOL    HW119025   3.511   6.179   3.327
 6042SOL    HW219026   3.615   6.186   3.201
 6043SOL     OW19027   2.444   0.377   3.575
 6043SOL    HW119028   2.451   0.279   3.556
 6043SOL    HW219029   2.463   0.429   3.492
 6044SOL     OW19030   0.764   2.861   1.469
 6044SOL    HW119031   0.774   2.945   1.416
 6044SOL    HW219032   0.796   2.877   1.563
 6045SOL     OW19033   4.658   2.108   3.280
 6045SOL    HW119034   4.665   2.058   3.366
 6045SOL    HW219035   4.747   2.112   3.236
 6046SOL     OW19036   3.310   2.960   2.204
 6046SOL    HW119037   3.360   3.034   2.160
 6046SOL    HW219038   3.281   2.894   2.135
 6047SOL     OW19039   6.163   1.498   1.042
 6047SOL    HW119040   6.176   1.400   1.027
 6047SOL    HW219041   6.238   1.534   1.098
 6048SOL     OW19042   6.244   5.801   4.307
 6048SOL    HW119043   6.150   5.767   4.315
 6048SOL    HW219044   6.308   5.730   4.336
 6049SOL     OW19045   4.548   5.258   5.306
 6049SOL    HW119046   4.601   5.260   5.221
 6049SOL    HW219047   4.593   5.199   5.373
 6050SOL     OW19048   3.830   6.643   1.654
 6050SOL    HW119049   3.873   6.622   1.566
 6050SOL    HW219050   3.893   6.621   1.728
 6051SOL     OW19051   1.028   0.987   3.539
 6051SOL    HW119052   1.079   0.933   3.472
 6051SOL    HW219053   1.080   1.069   3.562
 6052SOL     OW19054   5.534   6.654   0.264
 6052SOL    HW119055   5.486   6.738   0.242
 6052SOL    HW219056   5.599   6.632   0.191
 6053SOL     OW19057   4.078   2.900   6.296
 6053SOL    HW119058   4.016   2.821   6.303
 6053SOL    HW219059   4.152   2.890   6.362
 6054SOL     OW19060   3.920   4.178   1.033
 6054SOL    HW119061   3.844   4.219   0.983
 6054SOL    HW219062   3.951   4.241   1.104
 6055SOL     OW19063   3.401   4.702   0.650
 6055SOL    HW119064   3.337   4.625   0.645
 6055SOL    HW219065   3.492   4.671   0.621
 6056SOL     OW19066   5.321   5.757   5.294
 6056SOL    HW119067   5.251   5.820   5.261
 6056SOL    HW219068   5.365   5.712   5.216
 6057SOL     OW19069   4.870   0.271   4.361
 6057SOL    HW119070   4.936   0.204   4.398
 6057SOL    HW219071   4.786   0.224   4.336
 6058SOL     OW19072   5.428   2.084   6.014
 6058SOL    HW119073   5.389   2.026   6.086
 6058SOL    HW219074   5.492   2.030   5.959
 6059SOL     OW19075   3.993   3.221   6.940
 6059SOL    HW119076   4.010   3.222   6.841
 6059SOL    HW219077   3.935   3.298   6.965
 6060SOL     OW19078   2.725   3.326   6.792
 6060SOL    HW119079   2.807   3.384   6.795
 6060SOL    HW219080   2.694   3.307   6.885
 6061SOL     OW19081   3.600   5.257   6.909
 6061SOL    HW119082   3.532   5.330   6.911
 6061SOL    HW219083   3.557   5.172   6.879
 6062SOL     OW19084   2.060   1.874   6.894
 6062SOL    HW119085   2.143   1.928   6.908
 6062SOL    HW219086   2.001   1.920   6.827
 6063SOL     OW19087   4.486   4.280   6.332
 6063SOL    HW119088   4.423   4.219   6.380
 6063SOL    HW219089   4.459   4.286   6.236
 6064SOL     OW19090   0.149   5.639   1.206
 6064SOL    HW119091   0.065   5.609   1.162
 6064SOL    HW219092   0.174   5.729   1.171
 6065SOL     OW19093   0.589   6.183   2.602
 6065SOL    HW119094   0.660   6.134   2.551
 6065SOL    HW219095   0.567   6.268   2.555
 6066SOL     OW19096   5.650   6.357   3.599
 6066SOL    HW119097   5.631   6.296   3.676
 6066SOL    HW219098   5.673   6.448   3.634
 6067SOL     OW19099   5.726   0.292   6.430
 6067SOL    HW119100   5.810   0.239   6.423
 6067SOL    HW219101   5.648   0.231   6.415
 6068SOL     OW19102   4.649   1.887   5.154
 6068SOL    HW119103   4.687   1.863   5.065
 6068SOL    HW219104   4.573   1.951   5.141
 6069SOL     OW19105   0.062   3.649   6.592
 6069SOL    HW119106   0.004   3.632   6.512
 6069SOL    HW219107   0.032   3.732   6.639
 6070SOL     OW19108   2.797   1.404   0.433
 6070SOL    HW119109   2.869   1.402   0.503
 6070SOL    HW219110   2.708   1.396   0.476
 6071SOL     OW19111   6.159   0.324   5.013
 6071SOL    HW119112   6.067   0.345   4.980
 6071SOL    HW219113   6.221   0.397   4.984
 6072SOL     OW19114   6.863   2.367   0.989
 6072SOL    HW119115   6.868   2.459   1.028
 6072SOL    HW219116   6.936   2.355   0.922
 6073SOL     OW19117   4.654   2.668   0.475
 6073SOL    HW119118   4.701   2.716   0.549
 6073SOL    HW219119   4.679   2.710   0.387
 6074SOL     OW19120   0.375   6.576   2.644
 6074SOL    HW119121   0.366   6.666   2.601
 6074SOL    HW219122   0.330   6.507   2.587
 6075SOL     OW19123   4.990   6.796   6.658
 6075SOL    HW119124   5.038   6.862   6.715
 6075SOL    HW219125   4.920   6.843   6.604
 6076SOL     OW19126   1.305   5.039   3.627
 6076SOL    HW119127   1.331   5.123   3.579
 6076SOL    HW219128   1.285   4.968   3.560
 6077SOL     OW19129   5.515   6.746   2.152
 6077SOL    HW119130   5.503   6.770   2.248
 6077SOL    HW219131   5.555   6.823   2.102
 6078SOL     OW19132   3.976   3.421   0.628
 6078SOL    HW119133   3.929   3.367   0.698
 6078SOL    HW219134   4.030   3.493   0.673
 6079SOL     OW19135   3.253   3.807   6.384
 6079SOL    HW119136   3.192   3.793   6.462
 6079SOL    HW219137   3.293   3.719   6.357
 6080SOL     OW19138   6.964   4.410   6.843
 6080SOL    HW119139   6.965   4.473   6.920
 6080SOL    HW219140   6.973   4.461   6.757
 6081SOL     OW19141   1.557   3.399   4.159
 6081SOL    HW119142   1.613   3.477   4.189
 6081SOL    HW219143   1.580   3.376   4.065
 6082SOL     OW19144   4.530   1.148   0.892
 6082SOL    HW119145   4.548   1.243   0.866
 6082SOL    HW219146   4.463   1.146   0.966
 6083SOL     OW19147   4.933   0.097   6.396
 6083SOL    HW119148   4.963   0.137   6.483
 6083SOL    HW219149   4.924   0.169   6.328
 6084SOL     OW19150   6.943   6.458   3.005
 6084SOL    HW119151   6.908   6.549   2.981
 6084SOL    HW219152   6.988   6.462   3.094
 6085SOL     OW19153   0.450   6.096   0.874
 6085SOL    HW119154   0.462   6.176   0.932
 6085SOL    HW219155   0.531   6.083   0.817
 6086SOL     OW19156   3.469   3.949   6.221
 6086SOL    HW119157   3.417   3.901   6.291
 6086SOL    HW219158   3.516   4.027   6.262
 6087SOL     OW19159   5.075   6.494   0.832
 6087SOL    HW119160   4.988   6.530   0.800
 6087SOL    HW219161   5.148   6.559   0.810
 6088SOL     OW19162   5.508   6.443   3.386
 6088SOL    HW119163   5.557   6.418   3.470
 6088SOL    HW219164   5.421   6.393   3.382
 6089SOL     OW19165   6.289   3.670   3.387
 6089SOL    HW119166   6.373   3.695   3.338
 6089SOL    HW219167   6.287   3.715   3.476
 6090SOL     OW19168   3.930   6.061   3.910
 6090SOL    HW119169   4.030   6.064   3.903
 6090SOL    HW219170   3.889   6.083   3.822
 6091SOL     OW19171   2.067   1.285   1.812
 6091SOL    HW119172   2.118   1.201   1.796
 6091SOL    HW219173   2.093   1.353   1.743
 6092SOL     OW19174   3.868   6.068   1.230
 6092SOL    HW119175   3.783   6.025   1.261
 6092SOL    HW219176   3.895   6.138   1.296
 6093SOL     OW19177   2.497   2.023   2.151
 6093SOL    HW119178   2.478   2.009   2.053
 6093SOL    HW219179   2.566   1.958   2.182
 6094SOL     OW19180   0.626   6.079   4.569
 6094SOL    HW119181   0.672   6.072   4.481
 6094SOL    HW219182   0.679   6.139   4.630
 6095SOL     OW19183   4.256   5.548   0.965
 6095SOL    HW119184   4.354   5.529   0.976
 6095SOL    HW219185   4.241   5.647   0.970
 6096SOL     OW19186   5.603   6.742   2.972
 6096SOL    HW119187   5.617   6.662   2.913
 6096SOL    HW219188   5.582   6.711   3.065
 6097SOL     OW19189   1.939   5.705   2.232
 6097SOL    HW119190   1.958   5.764   2.310
 6097SOL    HW219191   1.841   5.705   2.213
 6098SOL     OW19192   6.380   0.971   4.996
 6098SOL    HW119193   6.389   0.984   4.897
 6098SOL    HW219194   6.375   0.874   5.016
 6099SOL     OW19195   4.439   0.768   5.977
 6099SOL    HW119196   4.438   0.862   5.944
 6099SOL    HW219197   4.350   0.726   5.961
 6100SOL     OW19198   0.276   6.290   5.040
 6100SOL    HW119199   0.321   6.241   4.966
 6100SOL    HW219200   0.182   6.258   5.049
 6101SOL     OW19201   6.339   3.030   1.234
 6101SOL    HW119202   6.287   3.108   1.198
 6101SOL    HW219203   6.436   3.053   1.238
 6102SOL     OW19204   4.513   0.103   2.626
 6102SOL    HW119205   4.595   0.060   2.664
 6102SOL    HW219206   4.471   0.162   2.695
 6103SOL     OW19207   6.964   1.737   1.772
 6103SOL    HW119208   6.960   1.709   1.868
 6103SOL    HW219209   6.937   1.833   1.763
 6104SOL     OW19210   6.490   1.075   4.293
 6104SOL    HW119211   6.569   1.083   4.353
 6104SOL    HW219212   6.517   1.028   4.208
 6105SOL     OW19213   3.087   4.841   5.339
 6105SOL    HW119214   3.095   4.742   5.346
 6105SOL    HW219215   3.053   4.865   5.248
 6106SOL     OW19216   6.111   5.446   6.531
 6106SOL    HW119217   6.130   5.361   6.482
 6106SOL    HW219218   6.025   5.484   6.499
 6107SOL     OW19219   5.222   4.574   5.758
 6107SOL    HW119220   5.207   4.640   5.685
 6107SOL    HW219221   5.295   4.511   5.732
 6108SOL     OW19222   2.572   1.449   0.645
 6108SOL    HW119223   2.474   1.468   0.640
 6108SOL    HW219224   2.588   1.365   0.697
 6109SOL     OW19225   6.239   6.967   3.224
 6109SOL    HW119226   6.231   0.042   3.233
 6109SOL    HW219227   6.151   6.924   3.243
 6110SOL     OW19228   2.093   1.897   4.960
 6110SOL    HW119229   2.133   1.977   4.916
 6110SOL    HW219230   2.086   1.822   4.893
 6111SOL     OW19231   1.809   4.875   1.171
 6111SOL    HW119232   1.903   4.900   1.150
 6111SOL    HW219233   1.791   4.781   1.141
 6112SOL     OW19234   4.864   0.152   2.587
 6112SOL    HW119235   4.870   0.251   2.600
 6112SOL    HW219236   4.798   0.114   2.652
 6113SOL     OW19237   2.497   5.312   6.758
 6113SOL    HW119238   2.554   5.383   6.718
 6113SOL    HW219239   2.414   5.353   6.796
 6114SOL     OW19240   5.067   1.707   0.926
 6114SOL    HW119241   5.138   1.678   0.861
 6114SOL    HW219242   5.106   1.772   0.991
 6115SOL     OW19243   0.807   0.504   5.298
 6115SOL    HW119244   0.746   0.446   5.243
 6115SOL    HW219245   0.841   0.451   5.376
 6116SOL     OW19246   5.150   1.811   5.534
 6116SOL    HW119247   5.233   1.788   5.584
 6116SOL    HW219248   5.096   1.876   5.588
 6117SOL     OW19249   1.680   2.298   1.094
 6117SOL    HW119250   1.723   2.280   1.182
 6117SOL    HW219251   1.625   2.382   1.100
 6118SOL     OW19252   6.309   0.666   0.545
 6118SOL    HW119253   6.288   0.700   0.637
 6118SOL    HW219254   6.241   0.700   0.481
 6119SOL     OW19255   6.569   1.492   0.963
 6119SOL    HW119256   6.572   1.557   1.038
 6119SOL    HW219257   6.649   1.506   0.904
 6120SOL     OW19258   2.211   1.060   5.363
 6120SOL    HW119259   2.251   1.148   5.335
 6120SOL    HW219260   2.266   0.985   5.326
 6121SOL     OW19261   0.460   3.050   4.732
 6121SOL    HW119262   0.369   3.044   4.691
 6121SOL    HW219263   0.523   2.990   4.682
 6122SOL     OW19264   5.120   5.709   5.842
 6122SOL    HW119265   5.081   5.661   5.921
 6122SOL    HW219266   5.217   5.727   5.859
 6123SOL     OW19267   5.482   1.682   4.909
 6123SOL    HW119268   5.460   1.778   4.926
 6123SOL    HW219269   5.552   1.677   4.838
 6124SOL     OW19270   2.355   6.932   3.947
 6124SOL    HW119271   2.375   6.870   4.024
 6124SOL    HW219272   2.429   6.926   3.880
 6125SOL     OW19273   1.779   2.167   6.334
 6125SOL    HW119274   1.802   2.262   6.311
 6125SOL    HW219275   1.680   2.156   6.334
 6126SOL     OW19276   6.192   2.844   5.579
 6126SOL    HW119277   6.282   2.843   5.622
 6126SOL    HW219278   6.178   2.931   5.533
 6127SOL     OW19279   3.983   2.245   1.869
 6127SOL    HW119280   3.893   2.235   1.912
 6127SOL    HW219281   4.051   2.266   1.940
 6128SOL     OW19282   6.230   5.734   0.412
 6128SOL    HW119283   6.191   5.695   0.495
 6128SOL    HW219284   6.201   5.681   0.333
 6129SOL     OW19285   1.566   5.321   2.717
 6129SOL    HW119286   1.548   5.378   2.637
 6129SOL    HW219287   1.664   5.318   2.735
 6130SOL     OW19288   5.609   2.017   0.923
 6130SOL    HW119289   5.633   2.091   0.860
 6130SOL    HW219290   5.679   1.945   0.918
 6131SOL     OW19291   6.940   1.962   2.518
 6131SOL    HW119292   6.951   1.904   2.438
 6131SOL    HW219293   6.962   2.056   2.494
 6132SOL     OW19294   3.615   1.305   6.624
 6132SOL    HW119295   3.559   1.285   6.705
 6132SOL    HW219296   3.555   1.326   6.547
 6133SOL     OW19297   1.728   1.330   4.175
 6133SOL    HW119298   1.741   1.235   4.201
 6133SOL    HW219299   1.801   1.386   4.214
 6134SOL     OW19300   5.355   6.773   6.331
 6134SOL    HW119301   5.331   6.704   6.263
 6134SOL    HW219302   5.274   6.827   6.355
 6135SOL     OW19303   6.481   0.271   6.680
 6135SOL    HW119304   6.538   0.228   6.750
 6135SOL    HW219305   6.451   0.361   6.710
 6136SOL     OW19306   1.568   3.194   2.581
 6136SOL    HW119307   1.537   3.142   2.502
 6136SOL    HW219308   1.490   3.234   2.628
 6137SOL     OW19309   0.175   4.266   2.032
 6137SOL    HW119310   0.129   4.349   2.002
 6137SOL    HW219311   0.203   4.213   1.952
 6138SOL     OW19312   3.670   0.052   2.084
 6138SOL    HW119313   3.688   0.148   2.062
 6138SOL    HW219314   3.677   7.020   2.001
 6139SOL     OW19315   1.518   0.469   5.515
 6139SOL    HW119316   1.565   0.415   5.586
 6139SOL    HW219317   1.421   0.474   5.536
 6140SOL     OW19318   1.532   6.763   3.204
 6140SOL    HW119319   1.577   6.847   3.235
 6140SOL    HW219320   1.568   6.737   3.115
 6141SOL     OW19321   0.510   0.674   5.864
 6141SOL    HW119322   0.551   0.625   5.787
 6141SOL    HW219323   0.418   0.704   5.839
 6142SOL     OW19324   0.270   0.174   1.103
 6142SOL    HW119325   0.363   0.167   1.067
 6142SOL    HW219326   0.247   0.270   1.119
 6143SOL     OW19327   6.465   4.162   5.507
 6143SOL    HW119328   6.393   4.223   5.540
 6143SOL    HW219329   6.485   4.183   5.411
 6144SOL     OW19330   3.880   5.135   2.811
 6144SOL    HW119331   3.834   5.223   2.803
 6144SOL    HW219332   3.947   5.139   2.885
 6145SOL     OW19333   4.888   3.116   4.567
 6145SOL    HW119334   4.851   3.048   4.503
 6145SOL    HW219335   4.927   3.192   4.516
 6146SOL     OW19336   5.274   0.223   4.784
 6146SOL    HW119337   5.362   0.177   4.771
 6146SOL    HW219338   5.209   0.191   4.715
 6147SOL     OW19339   1.833   2.145   3.625
 6147SOL    HW119340   1.790   2.212   3.565
 6147SOL    HW219341   1.920   2.182   3.659
 6148SOL     OW19342   3.224   6.003   0.231
 6148SOL    HW119343   3.222   6.044   0.140
 6148SOL    HW219344   3.198   6.071   0.299
 6149SOL     OW19345   3.087   0.089   2.068
 6149SOL    HW119346   3.130   0.179   2.067
 6149SOL    HW219347   3.062   0.065   2.162
 6150SOL     OW19348   6.316   4.270   6.460
 6150SOL    HW119349   6.333   4.186   6.512
 6150SOL    HW219350   6.400   4.325   6.458
 6151SOL     OW19351   4.572   4.699   4.687
 6151SOL    HW119352   4.575   4.599   4.696
 6151SOL    HW219353   4.504   4.724   4.618
 6152SOL     OW19354   0.891   4.621   4.484
 6152SOL    HW119355   0.877   4.529   4.447
 6152SOL    HW219356   0.876   4.619   4.583
 6153SOL     OW19357   5.272   5.108   0.944
 6153SOL    HW119358   5.232   5.016   0.945
 6153SOL    HW219359   5.216   5.167   0.887
 6154SOL     OW19360   5.955   3.160   2.027
 6154SOL    HW119361   6.048   3.185   1.998
 6154SOL    HW219362   5.908   3.241   2.061
 6155SOL     OW19363   1.951   1.493   3.137
 6155SOL    HW119364   1.917   1.442   3.216
 6155SOL    HW219365   1.901   1.579   3.128
 6156SOL     OW19366   5.070   5.048   1.289
 6156SOL    HW119367   5.069   5.042   1.388
 6156SOL    HW219368   5.125   4.973   1.251
 6157SOL     OW19369   1.221   2.194   2.397
 6157SOL    HW119370   1.311   2.155   2.413
 6157SOL    HW219371   1.152   2.122   2.406
 6158SOL     OW19372   3.025   2.950   5.669
 6158SOL    HW119373   3.067   2.860   5.657
 6158SOL    HW219374   3.071   3.016   5.609
 6159SOL     OW19375   5.788   2.984   0.288
 6159SOL    HW119376   5.866   2.945   0.239
 6159SOL    HW219377   5.742   2.911   0.339
 6160SOL     OW19378   0.725   0.142   6.995
 6160SOL    HW119379   0.652   0.100   0.026
 6160SOL    HW219380   0.811   0.140   0.023
 6161SOL     OW19381   4.629   2.782   6.426
 6161SOL    HW119382   4.706   2.717   6.427
 6161SOL    HW219383   4.632   2.839   6.508
 6162SOL     OW19384   6.333   5.496   2.955
 6162SOL    HW119385   6.234   5.503   2.945
 6162SOL    HW219386   6.368   5.579   3.000
 6163SOL     OW19387   5.709   5.868   3.311
 6163SOL    HW119388   5.758   5.928   3.375
 6163SOL    HW219389   5.693   5.780   3.355
 6164SOL     OW19390   3.756   4.177   4.779
 6164SOL    HW119391   3.691   4.155   4.852
 6164SOL    HW219392   3.834   4.226   4.818
 6165SOL     OW19393   3.951   1.839   0.339
 6165SOL    HW119394   3.862   1.871   0.372
 6165SOL    HW219395   3.939   1.758   0.282
 6166SOL     OW19396   0.964   2.259   6.850
 6166SOL    HW119397   0.874   2.221   6.873
 6166SOL    HW219398   0.967   2.284   6.754
 6167SOL     OW19399   1.292   3.653   3.520
 6167SOL    HW119400   1.389   3.655   3.546
 6167SOL    HW219401   1.236   3.649   3.602
 6168SOL     OW19402   0.528   3.590   4.325
 6168SOL    HW119403   0.562   3.507   4.371
 6168SOL    HW219404   0.439   3.615   4.364
 6169SOL     OW19405   2.466   6.815   0.150
 6169SOL    HW119406   2.556   6.794   0.112
 6169SOL    HW219407   2.412   6.865   0.083
 6170SOL     OW19408   3.730   4.168   6.875
 6170SOL    HW119409   3.759   4.081   6.835
 6170SOL    HW219410   3.752   4.169   6.973
 6171SOL     OW19411   1.925   4.559   2.534
 6171SOL    HW119412   1.989   4.635   2.520
 6171SOL    HW219413   1.960   4.477   2.490
 6172SOL     OW19414   1.264   6.064   2.766
 6172SOL    HW119415   1.208   6.040   2.845
 6172SOL    HW219416   1.207   6.070   2.684
 6173SOL     OW19417   1.317   5.123   2.637
 6173SOL    HW119418   1.235   5.179   2.649
 6173SOL    HW219419   1.383   5.145   2.709
 6174SOL     OW19420   5.372   5.362   2.852
 6174SOL    HW119421   5.279   5.395   2.865
 6174SOL    HW219422   5.373   5.262   2.855
 6175SOL     OW19423   4.867   0.378   3.360
 6175SOL    HW119424   4.965   0.361   3.354
 6175SOL    HW219425   4.850   0.476   3.344
 6176SOL     OW19426   6.142   3.409   6.024
 6176SOL    HW119427   6.119   3.430   6.119
 6176SOL    HW219428   6.230   3.362   6.020
 6177SOL     OW19429   5.538   1.982   0.518
 6177SOL    HW119430   5.623   2.034   0.527
 6177SOL    HW219431   5.476   2.029   0.456
 6178SOL     OW19432   5.709   3.397   0.764
 6178SOL    HW119433   5.628   3.362   0.715
 6178SOL    HW219434   5.680   3.437   0.850
 6179SOL     OW19435   0.052   2.357   5.563
 6179SOL    HW119436   6.992   2.403   5.592
 6179SOL    HW219437   0.029   2.286   5.496
 6180SOL     OW19438   3.852   6.864   0.927
 6180SOL    HW119439   3.821   6.917   0.849
 6180SOL    HW219440   3.891   6.777   0.895
 6181SOL     OW19441   4.930   6.421   6.861
 6181SOL    HW119442   4.841   6.381   6.878
 6181SOL    HW219443   4.989   6.355   6.815
 6182SOL     OW19444   4.892   6.525   6.399
 6182SOL    HW119445   4.826   6.566   6.337
 6182SOL    HW219446   4.846   6.499   6.484
 6183SOL     OW19447   2.929   0.027   3.299
 6183SOL    HW119448   3.004   6.987   3.281
 6183SOL    HW219449   2.871   0.034   3.218
 6184SOL     OW19450   0.525   0.328   6.525
 6184SOL    HW119451   0.525   0.251   6.461
 6184SOL    HW219452   0.586   0.306   6.602
 6185SOL     OW19453   6.968   3.625   6.353
 6185SOL    HW119454   7.002   3.572   6.275
 6185SOL    HW219455   6.873   3.652   6.336
 6186SOL     OW19456   5.301   0.283   4.390
 6186SOL    HW119457   5.234   0.210   4.381
 6186SOL    HW219458   5.261   0.369   4.358
 6187SOL     OW19459   4.446   4.610   4.256
 6187SOL    HW119460   4.360   4.657   4.278
 6187SOL    HW219461   4.437   4.562   4.169
 6188SOL     OW19462   2.861   6.611   1.232
 6188SOL    HW119463   2.917   6.571   1.304
 6188SOL    HW219464   2.807   6.686   1.270
 6189SOL     OW19465   5.461   5.273   3.534
 6189SOL    HW119466   5.429   5.317   3.450
 6189SOL    HW219467   5.553   5.306   3.556
 6190SOL     OW19468   5.387   2.414   6.983
 6190SOL    HW119469   5.467   2.471   6.966
 6190SOL    HW219470   5.349   2.383   6.895
 6191SOL     OW19471   5.859   1.721   0.002
 6191SOL    HW119472   5.761   1.704   7.016
 6191SOL    HW219473   5.873   1.811   0.042
 6192SOL     OW19474   2.551   2.868   6.721
 6192SOL    HW119475   2.590   2.959   6.708
 6192SOL    HW219476   2.624   2.801   6.727
 6193SOL     OW19477   5.224   0.476   1.741
 6193SOL    HW119478   5.127   0.454   1.732
 6193SOL    HW219479   5.234   0.564   1.788
 6194SOL     OW19480   2.899   0.862   0.763
 6194SOL    HW119481   2.899   0.788   0.695
 6194SOL    HW219482   2.844   0.834   0.841
 6195SOL     OW19483   3.217   0.339   6.270
 6195SOL    HW119484   3.145   0.315   6.204
 6195SOL    HW219485   3.175   0.370   6.355
 6196SOL     OW19486   0.936   1.981   6.083
 6196SOL    HW119487   0.906   1.950   5.993
 6196SOL    HW219488   1.036   1.984   6.086
 6197SOL     OW19489   2.180   3.957   0.539
 6197SOL    HW119490   2.171   4.038   0.480
 6197SOL    HW219491   2.202   3.877   0.483
 6198SOL     OW19492   3.769   4.860   2.506
 6198SOL    HW119493   3.685   4.823   2.466
 6198SOL    HW219494   3.774   4.958   2.488
 6199SOL     OW19495   1.580   6.700   0.036
 6199SOL    HW119496   1.505   6.664   7.005
 6199SOL    HW219497   1.554   6.790   0.073
 6200SOL     OW19498   4.172   0.983   6.353
 6200SOL    HW119499   4.174   0.946   6.446
 6200SOL    HW219500   4.238   0.934   6.296
 6201SOL     OW19501   2.062   3.735   5.585
 6201SOL    HW119502   2.087   3.691   5.671
 6201SOL    HW219503   2.070   3.670   5.510
 6202SOL     OW19504   3.165   2.205   0.927
 6202SOL    HW119505   3.215   2.253   0.855
 6202SOL    HW219506   3.112   2.130   0.887
 6203SOL     OW19507   4.932   1.240   4.219
 6203SOL    HW119508   4.994   1.312   4.250
 6203SOL    HW219509   4.956   1.154   4.265
 6204SOL     OW19510   2.408   6.465   5.434
 6204SOL    HW119511   2.422   6.387   5.373
 6204SOL    HW219512   2.433   6.440   5.527
 6205SOL     OW19513   5.152   5.858   7.001
 6205SOL    HW119514   5.100   5.938   0.007
 6205SOL    HW219515   5.216   5.885   6.929
 6206SOL     OW19516   5.633   0.387   2.644
 6206SOL    HW119517   5.564   0.413   2.712
 6206SOL    HW219518   5.689   0.312   2.681
 6207SOL     OW19519   1.626   4.124   4.889
 6207SOL    HW119520   1.624   4.127   4.989
 6207SOL    HW219521   1.599   4.034   4.858
 6208SOL     OW19522   5.977   6.521   6.139
 6208SOL    HW119523   6.049   6.457   6.167
 6208SOL    HW219524   5.988   6.607   6.188
 6209SOL     OW19525   4.275   6.551   0.353
 6209SOL    HW119526   4.347   6.518   0.414
 6209SOL    HW219527   4.187   6.515   0.383
 6210SOL     OW19528   5.692   4.183   3.702
 6210SOL    HW119529   5.601   4.162   3.667
 6210SOL    HW219530   5.761   4.132   3.649
 6211SOL     OW19531   3.011   6.793   4.668
 6211SOL    HW119532   2.991   6.766   4.762
 6211SOL    HW219533   2.971   6.883   4.650
 6212SOL     OW19534   6.749   6.193   3.852
 6212SOL    HW119535   6.816   6.126   3.821
 6212SOL    HW219536   6.797   6.272   3.891
 6213SOL     OW19537   6.295   0.706   6.274
 6213SOL    HW119538   6.202   0.687   6.304
 6213SOL    HW219539   6.315   0.804   6.287
 6214SOL     OW19540   6.738   4.469   2.723
 6214SOL    HW119541   6.680   4.549   2.707
 6214SOL    HW219542   6.694   4.409   2.789
 6215SOL     OW19543   2.769   3.307   0.992
 6215SOL    HW119544   2.855   3.331   1.037
 6215SOL    HW219545   2.753   3.209   1.001
 6216SOL     OW19546   5.492   2.085   2.170
 6216SOL    HW119547   5.517   2.007   2.227
 6216SOL    HW219548   5.555   2.090   2.092
 6217SOL     OW19549   4.591   2.371   1.018
 6217SOL    HW119550   4.637   2.353   0.931
 6217SOL    HW219551   4.660   2.387   1.089
 6218SOL     OW19552   2.767   5.048   4.639
 6218SOL    HW119553   2.866   5.045   4.624
 6218SOL    HW219554   2.730   4.956   4.629
 6219SOL     OW19555   1.000   2.362   5.058
 6219SOL    HW119556   1.007   2.431   4.987
 6219SOL    HW219557   0.907   2.362   5.095
 6220SOL     OW19558   2.165   4.707   5.182
 6220SOL    HW119559   2.156   4.628   5.121
 6220SOL    HW219560   2.096   4.701   5.254
 6221SOL     OW19561   3.979   5.056   4.406
 6221SOL    HW119562   3.915   4.982   4.427
 6221SOL    HW219563   3.928   5.139   4.382
 6222SOL     OW19564   6.435   0.121   1.815
 6222SOL    HW119565   6.414   0.072   1.900
 6222SOL    HW219566   6.473   0.057   1.749
 6223SOL     OW19567   5.770   2.936   4.918
 6223SOL    HW119568   5.785   3.006   4.848
 6223SOL    HW219569   5.720   2.860   4.879
 6224SOL     OW19570   2.858   1.641   5.766
 6224SOL    HW119571   2.922   1.686   5.705
 6224SOL    HW219572   2.764   1.663   5.739
 6225SOL     OW19573   3.248   3.133   0.618
 6225SOL    HW119574   3.177   3.087   0.564
 6225SOL    HW219575   3.331   3.077   0.617
 6226SOL     OW19576   5.607   0.638   4.249
 6226SOL    HW119577   5.519   0.640   4.296
 6226SOL    HW219578   5.593   0.616   4.153
 6227SOL     OW19579   3.528   4.572   5.916
 6227SOL    HW119580   3.454   4.518   5.876
 6227SOL    HW219581   3.577   4.516   5.983
 6228SOL     OW19582   0.272   1.173   3.313
 6228SOL    HW119583   0.344   1.219   3.261
 6228SOL    HW219584   0.184   1.189   3.268
 6229SOL     OW19585   2.369   2.758   2.610
 6229SOL    HW119586   2.379   2.823   2.685
 6229SOL    HW219587   2.436   2.684   2.621
 6230SOL     OW19588   2.361   2.303   3.988
 6230SOL    HW119589   2.411   2.216   3.992
 6230SOL    HW219590   2.338   2.332   4.081
 6231SOL     OW19591   7.010   5.364   1.491
 6231SOL    HW119592   6.976   5.271   1.477
 6231SOL    HW219593   0.072   5.375   1.440
 6232SOL     OW19594   0.307   0.780   0.305
 6232SOL    HW119595   0.296   0.740   0.213
 6232SOL    HW219596   0.313   0.879   0.297
 6233SOL     OW19597   4.586   2.512   6.688
 6233SOL    HW119598   4.635   2.553   6.764
 6233SOL    HW219599   4.493   2.548   6.684
 6234SOL     OW19600   1.738   1.796   4.474
 6234SOL    HW119601   1.811   1.768   4.537
 6234SOL    HW219602   1.775   1.858   4.406
 6235SOL     OW19603   1.803   0.187   2.239
 6235SOL    HW119604   1.887   0.134   2.225
 6235SOL    HW219605   1.769   0.219   2.151
 6236SOL     OW19606   6.910   4.036   0.804
 6236SOL    HW119607   6.964   3.981   0.868
 6236SOL    HW219608   6.967   4.060   0.725
 6237SOL     OW19609   4.339   6.616   1.041
 6237SOL    HW119610   4.352   6.534   0.985
 6237SOL    HW219611   4.396   6.609   1.123
 6238SOL     OW19612   4.981   5.435   1.165
 6238SOL    HW119613   5.053   5.370   1.190
 6238SOL    HW219614   4.892   5.392   1.179
 6239SOL     OW19615   2.097   6.596   2.665
 6239SOL    HW119616   2.176   6.537   2.650
 6239SOL    HW219617   2.127   6.691   2.678
 6240SOL     OW19618   1.396   3.182   0.416
 6240SOL    HW119619   1.443   3.097   0.440
 6240SOL    HW219620   1.330   3.205   0.487
 6241SOL     OW19621   3.222   6.966   1.372
 6241SOL    HW119622   3.220   6.930   1.279
 6241SOL    HW219623   3.156   6.915   1.429
 6242SOL     OW19624   5.173   2.312   4.007
 6242SOL    HW119625   5.146   2.218   4.029
 6242SOL    HW219626   5.126   2.341   3.924
 6243SOL     OW19627   5.537   6.018   4.329
 6243SOL    HW119628   5.491   6.066   4.404
 6243SOL    HW219629   5.487   6.032   4.244
 6244SOL     OW19630   2.782   2.034   2.230
 6244SOL    HW119631   2.809   2.118   2.278
 6244SOL    HW219632   2.788   2.049   2.131
 6245SOL     OW19633   3.265   4.953   1.492
 6245SOL    HW119634   3.305   5.043   1.511
 6245SOL    HW219635   3.183   4.941   1.549
 6246SOL     OW19636   2.890   2.383   5.757
 6246SOL    HW119637   2.983   2.382   5.720
 6246SOL    HW219638   2.825   2.401   5.684
 6247SOL     OW19639   0.336   6.505   3.209
 6247SOL    HW119640   0.394   6.575   3.167
 6247SOL    HW219641   0.365   6.490   3.303
 6248SOL     OW19642   0.872   5.001   1.170
 6248SOL    HW119643   0.817   4.925   1.135
 6248SOL    HW219644   0.815   5.064   1.222
 6249SOL     OW19645   0.001   4.051   0.349
 6249SOL    HW119646   6.927   4.069   0.338
 6249SOL    HW219647   0.029   4.076   0.442
 6250SOL     OW19648   6.075   6.433   0.178
 6250SOL    HW119649   6.124   6.459   0.261
 6250SOL    HW219650   6.051   6.515   0.126
 6251SOL     OW19651   4.356   1.640   0.526
 6251SOL    HW119652   4.326   1.686   0.609
 6251SOL    HW219653   4.393   1.550   0.548
 6252SOL     OW19654   3.172   6.018   4.843
 6252SOL    HW119655   3.112   5.956   4.894
 6252SOL    HW219656   3.192   5.978   4.753
 6253SOL     OW19657   2.418   3.910   1.788
 6253SOL    HW119658   2.326   3.873   1.782
 6253SOL    HW219659   2.415   4.010   1.786
 6254SOL     OW19660   5.870   6.961   0.341
 6254SOL    HW119661   5.786   6.955   0.395
 6254SOL    HW219662   5.904   0.031   0.343
 6255SOL     OW19663   0.409   1.288   2.515
 6255SOL    HW119664   0.382   1.368   2.569
 6255SOL    HW219665   0.469   1.317   2.440
 6256SOL     OW19666   3.705   4.936   2.779
 6256SOL    HW119667   3.752   5.024   2.774
 6256SOL    HW219668   3.733   4.878   2.702
 6257SOL     OW19669   5.518   2.642   0.223
 6257SOL    HW119670   5.442   2.698   0.189
 6257SOL    HW219671   5.558   2.686   0.303
 6258SOL     OW19672   4.453   2.054   2.090
 6258SOL    HW119673   4.383   2.094   2.149
 6258SOL    HW219674   4.527   2.120   2.077
 6259SOL     OW19675   2.981   2.282   1.680
 6259SOL    HW119676   2.887   2.283   1.646
 6259SOL    HW219677   2.985   2.333   1.766
 6260SOL     OW19678   3.528   4.004   0.027
 6260SOL    HW119679   3.541   3.906   0.010
 6260SOL    HW219680   3.616   4.048   0.037
 6261SOL     OW19681   4.224   1.304   0.202
 6261SOL    HW119682   4.272   1.219   0.179
 6261SOL    HW219683   4.290   1.376   0.220
 6262SOL     OW19684   1.156   4.696   6.589
 6262SOL    HW119685   1.163   4.631   6.665
 6262SOL    HW219686   1.246   4.712   6.550
 6263SOL     OW19687   6.968   6.709   0.677
 6263SOL    HW119688   6.994   6.802   0.651
 6263SOL    HW219689   0.027   6.658   0.701
 6264SOL     OW19690   2.653   1.990   0.168
 6264SOL    HW119691   2.558   2.004   0.140
 6264SOL    HW219692   2.682   1.899   0.140
 6265SOL     OW19693   3.911   3.813   1.100
 6265SOL    HW119694   3.965   3.786   1.180
 6265SOL    HW219695   3.902   3.913   1.098
 6266SOL     OW19696   3.362   0.660   3.062
 6266SOL    HW119697   3.360   0.760   3.068
 6266SOL    HW219698   3.457   0.630   3.052
 6267SOL     OW19699   3.402   0.184   6.421
 6267SOL    HW119700   3.355   0.221   6.340
 6267SOL    HW219701   3.340   0.187   6.499
 6268SOL     OW19702   3.450   4.970   2.908
 6268SOL    HW119703   3.470   4.955   3.005
 6268SOL    HW219704   3.531   4.952   2.853
 6269SOL     OW19705   5.810   5.447   1.495
 6269SOL    HW119706   5.904   5.480   1.496
 6269SOL    HW219707   5.755   5.506   1.436
 6270SOL     OW19708   0.926   0.158   4.747
 6270SOL    HW119709   0.908   0.074   4.799
 6270SOL    HW219710   0.849   0.175   4.685
 6271SOL     OW19711   0.025   1.438   0.532
 6271SOL    HW119712   7.017   1.441   0.626
 6271SOL    HW219713   6.988   1.492   0.474
 6272SOL     OW19714   2.221   2.520   3.916
 6272SOL    HW119715   2.290   2.589   3.894
 6272SOL    HW219716   2.266   2.433   3.934
 6273SOL     OW19717   2.961   1.427   1.355
 6273SOL    HW119718   2.931   1.514   1.393
 6273SOL    HW219719   3.014   1.377   1.424
 6274SOL     OW19720   3.450   6.466   5.863
 6274SOL    HW119721   3.466   6.377   5.819
 6274SOL    HW219722   3.513   6.476   5.940
 6275SOL     OW19723   1.812   0.158   4.655
 6275SOL    HW119724   1.816   0.236   4.718
 6275SOL    HW219725   1.733   0.169   4.594
 6276SOL     OW19726   1.459   5.577   3.888
 6276SOL    HW119727   1.512   5.492   3.884
 6276SOL    HW219728   1.394   5.571   3.964
 6277SOL     OW19729   4.974   2.965   2.936
 6277SOL    HW119730   4.900   2.963   2.869
 6277SOL    HW219731   4.988   2.873   2.974
 6278SOL     OW19732   5.113   0.384   3.951
 6278SOL    HW119733   5.069   0.380   4.040
 6278SOL    HW219734   5.091   0.301   3.899
 6279SOL     OW19735   4.115   1.927   0.569
 6279SOL    HW119736   4.128   1.842   0.619
 6279SOL    HW219737   4.076   1.907   0.479
 6280SOL     OW19738   0.030   3.991   5.638
 6280SOL    HW119739   0.014   4.084   5.605
 6280SOL    HW219740   0.126   3.966   5.623
 6281SOL     OW19741   2.463   0.521   5.134
 6281SOL    HW119742   2.506   0.432   5.149
 6281SOL    HW219743   2.367   0.508   5.109
 6282SOL     OW19744   2.518   6.958   4.529
 6282SOL    HW119745   2.418   6.964   4.530
 6282SOL    HW219746   2.551   6.951   4.435
 6283SOL     OW19747   6.970   2.550   5.243
 6283SOL    HW119748   0.038   2.541   5.203
 6283SOL    HW219749   6.914   2.472   5.215
 6284SOL     OW19750   0.907   4.429   5.415
 6284SOL    HW119751   0.986   4.384   5.457
 6284SOL    HW219752   0.897   4.397   5.321
 6285SOL     OW19753   1.658   3.232   3.342
 6285SOL    HW119754   1.718   3.186   3.276
 6285SOL    HW219755   1.610   3.164   3.397
 6286SOL     OW19756   5.873   1.196   3.408
 6286SOL    HW119757   5.774   1.207   3.399
 6286SOL    HW219758   5.919   1.261   3.347
 6287SOL     OW19759   4.851   4.082   1.589
 6287SOL    HW119760   4.805   3.995   1.611
 6287SOL    HW219761   4.945   4.080   1.624
 6288SOL     OW19762   5.343   3.707   0.197
 6288SOL    HW119763   5.369   3.697   0.293
 6288SOL    HW219764   5.421   3.684   0.139
 6289SOL     OW19765   1.593   1.688   4.007
 6289SOL    HW119766   1.630   1.608   3.961
 6289SOL    HW219767   1.658   1.763   4.002
 6290SOL     OW19768   4.888   4.169   3.496
 6290SOL    HW119769   4.819   4.236   3.522
 6290SOL    HW219770   4.903   4.172   3.397
 6291SOL     OW19771   3.550   4.075   3.566
 6291SOL    HW119772   3.479   4.098   3.633
 6291SOL    HW219773   3.610   4.004   3.603
 6292SOL     OW19774   1.544   1.337   2.401
 6292SOL    HW119775   1.581   1.307   2.489
 6292SOL    HW219776   1.523   1.256   2.345
 6293SOL     OW19777   4.633   6.881   0.394
 6293SOL    HW119778   4.619   6.832   0.307
 6293SOL    HW219779   4.567   6.955   0.401
 6294SOL     OW19780   4.023   5.155   3.040
 6294SOL    HW119781   4.116   5.149   3.003
 6294SOL    HW219782   4.026   5.196   3.131
 6295SOL     OW19783   5.998   6.081   6.146
 6295SOL    HW119784   6.068   6.063   6.215
 6295SOL    HW219785   5.908   6.082   6.189
 6296SOL     OW19786   6.441   0.894   3.051
 6296SOL    HW119787   6.389   0.915   2.968
 6296SOL    HW219788   6.393   0.932   3.131
 6297SOL     OW19789   5.749   6.196   6.001
 6297SOL    HW119790   5.783   6.202   6.095
 6297SOL    HW219791   5.739   6.288   5.963
 6298SOL     OW19792   0.549   3.085   5.040
 6298SOL    HW119793   0.634   3.051   5.078
 6298SOL    HW219794   0.567   3.131   4.953
 6299SOL     OW19795   6.460   3.150   6.578
 6299SOL    HW119796   6.390   3.217   6.604
 6299SOL    HW219797   6.417   3.075   6.528
 6300SOL     OW19798   4.888   0.872   3.504
 6300SOL    HW119799   4.976   0.842   3.542
 6300SOL    HW219800   4.855   0.804   3.439
 6301SOL     OW19801   3.478   6.839   0.559
 6301SOL    HW119802   3.491   6.843   0.658
 6301SOL    HW219803   3.413   6.909   0.530
 6302SOL     OW19804   1.704   1.096   3.470
 6302SOL    HW119805   1.685   1.165   3.400
 6302SOL    HW219806   1.643   1.111   3.549
 6303SOL     OW19807   1.548   6.210   4.937
 6303SOL    HW119808   1.626   6.149   4.923
 6303SOL    HW219809   1.499   6.222   4.851
 6304SOL     OW19810   2.878   1.264   7.010
 6304SOL    HW119811   2.927   1.344   0.020
 6304SOL    HW219812   2.943   1.200   6.970
 6305SOL     OW19813   6.754   6.944   1.407
 6305SOL    HW119814   6.783   6.856   1.370
 6305SOL    HW219815   6.816   6.972   1.480
 6306SOL     OW19816   6.511   2.971   3.629
 6306SOL    HW119817   6.483   2.876   3.617
 6306SOL    HW219818   6.566   3.000   3.550
 6307SOL     OW19819   1.953   5.159   0.042
 6307SOL    HW119820   1.977   5.201   6.978
 6307SOL    HW219821   1.949   5.060   0.032
 6308SOL     OW19822   3.025   1.727   5.245
 6308SOL    HW119823   3.097   1.671   5.286
 6308SOL    HW219824   3.060   1.819   5.227
 6309SOL     OW19825   5.602   1.982   3.870
 6309SOL    HW119826   5.617   2.081   3.871
 6309SOL    HW219827   5.673   1.936   3.922
 6310SOL     OW19828   1.214   4.488   4.597
 6310SOL    HW119829   1.313   4.500   4.587
 6310SOL    HW219830   1.195   4.420   4.668
 6311SOL     OW19831   5.912   0.376   4.670
 6311SOL    HW119832   5.844   0.394   4.599
 6311SOL    HW219833   5.912   0.278   4.692
 6312SOL     OW19834   4.310   5.051   5.775
 6312SOL    HW119835   4.344   5.056   5.869
 6312SOL    HW219836   4.387   5.059   5.711
 6313SOL     OW19837   2.506   5.867   3.260
 6313SOL    HW119838   2.462   5.778   3.243
 6313SOL    HW219839   2.526   5.875   3.358
 6314SOL     OW19840   2.699   6.102   2.521
 6314SOL    HW119841   2.643   6.117   2.602
 6314SOL    HW219842   2.651   6.139   2.441
 6315SOL     OW19843   3.067   3.960   0.276
 6315SOL    HW119844   3.104   3.942   0.185
 6315SOL    HW219845   2.998   3.892   0.298
 6316SOL     OW19846   4.428   2.614   5.808
 6316SOL    HW119847   4.405   2.670   5.729
 6316SOL    HW219848   4.511   2.562   5.790
 6317SOL     OW19849   5.269   6.943   3.805
 6317SOL    HW119850   5.227   6.885   3.735
 6317SOL    HW219851   5.356   6.903   3.834
 6318SOL     OW19852   2.434   2.404   5.243
 6318SOL    HW119853   2.498   2.418   5.318
 6318SOL    HW219854   2.478   2.428   5.156
 6319SOL     OW19855   0.955   1.825   3.445
 6319SOL    HW119856   1.038   1.881   3.452
 6319SOL    HW219857   0.876   1.885   3.432
 6320SOL     OW19858   5.631   3.808   3.090
 6320SOL    HW119859   5.590   3.786   3.001
 6320SOL    HW219860   5.667   3.725   3.132
 6321SOL     OW19861   2.676   4.656   0.526
 6321SOL    HW119862   2.639   4.566   0.504
 6321SOL    HW219863   2.602   4.724   0.522
 6322SOL     OW19864   0.890   0.979   6.558
 6322SOL    HW119865   0.896   0.884   6.529
 6322SOL    HW219866   0.839   0.985   6.644
 6323SOL     OW19867   3.649   2.761   0.689
 6323SOL    HW119868   3.621   2.724   0.600
 6323SOL    HW219869   3.736   2.720   0.717
 6324SOL     OW19870   4.130   1.447   6.135
 6324SOL    HW119871   4.061   1.511   6.168
 6324SOL    HW219872   4.130   1.365   6.192
 6325SOL     OW19873   0.604   2.402   2.556
 6325SOL    HW119874   0.690   2.360   2.586
 6325SOL    HW219875   0.623   2.495   2.524
 6326SOL     OW19876   5.087   5.882   1.475
 6326SOL    HW119877   5.012   5.939   1.441
 6326SOL    HW219878   5.128   5.831   1.400
 6327SOL     OW19879   6.141   5.605   5.577
 6327SOL    HW119880   6.137   5.621   5.675
 6327SOL    HW219881   6.066   5.545   5.550
 6328SOL     OW19882   2.692   4.067   6.636
 6328SOL    HW119883   2.774   4.117   6.663
 6328SOL    HW219884   2.706   4.028   6.545
 6329SOL     OW19885   1.177   1.504   3.082
 6329SOL    HW119886   1.183   1.601   3.104
 6329SOL    HW219887   1.083   1.472   3.098
 6330SOL     OW19888   4.071   1.288   0.427
 6330SOL    HW119889   4.120   1.287   0.340
 6330SOL    HW219890   3.999   1.358   0.424
 6331SOL     OW19891   6.430   2.241   1.529
 6331SOL    HW119892   6.523   2.277   1.532
 6331SOL    HW219893   6.393   2.252   1.437
 6332SOL     OW19894   6.182   5.182   1.497
 6332SOL    HW119895   6.187   5.280   1.514
 6332SOL    HW219896   6.257   5.155   1.436
 6333SOL     OW19897   3.277   4.925   3.356
 6333SOL    HW119898   3.364   4.973   3.370
 6333SOL    HW219899   3.296   4.833   3.322
 6334SOL     OW19900   2.382   0.769   2.187
 6334SOL    HW119901   2.481   0.771   2.178
 6334SOL    HW219902   2.348   0.677   2.166
 6335SOL     OW19903   6.473   1.341   6.384
 6335SOL    HW119904   6.570   1.331   6.407
 6335SOL    HW219905   6.454   1.290   6.300
 6336SOL     OW19906   6.504   2.506   4.443
 6336SOL    HW119907   6.483   2.408   4.451
 6336SOL    HW219908   6.603   2.518   4.441
 6337SOL     OW19909   6.002   4.260   5.632
 6337SOL    HW119910   6.026   4.238   5.537
 6337SOL    HW219911   5.930   4.328   5.633
 6338SOL     OW19912   3.873   1.281   2.923
 6338SOL    HW119913   3.898   1.238   3.010
 6338SOL    HW219914   3.879   1.213   2.850
 6339SOL     OW19915   0.504   1.791   3.977
 6339SOL    HW119916   0.423   1.742   3.945
 6339SOL    HW219917   0.561   1.730   4.031
 6340SOL     OW19918   2.623   5.541   3.986
 6340SOL    HW119919   2.567   5.582   3.914
 6340SOL    HW219920   2.576   5.461   4.024
 6341SOL     OW19921   7.018   4.224   3.573
 6341SOL    HW119922   6.964   4.174   3.505
 6341SOL    HW219923   0.036   4.304   3.530
 6342SOL     OW19924   1.273   2.125   1.283
 6342SOL    HW119925   1.246   2.128   1.379
 6342SOL    HW219926   1.192   2.129   1.225
 6343SOL     OW19927   3.587   1.536   6.885
 6343SOL    HW119928   3.513   1.581   6.836
 6343SOL    HW219929   3.581   1.437   6.871
 6344SOL     OW19930   0.765   4.200   4.565
 6344SOL    HW119931   0.830   4.183   4.640
 6344SOL    HW219932   0.678   4.231   4.603
 6345SOL     OW19933   3.940   1.215   2.309
 6345SOL    HW119934   4.011   1.219   2.238
 6345SOL    HW219935   3.902   1.306   2.322
 6346SOL     OW19936   0.690   3.951   3.614
 6346SOL    HW119937   0.682   3.901   3.528
 6346SOL    HW219938   0.667   3.891   3.691
 6347SOL     OW19939   3.156   6.903   0.637
 6347SOL    HW119940   3.202   6.986   0.669
 6347SOL    HW219941   3.135   6.913   0.540
 6348SOL     OW19942   0.663   2.864   3.903
 6348SOL    HW119943   0.607   2.912   3.836
 6348SOL    HW219944   0.605   2.824   3.973
 6349SOL     OW19945   2.925   1.074   0.609
 6349SOL    HW119946   2.877   1.050   0.524
 6349SOL    HW219947   2.903   1.007   0.679
 6350SOL     OW19948   1.717   5.958   2.466
 6350SOL    HW119949   1.681   5.923   2.552
 6350SOL    HW219950   1.799   6.012   2.483
 6351SOL     OW19951   0.256   1.521   2.616
 6351SOL    HW119952   0.255   1.561   2.707
 6351SOL    HW219953   0.308   1.579   2.554
 6352SOL     OW19954   0.692   5.479   2.224
 6352SOL    HW119955   0.663   5.385   2.205
 6352SOL    HW219956   0.760   5.478   2.297
 6353SOL     OW19957   0.500   0.203   0.894
 6353SOL    HW119958   0.560   0.124   0.901
 6353SOL    HW219959   0.437   0.191   0.818
 6354SOL     OW19960   0.801   6.624   3.070
 6354SOL    HW119961   0.823   6.621   3.168
 6354SOL    HW219962   0.848   6.701   3.027
 6355SOL     OW19963   1.862   2.591   3.011
 6355SOL    HW119964   1.942   2.646   2.988
 6355SOL    HW219965   1.779   2.645   3.000
 6356SOL     OW19966   3.728   3.988   1.241
 6356SOL    HW119967   3.685   3.966   1.329
 6356SOL    HW219968   3.668   3.960   1.166
 6357SOL     OW19969   4.199   1.874   0.152
 6357SOL    HW119970   4.117   1.879   0.209
 6357SOL    HW219971   4.190   1.938   0.076
 6358SOL     OW19972   0.448   2.059   3.464
 6358SOL    HW119973   0.466   2.152   3.495
 6358SOL    HW219974   0.487   1.994   3.528
 6359SOL     OW19975   6.812   0.560   6.442
 6359SOL    HW119976   6.789   0.462   6.447
 6359SOL    HW219977   6.736   0.613   6.480
 6360SOL     OW19978   3.030   5.337   3.815
 6360SOL    HW119979   3.096   5.335   3.740
 6360SOL    HW219980   3.013   5.244   3.847
 6361SOL     OW19981   4.567   6.108   6.050
 6361SOL    HW119982   4.471   6.125   6.028
 6361SOL    HW219983   4.624   6.181   6.011
 6362SOL     OW19984   6.259   5.175   6.500
 6362SOL    HW119985   6.348   5.219   6.484
 6362SOL    HW219986   6.260   5.131   6.590
 6363SOL     OW19987   1.673   5.690   4.245
 6363SOL    HW119988   1.757   5.723   4.203
 6363SOL    HW219989   1.600   5.755   4.229
 6364SOL     OW19990   2.316   2.736   6.031
 6364SOL    HW119991   2.330   2.830   6.060
 6364SOL    HW219992   2.370   2.718   5.949
 6365SOL     OW19993   4.855   6.787   3.191
 6365SOL    HW119994   4.921   6.856   3.161
 6365SOL    HW219995   4.763   6.825   3.186
 6366SOL     OW19996   0.572   5.625   5.272
 6366SOL    HW119997   0.559   5.626   5.371
 6366SOL    HW219998   0.484   5.640   5.227
 6367SOL     OW19999   5.329   6.602   4.240
 6367SOL    HW120000   5.289   6.563   4.323
 6367SOL    HW220001   5.259   6.652   4.189
 6368SOL     OW20002   3.259   6.835   4.556
 6368SOL    HW120003   3.171   6.865   4.592
 6368SOL    HW220004   3.249   6.811   4.460
 6369SOL     OW20005   2.481   5.082   4.233
 6369SOL    HW120006   2.466   5.125   4.321
 6369SOL    HW220007   2.524   4.993   4.246
 6370SOL     OW20008   5.993   2.329   1.330
 6370SOL    HW120009   5.903   2.334   1.372
 6370SOL    HW220010   5.994   2.256   1.261
 6371SOL     OW20011   4.669   2.219   2.381
 6371SOL    HW120012   4.602   2.228   2.308
 6371SOL    HW220013   4.691   2.122   2.394
 6372SOL     OW20014   3.405   6.045   2.175
 6372SOL    HW120015   3.363   6.000   2.255
 6372SOL    HW220016   3.438   6.136   2.201
 6373SOL     OW20017   4.322   4.078   6.444
 6373SOL    HW120018   4.341   3.984   6.417
 6373SOL    HW220019   4.242   4.081   6.504
 6374SOL     OW20020   3.034   3.240   2.741
 6374SOL    HW120021   3.062   3.147   2.717
 6374SOL    HW220022   3.028   3.248   2.841
 6375SOL     OW20023   1.277   6.335   2.855
 6375SOL    HW120024   1.374   6.356   2.848
 6375SOL    HW220025   1.263   6.237   2.845
 6376SOL     OW20026   6.686   2.362   5.153
 6376SOL    HW120027   6.595   2.334   5.122
 6376SOL    HW220028   6.739   2.395   5.074
 6377SOL     OW20029   0.524   1.206   4.409
 6377SOL    HW120030   0.598   1.207   4.342
 6377SOL    HW220031   0.540   1.134   4.476
 6378SOL     OW20032   4.682   4.448   4.266
 6378SOL    HW120033   4.609   4.515   4.278
 6378SOL    HW220034   4.711   4.448   4.170
 6379SOL     OW20035   2.308   4.329   3.556
 6379SOL    HW120036   2.217   4.370   3.561
 6379SOL    HW220037   2.300   4.230   3.544
 6380SOL     OW20038   0.499   0.472   6.293
 6380SOL    HW120039   0.579   0.466   6.233
 6380SOL    HW220040   0.528   0.462   6.388
 6381SOL     OW20041   3.020   3.944   3.022
 6381SOL    HW120042   2.997   3.930   2.926
 6381SOL    HW220043   3.105   3.997   3.029
 6382SOL     OW20044   1.073   3.460   5.839
 6382SOL    HW120045   1.118   3.371   5.831
 6382SOL    HW220046   1.003   3.467   5.768
 6383SOL     OW20047   2.315   1.824   4.037
 6383SOL    HW120048   2.311   1.865   4.128
 6383SOL    HW220049   2.342   1.728   4.046
 6384SOL     OW20050   7.018   4.459   2.689
 6384SOL    HW120051   0.007   4.425   2.596
 6384SOL    HW220052   6.923   4.484   2.702
 6385SOL     OW20053   0.810   5.018   4.645
 6385SOL    HW120054   0.717   4.995   4.619
 6385SOL    HW220055   0.866   5.030   4.563
 6386SOL     OW20056   2.867   4.888   1.160
 6386SOL    HW120057   2.809   4.894   1.079
 6386SOL    HW220058   2.828   4.944   1.233
 6387SOL     OW20059   6.327   1.091   5.260
 6387SOL    HW120060   6.345   1.047   5.172
 6387SOL    HW220061   6.236   1.067   5.293
 6388SOL     OW20062   3.134   4.861   2.182
 6388SOL    HW120063   3.190   4.870   2.264
 6388SOL    HW220064   3.044   4.827   2.206
 6389SOL     OW20065   1.453   5.262   3.519
 6389SOL    HW120066   1.516   5.260   3.597
 6389SOL    HW220067   1.505   5.258   3.434
 6390SOL     OW20068   0.903   2.754   3.831
 6390SOL    HW120069   0.820   2.808   3.845
 6390SOL    HW220070   0.933   2.715   3.918
 6391SOL     OW20071   2.959   1.785   0.240
 6391SOL    HW120072   3.004   1.699   0.264
 6391SOL    HW220073   2.901   1.814   0.315
 6392SOL     OW20074   1.834   6.370   3.854
 6392SOL    HW120075   1.932   6.353   3.855
 6392SOL    HW220076   1.804   6.389   3.760
 6393SOL     OW20077   6.320   5.923   0.240
 6393SOL    HW120078   6.297   6.015   0.271
 6393SOL    HW220079   6.293   5.857   0.309
 6394SOL     OW20080   1.970   4.911   6.962
 6394SOL    HW120081   1.981   4.816   6.993
 6394SOL    HW220082   2.052   4.938   6.911
 6395SOL     OW20083   6.145   1.255   0.726
 6395SOL    HW120084   6.183   1.255   0.819
 6395SOL    HW220085   6.191   1.325   0.671
 6396SOL     OW20086   4.917   4.273   5.643
 6396SOL    HW120087   4.965   4.350   5.603
 6396SOL    HW220088   4.977   4.225   5.706
 6397SOL     OW20089   6.772   1.239   0.684
 6397SOL    HW120090   6.861   1.195   0.697
 6397SOL    HW220091   6.700   1.170   0.681
 6398SOL     OW20092   3.308   1.530   1.220
 6398SOL    HW120093   3.371   1.606   1.240
 6398SOL    HW220094   3.308   1.467   1.297
 6399SOL     OW20095   2.084   5.624   6.738
 6399SOL    HW120096   1.985   5.611   6.745
 6399SOL    HW220097   2.104   5.721   6.721
 6400SOL     OW20098   2.519   5.953   3.512
 6400SOL    HW120099   2.574   5.946   3.595
 6400SOL    HW220100   2.431   5.907   3.527
 6401SOL     OW20101   0.528   4.498   3.788
 6401SOL    HW120102   0.529   4.597   3.799
 6401SOL    HW220103   0.437   4.462   3.809
 6402SOL     OW20104   2.321   1.018   3.246
 6402SOL    HW120105   2.416   1.034   3.274
 6402SOL    HW220106   2.296   1.083   3.175
 6403SOL     OW20107   0.966   5.073   6.859
 6403SOL    HW120108   0.953   5.126   6.775
 6403SOL    HW220109   1.045   5.013   6.849
 6404SOL     OW20110   5.246   1.382   3.227
 6404SOL    HW120111   5.186   1.461   3.217
 6404SOL    HW220112   5.195   1.299   3.203
 6405SOL     OW20113   2.564   1.474   2.590
 6405SOL    HW120114   2.536   1.570   2.588
 6405SOL    HW220115   2.659   1.466   2.560
 6406SOL     OW20116   2.413   1.384   4.263
 6406SOL    HW120117   2.345   1.446   4.303
 6406SOL    HW220118   2.502   1.402   4.305
 6407SOL     OW20119   3.429   5.479   5.814
 6407SOL    HW120120   3.399   5.385   5.831
 6407SOL    HW220121   3.396   5.537   5.889
 6408SOL     OW20122   5.328   1.751   6.596
 6408SOL    HW120123   5.297   1.753   6.691
 6408SOL    HW220124   5.311   1.840   6.553
 6409SOL     OW20125   0.136   4.026   2.513
 6409SOL    HW120126   0.220   4.079   2.515
 6409SOL    HW220127   0.148   3.947   2.452
 6410SOL     OW20128   1.536   1.566   0.363
 6410SOL    HW120129   1.530   1.596   0.268
 6410SOL    HW220130   1.481   1.627   0.420
 6411SOL     OW20131   0.756   0.936   3.668
 6411SOL    HW120132   0.746   1.023   3.715
 6411SOL    HW220133   0.824   0.944   3.596
 6412SOL     OW20134   0.304   2.622   5.468
 6412SOL    HW120135   0.206   2.606   5.477
 6412SOL    HW220136   0.319   2.701   5.409
 6413SOL     OW20137   6.685   4.442   0.684
 6413SOL    HW120138   6.696   4.476   0.591
 6413SOL    HW220139   6.703   4.344   0.687
 6414SOL     OW20140   6.463   6.614   2.336
 6414SOL    HW120141   6.520   6.689   2.370
 6414SOL    HW220142   6.391   6.594   2.402
 6415SOL     OW20143   2.002   1.454   1.520
 6415SOL    HW120144   2.020   1.536   1.466
 6415SOL    HW220145   1.937   1.475   1.593
 6416SOL     OW20146   1.537   0.671   6.604
 6416SOL    HW120147   1.498   0.579   6.608
 6416SOL    HW220148   1.494   0.728   6.674
 6417SOL     OW20149   0.968   6.985   3.489
 6417SOL    HW120150   1.048   6.928   3.505
 6417SOL    HW220151   0.911   6.986   3.572
 6418SOL     OW20152   0.092   6.301   2.295
 6418SOL    HW120153   0.178   6.326   2.250
 6418SOL    HW220154   0.015   6.339   2.243
 6419SOL     OW20155   3.628   4.950   1.525
 6419SOL    HW120156   3.586   4.962   1.615
 6419SOL    HW220157   3.691   5.026   1.508
 6420SOL     OW20158   2.070   4.392   6.245
 6420SOL    HW120159   2.161   4.433   6.250
 6420SOL    HW220160   2.005   4.460   6.212
 6421SOL     OW20161   5.912   1.089   1.646
 6421SOL    HW120162   5.825   1.084   1.597
 6421SOL    HW220163   5.986   1.066   1.583
 6422SOL     OW20164   6.291   1.641   3.487
 6422SOL    HW120165   6.362   1.684   3.431
 6422SOL    HW220166   6.267   1.701   3.563
 6423SOL     OW20167   5.086   3.483   0.792
 6423SOL    HW120168   5.081   3.575   0.755
 6423SOL    HW220169   5.148   3.428   0.736
 6424SOL     OW20170   6.909   4.192   6.028
 6424SOL    HW120171   6.925   4.245   6.112
 6424SOL    HW220172   6.894   4.255   5.952
 6425SOL     OW20173   0.770   4.728   2.308
 6425SOL    HW120174   0.794   4.787   2.231
 6425SOL    HW220175   0.671   4.712   2.309
 6426SOL     OW20176   0.868   2.460   3.692
 6426SOL    HW120177   0.843   2.389   3.757
 6426SOL    HW220178   0.803   2.536   3.699
 6427SOL     OW20179   1.375   3.503   5.528
 6427SOL    HW120180   1.388   3.595   5.566
 6427SOL    HW220181   1.365   3.438   5.603
 6428SOL     OW20182   0.167   3.297   2.079
 6428SOL    HW120183   0.076   3.277   2.042
 6428SOL    HW220184   0.169   3.272   2.176
 6429SOL     OW20185   1.456   0.183   3.996
 6429SOL    HW120186   1.382   0.212   3.936
 6429SOL    HW220187   1.476   0.086   3.979
 6430SOL     OW20188   5.860   2.335   0.979
 6430SOL    HW120189   5.823   2.398   1.048
 6430SOL    HW220190   5.824   2.244   0.994
 6431SOL     OW20191   5.215   6.516   2.881
 6431SOL    HW120192   5.141   6.454   2.908
 6431SOL    HW220193   5.275   6.532   2.959
 6432SOL     OW20194   4.839   3.428   0.853
 6432SOL    HW120195   4.931   3.443   0.816
 6432SOL    HW220196   4.805   3.339   0.822
 6433SOL     OW20197   3.078   4.317   1.386
 6433SOL    HW120198   3.073   4.218   1.379
 6433SOL    HW220199   3.099   4.356   1.296
 6434SOL     OW20200   1.346   3.862   0.537
 6434SOL    HW120201   1.445   3.846   0.532
 6434SOL    HW220202   1.301   3.816   0.460
 6435SOL     OW20203   4.457   4.282   6.810
 6435SOL    HW120204   4.514   4.269   6.891
 6435SOL    HW220205   4.423   4.376   6.808
 6436SOL     OW20206   1.635   2.834   3.864
 6436SOL    HW120207   1.672   2.765   3.926
 6436SOL    HW220208   1.710   2.874   3.811
 6437SOL     OW20209   1.574   0.189   6.614
 6437SOL    HW120210   1.539   0.168   6.523
 6437SOL    HW220211   1.674   0.187   6.612
 6438SOL     OW20212   0.930   3.871   3.810
 6438SOL    HW120213   0.884   3.785   3.784
 6438SOL    HW220214   0.985   3.904   3.733
 6439SOL     OW20215   1.149   0.102   1.317
 6439SOL    HW120216   1.057   0.084   1.352
 6439SOL    HW220217   1.153   0.079   1.220
 6440SOL     OW20218   1.370   1.534   2.616
 6440SOL    HW120219   1.287   1.567   2.661
 6440SOL    HW220220   1.403   1.603   2.553
 6441SOL     OW20221   1.831   0.985   3.942
 6441SOL    HW120222   1.894   1.021   3.873
 6441SOL    HW220223   1.812   0.889   3.922
 6442SOL     OW20224   2.599   2.157   4.397
 6442SOL    HW120225   2.558   2.080   4.447
 6442SOL    HW220226   2.644   2.123   4.314
 6443SOL     OW20227   2.640   2.113   0.440
 6443SOL    HW120228   2.676   2.047   0.374
 6443SOL    HW220229   2.541   2.102   0.447
 6444SOL     OW20230   0.534   1.284   2.891
 6444SOL    HW120231   0.574   1.373   2.869
 6444SOL    HW220232   0.588   1.212   2.849
 6445SOL     OW20233   3.987   2.953   5.309
 6445SOL    HW120234   4.019   3.042   5.340
 6445SOL    HW220235   3.887   2.955   5.297
 6446SOL     OW20236   5.828   0.839   6.817
 6446SOL    HW120237   5.856   0.763   6.758
 6446SOL    HW220238   5.898   0.910   6.814
 6447SOL     OW20239   1.623   0.651   1.838
 6447SOL    HW120240   1.583   0.574   1.789
 6447SOL    HW220241   1.552   0.718   1.859
 6448SOL     OW20242   5.612   2.472   3.409
 6448SOL    HW120243   5.665   2.513   3.335
 6448SOL    HW220244   5.561   2.393   3.374
 6449SOL     OW20245   3.218   3.632   0.882
 6449SOL    HW120246   3.126   3.593   0.885
 6449SOL    HW220247   3.283   3.567   0.922
 6450SOL     OW20248   5.921   3.540   0.735
 6450SOL    HW120249   5.850   3.470   0.738
 6450SOL    HW220250   5.907   3.606   0.809
 6451SOL     OW20251   2.625   5.764   5.239
 6451SOL    HW120252   2.597   5.745   5.145
 6451SOL    HW220253   2.630   5.679   5.290
 6452SOL     OW20254   3.612   6.306   4.004
 6452SOL    HW120255   3.674   6.268   4.073
 6452SOL    HW220256   3.536   6.352   4.050
 6453SOL     OW20257   1.793   6.270   6.402
 6453SOL    HW120258   1.876   6.315   6.434
 6453SOL    HW220259   1.742   6.233   6.480
 6454SOL     OW20260   3.360   1.596   4.380
 6454SOL    HW120261   3.407   1.542   4.449
 6454SOL    HW220262   3.261   1.587   4.392
 6455SOL     OW20263   6.086   2.948   5.198
 6455SOL    HW120264   6.032   2.919   5.277
 6455SOL    HW220265   6.029   3.003   5.136
 6456SOL     OW20266   0.672   0.586   3.154
 6456SOL    HW120267   0.688   0.634   3.068
 6456SOL    HW220268   0.670   0.488   3.139
 6457SOL     OW20269   6.362   2.260   1.030
 6457SOL    HW120270   6.455   2.261   0.993
 6457SOL    HW220271   6.319   2.172   1.008
 6458SOL     OW20272   1.688   5.852   3.530
 6458SOL    HW120273   1.607   5.911   3.537
 6458SOL    HW220274   1.762   5.891   3.584
 6459SOL     OW20275   5.349   4.554   6.800
 6459SOL    HW120276   5.260   4.536   6.757
 6459SOL    HW220277   5.340   4.632   6.862
 6460SOL     OW20278   3.436   4.770   6.293
 6460SOL    HW120279   3.338   4.786   6.297
 6460SOL    HW220280   3.475   4.820   6.215
 6461SOL     OW20281   3.764   5.223   5.172
 6461SOL    HW120282   3.714   5.200   5.256
 6461SOL    HW220283   3.862   5.209   5.187
 6462SOL     OW20284   2.025   3.570   5.026
 6462SOL    HW120285   1.999   3.606   4.936
 6462SOL    HW220286   2.116   3.603   5.050
 6463SOL     OW20287   1.744   4.056   6.072
 6463SOL    HW120288   1.734   3.957   6.083
 6463SOL    HW220289   1.841   4.079   6.066
 6464SOL     OW20290   0.397   5.301   3.067
 6464SOL    HW120291   0.477   5.246   3.043
 6464SOL    HW220292   0.367   5.353   2.987
 6465SOL     OW20293   6.458   1.991   3.446
 6465SOL    HW120294   6.446   1.954   3.538
 6465SOL    HW220295   6.379   2.047   3.422
 6466SOL     OW20296   0.478   2.421   5.464
 6466SOL    HW120297   0.498   2.432   5.367
 6466SOL    HW220298   0.394   2.472   5.486
 6467SOL     OW20299   2.425   1.031   6.483
 6467SOL    HW120300   2.419   1.047   6.581
 6467SOL    HW220301   2.518   1.050   6.451
 6468SOL     OW20302   5.025   6.046   1.115
 6468SOL    HW120303   4.967   5.974   1.076
 6468SOL    HW220304   4.988   6.076   1.203
 6469SOL     OW20305   6.590   1.292   5.736
 6469SOL    HW120306   6.641   1.222   5.687
 6469SOL    HW220307   6.643   1.376   5.740
 6470SOL     OW20308   6.176   6.887   5.820
 6470SOL    HW120309   6.179   6.969   5.878
 6470SOL    HW220310   6.239   6.899   5.743
 6471SOL     OW20311   6.430   4.822   6.628
 6471SOL    HW120312   6.456   4.753   6.560
 6471SOL    HW220313   6.337   4.806   6.660
 6472SOL     OW20314   0.778   6.316   2.104
 6472SOL    HW120315   0.795   6.217   2.102
 6472SOL    HW220316   0.864   6.364   2.090
 6473SOL     OW20317   1.925   1.960   6.218
 6473SOL    HW120318   1.899   1.875   6.264
 6473SOL    HW220319   1.868   2.035   6.253
 6474SOL     OW20320   1.496   3.289   4.918
 6474SOL    HW120321   1.594   3.284   4.900
 6474SOL    HW220322   1.476   3.370   4.974
 6475SOL     OW20323   4.209   6.034   3.976
 6475SOL    HW120324   4.234   6.109   4.037
 6475SOL    HW220325   4.233   6.057   3.882
 6476SOL     OW20326   4.769   4.889   2.540
 6476SOL    HW120327   4.767   4.805   2.485
 6476SOL    HW220328   4.713   4.958   2.496
 6477SOL     OW20329   6.368   5.683   0.664
 6477SOL    HW120330   6.407   5.660   0.575
 6477SOL    HW220331   6.396   5.614   0.731
 6478SOL     OW20332   5.265   6.691   2.026
 6478SOL    HW120333   5.307   6.685   1.936
 6478SOL    HW220334   5.328   6.736   2.090
 6479SOL     OW20335   4.097   5.044   2.226
 6479SOL    HW120336   4.014   5.096   2.204
 6479SOL    HW220337   4.086   4.999   2.315
 6480SOL     OW20338   2.970   2.423   0.142
 6480SOL    HW120339   2.912   2.459   0.214
 6480SOL    HW220340   3.055   2.475   0.138
 6481SOL     OW20341   4.047   1.137   1.418
 6481SOL    HW120342   4.002   1.145   1.329
 6481SOL    HW220343   4.116   1.209   1.426
 6482SOL     OW20344   7.016   0.271   6.672
 6482SOL    HW120345   7.000   0.183   6.717
 6482SOL    HW220346   0.089   0.279   6.648
 6483SOL     OW20347   1.432   6.652   2.511
 6483SOL    HW120348   1.496   6.651   2.433
 6483SOL    HW220349   1.482   6.675   2.594
 6484SOL     OW20350   4.495   0.316   3.361
 6484SOL    HW120351   4.564   0.364   3.415
 6484SOL    HW220352   4.540   0.245   3.306
 6485SOL     OW20353   1.769   2.256   3.212
 6485SOL    HW120354   1.716   2.325   3.164
 6485SOL    HW220355   1.844   2.225   3.154
 6486SOL     OW20356   1.538   3.582   3.706
 6486SOL    HW120357   1.547   3.668   3.757
 6486SOL    HW220358   1.549   3.505   3.768
 6487SOL     OW20359   5.979   6.498   4.446
 6487SOL    HW120360   6.078   6.514   4.453
 6487SOL    HW220361   5.952   6.494   4.350
 6488SOL     OW20362   3.201   5.287   5.606
 6488SOL    HW120363   3.113   5.332   5.622
 6488SOL    HW220364   3.188   5.208   5.545
 6489SOL     OW20365   2.364   1.705   5.291
 6489SOL    HW120366   2.407   1.680   5.377
 6489SOL    HW220367   2.276   1.749   5.309
 6490SOL     OW20368   3.618   1.442   0.443
 6490SOL    HW120369   3.550   1.514   0.432
 6490SOL    HW220370   3.573   1.357   0.470
 6491SOL     OW20371   4.374   1.980   6.051
 6491SOL    HW120372   4.455   1.989   5.992
 6491SOL    HW220373   4.401   1.986   6.147
 6492SOL     OW20374   5.972   6.169   0.268
 6492SOL    HW120375   6.035   6.134   0.336
 6492SOL    HW220376   6.013   6.248   0.221
 6493SOL     OW20377   1.569   6.458   6.079
 6493SOL    HW120378   1.583   6.495   6.170
 6493SOL    HW220379   1.637   6.497   6.016
 6494SOL     OW20380   1.118   0.615   3.431
 6494SOL    HW120381   1.021   0.626   3.449
 6494SOL    HW220382   1.166   0.593   3.517
 6495SOL     OW20383   5.499   5.075   3.143
 6495SOL    HW120384   5.482   5.160   3.194
 6495SOL    HW220385   5.432   5.066   3.069
 6496SOL     OW20386   0.629   6.691   2.650
 6496SOL    HW120387   0.621   6.731   2.741
 6496SOL    HW220388   0.538   6.668   2.616
 6497SOL     OW20389   1.468   4.247   0.509
 6497SOL    HW120390   1.413   4.194   0.574
 6497SOL    HW220391   1.492   4.188   0.431
 6498SOL     OW20392   2.417   4.332   3.816
 6498SOL    HW120393   2.355   4.283   3.878
 6498SOL    HW220394   2.394   4.309   3.722
 6499SOL     OW20395   5.488   1.528   3.609
 6499SOL    HW120396   5.489   1.432   3.637
 6499SOL    HW220397   5.510   1.535   3.512
 6500SOL     OW20398   4.703   5.007   3.717
 6500SOL    HW120399   4.723   4.987   3.813
 6500SOL    HW220400   4.747   4.939   3.659
 6501SOL     OW20401   6.437   4.009   1.386
 6501SOL    HW120402   6.405   4.071   1.459
 6501SOL    HW220403   6.494   3.937   1.426
 6502SOL     OW20404   1.056   4.979   2.977
 6502SOL    HW120405   1.021   5.064   2.938
 6502SOL    HW220406   0.981   4.915   2.992
 6503SOL     OW20407   4.622   6.619   4.452
 6503SOL    HW120408   4.543   6.661   4.497
 6503SOL    HW220409   4.706   6.648   4.499
 6504SOL     OW20410   3.271   0.633   0.657
 6504SOL    HW120411   3.264   0.539   0.624
 6504SOL    HW220412   3.287   0.694   0.580
 6505SOL     OW20413   5.992   4.933   1.127
 6505SOL    HW120414   6.058   5.005   1.145
 6505SOL    HW220415   5.980   4.877   1.209
 6506SOL     OW20416   1.950   2.842   1.022
 6506SOL    HW120417   1.873   2.798   0.978
 6506SOL    HW220418   1.917   2.905   1.092
 6507SOL     OW20419   2.484   6.742   1.548
 6507SOL    HW120420   2.443   6.744   1.457
 6507SOL    HW220421   2.475   6.832   1.591
 6508SOL     OW20422   2.214   1.990   3.459
 6508SOL    HW120423   2.277   1.914   3.450
 6508SOL    HW220424   2.240   2.063   3.396
 6509SOL     OW20425   0.959   2.777   4.618
 6509SOL    HW120426   0.995   2.796   4.526
 6509SOL    HW220427   1.034   2.743   4.676
 6510SOL     OW20428   6.108   4.813   6.615
 6510SOL    HW120429   6.099   4.906   6.650
 6510SOL    HW220430   6.078   4.748   6.685
 6511SOL     OW20431   6.614   6.144   6.501
 6511SOL    HW120432   6.660   6.181   6.420
 6511SOL    HW220433   6.606   6.216   6.570
 6512SOL     OW20434   5.526   6.670   3.526
 6512SOL    HW120435   5.508   6.768   3.513
 6512SOL    HW220436   5.475   6.617   3.458
 6513SOL     OW20437   3.983   6.503   2.613
 6513SOL    HW120438   4.017   6.569   2.546
 6513SOL    HW220439   3.956   6.418   2.566
 6514SOL     OW20440   4.144   0.115   4.119
 6514SOL    HW120441   4.119   0.037   4.061
 6514SOL    HW220442   4.221   0.164   4.078
 6515SOL     OW20443   0.895   7.000   4.964
 6515SOL    HW120444   0.945   0.061   4.981
 6515SOL    HW220445   0.800   7.012   4.993
 6516SOL     OW20446   0.840   1.763   5.387
 6516SOL    HW120447   0.762   1.711   5.354
 6516SOL    HW220448   0.891   1.801   5.310
 6517SOL     OW20449   0.759   1.553   0.223
 6517SOL    HW120450   0.796   1.645   0.231
 6517SOL    HW220451   0.802   1.494   0.291
 6518SOL     OW20452   6.811   6.348   1.499
 6518SOL    HW120453   6.874   6.275   1.525
 6518SOL    HW220454   6.750   6.314   1.427
 6519SOL     OW20455   1.851   1.940   4.250
 6519SOL    HW120456   1.776   1.975   4.306
 6519SOL    HW220457   1.860   1.995   4.167
 6520SOL     OW20458   6.274   5.541   1.680
 6520SOL    HW120459   6.199   5.544   1.615
 6520SOL    HW220460   6.240   5.560   1.772
 6521SOL     OW20461   6.966   1.880   4.917
 6521SOL    HW120462   6.893   1.948   4.911
 6521SOL    HW220463   6.939   1.809   4.982
 6522SOL     OW20464   2.604   5.276   6.334
 6522SOL    HW120465   2.613   5.185   6.375
 6522SOL    HW220466   2.652   5.277   6.246
 6523SOL     OW20467   2.059   1.664   5.990
 6523SOL    HW120468   2.130   1.647   5.922
 6523SOL    HW220469   2.067   1.757   6.025
 6524SOL     OW20470   3.924   3.217   3.430
 6524SOL    HW120471   3.933   3.157   3.352
 6524SOL    HW220472   3.964   3.173   3.511
 6525SOL     OW20473   0.635   2.954   3.630
 6525SOL    HW120474   0.623   2.867   3.583
 6525SOL    HW220475   0.722   2.996   3.601
 6526SOL     OW20476   1.811   6.160   5.283
 6526SOL    HW120477   1.865   6.150   5.200
 6526SOL    HW220478   1.721   6.198   5.260
 6527SOL     OW20479   1.392   6.826   4.907
 6527SOL    HW120480   1.470   6.769   4.932
 6527SOL    HW220481   1.344   6.854   4.990
 6528SOL     OW20482   0.322   1.580   4.599
 6528SOL    HW120483   0.227   1.611   4.586
 6528SOL    HW220484   0.378   1.613   4.523
 6529SOL     OW20485   6.804   1.407   1.819
 6529SOL    HW120486   6.747   1.340   1.868
 6529SOL    HW220487   6.762   1.497   1.828
 6530SOL     OW20488   6.960   1.988   0.189
 6530SOL    HW120489   6.861   1.979   0.182
 6530SOL    HW220490   7.003   1.949   0.108
 6531SOL     OW20491   5.046   2.932   3.886
 6531SOL    HW120492   5.086   2.841   3.893
 6531SOL    HW220493   4.971   2.941   3.951
 6532SOL     OW20494   6.601   1.612   6.328
 6532SOL    HW120495   6.648   1.661   6.255
 6532SOL    HW220496   6.625   1.515   6.324
 6533SOL     OW20497   4.622   0.150   1.155
 6533SOL    HW120498   4.533   0.195   1.148
 6533SOL    HW220499   4.659   0.135   1.063
 6534SOL     OW20500   2.269   4.371   1.154
 6534SOL    HW120501   2.219   4.286   1.173
 6534SOL    HW220502   2.283   4.381   1.055
 6535SOL     OW20503   0.313   3.562   5.202
 6535SOL    HW120504   0.309   3.658   5.175
 6535SOL    HW220505   0.221   3.525   5.210
 6536SOL     OW20506   6.227   1.967   0.017
 6536SOL    HW120507   6.200   1.905   0.090
 6536SOL    HW220508   6.283   1.918   6.974
 6537SOL     OW20509   0.683   6.813   0.115
 6537SOL    HW120510   0.665   6.909   0.137
 6537SOL    HW220511   0.604   6.775   0.066
 6538SOL     OW20512   3.021   3.304   0.017
 6538SOL    HW120513   3.029   3.264   6.950
 6538SOL    HW220514   3.099   3.364   0.034
 6539SOL     OW20515   2.715   1.638   6.781
 6539SOL    HW120516   2.745   1.710   6.718
 6539SOL    HW220517   2.617   1.649   6.800
 6540SOL     OW20518   2.917   1.396   4.870
 6540SOL    HW120519   2.986   1.458   4.833
 6540SOL    HW220520   2.915   1.312   4.816
 6541SOL     OW20521   2.431   2.496   6.189
 6541SOL    HW120522   2.359   2.437   6.226
 6541SOL    HW220523   2.391   2.582   6.158
 6542SOL     OW20524   6.238   4.178   3.732
 6542SOL    HW120525   6.331   4.166   3.766
 6542SOL    HW220526   6.211   4.274   3.744
 6543SOL     OW20527   6.324   6.038   6.544
 6543SOL    HW120528   6.424   6.041   6.553
 6543SOL    HW220529   6.300   6.042   6.447
 6544SOL     OW20530   6.392   6.507   4.198
 6544SOL    HW120531   6.463   6.577   4.186
 6544SOL    HW220532   6.351   6.486   4.110
 6545SOL     OW20533   5.042   1.723   5.262
 6545SOL    HW120534   5.124   1.671   5.240
 6545SOL    HW220535   5.040   1.742   5.361
 6546SOL     OW20536   3.011   4.970   5.744
 6546SOL    HW120537   2.961   5.053   5.770
 6546SOL    HW220538   3.080   4.993   5.676
 6547SOL     OW20539   4.878   2.282   6.455
 6547SOL    HW120540   4.935   2.204   6.430
 6547SOL    HW220541   4.918   2.328   6.535
 6548SOL     OW20542   6.765   4.442   5.798
 6548SOL    HW120543   6.835   4.471   5.733
 6548SOL    HW220544   6.757   4.509   5.872
 6549SOL     OW20545   3.236   2.378   0.723
 6549SOL    HW120546   3.325   2.394   0.680
 6549SOL    HW220547   3.217   2.452   0.788
 6550SOL     OW20548   0.599   5.710   3.289
 6550SOL    HW120549   0.644   5.631   3.248
 6550SOL    HW220550   0.500   5.696   3.290
 6551SOL     OW20551   1.999   4.856   1.754
 6551SOL    HW120552   2.009   4.818   1.662
 6551SOL    HW220553   2.077   4.827   1.810
 6552SOL     OW20554   3.143   5.079   5.443
 6552SOL    HW120555   3.108   4.988   5.421
 6552SOL    HW220556   3.121   5.142   5.369
 6553SOL     OW20557   1.145   3.244   2.654
 6553SOL    HW120558   1.124   3.159   2.605
 6553SOL    HW220559   1.065   3.274   2.705
 6554SOL     OW20560   6.415   2.464   5.577
 6554SOL    HW120561   6.377   2.515   5.654
 6554SOL    HW220562   6.391   2.368   5.586
 6555SOL     OW20563   0.917   1.467   1.647
 6555SOL    HW120564   0.880   1.514   1.567
 6555SOL    HW220565   0.858   1.389   1.669
 6556SOL     OW20566   3.503   6.017   4.396
 6556SOL    HW120567   3.597   5.985   4.388
 6556SOL    HW220568   3.487   6.054   4.488
 6557SOL     OW20569   6.179   5.120   1.136
 6557SOL    HW120570   6.225   5.156   1.217
 6557SOL    HW220571   6.230   5.147   1.054
 6558SOL     OW20572   6.460   5.728   6.799
 6558SOL    HW120573   6.495   5.820   6.782
 6558SOL    HW220574   6.388   5.706   6.733
 6559SOL     OW20575   4.081   3.862   0.728
 6559SOL    HW120576   4.109   3.766   0.733
 6559SOL    HW220577   3.984   3.870   0.753
 6560SOL     OW20578   3.689   2.225   0.213
 6560SOL    HW120579   3.689   2.155   0.284
 6560SOL    HW220580   3.693   2.316   0.256
 6561SOL     OW20581   4.067   3.221   3.098
 6561SOL    HW120582   3.971   3.241   3.080
 6561SOL    HW220583   4.074   3.144   3.161
 6562SOL     OW20584   6.293   4.349   6.201
 6562SOL    HW120585   6.297   4.333   6.300
 6562SOL    HW220586   6.206   4.390   6.177
 6563SOL     OW20587   1.103   5.334   1.855
 6563SOL    HW120588   1.020   5.383   1.881
 6563SOL    HW220589   1.183   5.384   1.888
 6564SOL     OW20590   1.509   4.807   1.891
 6564SOL    HW120591   1.538   4.713   1.912
 6564SOL    HW220592   1.455   4.807   1.807
 6565SOL     OW20593   6.604   2.816   5.414
 6565SOL    HW120594   6.583   2.838   5.510
 6565SOL    HW220595   6.619   2.717   5.406
 6566SOL     OW20596   3.570   6.893   1.186
 6566SOL    HW120597   3.602   6.799   1.174
 6566SOL    HW220598   3.627   6.939   1.255
 6567SOL     OW20599   5.154   2.667   0.991
 6567SOL    HW120600   5.194   2.576   0.999
 6567SOL    HW220601   5.055   2.658   0.980
 6568SOL     OW20602   4.282   4.255   1.433
 6568SOL    HW120603   4.266   4.185   1.503
 6568SOL    HW220604   4.277   4.214   1.343
 6569SOL     OW20605   1.201   4.520   6.773
 6569SOL    HW120606   1.206   4.512   6.873
 6569SOL    HW220607   1.185   4.430   6.733
 6570SOL     OW20608   5.678   2.211   1.778
 6570SOL    HW120609   5.717   2.277   1.843
 6570SOL    HW220610   5.734   2.128   1.778
 6571SOL     OW20611   2.721   6.083   3.395
 6571SOL    HW120612   2.631   6.073   3.438
 6571SOL    HW220613   2.786   6.024   3.442
 6572SOL     OW20614   0.464   4.160   5.873
 6572SOL    HW120615   0.423   4.069   5.865
 6572SOL    HW220616   0.414   4.214   5.940
 6573SOL     OW20617   2.415   1.326   2.407
 6573SOL    HW120618   2.389   1.375   2.324
 6573SOL    HW220619   2.451   1.391   2.474
 6574SOL     OW20620   3.172   5.047   2.914
 6574SOL    HW120621   3.118   5.073   2.834
 6574SOL    HW220622   3.263   5.017   2.886
 6575SOL     OW20623   1.238   1.718   2.158
 6575SOL    HW120624   1.142   1.729   2.183
 6575SOL    HW220625   1.265   1.622   2.167
 6576SOL     OW20626   1.309   6.332   6.639
 6576SOL    HW120627   1.271   6.424   6.649
 6576SOL    HW220628   1.329   6.315   6.543
 6577SOL     OW20629   0.066   1.944   3.782
 6577SOL    HW120630   0.065   1.989   3.693
 6577SOL    HW220631   0.044   2.011   3.854
 6578SOL     OW20632   6.258   4.975   3.827
 6578SOL    HW120633   6.203   5.034   3.886
 6578SOL    HW220634   6.323   5.031   3.776
 6579SOL     OW20635   6.750   4.047   3.154
 6579SOL    HW120636   6.679   4.091   3.209
 6579SOL    HW220637   6.707   3.986   3.087
 6580SOL     OW20638   5.897   1.811   2.199
 6580SOL    HW120639   5.984   1.821   2.151
 6580SOL    HW220640   5.914   1.767   2.288
 6581SOL     OW20641   3.053   1.872   6.606
 6581SOL    HW120642   3.110   1.803   6.561
 6581SOL    HW220643   2.978   1.899   6.546
 6582SOL     OW20644   6.542   0.529   2.845
 6582SOL    HW120645   6.530   0.622   2.811
 6582SOL    HW220646   6.577   0.471   2.771
 6583SOL     OW20647   5.333   1.762   5.738
 6583SOL    HW120648   5.282   1.752   5.824
 6583SOL    HW220649   5.414   1.819   5.753
 6584SOL     OW20650   5.989   1.842   6.654
 6584SOL    HW120651   6.026   1.893   6.577
 6584SOL    HW220652   6.046   1.762   6.671
 6585SOL     OW20653   1.027   1.885   6.703
 6585SOL    HW120654   1.098   1.860   6.637
 6585SOL    HW220655   0.953   1.932   6.655
 6586SOL     OW20656   6.267   2.225   6.075
 6586SOL    HW120657   6.347   2.274   6.038
 6586SOL    HW220658   6.254   2.140   6.024
 6587SOL     OW20659   2.173   6.538   3.034
 6587SOL    HW120660   2.261   6.548   2.987
 6587SOL    HW220661   2.099   6.537   2.966
 6588SOL     OW20662   1.488   2.846   0.005
 6588SOL    HW120663   1.484   2.942   7.002
 6588SOL    HW220664   1.443   2.790   6.960
 6589SOL     OW20665   4.546   1.566   5.365
 6589SOL    HW120666   4.525   1.484   5.312
 6589SOL    HW220667   4.633   1.604   5.335
 6590SOL     OW20668   0.619   1.560   5.598
 6590SOL    HW120669   0.565   1.533   5.519
 6590SOL    HW220670   0.567   1.626   5.653
 6591SOL     OW20671   5.781   1.028   3.058
 6591SOL    HW120672   5.706   1.002   2.997
 6591SOL    HW220673   5.760   1.001   3.152
 6592SOL     OW20674   4.848   5.460   4.778
 6592SOL    HW120675   4.928   5.509   4.813
 6592SOL    HW220676   4.787   5.524   4.732
 6593SOL     OW20677   3.596   1.526   2.625
 6593SOL    HW120678   3.606   1.609   2.679
 6593SOL    HW220679   3.627   1.543   2.531
 6594SOL     OW20680   5.501   0.214   6.797
 6594SOL    HW120681   5.548   0.132   6.765
 6594SOL    HW220682   5.538   0.240   6.887
 6595SOL     OW20683   1.728   3.753   1.300
 6595SOL    HW120684   1.749   3.671   1.248
 6595SOL    HW220685   1.777   3.831   1.260
 6596SOL     OW20686   4.545   7.002   5.024
 6596SOL    HW120687   4.506   7.007   4.932
 6596SOL    HW220688   4.627   6.945   5.022
 6597SOL     OW20689   0.313   5.763   4.882
 6597SOL    HW120690   0.236   5.708   4.850
 6597SOL    HW220691   0.373   5.785   4.805
 6598SOL     OW20692   1.884   5.611   5.151
 6598SOL    HW120693   1.833   5.617   5.066
 6598SOL    HW220694   1.834   5.554   5.216
 6599SOL     OW20695   4.323   4.555   5.872
 6599SOL    HW120696   4.270   4.626   5.826
 6599SOL    HW220697   4.416   4.587   5.889
 6600SOL     OW20698   4.566   6.152   3.818
 6600SOL    HW120699   4.611   6.075   3.863
 6600SOL    HW220700   4.632   6.227   3.808
 6601SOL     OW20701   0.522   0.033   0.164
 6601SOL    HW120702   0.424   0.047   0.150
 6601SOL    HW220703   0.543   0.039   0.262
 6602SOL     OW20704   6.756   1.349   1.534
 6602SOL    HW120705   6.829   1.399   1.581
 6602SOL    HW220706   6.672   1.356   1.587
 6603SOL     OW20707   2.133   3.694   3.010
 6603SOL    HW120708   2.190   3.690   3.093
 6603SOL    HW220709   2.155   3.778   2.959
 6604SOL     OW20710   3.274   5.640   2.342
 6604SOL    HW120711   3.374   5.643   2.344
 6604SOL    HW220712   3.241   5.683   2.258
 6605SOL     OW20713   5.854   5.903   0.281
 6605SOL    HW120714   5.852   5.880   0.184
 6605SOL    HW220715   5.874   6.000   0.292
 6606SOL     OW20716   5.465   1.296   2.490
 6606SOL    HW120717   5.426   1.313   2.580
 6606SOL    HW220718   5.391   1.289   2.422
 6607SOL     OW20719   1.814   1.644   2.008
 6607SOL    HW120720   1.838   1.739   2.025
 6607SOL    HW220721   1.775   1.604   2.091
 6608SOL     OW20722   5.975   3.704   3.828
 6608SOL    HW120723   5.977   3.804   3.821
 6608SOL    HW220724   5.894   3.669   3.781
 6609SOL     OW20725   5.516   1.244   5.682
 6609SOL    HW120726   5.598   1.274   5.633
 6609SOL    HW220727   5.536   1.236   5.780
 6610SOL     OW20728   2.251   0.563   0.038
 6610SOL    HW120729   2.152   0.560   0.036
 6610SOL    HW220730   2.282   0.597   0.126
 6611SOL     OW20731   5.636   2.394   2.723
 6611SOL    HW120732   5.590   2.457   2.661
 6611SOL    HW220733   5.709   2.346   2.675
 6612SOL     OW20734   1.340   6.610   6.943
 6612SOL    HW120735   1.296   6.602   6.853
 6612SOL    HW220736   1.358   6.519   6.979
 6613SOL     OW20737   4.620   5.259   2.051
 6613SOL    HW120738   4.612   5.358   2.066
 6613SOL    HW220739   4.543   5.229   1.994
 6614SOL     OW20740   4.798   5.735   6.215
 6614SOL    HW120741   4.720   5.749   6.153
 6614SOL    HW220742   4.829   5.824   6.250
 6615SOL     OW20743   1.001   3.927   5.155
 6615SOL    HW120744   1.068   3.877   5.210
 6615SOL    HW220745   1.049   3.988   5.091
 6616SOL     OW20746   5.003   0.766   4.521
 6616SOL    HW120747   5.066   0.794   4.448
 6616SOL    HW220748   4.969   0.674   4.502
 6617SOL     OW20749   4.105   6.881   5.308
 6617SOL    HW120750   4.162   6.894   5.227
 6617SOL    HW220751   4.091   6.969   5.353
 6618SOL     OW20752   0.973   4.514   1.768
 6618SOL    HW120753   0.967   4.528   1.867
 6618SOL    HW220754   1.067   4.523   1.738
 6619SOL     OW20755   4.811   5.683   2.499
 6619SOL    HW120756   4.741   5.615   2.522
 6619SOL    HW220757   4.777   5.774   2.522
 6620SOL     OW20758   1.624   2.845   5.761
 6620SOL    HW120759   1.541   2.886   5.799
 6620SOL    HW220760   1.645   2.888   5.673
 6621SOL     OW20761   2.793   4.458   0.220
 6621SOL    HW120762   2.823   4.538   0.272
 6621SOL    HW220763   2.869   4.394   0.210
 6622SOL     OW20764   6.827   6.035   0.445
 6622SOL    HW120765   6.849   6.033   0.347
 6622SOL    HW220766   6.911   6.048   0.498
 6623SOL     OW20767   3.253   3.396   2.488
 6623SOL    HW120768   3.319   3.462   2.451
 6623SOL    HW220769   3.211   3.433   2.571
 6624SOL     OW20770   4.205   4.950   4.254
 6624SOL    HW120771   4.131   4.964   4.321
 6624SOL    HW220772   4.292   4.948   4.302
 6625SOL     OW20773   6.249   0.720   6.776
 6625SOL    HW120774   6.212   0.775   6.701
 6625SOL    HW220775   6.292   0.638   6.739
 6626SOL     OW20776   3.946   5.144   3.310
 6626SOL    HW120777   3.890   5.062   3.325
 6626SOL    HW220778   3.890   5.225   3.329
 6627SOL     OW20779   1.919   0.124   0.828
 6627SOL    HW120780   1.994   0.071   0.868
 6627SOL    HW220781   1.871   0.175   0.900
 6628SOL     OW20782   4.313   5.873   3.208
 6628SOL    HW120783   4.355   5.785   3.232
 6628SOL    HW220784   4.383   5.933   3.169
 6629SOL     OW20785   2.845   5.191   0.783
 6629SOL    HW120786   2.835   5.153   0.691
 6629SOL    HW220787   2.890   5.280   0.777
 6630SOL     OW20788   3.353   1.896   0.125
 6630SOL    HW120789   3.342   1.805   0.166
 6630SOL    HW220790   3.336   1.966   0.194
 6631SOL     OW20791   5.081   0.762   2.476
 6631SOL    HW120792   5.103   0.859   2.470
 6631SOL    HW220793   5.101   0.717   2.389
 6632SOL     OW20794   6.874   0.823   1.393
 6632SOL    HW120795   6.828   0.803   1.307
 6632SOL    HW220796   6.945   0.754   1.410
 6633SOL     OW20797   1.877   6.804   0.907
 6633SOL    HW120798   1.880   6.711   0.868
 6633SOL    HW220799   1.786   6.843   0.891
 6634SOL     OW20800   6.887   2.642   6.165
 6634SOL    HW120801   6.942   2.641   6.081
 6634SOL    HW220802   6.942   2.606   6.241
 6635SOL     OW20803   4.502   4.701   3.309
 6635SOL    HW120804   4.460   4.653   3.232
 6635SOL    HW220805   4.572   4.765   3.275
 6636SOL     OW20806   2.342   2.376   4.256
 6636SOL    HW120807   2.354   2.321   4.339
 6636SOL    HW220808   2.388   2.464   4.268
 6637SOL     OW20809   6.987   0.098   1.008
 6637SOL    HW120810   7.013   0.015   1.057
 6637SOL    HW220811   6.999   0.177   1.068
 6638SOL     OW20812   2.611   5.995   5.756
 6638SOL    HW120813   2.542   6.029   5.820
 6638SOL    HW220814   2.607   6.048   5.671
 6639SOL     OW20815   5.823   5.312   6.709
 6639SOL    HW120816   5.774   5.385   6.661
 6639SOL    HW220817   5.908   5.349   6.748
 6640SOL     OW20818   6.536   2.485   3.427
 6640SOL    HW120819   6.462   2.430   3.389
 6640SOL    HW220820   6.597   2.426   3.480
 6641SOL     OW20821   1.991   4.206   6.081
 6641SOL    HW120822   2.038   4.250   6.157
 6641SOL    HW220823   1.942   4.274   6.028
 6642SOL     OW20824   0.486   5.814   6.688
 6642SOL    HW120825   0.412   5.786   6.626
 6642SOL    HW220826   0.559   5.746   6.685
 6643SOL     OW20827   5.011   4.935   6.588
 6643SOL    HW120828   5.108   4.928   6.563
 6643SOL    HW220829   5.002   4.922   6.687
 6644SOL     OW20830   2.872   4.766   2.248
 6644SOL    HW120831   2.783   4.809   2.260
 6644SOL    HW220832   2.860   4.675   2.207
 6645SOL     OW20833   0.168   4.893   5.445
 6645SOL    HW120834   0.161   4.896   5.346
 6645SOL    HW220835   0.262   4.869   5.471
 6646SOL     OW20836   2.444   5.612   3.799
 6646SOL    HW120837   2.467   5.530   3.746
 6646SOL    HW220838   2.353   5.602   3.839
 6647SOL     OW20839   3.252   1.654   1.836
 6647SOL    HW120840   3.222   1.617   1.748
 6647SOL    HW220841   3.313   1.589   1.881
 6648SOL     OW20842   4.933   5.762   2.230
 6648SOL    HW120843   4.867   5.717   2.290
 6648SOL    HW220844   4.990   5.824   2.284
 6649SOL     OW20845   4.205   2.110   6.529
 6649SOL    HW120846   4.255   2.097   6.615
 6649SOL    HW220847   4.222   2.202   6.495
 6650SOL     OW20848   3.965   2.026   3.680
 6650SOL    HW120849   3.884   2.073   3.645
 6650SOL    HW220850   3.952   1.928   3.674
 6651SOL     OW20851   0.637   2.927   6.949
 6651SOL    HW120852   0.647   3.014   6.901
 6651SOL    HW220853   0.680   2.854   6.896
 6652SOL     OW20854   6.980   5.795   2.298
 6652SOL    HW120855   6.903   5.819   2.358
 6652SOL    HW220856   6.951   5.723   2.235
 6653SOL     OW20857   3.567   3.874   3.892
 6653SOL    HW120858   3.539   3.965   3.922
 6653SOL    HW220859   3.525   3.805   3.952
 6654SOL     OW20860   2.410   3.278   1.660
 6654SOL    HW120861   2.444   3.344   1.727
 6654SOL    HW220862   2.449   3.188   1.679
 6655SOL     OW20863   2.871   6.499   1.886
 6655SOL    HW120864   2.820   6.525   1.803
 6655SOL    HW220865   2.922   6.415   1.869
 6656SOL     OW20866   6.269   2.264   1.291
 6656SOL    HW120867   6.275   2.314   1.205
 6656SOL    HW220868   6.195   2.196   1.285
 6657SOL     OW20869   3.179   6.380   6.415
 6657SOL    HW120870   3.160   6.378   6.513
 6657SOL    HW220871   3.261   6.435   6.399
 6658SOL     OW20872   5.642   1.269   5.107
 6658SOL    HW120873   5.719   1.209   5.084
 6658SOL    HW220874   5.558   1.215   5.111
 6659SOL     OW20875   1.988   3.093   0.423
 6659SOL    HW120876   2.058   3.157   0.454
 6659SOL    HW220877   1.899   3.120   0.460
 6660SOL     OW20878   6.818   6.697   2.898
 6660SOL    HW120879   6.853   6.759   2.968
 6660SOL    HW220880   6.721   6.714   2.883
 6661SOL     OW20881   0.565   5.954   3.633
 6661SOL    HW120882   0.509   6.009   3.572
 6661SOL    HW220883   0.634   5.905   3.580
 6662SOL     OW20884   1.375   2.108   0.125
 6662SOL    HW120885   1.322   2.070   0.201
 6662SOL    HW220886   1.314   2.138   0.052
 6663SOL     OW20887   0.175   5.694   2.521
 6663SOL    HW120888   0.269   5.728   2.519
 6663SOL    HW220889   0.145   5.675   2.427
 6664SOL     OW20890   1.528   0.837   2.533
 6664SOL    HW120891   1.452   0.776   2.509
 6664SOL    HW220892   1.502   0.890   2.614
 6665SOL     OW20893   1.948   6.556   2.892
 6665SOL    HW120894   1.995   6.583   2.808
 6665SOL    HW220895   1.925   6.459   2.887
 6666SOL     OW20896   5.906   0.660   6.143
 6666SOL    HW120897   5.920   0.569   6.104
 6666SOL    HW220898   5.827   0.657   6.205
 6667SOL     OW20899   6.764   4.866   5.193
 6667SOL    HW120900   6.721   4.949   5.228
 6667SOL    HW220901   6.830   4.889   5.121
 6668SOL     OW20902   1.230   4.491   1.642
 6668SOL    HW120903   1.202   4.412   1.586
 6668SOL    HW220904   1.330   4.497   1.644
 6669SOL     OW20905   1.904   5.796   3.034
 6669SOL    HW120906   1.997   5.801   3.069
 6669SOL    HW220907   1.840   5.836   3.100
 6670SOL     OW20908   3.534   4.960   0.309
 6670SOL    HW120909   3.498   5.042   0.265
 6670SOL    HW220910   3.615   4.985   0.363
 6671SOL     OW20911   6.331   3.312   4.847
 6671SOL    HW120912   6.236   3.282   4.843
 6671SOL    HW220913   6.377   3.269   4.925
 6672SOL     OW20914   0.895   0.769   5.626
 6672SOL    HW120915   0.874   0.819   5.710
 6672SOL    HW220916   0.843   0.808   5.550
 6673SOL     OW20917   4.443   4.774   1.607
 6673SOL    HW120918   4.542   4.765   1.620
 6673SOL    HW220919   4.396   4.752   1.693
 6674SOL     OW20920   0.940   6.277   4.424
 6674SOL    HW120921   0.867   6.330   4.382
 6674SOL    HW220922   0.957   6.310   4.517
 6675SOL     OW20923   5.869   4.921   0.314
 6675SOL    HW120924   5.885   4.845   0.251
 6675SOL    HW220925   5.773   4.948   0.310
 6676SOL     OW20926   0.711   2.158   5.851
 6676SOL    HW120927   0.788   2.204   5.807
 6676SOL    HW220928   0.744   2.075   5.898
 6677SOL     OW20929   0.660   3.085   0.603
 6677SOL    HW120930   0.586   3.019   0.614
 6677SOL    HW220931   0.625   3.167   0.558
 6678SOL     OW20932   0.560   2.959   5.734
 6678SOL    HW120933   0.643   2.915   5.699
 6678SOL    HW220934   0.486   2.892   5.735
 6679SOL     OW20935   1.769   2.161   4.987
 6679SOL    HW120936   1.810   2.231   4.929
 6679SOL    HW220937   1.842   2.108   5.032
 6680SOL     OW20938   3.199   6.761   6.367
 6680SOL    HW120939   3.242   6.704   6.297
 6680SOL    HW220940   3.265   6.829   6.400
 6681SOL     OW20941   5.134   5.299   0.775
 6681SOL    HW120942   5.188   5.342   0.702
 6681SOL    HW220943   5.038   5.294   0.747
 6682SOL     OW20944   0.836   5.195   1.963
 6682SOL    HW120945   0.922   5.246   1.971
 6682SOL    HW220946   0.797   5.181   2.055
 6683SOL     OW20947   5.164   1.731   4.613
 6683SOL    HW120948   5.095   1.707   4.682
 6683SOL    HW220949   5.119   1.756   4.528
 6684SOL     OW20950   1.678   6.889   2.594
 6684SOL    HW120951   1.752   6.948   2.625
 6684SOL    HW220952   1.651   6.826   2.667
 6685SOL     OW20953   4.778   3.314   6.451
 6685SOL    HW120954   4.803   3.231   6.500
 6685SOL    HW220955   4.855   3.377   6.451
 6686SOL     OW20956   6.397   3.794   2.815
 6686SOL    HW120957   6.311   3.742   2.812
 6686SOL    HW220958   6.377   3.892   2.818
 6687SOL     OW20959   0.832   1.837   0.695
 6687SOL    HW120960   0.874   1.820   0.785
 6687SOL    HW220961   0.761   1.907   0.705
 6688SOL     OW20962   0.687   4.429   2.521
 6688SOL    HW120963   0.783   4.402   2.516
 6688SOL    HW220964   0.630   4.348   2.537
 6689SOL     OW20965   4.996   4.914   0.259
 6689SOL    HW120966   4.931   4.856   0.308
 6689SOL    HW220967   4.998   5.005   0.302
 6690SOL     OW20968   2.070   2.723   0.667
 6690SOL    HW120969   2.004   2.684   0.732
 6690SOL    HW220970   2.097   2.814   0.698
 6691SOL     OW20971   2.799   4.808   1.431
 6691SOL    HW120972   2.827   4.774   1.521
 6691SOL    HW220973   2.707   4.775   1.411
 6692SOL     OW20974   3.322   4.173   5.468
 6692SOL    HW120975   3.415   4.209   5.471
 6692SOL    HW220976   3.256   4.248   5.480
 6693SOL     OW20977   4.255   3.361   5.251
 6693SOL    HW120978   4.232   3.441   5.196
 6693SOL    HW220979   4.353   3.358   5.268
 6694SOL     OW20980   3.909   5.853   0.967
 6694SOL    HW120981   3.915   5.861   1.066
 6694SOL    HW220982   3.870   5.764   0.943
 6695SOL     OW20983   1.313   1.702   6.829
 6695SOL    HW120984   1.220   1.669   6.848
 6695SOL    HW220985   1.360   1.635   6.772
 6696SOL     OW20986   1.956   3.130   1.946
 6696SOL    HW120987   1.899   3.118   1.864
 6696SOL    HW220988   1.999   3.220   1.943
 6697SOL     OW20989   4.633   1.302   3.131
 6697SOL    HW120990   4.692   1.355   3.192
 6697SOL    HW220991   4.685   1.226   3.092
 6698SOL     OW20992   3.676   3.524   0.303
 6698SOL    HW120993   3.689   3.623   0.308
 6698SOL    HW220994   3.743   3.484   0.241
 6699SOL     OW20995   2.021   4.181   6.880
 6699SOL    HW120996   2.077   4.102   6.858
 6699SOL    HW220997   2.061   4.230   6.958
 6700SOL     OW20998   6.981   5.836   1.011
 6700SOL    HW120999   6.946   5.926   1.038
 6700SOL    HW221000   6.926   5.765   1.055
 6701SOL     OW21001   0.035   1.719   0.682
 6701SOL    HW121002   6.988   1.686   0.620
 6701SOL    HW221003   0.075   1.641   0.730
 6702SOL     OW21004   2.848   1.659   1.468
 6702SOL    HW121005   2.860   1.680   1.565
 6702SOL    HW221006   2.811   1.739   1.421
 6703SOL     OW21007   0.003   1.370   6.828
 6703SOL    HW121008   0.011   1.437   6.753
 6703SOL    HW221009   0.080   1.305   6.822
 6704SOL     OW21010   5.263   1.816   2.294
 6704SOL    HW121011   5.247   1.866   2.379
 6704SOL    HW221012   5.179   1.817   2.240
 6705SOL     OW21013   5.765   1.695   0.321
 6705SOL    HW121014   5.730   1.693   0.415
 6705SOL    HW221015   5.862   1.671   0.322
 6706SOL     OW21016   0.540   4.307   6.193
 6706SOL    HW121017   0.458   4.249   6.199
 6706SOL    HW221018   0.615   4.264   6.243
 6707SOL     OW21019   0.919   5.770   2.807
 6707SOL    HW121020   0.973   5.749   2.888
 6707SOL    HW221021   0.979   5.776   2.727
 6708SOL     OW21022   1.995   6.141   1.932
 6708SOL    HW121023   1.937   6.061   1.942
 6708SOL    HW221024   2.023   6.173   2.023
 6709SOL     OW21025   4.707   1.480   2.328
 6709SOL    HW121026   4.761   1.396   2.336
 6709SOL    HW221027   4.628   1.475   2.389
 6710SOL     OW21028   2.921   2.591   0.406
 6710SOL    HW121029   2.914   2.685   0.373
 6710SOL    HW221030   3.016   2.560   0.397
 6711SOL     OW21031   4.054   4.472   0.149
 6711SOL    HW121032   4.053   4.402   0.220
 6711SOL    HW221033   4.008   4.437   0.067
 6712SOL     OW21034   3.837   6.215   6.787
 6712SOL    HW121035   3.933   6.213   6.759
 6712SOL    HW221036   3.795   6.127   6.766
 6713SOL     OW21037   2.058   2.161   1.508
 6713SOL    HW121038   1.994   2.084   1.506
 6713SOL    HW221039   2.133   2.144   1.443
 6714SOL     OW21040   6.181   0.555   4.339
 6714SOL    HW121041   6.162   0.490   4.411
 6714SOL    HW221042   6.096   0.580   4.292
 6715SOL     OW21043   0.568   1.054   0.886
 6715SOL    HW121044   0.658   1.095   0.869
 6715SOL    HW221045   0.531   1.018   0.800
 6716SOL     OW21046   2.005   6.125   1.221
 6716SOL    HW121047   1.963   6.040   1.188
 6716SOL    HW221048   2.079   6.152   1.160
 6717SOL     OW21049   4.146   1.748   6.782
 6717SOL    HW121050   4.131   1.675   6.716
 6717SOL    HW221051   4.085   1.825   6.762
 6718SOL     OW21052   3.218   0.348   0.544
 6718SOL    HW121053   3.130   0.353   0.591
 6718SOL    HW221054   3.273   0.274   0.585
 6719SOL     OW21055   6.329   6.789   5.209
 6719SOL    HW121056   6.299   6.877   5.244
 6719SOL    HW221057   6.404   6.802   5.145
 6720SOL     OW21058   1.994   4.778   1.502
 6720SOL    HW121059   2.015   4.853   1.439
 6720SOL    HW221060   1.975   4.695   1.449
 6721SOL     OW21061   5.368   6.222   3.795
 6721SOL    HW121062   5.282   6.273   3.790
 6721SOL    HW221063   5.366   6.148   3.728
 6722SOL     OW21064   4.353   3.273   6.622
 6722SOL    HW121065   4.414   3.349   6.601
 6722SOL    HW221066   4.396   3.212   6.689
 6723SOL     OW21067   4.413   6.650   2.726
 6723SOL    HW121068   4.393   6.726   2.663
 6723SOL    HW221069   4.503   6.613   2.705
 6724SOL     OW21070   3.484   5.077   4.984
 6724SOL    HW121071   3.523   5.101   5.073
 6724SOL    HW221072   3.415   5.006   4.997
 6725SOL     OW21073   0.242   4.918   2.645
 6725SOL    HW121074   0.297   4.836   2.630
 6725SOL    HW221075   0.147   4.893   2.664
 6726SOL     OW21076   2.554   2.302   3.470
 6726SOL    HW121077   2.564   2.314   3.371
 6726SOL    HW221078   2.480   2.360   3.504
 6727SOL     OW21079   3.607   3.645   6.777
 6727SOL    HW121080   3.582   3.551   6.798
 6727SOL    HW221081   3.525   3.699   6.759
 6728SOL     OW21082   4.138   1.527   3.804
 6728SOL    HW121083   4.076   1.508   3.879
 6728SOL    HW221084   4.085   1.551   3.722
 6729SOL     OW21085   5.878   0.937   2.526
 6729SOL    HW121086   5.805   0.997   2.493
 6729SOL    HW221087   5.841   0.875   2.596
 6730SOL     OW21088   2.447   1.292   0.254
 6730SOL    HW121089   2.457   1.349   0.173
 6730SOL    HW221090   2.373   1.327   0.311
 6731SOL     OW21091   2.654   4.741   1.806
 6731SOL    HW121092   2.730   4.717   1.866
 6731SOL    HW221093   2.681   4.726   1.710
 6732SOL     OW21094   2.292   5.239   1.013
 6732SOL    HW121095   2.359   5.217   1.083
 6732SOL    HW221096   2.203   5.256   1.055
 6733SOL     OW21097   5.091   6.160   5.475
 6733SOL    HW121098   5.178   6.208   5.484
 6733SOL    HW221099   5.018   6.218   5.512
 6734SOL     OW21100   2.397   3.603   5.664
 6734SOL    HW121101   2.433   3.571   5.577
 6734SOL    HW221102   2.469   3.600   5.733
 6735SOL     OW21103   0.208   5.189   6.150
 6735SOL    HW121104   0.134   5.257   6.149
 6735SOL    HW221105   0.293   5.232   6.119
 6736SOL     OW21106   2.097   3.269   2.170
 6736SOL    HW121107   2.117   3.185   2.119
 6736SOL    HW221108   2.143   3.346   2.127
 6737SOL     OW21109   3.184   0.754   1.556
 6737SOL    HW121110   3.229   0.843   1.546
 6737SOL    HW221111   3.171   0.734   1.653
 6738SOL     OW21112   3.121   1.284   2.610
 6738SOL    HW121113   3.100   1.247   2.520
 6738SOL    HW221114   3.220   1.299   2.617
 6739SOL     OW21115   3.535   6.456   4.456
 6739SOL    HW121116   3.445   6.436   4.418
 6739SOL    HW221117   3.604   6.453   4.383
 6740SOL     OW21118   0.103   2.200   4.320
 6740SOL    HW121119   0.132   2.295   4.321
 6740SOL    HW221120   0.116   2.160   4.411
 6741SOL     OW21121   6.284   0.065   6.268
 6741SOL    HW121122   6.255   0.081   6.174
 6741SOL    HW221123   6.259   0.144   6.324
 6742SOL     OW21124   6.166   5.791   6.130
 6742SOL    HW121125   6.148   5.796   6.032
 6742SOL    HW221126   6.132   5.704   6.166
 6743SOL     OW21127   4.561   3.125   0.918
 6743SOL    HW121128   4.617   3.103   0.998
 6743SOL    HW221129   4.497   3.198   0.941
 6744SOL     OW21130   4.686   4.628   5.444
 6744SOL    HW121131   4.635   4.543   5.457
 6744SOL    HW221132   4.783   4.611   5.462
 6745SOL     OW21133   0.413   4.258   3.517
 6745SOL    HW121134   0.341   4.322   3.545
 6745SOL    HW221135   0.458   4.220   3.599
 6746SOL     OW21136   0.318   1.218   0.653
 6746SOL    HW121137   0.373   1.136   0.640
 6746SOL    HW221138   0.327   1.250   0.748
 6747SOL     OW21139   5.356   6.262   5.652
 6747SOL    HW121140   5.423   6.286   5.581
 6747SOL    HW221141   5.322   6.346   5.695
 6748SOL     OW21142   0.307   0.291   2.286
 6748SOL    HW121143   0.241   0.353   2.245
 6748SOL    HW221144   0.271   0.197   2.285
 6749SOL     OW21145   4.154   6.123   1.121
 6749SOL    HW121146   4.157   6.223   1.118
 6749SOL    HW221147   4.067   6.093   1.161
 6750SOL     OW21148   2.634   3.258   5.335
 6750SOL    HW121149   2.680   3.222   5.416
 6750SOL    HW221150   2.595   3.183   5.282
 6751SOL     OW21151   3.264   2.166   5.593
 6751SOL    HW121152   3.324   2.098   5.636
 6751SOL    HW221153   3.272   2.160   5.494
 6752SOL     OW21154   6.178   1.455   0.184
 6752SOL    HW121155   6.196   1.372   0.236
 6752SOL    HW221156   6.220   1.449   0.094
 6753SOL     OW21157   5.098   2.103   6.693
 6753SOL    HW121158   5.121   2.056   6.779
 6753SOL    HW221159   5.162   2.179   6.679
 6754SOL     OW21160   5.660   0.580   0.125
 6754SOL    HW121161   5.601   0.616   0.196
 6754SOL    HW221162   5.689   0.654   0.064
 6755SOL     OW21163   4.680   2.027   3.526
 6755SOL    HW121164   4.614   2.029   3.601
 6755SOL    HW221165   4.747   2.100   3.539
 6756SOL     OW21166   5.171   4.515   4.659
 6756SOL    HW121167   5.200   4.557   4.573
 6756SOL    HW221168   5.082   4.471   4.646
 6757SOL     OW21169   5.560   5.283   1.777
 6757SOL    HW121170   5.554   5.274   1.678
 6757SOL    HW221171   5.471   5.260   1.818
 6758SOL     OW21172   5.356   2.682   2.580
 6758SOL    HW121173   5.283   2.743   2.612
 6758SOL    HW221174   5.316   2.609   2.525
 6759SOL     OW21175   0.119   4.461   3.536
 6759SOL    HW121176   0.183   4.538   3.536
 6759SOL    HW221177   0.055   4.470   3.612
 6760SOL     OW21178   6.734   4.094   4.916
 6760SOL    HW121179   6.762   4.112   4.821
 6760SOL    HW221180   6.636   4.074   4.918
 6761SOL     OW21181   5.170   3.524   6.513
 6761SOL    HW121182   5.080   3.519   6.469
 6761SOL    HW221183   5.161   3.495   6.609
 6762SOL     OW21184   5.975   4.847   4.288
 6762SOL    HW121185   5.907   4.898   4.236
 6762SOL    HW221186   6.040   4.804   4.225
 6763SOL     OW21187   5.442   6.321   6.064
 6763SOL    HW121188   5.350   6.283   6.053
 6763SOL    HW221189   5.491   6.317   5.977
 6764SOL     OW21190   2.289   4.080   6.842
 6764SOL    HW121191   2.386   4.096   6.859
 6764SOL    HW221192   2.277   4.004   6.779
 6765SOL     OW21193   5.738   5.028   3.011
 6765SOL    HW121194   5.660   5.060   3.064
 6765SOL    HW221195   5.734   5.066   2.919
 6766SOL     OW21196   1.323   0.989   5.620
 6766SOL    HW121197   1.375   0.992   5.705
 6766SOL    HW221198   1.386   0.986   5.542
 6767SOL     OW21199   0.199   2.401   6.484
 6767SOL    HW121200   0.252   2.406   6.569
 6767SOL    HW221201   0.262   2.400   6.406
 6768SOL     OW21202   0.266   0.265   5.339
 6768SOL    HW121203   0.230   0.206   5.412
 6768SOL    HW221204   0.239   0.359   5.356
 6769SOL     OW21205   2.316   3.288   6.137
 6769SOL    HW121206   2.222   3.262   6.161
 6769SOL    HW221207   2.380   3.229   6.186
 6770SOL     OW21208   0.410   1.472   3.349
 6770SOL    HW121209   0.341   1.544   3.344
 6770SOL    HW221210   0.404   1.425   3.437
 6771SOL     OW21211   4.218   1.286   2.817
 6771SOL    HW121212   4.156   1.362   2.799
 6771SOL    HW221213   4.165   1.205   2.843
 6772SOL     OW21214   0.722   0.766   2.136
 6772SOL    HW121215   0.638   0.817   2.120
 6772SOL    HW221216   0.718   0.722   2.225
 6773SOL     OW21217   0.994   6.794   1.083
 6773SOL    HW121218   0.988   6.775   1.181
 6773SOL    HW221219   1.022   6.712   1.034
 6774SOL     OW21220   2.682   2.565   6.037
 6774SOL    HW121221   2.606   2.541   6.098
 6774SOL    HW221222   2.715   2.482   5.992
 6775SOL     OW21223   0.566   2.292   4.705
 6775SOL    HW121224   0.613   2.215   4.661
 6775SOL    HW221225   0.616   2.376   4.687
 6776SOL     OW21226   3.813   3.630   3.079
 6776SOL    HW121227   3.873   3.650   3.002
 6776SOL    HW221228   3.826   3.699   3.151
 6777SOL     OW21229   6.934   6.041   6.430
 6777SOL    HW121230   6.871   5.964   6.436
 6777SOL    HW221231   6.883   6.127   6.429
 6778SOL     OW21232   5.914   6.124   1.950
 6778SOL    HW121233   5.979   6.190   1.913
 6778SOL    HW221234   5.955   6.078   2.028
 6779SOL     OW21235   5.124   3.925   6.544
 6779SOL    HW121236   5.172   4.013   6.539
 6779SOL    HW221237   5.097   3.907   6.639
 6780SOL     OW21238   3.733   2.039   2.734
 6780SOL    HW121239   3.672   2.076   2.664
 6780SOL    HW221240   3.824   2.024   2.694
 6781SOL     OW21241   6.460   2.281   3.189
 6781SOL    HW121242   6.499   2.193   3.214
 6781SOL    HW221243   6.527   2.333   3.135
 6782SOL     OW21244   0.062   2.100   3.183
 6782SOL    HW121245   0.139   2.037   3.197
 6782SOL    HW221246   7.023   2.061   3.116
 6783SOL     OW21247   0.458   5.189   6.015
 6783SOL    HW121248   0.492   5.258   5.952
 6783SOL    HW221249   0.532   5.161   6.076
 6784SOL     OW21250   2.301   3.830   1.479
 6784SOL    HW121251   2.319   3.899   1.549
 6784SOL    HW221252   2.360   3.845   1.400
 6785SOL     OW21253   5.714   5.241   4.486
 6785SOL    HW121254   5.745   5.322   4.436
 6785SOL    HW221255   5.692   5.169   4.421
 6786SOL     OW21256   5.576   1.942   5.793
 6786SOL    HW121257   5.615   1.851   5.782
 6786SOL    HW221258   5.581   1.991   5.705
 6787SOL     OW21259   3.056   1.988   0.058
 6787SOL    HW121260   2.999   1.994   7.001
 6787SOL    HW221261   3.016   1.922   0.122
 6788SOL     OW21262   0.580   4.404   1.906
 6788SOL    HW121263   0.596   4.390   1.809
 6788SOL    HW221264   0.662   4.378   1.958
 6789SOL     OW21265   5.303   4.439   3.166
 6789SOL    HW121266   5.238   4.444   3.242
 6789SOL    HW221267   5.279   4.509   3.098
 6790SOL     OW21268   0.957   4.865   6.501
 6790SOL    HW121269   1.051   4.831   6.509
 6790SOL    HW221270   0.926   4.855   6.407
 6791SOL     OW21271   2.546   6.981   2.853
 6791SOL    HW121272   2.535   0.001   2.764
 6791SOL    HW221273   2.544   6.882   2.843
 6792SOL     OW21274   4.356   0.035   5.862
 6792SOL    HW121275   4.447   0.058   5.896
 6792SOL    HW221276   4.365   7.004   5.778
 6793SOL     OW21277   2.156   3.570   5.781
 6793SOL    HW121278   2.201   3.544   5.866
 6793SOL    HW221279   2.221   3.564   5.706
 6794SOL     OW21280   5.928   2.578   5.442
 6794SOL    HW121281   6.026   2.572   5.419
 6794SOL    HW221282   5.909   2.668   5.481
 6795SOL     OW21283   1.255   0.949   1.620
 6795SOL    HW121284   1.273   0.897   1.703
 6795SOL    HW221285   1.333   0.943   1.559
 6796SOL     OW21286   6.679   1.631   2.499
 6796SOL    HW121287   6.645   1.708   2.553
 6796SOL    HW221288   6.776   1.617   2.519
 6797SOL     OW21289   1.269   3.268   1.441
 6797SOL    HW121290   1.305   3.296   1.352
 6797SOL    HW221291   1.240   3.349   1.493
 6798SOL     OW21292   5.168   0.734   1.846
 6798SOL    HW121293   5.196   0.777   1.931
 6798SOL    HW221294   5.178   0.798   1.771
 6799SOL     OW21295   5.966   6.949   3.597
 6799SOL    HW121296   6.014   6.977   3.514
 6799SOL    HW221297   5.984   7.016   3.670
 6800SOL     OW21298   6.470   3.170   1.512
 6800SOL    HW121299   6.379   3.128   1.511
 6800SOL    HW221300   6.480   3.230   1.432
 6801SOL     OW21301   0.702   6.326   6.970
 6801SOL    HW121302   0.655   6.294   6.887
 6801SOL    HW221303   0.756   6.407   6.948
 6802SOL     OW21304   3.004   4.819   1.924
 6802SOL    HW121305   2.941   4.741   1.919
 6802SOL    HW221306   3.079   4.797   1.986
 6803SOL     OW21307   5.321   5.147   6.031
 6803SOL    HW121308   5.376   5.102   6.102
 6803SOL    HW221309   5.232   5.174   6.070
 6804SOL     OW21310   3.528   5.399   2.656
 6804SOL    HW121311   3.560   5.465   2.588
 6804SOL    HW221312   3.452   5.439   2.708
 6805SOL     OW21313   0.232   4.226   4.306
 6805SOL    HW121314   0.320   4.210   4.350
 6805SOL    HW221315   0.244   4.224   4.207
 6806SOL     OW21316   6.193   3.069   1.634
 6806SOL    HW121317   6.194   2.973   1.607
 6806SOL    HW221318   6.123   3.118   1.582
 6807SOL     OW21319   3.210   3.901   2.150
 6807SOL    HW121320   3.153   3.820   2.162
 6807SOL    HW221321   3.161   3.969   2.095
 6808SOL     OW21322   3.432   0.898   4.179
 6808SOL    HW121323   3.492   0.852   4.113
 6808SOL    HW221324   3.343   0.853   4.181
 6809SOL     OW21325   5.972   2.861   6.667
 6809SOL    HW121326   6.000   2.931   6.734
 6809SOL    HW221327   5.910   2.902   6.600
 6810SOL     OW21328   2.718   0.720   4.459
 6810SOL    HW121329   2.736   0.752   4.366
 6810SOL    HW221330   2.659   0.786   4.506
 6811SOL     OW21331   5.889   0.898   0.213
 6811SOL    HW121332   5.841   0.945   0.287
 6811SOL    HW221333   5.824   0.871   0.142
 6812SOL     OW21334   3.644   4.188   5.482
 6812SOL    HW121335   3.667   4.274   5.437
 6812SOL    HW221336   3.687   4.112   5.433
 6813SOL     OW21337   0.218   3.368   2.651
 6813SOL    HW121338   0.270   3.451   2.632
 6813SOL    HW221339   0.218   3.349   2.749
 6814SOL     OW21340   5.535   0.605   0.358
 6814SOL    HW121341   5.599   0.554   0.416
 6814SOL    HW221342   5.444   0.601   0.397
 6815SOL     OW21343   0.965   5.366   6.274
 6815SOL    HW121344   0.957   5.355   6.373
 6815SOL    HW221345   1.061   5.364   6.247
 6816SOL     OW21346   7.005   0.334   3.642
 6816SOL    HW121347   6.931   0.366   3.701
 6816SOL    HW221348   7.013   0.235   3.649
 6817SOL     OW21349   4.162   1.936   1.277
 6817SOL    HW121350   4.152   1.953   1.179
 6817SOL    HW221351   4.120   2.012   1.327
 6818SOL     OW21352   1.299   6.534   5.060
 6818SOL    HW121353   1.229   6.489   5.005
 6818SOL    HW221354   1.381   6.476   5.063
 6819SOL     OW21355   4.525   4.523   1.843
 6819SOL    HW121356   4.493   4.507   1.750
 6819SOL    HW221357   4.547   4.435   1.886
 6820SOL     OW21358   2.615   5.037   1.703
 6820SOL    HW121359   2.658   4.969   1.763
 6820SOL    HW221360   2.557   5.097   1.757
 6821SOL     OW21361   3.576   2.766   5.215
 6821SOL    HW121362   3.526   2.777   5.129
 6821SOL    HW221363   3.537   2.690   5.266
 6822SOL     OW21364   5.913   3.360   5.589
 6822SOL    HW121365   5.885   3.431   5.525
 6822SOL    HW221366   5.906   3.394   5.683
 6823SOL     OW21367   0.007   2.692   5.463
 6823SOL    HW121368   6.997   2.646   5.546
 6823SOL    HW221369   7.016   2.633   5.384
 6824SOL     OW21370   0.746   0.012   5.551
 6824SOL    HW121371   0.735   6.970   5.625
 6824SOL    HW221372   0.788   6.990   5.473
 6825SOL     OW21373   4.135   4.327   0.704
 6825SOL    HW121374   4.151   4.379   0.788
 6825SOL    HW221375   4.053   4.271   0.715
 6826SOL     OW21376   6.361   6.871   3.796
 6826SOL    HW121377   6.330   6.965   3.779
 6826SOL    HW221378   6.283   6.815   3.824
 6827SOL     OW21379   4.766   5.961   5.095
 6827SOL    HW121380   4.687   5.995   5.044
 6827SOL    HW221381   4.762   5.862   5.101
 6828SOL     OW21382   3.376   2.007   2.349
 6828SOL    HW121383   3.288   2.033   2.308
 6828SOL    HW221384   3.424   1.944   2.288
 6829SOL     OW21385   3.863   0.143   3.033
 6829SOL    HW121386   3.795   0.094   3.088
 6829SOL    HW221387   3.929   0.187   3.094
 6830SOL     OW21388   4.444   4.905   2.687
 6830SOL    HW121389   4.528   4.887   2.737
 6830SOL    HW221390   4.465   4.952   2.601
 6831SOL     OW21391   1.512   2.015   6.060
 6831SOL    HW121392   1.571   1.949   6.012
 6831SOL    HW221393   1.496   1.983   6.154
 6832SOL     OW21394   2.099   2.423   6.523
 6832SOL    HW121395   2.187   2.391   6.558
 6832SOL    HW221396   2.032   2.426   6.597
 6833SOL     OW21397   3.713   5.569   5.991
 6833SOL    HW121398   3.716   5.501   6.065
 6833SOL    HW221399   3.760   5.533   5.911
 6834SOL     OW21400   6.534   6.588   6.700
 6834SOL    HW121401   6.474   6.597   6.779
 6834SOL    HW221402   6.582   6.500   6.704
 6835SOL     OW21403   2.546   1.126   4.502
 6835SOL    HW121404   2.594   1.098   4.419
 6835SOL    HW221405   2.594   1.202   4.544
 6836SOL     OW21406   1.518   4.915   6.660
 6836SOL    HW121407   1.613   4.913   6.691
 6836SOL    HW221408   1.458   4.897   6.737
 6837SOL     OW21409   6.473   0.693   2.606
 6837SOL    HW121410   6.478   0.751   2.524
 6837SOL    HW221411   6.521   0.607   2.589
 6838SOL     OW21412   3.016   4.215   5.291
 6838SOL    HW121413   3.020   4.135   5.231
 6838SOL    HW221414   2.932   4.266   5.272
 6839SOL     OW21415   6.291   3.124   4.495
 6839SOL    HW121416   6.243   3.038   4.506
 6839SOL    HW221417   6.371   3.126   4.555
 6840SOL     OW21418   2.914   6.581   4.868
 6840SOL    HW121419   3.013   6.579   4.854
 6840SOL    HW221420   2.880   6.487   4.874
 6841SOL     OW21421   5.217   6.699   1.295
 6841SOL    HW121422   5.245   6.603   1.284
 6841SOL    HW221423   5.161   6.726   1.217
 6842SOL     OW21424   0.075   3.545   4.643
 6842SOL    HW121425   0.150   3.481   4.659
 6842SOL    HW221426   0.101   3.609   4.571
 6843SOL     OW21427   3.970   2.085   1.396
 6843SOL    HW121428   4.025   2.124   1.470
 6843SOL    HW221429   3.904   2.153   1.365
 6844SOL     OW21430   3.607   5.302   4.536
 6844SOL    HW121431   3.533   5.337   4.478
 6844SOL    HW221432   3.568   5.250   4.612
 6845SOL     OW21433   4.197   4.497   0.907
 6845SOL    HW121434   4.279   4.517   0.853
 6845SOL    HW221435   4.144   4.581   0.920
 6846SOL     OW21436   3.138   3.089   2.368
 6846SOL    HW121437   3.073   3.123   2.301
 6846SOL    HW221438   3.203   3.027   2.324
 6847SOL     OW21439   6.155   3.591   1.954
 6847SOL    HW121440   6.057   3.593   1.936
 6847SOL    HW221441   6.171   3.575   2.051
 6848SOL     OW21442   6.911   6.807   3.557
 6848SOL    HW121443   6.860   6.751   3.622
 6848SOL    HW221444   7.005   6.773   3.550
 6849SOL     OW21445   3.561   6.649   3.943
 6849SOL    HW121446   3.509   6.581   3.995
 6849SOL    HW221447   3.583   6.727   4.002
 6850SOL     OW21448   5.435   3.342   1.154
 6850SOL    HW121449   5.340   3.320   1.134
 6850SOL    HW221450   5.443   3.373   1.249
 6851SOL     OW21451   1.845   5.931   5.414
 6851SOL    HW121452   1.924   5.878   5.383
 6851SOL    HW221453   1.852   6.025   5.379
 6852SOL     OW21454   0.428   4.535   2.092
 6852SOL    HW121455   0.502   4.487   2.044
 6852SOL    HW221456   0.458   4.557   2.185
 6853SOL     OW21457   6.576   3.952   5.912
 6853SOL    HW121458   6.650   3.884   5.918
 6853SOL    HW221459   6.544   3.975   6.004
 6854SOL     OW21460   0.406   1.612   6.364
 6854SOL    HW121461   0.431   1.682   6.430
 6854SOL    HW221462   0.345   1.545   6.407
 6855SOL     OW21463   3.343   5.999   1.658
 6855SOL    HW121464   3.298   5.923   1.704
 6855SOL    HW221465   3.442   5.991   1.671
 6856SOL     OW21466   6.859   4.266   5.471
 6856SOL    HW121467   6.955   4.290   5.487
 6856SOL    HW221468   6.819   4.232   5.556
 6857SOL     OW21469   4.732   1.264   5.804
 6857SOL    HW121470   4.636   1.289   5.819
 6857SOL    HW221471   4.762   1.298   5.715
 6858SOL     OW21472   3.868   3.119   5.046
 6858SOL    HW121473   3.850   3.090   4.952
 6858SOL    HW221474   3.798   3.082   5.107
 6859SOL     OW21475   3.418   0.264   0.141
 6859SOL    HW121476   3.442   0.176   0.100
 6859SOL    HW221477   3.482   0.285   0.215
 6860SOL     OW21478   4.865   4.727   0.405
 6860SOL    HW121479   4.835   4.731   0.500
 6860SOL    HW221480   4.874   4.632   0.376
 6861SOL     OW21481   6.060   4.367   0.931
 6861SOL    HW121482   5.999   4.385   0.854
 6861SOL    HW221483   6.054   4.441   0.997
 6862SOL     OW21484   3.716   5.443   3.646
 6862SOL    HW121485   3.658   5.524   3.633
 6862SOL    HW221486   3.776   5.458   3.725
 6863SOL     OW21487   0.017   2.907   4.192
 6863SOL    HW121488   0.064   2.882   4.107
 6863SOL    HW221489   6.987   2.990   4.176
 6864SOL     OW21490   4.339   6.019   5.340
 6864SOL    HW121491   4.382   5.930   5.351
 6864SOL    HW221492   4.246   6.008   5.305
 6865SOL     OW21493   6.089   3.463   4.273
 6865SOL    HW121494   6.077   3.543   4.214
 6865SOL    HW221495   6.037   3.476   4.357
 6866SOL     OW21496   0.541   3.537   2.196
 6866SOL    HW121497   0.482   3.527   2.116
 6866SOL    HW221498   0.604   3.613   2.182
 6867SOL     OW21499   2.310   4.184   2.232
 6867SOL    HW121500   2.339   4.277   2.208
 6867SOL    HW221501   2.382   4.120   2.209
 6868SOL     OW21502   2.178   5.322   5.090
 6868SOL    HW121503   2.267   5.289   5.061
 6868SOL    HW221504   2.112   5.247   5.091
 6869SOL     OW21505   5.947   3.890   5.646
 6869SOL    HW121506   6.023   3.884   5.581
 6869SOL    HW221507   5.950   3.978   5.693
 6870SOL     OW21508   5.173   4.300   2.895
 6870SOL    HW121509   5.141   4.296   2.800
 6870SOL    HW221510   5.208   4.210   2.923
 6871SOL     OW21511   5.250   0.155   2.095
 6871SOL    HW121512   5.225   0.096   2.172
 6871SOL    HW221513   5.236   0.106   2.009
 6872SOL     OW21514   2.904   3.516   6.750
 6872SOL    HW121515   2.872   3.602   6.711
 6872SOL    HW221516   2.999   3.501   6.723
 6873SOL     OW21517   4.800   4.382   5.936
 6873SOL    HW121518   4.735   4.369   5.861
 6873SOL    HW221519   4.874   4.442   5.906
 6874SOL     OW21520   0.768   2.703   5.582
 6874SOL    HW121521   0.836   2.636   5.552
 6874SOL    HW221522   0.812   2.792   5.593
 6875SOL     OW21523   2.699   1.950   3.915
 6875SOL    HW121524   2.706   2.027   3.852
 6875SOL    HW221525   2.667   1.869   3.867
 6876SOL     OW21526   3.531   5.774   6.318
 6876SOL    HW121527   3.431   5.781   6.311
 6876SOL    HW221528   3.574   5.827   6.245
 6877SOL     OW21529   2.584   4.557   6.735
 6877SOL    HW121530   2.568   4.474   6.682
 6877SOL    HW221531   2.549   4.637   6.685
 6878SOL     OW21532   1.534   1.782   5.071
 6878SOL    HW121533   1.517   1.804   4.975
 6878SOL    HW221534   1.451   1.800   5.124
 6879SOL     OW21535   1.008   1.655   5.928
 6879SOL    HW121536   0.992   1.565   5.970
 6879SOL    HW221537   0.930   1.715   5.947
 6880SOL     OW21538   1.836   4.480   4.746
 6880SOL    HW121539   1.747   4.435   4.743
 6880SOL    HW221540   1.843   4.534   4.830
 6881SOL     OW21541   6.468   4.418   1.253
 6881SOL    HW121542   6.490   4.516   1.257
 6881SOL    HW221543   6.372   4.405   1.277
 6882SOL     OW21544   1.959   6.906   5.373
 6882SOL    HW121545   1.944   6.970   5.298
 6882SOL    HW221546   2.055   6.906   5.399
 6883SOL     OW21547   3.241   5.521   1.726
 6883SOL    HW121548   3.209   5.430   1.751
 6883SOL    HW221549   3.330   5.538   1.769
 6884SOL     OW21550   2.993   4.847   3.004
 6884SOL    HW121551   3.063   4.919   2.997
 6884SOL    HW221552   2.959   4.843   3.097
 6885SOL     OW21553   3.307   5.391   4.695
 6885SOL    HW121554   3.272   5.379   4.602
 6885SOL    HW221555   3.372   5.318   4.716
 6886SOL     OW21556   5.730   2.233   3.153
 6886SOL    HW121557   5.694   2.162   3.093
 6886SOL    HW221558   5.681   2.232   3.240
 6887SOL     OW21559   5.674   0.698   4.930
 6887SOL    HW121560   5.744   0.679   5.000
 6887SOL    HW221561   5.679   0.627   4.859
 6888SOL     OW21562   5.809   5.993   4.664
 6888SOL    HW121563   5.866   5.936   4.723
 6888SOL    HW221564   5.848   5.995   4.572
 6889SOL     OW21565   1.622   3.956   5.637
 6889SOL    HW121566   1.676   3.950   5.553
 6889SOL    HW221567   1.661   3.896   5.707
 6890SOL     OW21568   2.126   0.767   0.385
 6890SOL    HW121569   2.226   0.766   0.384
 6890SOL    HW221570   2.091   0.678   0.414
 6891SOL     OW21571   3.470   4.910   4.062
 6891SOL    HW121572   3.514   4.973   4.126
 6891SOL    HW221573   3.476   4.947   3.969
 6892SOL     OW21574   3.802   0.764   4.013
 6892SOL    HW121575   3.777   0.845   3.960
 6892SOL    HW221576   3.722   0.705   4.023
 6893SOL     OW21577   5.679   6.499   2.131
 6893SOL    HW121578   5.628   6.584   2.142
 6893SOL    HW221579   5.616   6.423   2.113
 6894SOL     OW21580   6.203   4.636   6.352
 6894SOL    HW121581   6.156   4.692   6.284
 6894SOL    HW221582   6.168   4.658   6.443
 6895SOL     OW21583   4.321   5.760   6.236
 6895SOL    HW121584   4.281   5.749   6.145
 6895SOL    HW221585   4.382   5.684   6.256
 6896SOL     OW21586   4.287   0.185   3.136
 6896SOL    HW121587   4.294   0.104   3.195
 6896SOL    HW221588   4.379   0.219   3.115
 6897SOL     OW21589   3.480   2.055   0.454
 6897SOL    HW121590   3.399   2.066   0.397
 6897SOL    HW221591   3.452   2.050   0.550
 6898SOL     OW21592   4.263   1.628   2.768
 6898SOL    HW121593   4.189   1.563   2.756
 6898SOL    HW221594   4.349   1.579   2.785
 6899SOL     OW21595   5.306   6.247   0.190
 6899SOL    HW121596   5.318   6.334   0.238
 6899SOL    HW221597   5.374   6.240   0.116
 6900SOL     OW21598   4.037   1.202   5.759
 6900SOL    HW121599   4.008   1.273   5.694
 6900SOL    HW221600   3.965   1.188   5.826
 6901SOL     OW21601   1.351   0.705   0.062
 6901SOL    HW121602   1.316   0.637   0.127
 6901SOL    HW221603   1.326   0.797   0.092
 6902SOL     OW21604   6.460   5.258   1.090
 6902SOL    HW121605   6.420   5.276   1.000
 6902SOL    HW221606   6.464   5.159   1.105
 6903SOL     OW21607   4.329   3.526   1.140
 6903SOL    HW121608   4.245   3.554   1.094
 6903SOL    HW221609   4.388   3.606   1.153
 6904SOL     OW21610   0.433   1.921   2.923
 6904SOL    HW121611   0.464   1.826   2.925
 6904SOL    HW221612   0.446   1.962   3.013
 6905SOL     OW21613   4.353   5.359   1.144
 6905SOL    HW121614   4.266   5.401   1.118
 6905SOL    HW221615   4.343   5.260   1.147
 6906SOL     OW21616   4.534   6.899   3.385
 6906SOL    HW121617   4.576   6.899   3.294
 6906SOL    HW221618   4.531   6.806   3.421
 6907SOL     OW21619   3.480   1.970   1.642
 6907SOL    HW121620   3.570   1.980   1.684
 6907SOL    HW221621   3.483   2.007   1.549
 6908SOL     OW21622   0.811   6.665   6.574
 6908SOL    HW121623   0.855   6.667   6.484
 6908SOL    HW221624   0.777   6.572   6.592
 6909SOL     OW21625   4.834   3.419   6.888
 6909SOL    HW121626   4.778   3.338   6.874
 6909SOL    HW221627   4.796   3.496   6.837
 6910SOL     OW21628   6.811   1.322   2.286
 6910SOL    HW121629   6.902   1.357   2.264
 6910SOL    HW221630   6.805   1.306   2.385
 6911SOL     OW21631   3.884   0.809   4.963
 6911SOL    HW121632   3.975   0.768   4.969
 6911SOL    HW221633   3.816   0.736   4.953
 6912SOL     OW21634   4.812   5.471   0.850
 6912SOL    HW121635   4.798   5.564   0.883
 6912SOL    HW221636   4.895   5.433   0.891
 6913SOL     OW21637   5.584   5.420   5.356
 6913SOL    HW121638   5.557   5.324   5.344
 6913SOL    HW221639   5.607   5.459   5.267
 6914SOL     OW21640   5.937   4.941   0.568
 6914SOL    HW121641   5.838   4.959   0.568
 6914SOL    HW221642   5.970   4.941   0.473
 6915SOL     OW21643   0.869   5.485   1.071
 6915SOL    HW121644   0.912   5.398   1.044
 6915SOL    HW221645   0.776   5.467   1.104
 6916SOL     OW21646   6.285   1.194   6.898
 6916SOL    HW121647   6.292   1.095   6.909
 6916SOL    HW221648   6.288   1.216   6.800
 6917SOL     OW21649   4.564   6.899   6.279
 6917SOL    HW121650   4.483   6.923   6.226
 6917SOL    HW221651   4.537   6.843   6.357
 6918SOL     OW21652   1.954   2.926   3.340
 6918SOL    HW121653   1.942   3.011   3.288
 6918SOL    HW221654   2.029   2.938   3.406
 6919SOL     OW21655   1.771   6.645   3.423
 6919SOL    HW121656   1.740   6.680   3.335
 6919SOL    HW221657   1.844   6.703   3.458
 6920SOL     OW21658   5.027   6.042   4.900
 6920SOL    HW121659   4.991   5.954   4.931
 6920SOL    HW221660   4.994   6.115   4.960
 6921SOL     OW21661   0.338   0.422   2.964
 6921SOL    HW121662   0.362   0.375   2.879
 6921SOL    HW221663   0.421   0.441   3.016
 6922SOL     OW21664   2.090   5.813   0.722
 6922SOL    HW121665   2.038   5.881   0.670
 6922SOL    HW221666   2.049   5.723   0.709
 6923SOL     OW21667   4.626   6.657   4.193
 6923SOL    HW121668   4.695   6.726   4.175
 6923SOL    HW221669   4.649   6.609   4.278
 6924SOL     OW21670   0.211   5.791   1.441
 6924SOL    HW121671   0.296   5.802   1.391
 6924SOL    HW221672   0.152   5.726   1.394
 6925SOL     OW21673   5.896   6.053   2.479
 6925SOL    HW121674   5.879   6.014   2.389
 6925SOL    HW221675   5.830   6.017   2.545
 6926SOL     OW21676   2.989   3.481   4.983
 6926SOL    HW121677   2.998   3.421   4.904
 6926SOL    HW221678   2.964   3.427   5.063
 6927SOL     OW21679   4.471   3.804   5.668
 6927SOL    HW121680   4.482   3.748   5.751
 6927SOL    HW221681   4.558   3.808   5.619
 6928SOL     OW21682   5.957   0.133   6.436
 6928SOL    HW121683   5.952   0.047   6.487
 6928SOL    HW221684   6.024   0.193   6.479
 6929SOL     OW21685   3.212   5.264   0.325
 6929SOL    HW121686   3.119   5.301   0.336
 6929SOL    HW221687   3.211   5.166   0.346
 6930SOL     OW21688   0.869   5.954   3.238
 6930SOL    HW121689   0.840   6.010   3.316
 6930SOL    HW221690   0.820   5.984   3.156
 6931SOL     OW21691   1.788   1.345   1.233
 6931SOL    HW121692   1.881   1.337   1.269
 6931SOL    HW221693   1.781   1.428   1.178
 6932SOL     OW21694   2.678   3.054   0.988
 6932SOL    HW121695   2.689   2.954   0.983
 6932SOL    HW221696   2.604   3.082   0.927
 6933SOL     OW21697   3.750   6.581   6.268
 6933SOL    HW121698   3.705   6.648   6.327
 6933SOL    HW221699   3.804   6.518   6.324
 6934SOL     OW21700   5.770   3.607   6.509
 6934SOL    HW121701   5.819   3.520   6.504
 6934SOL    HW221702   5.835   3.682   6.498
 6935SOL     OW21703   4.446   5.621   3.270
 6935SOL    HW121704   4.541   5.654   3.267
 6935SOL    HW221705   4.434   5.548   3.203
 6936SOL     OW21706   1.622   4.582   1.247
 6936SOL    HW121707   1.711   4.565   1.289
 6936SOL    HW221708   1.579   4.661   1.292
 6937SOL     OW21709   4.740   6.892   5.339
 6937SOL    HW121710   4.826   6.841   5.344
 6937SOL    HW221711   4.760   6.990   5.332
 6938SOL     OW21712   4.931   2.208   4.965
 6938SOL    HW121713   4.955   2.113   4.946
 6938SOL    HW221714   4.923   2.221   5.064
 6939SOL     OW21715   1.153   4.181   2.456
 6939SOL    HW121716   1.105   4.153   2.539
 6939SOL    HW221717   1.231   4.238   2.479
 6940SOL     OW21718   4.279   0.703   5.175
 6940SOL    HW121719   4.360   0.645   5.174
 6940SOL    HW221720   4.210   0.663   5.235
 6941SOL     OW21721   3.771   2.900   3.062
 6941SOL    HW121722   3.730   2.833   3.124
 6941SOL    HW221723   3.703   2.969   3.037
 6942SOL     OW21724   6.523   1.615   0.282
 6942SOL    HW121725   6.564   1.663   0.360
 6942SOL    HW221726   6.536   1.670   0.199
 6943SOL     OW21727   4.860   6.221   6.366
 6943SOL    HW121728   4.873   6.312   6.405
 6943SOL    HW221729   4.840   6.229   6.268
 6944SOL     OW21730   1.808   6.540   5.992
 6944SOL    HW121731   1.860   6.528   5.907
 6944SOL    HW221732   1.870   6.528   6.070
 6945SOL     OW21733   5.268   2.783   6.299
 6945SOL    HW121734   5.273   2.789   6.199
 6945SOL    HW221735   5.332   2.713   6.331
 6946SOL     OW21736   5.996   4.268   3.291
 6946SOL    HW121737   6.067   4.293   3.226
 6946SOL    HW221738   6.002   4.170   3.311
 6947SOL     OW21739   3.397   6.751   2.713
 6947SOL    HW121740   3.351   6.839   2.702
 6947SOL    HW221741   3.464   6.759   2.788
 6948SOL     OW21742   4.035   1.416   5.574
 6948SOL    HW121743   3.976   1.472   5.516
 6948SOL    HW221744   4.105   1.474   5.616
 6949SOL     OW21745   5.465   0.637   2.540
 6949SOL    HW121746   5.416   0.553   2.518
 6949SOL    HW221747   5.537   0.618   2.607
 6950SOL     OW21748   1.719   0.827   3.346
 6950SOL    HW121749   1.718   0.926   3.334
 6950SOL    HW221750   1.712   0.804   3.443
 6951SOL     OW21751   6.170   4.950   5.828
 6951SOL    HW121752   6.202   4.880   5.892
 6951SOL    HW221753   6.091   4.998   5.867
 6952SOL     OW21754   0.558   4.884   4.609
 6952SOL    HW121755   0.555   4.907   4.512
 6952SOL    HW221756   0.564   4.785   4.621
 6953SOL     OW21757   5.257   1.451   4.909
 6953SOL    HW121758   5.271   1.550   4.904
 6953SOL    HW221759   5.306   1.406   4.834
 6954SOL     OW21760   1.005   4.215   2.938
 6954SOL    HW121761   1.069   4.275   2.987
 6954SOL    HW221762   0.912   4.253   2.944
 6955SOL     OW21763   6.531   5.816   2.284
 6955SOL    HW121764   6.505   5.907   2.317
 6955SOL    HW221765   6.507   5.807   2.188
 6956SOL     OW21766   3.321   4.669   1.742
 6956SOL    HW121767   3.406   4.632   1.779
 6956SOL    HW221768   3.287   4.742   1.802
 6957SOL     OW21769   0.723   4.366   0.289
 6957SOL    HW121770   0.720   4.317   0.202
 6957SOL    HW221771   0.641   4.423   0.298
 6958SOL     OW21772   2.488   3.946   6.207
 6958SOL    HW121773   2.405   3.914   6.251
 6958SOL    HW221774   2.469   4.029   6.155
 6959SOL     OW21775   3.124   1.204   4.165
 6959SOL    HW121776   3.087   1.247   4.247
 6959SOL    HW221777   3.115   1.267   4.087
 6960SOL     OW21778   0.183   5.058   0.295
 6960SOL    HW121779   0.182   4.962   0.265
 6960SOL    HW221780   0.137   5.065   0.384
 6961SOL     OW21781   6.884   1.491   2.943
 6961SOL    HW121782   6.975   1.486   2.985
 6961SOL    HW221783   6.891   1.471   2.845
 6962SOL     OW21784   4.133   3.806   0.450
 6962SOL    HW121785   4.112   3.847   0.538
 6962SOL    HW221786   4.079   3.724   0.437
 6963SOL     OW21787   6.656   5.787   1.977
 6963SOL    HW121788   6.567   5.825   2.003
 6963SOL    HW221789   6.643   5.721   1.903
 6964SOL     OW21790   4.149   6.537   5.143
 6964SOL    HW121791   4.204   6.588   5.209
 6964SOL    HW221792   4.085   6.477   5.191
 6965SOL     OW21793   6.540   2.767   5.911
 6965SOL    HW121794   6.462   2.738   5.966
 6965SOL    HW221795   6.603   2.691   5.899
 6966SOL     OW21796   4.723   2.792   4.132
 6966SOL    HW121797   4.795   2.725   4.113
 6966SOL    HW221798   4.637   2.762   4.093
 6967SOL     OW21799   2.274   1.129   6.288
 6967SOL    HW121800   2.250   1.052   6.229
 6967SOL    HW221801   2.311   1.094   6.374
 6968SOL     OW21802   5.118   6.710   2.506
 6968SOL    HW121803   5.062   6.786   2.475
 6968SOL    HW221804   5.213   6.740   2.514
 6969SOL     OW21805   3.408   1.816   1.136
 6969SOL    HW121806   3.460   1.858   1.210
 6969SOL    HW221807   3.324   1.868   1.119
 6970SOL     OW21808   4.881   4.108   0.525
 6970SOL    HW121809   4.909   4.178   0.459
 6970SOL    HW221810   4.846   4.028   0.476
 6971SOL     OW21811   5.224   0.853   2.092
 6971SOL    HW121812   5.289   0.898   2.155
 6971SOL    HW221813   5.150   0.917   2.071
 6972SOL     OW21814   6.165   4.803   4.473
 6972SOL    HW121815   6.242   4.747   4.442
 6972SOL    HW221816   6.102   4.817   4.397
 6973SOL     OW21817   2.182   4.813   3.751
 6973SOL    HW121818   2.251   4.862   3.697
 6973SOL    HW221819   2.104   4.874   3.768
 6974SOL     OW21820   3.391   4.129   4.695
 6974SOL    HW121821   3.295   4.101   4.697
 6974SOL    HW221822   3.437   4.095   4.776
 6975SOL     OW21823   3.695   1.362   5.585
 6975SOL    HW121824   3.684   1.268   5.616
 6975SOL    HW221825   3.738   1.416   5.658
 6976SOL     OW21826   2.176   5.117   6.194
 6976SOL    HW121827   2.083   5.116   6.158
 6976SOL    HW221828   2.236   5.168   6.132
 6977SOL     OW21829   3.972   2.162   3.007
 6977SOL    HW121830   3.905   2.129   2.940
 6977SOL    HW221831   3.981   2.096   3.081
 6978SOL     OW21832   6.300   0.417   2.904
 6978SOL    HW121833   6.393   0.449   2.888
 6978SOL    HW221834   6.241   0.494   2.928
 6979SOL     OW21835   0.634   4.648   2.686
 6979SOL    HW121836   0.656   4.568   2.630
 6979SOL    HW221837   0.669   4.634   2.779
 6980SOL     OW21838   3.567   1.035   4.574
 6980SOL    HW121839   3.592   1.000   4.483
 6980SOL    HW221840   3.497   1.106   4.564
 6981SOL     OW21841   2.888   5.127   6.476
 6981SOL    HW121842   2.868   5.031   6.457
 6981SOL    HW221843   2.898   5.140   6.574
 6982SOL     OW21844   0.237   6.845   4.544
 6982SOL    HW121845   0.225   6.793   4.460
 6982SOL    HW221846   0.325   6.822   4.585
 6983SOL     OW21847   6.320   0.612   3.687
 6983SOL    HW121848   6.227   0.595   3.721
 6983SOL    HW221849   6.369   0.671   3.751
 6984SOL     OW21850   1.731   1.349   6.161
 6984SOL    HW121851   1.770   1.433   6.124
 6984SOL    HW221852   1.761   1.271   6.107
 6985SOL     OW21853   5.575   5.876   1.608
 6985SOL    HW121854   5.536   5.833   1.689
 6985SOL    HW221855   5.536   5.834   1.526
 6986SOL     OW21856   2.105   6.815   4.879
 6986SOL    HW121857   2.146   6.794   4.791
 6986SOL    HW221858   2.041   6.891   4.869
 6987SOL     OW21859   0.171   3.382   6.490
 6987SOL    HW121860   0.166   3.473   6.531
 6987SOL    HW221861   0.184   3.391   6.392
 6988SOL     OW21862   5.335   0.499   4.016
 6988SOL    HW121863   5.306   0.581   3.965
 6988SOL    HW221864   5.273   0.424   3.996
 6989SOL     OW21865   1.727   2.440   3.869
 6989SOL    HW121866   1.648   2.379   3.871
 6989SOL    HW221867   1.775   2.437   3.956
 6990SOL     OW21868   3.697   3.170   0.550
 6990SOL    HW121869   3.732   3.228   0.476
 6990SOL    HW221870   3.742   3.194   0.636
 6991SOL     OW21871   3.948   4.289   5.510
 6991SOL    HW121872   3.884   4.363   5.531
 6991SOL    HW221873   3.982   4.250   5.595
 6992SOL     OW21874   5.347   6.436   4.650
 6992SOL    HW121875   5.310   6.355   4.695
 6992SOL    HW221876   5.443   6.448   4.677
 6993SOL     OW21877   0.624   0.325   3.079
 6993SOL    HW121878   0.651   0.298   2.987
 6993SOL    HW221879   0.591   0.245   3.130
 6994SOL     OW21880   1.386   2.707   6.800
 6994SOL    HW121881   1.361   2.610   6.803
 6994SOL    HW221882   1.324   2.754   6.737
 6995SOL     OW21883   0.433   5.673   2.949
 6995SOL    HW121884   0.375   5.594   2.969
 6995SOL    HW221885   0.526   5.642   2.933
 6996SOL     OW21886   2.411   0.043   5.876
 6996SOL    HW121887   2.328   7.014   5.861
 6996SOL    HW221888   2.403   0.132   5.831
 6997SOL     OW21889   5.031   0.164   4.674
 6997SOL    HW121890   4.963   0.235   4.684
 6997SOL    HW221891   5.035   0.108   4.757
 6998SOL     OW21892   1.318   2.681   3.252
 6998SOL    HW121893   1.349   2.625   3.175
 6998SOL    HW221894   1.396   2.701   3.312
 6999SOL     OW21895   3.688   2.032   6.284
 6999SOL    HW121896   3.635   2.073   6.210
 6999SOL    HW221897   3.625   2.001   6.356
 7000SOL     OW21898   0.375   6.355   1.908
 7000SOL    HW121899   0.333   6.435   1.864
 7000SOL    HW221900   0.303   6.293   1.938
 7001SOL     OW21901   2.848   2.842   5.856
 7001SOL    HW121902   2.883   2.812   5.945
 7001SOL    HW221903   2.921   2.888   5.806
 7002SOL     OW21904   1.330   4.619   3.229
 7002SOL    HW121905   1.391   4.625   3.150
 7002SOL    HW221906   1.237   4.645   3.202
 7003SOL     OW21907   2.576   5.901   0.563
 7003SOL    HW121908   2.523   5.923   0.645
 7003SOL    HW221909   2.659   5.957   0.560
 7004SOL     OW21910   1.302   4.354   1.148
 7004SOL    HW121911   1.383   4.333   1.202
 7004SOL    HW221912   1.260   4.438   1.182
 7005SOL     OW21913   5.193   6.612   5.491
 7005SOL    HW121914   5.133   6.664   5.551
 7005SOL    HW221915   5.283   6.602   5.535
 7006SOL     OW21916   4.286   4.776   4.906
 7006SOL    HW121917   4.300   4.690   4.955
 7006SOL    HW221918   4.370   4.830   4.910
 7007SOL     OW21919   4.992   5.122   2.655
 7007SOL    HW121920   5.055   5.057   2.697
 7007SOL    HW221921   4.898   5.097   2.679
 7008SOL     OW21922   0.569   4.981   4.021
 7008SOL    HW121923   0.562   5.066   4.073
 7008SOL    HW221924   0.663   4.949   4.020
 7009SOL     OW21925   0.511   4.792   2.253
 7009SOL    HW121926   0.514   4.886   2.219
 7009SOL    HW221927   0.419   4.771   2.286
 7010SOL     OW21928   4.013   5.048   6.446
 7010SOL    HW121929   3.940   5.115   6.433
 7010SOL    HW221930   4.008   5.009   6.538
 7011SOL     OW21931   2.853   1.140   5.064
 7011SOL    HW121932   2.774   1.187   5.104
 7011SOL    HW221933   2.906   1.204   5.009
 7012SOL     OW21934   1.013   0.927   2.157
 7012SOL    HW121935   0.923   0.885   2.172
 7012SOL    HW221936   1.005   1.026   2.159
 7013SOL     OW21937   0.904   0.566   2.062
 7013SOL    HW121938   0.979   0.589   2.123
 7013SOL    HW221939   0.828   0.630   2.077
 7014SOL     OW21940   2.458   4.553   1.522
 7014SOL    HW121941   2.541   4.517   1.565
 7014SOL    HW221942   2.385   4.485   1.531
 7015SOL     OW21943   5.145   2.862   2.591
 7015SOL    HW121944   5.072   2.807   2.631
 7015SOL    HW221945   5.106   2.932   2.531
 7016SOL     OW21946   3.718   5.387   1.466
 7016SOL    HW121947   3.734   5.455   1.394
 7016SOL    HW221948   3.738   5.295   1.430
 7017SOL     OW21949   3.551   1.186   3.834
 7017SOL    HW121950   3.619   1.216   3.901
 7017SOL    HW221951   3.471   1.150   3.882
 7018SOL     OW21952   0.616   5.532   4.368
 7018SOL    HW121953   0.600   5.565   4.275
 7018SOL    HW221954   0.529   5.517   4.415
 7019SOL     OW21955   1.954   6.107   0.147
 7019SOL    HW121956   2.010   6.031   0.115
 7019SOL    HW221957   1.881   6.124   0.081
 7020SOL     OW21958   6.200   6.375   6.160
 7020SOL    HW121959   6.208   6.362   6.061
 7020SOL    HW221960   6.261   6.449   6.189
 7021SOL     OW21961   2.799   1.375   5.842
 7021SOL    HW121962   2.813   1.471   5.817
 7021SOL    HW221963   2.725   1.369   5.909
 7022SOL     OW21964   5.111   4.926   0.009
 7022SOL    HW121965   5.162   5.012   0.003
 7022SOL    HW221966   5.070   4.918   0.100
 7023SOL     OW21967   6.143   3.980   2.747
 7023SOL    HW121968   6.073   3.940   2.688
 7023SOL    HW221969   6.110   3.979   2.842
 7024SOL     OW21970   0.557   5.835   0.521
 7024SOL    HW121971   0.539   5.899   0.447
 7024SOL    HW221972   0.472   5.816   0.570
 7025SOL     OW21973   2.308   1.303   5.681
 7025SOL    HW121974   2.267   1.306   5.772
 7025SOL    HW221975   2.404   1.275   5.689
 7026SOL     OW21976   4.241   2.304   0.898
 7026SOL    HW121977   4.337   2.326   0.915
 7026SOL    HW221978   4.235   2.215   0.853
 7027SOL     OW21979   4.295   6.841   4.392
 7027SOL    HW121980   4.243   6.797   4.466
 7027SOL    HW221981   4.279   6.792   4.307
 7028SOL     OW21982   3.683   0.426   4.399
 7028SOL    HW121983   3.700   0.360   4.473
 7028SOL    HW221984   3.609   0.392   4.341
 7029SOL     OW21985   3.407   0.857   6.015
 7029SOL    HW121986   3.345   0.808   6.076
 7029SOL    HW221987   3.386   0.954   6.016
 7030SOL     OW21988   1.734   4.069   4.622
 7030SOL    HW121989   1.653   4.098   4.674
 7030SOL    HW221990   1.712   4.069   4.525
 7031SOL     OW21991   2.566   5.968   4.390
 7031SOL    HW121992   2.580   5.971   4.291
 7031SOL    HW221993   2.500   6.038   4.416
 7032SOL     OW21994   6.316   1.608   2.324
 7032SOL    HW121995   6.409   1.633   2.351
 7032SOL    HW221996   6.251   1.671   2.366
 7033SOL     OW21997   6.548   0.736   3.808
 7033SOL    HW121998   6.630   0.686   3.835
 7033SOL    HW221999   6.571   0.804   3.739
 7034SOL     OW22000   6.013   6.399   2.986
 7034SOL    HW122001   5.988   6.303   2.972
 7034SOL    HW222002   6.027   6.417   3.083
 7035SOL     OW22003   6.569   5.098   1.633
 7035SOL    HW122004   6.628   5.131   1.707
 7035SOL    HW222005   6.502   5.169   1.609
 7036SOL     OW22006   6.492   4.527   1.956
 7036SOL    HW122007   6.439   4.564   1.879
 7036SOL    HW222008   6.454   4.438   1.983
 7037SOL     OW22009   1.343   6.542   6.322
 7037SOL    HW122010   1.302   6.451   6.318
 7037SOL    HW222011   1.440   6.534   6.343
 7038SOL     OW22012   1.141   4.158   4.102
 7038SOL    HW122013   1.135   4.213   4.185
 7038SOL    HW222014   1.120   4.063   4.124
 7039SOL     OW22015   4.009   1.451   7.022
 7039SOL    HW122016   3.950   1.421   6.947
 7039SOL    HW222017   4.104   1.431   6.999
 7040SOL     OW22018   4.394   2.675   6.308
 7040SOL    HW122019   4.418   2.580   6.328
 7040SOL    HW222020   4.470   2.735   6.334
 7041SOL     OW22021   2.406   2.233   2.304
 7041SOL    HW122022   2.430   2.163   2.237
 7041SOL    HW222023   2.464   2.313   2.292
 7042SOL     OW22024   2.556   0.433   6.486
 7042SOL    HW122025   2.548   0.420   6.387
 7042SOL    HW222026   2.468   0.416   6.529
 7043SOL     OW22027   1.496   1.912   3.070
 7043SOL    HW122028   1.448   1.992   3.034
 7043SOL    HW222029   1.578   1.894   3.016
 7044SOL     OW22030   4.777   5.971   2.585
 7044SOL    HW122031   4.680   5.989   2.566
 7044SOL    HW222032   4.831   6.052   2.564
 7045SOL     OW22033   5.465   5.497   1.081
 7045SOL    HW122034   5.475   5.398   1.094
 7045SOL    HW222035   5.382   5.516   1.028
 7046SOL     OW22036   2.899   0.573   5.087
 7046SOL    HW122037   2.821   0.633   5.106
 7046SOL    HW222038   2.972   0.590   5.153
 7047SOL     OW22039   1.750   1.095   4.323
 7047SOL    HW122040   1.699   1.029   4.267
 7047SOL    HW222041   1.712   1.095   4.415
 7048SOL     OW22042   6.646   6.850   0.087
 7048SOL    HW122043   6.583   6.891   0.021
 7048SOL    HW222044   6.597   6.829   0.172
 7049SOL     OW22045   2.580   1.028   0.612
 7049SOL    HW122046   2.674   1.031   0.579
 7049SOL    HW222047   2.573   1.080   0.697
 7050SOL     OW22048   3.982   3.951   4.740
 7050SOL    HW122049   3.905   3.919   4.684
 7050SOL    HW222050   4.019   4.035   4.700
 7051SOL     OW22051   6.538   6.382   2.190
 7051SOL    HW122052   6.463   6.414   2.248
 7051SOL    HW222053   6.623   6.427   2.217
 7052SOL     OW22054   6.783   2.630   3.616
 7052SOL    HW122055   6.760   2.646   3.520
 7052SOL    HW222056   6.804   2.717   3.660
 7053SOL     OW22057   0.548   4.922   0.156
 7053SOL    HW122058   0.646   4.943   0.155
 7053SOL    HW222059   0.496   5.007   0.147
 7054SOL     OW22060   6.805   6.790   1.798
 7054SOL    HW122061   6.820   6.729   1.721
 7054SOL    HW222062   6.805   6.885   1.765
 7055SOL     OW22063   3.685   0.209   4.649
 7055SOL    HW122064   3.681   0.227   4.747
 7055SOL    HW222065   3.769   0.159   4.627
 7056SOL     OW22066   5.355   5.198   3.777
 7056SOL    HW122067   5.386   5.239   3.691
 7056SOL    HW222068   5.431   5.148   3.819
 7057SOL     OW22069   0.462   5.967   3.319
 7057SOL    HW122070   0.438   5.981   3.223
 7057SOL    HW222071   0.533   5.898   3.326
 7058SOL     OW22072   1.092   5.567   5.639
 7058SOL    HW122073   1.135   5.527   5.720
 7058SOL    HW222074   1.127   5.521   5.557
 7059SOL     OW22075   1.488   0.454   2.413
 7059SOL    HW122076   1.570   0.510   2.401
 7059SOL    HW222077   1.514   0.361   2.438
 7060SOL     OW22078   3.069   6.461   1.386
 7060SOL    HW122079   3.151   6.444   1.331
 7060SOL    HW222080   3.032   6.374   1.418
 7061SOL     OW22081   0.700   1.042   2.456
 7061SOL    HW122082   0.660   1.000   2.375
 7061SOL    HW222083   0.667   0.994   2.538
 7062SOL     OW22084   5.533   2.000   4.718
 7062SOL    HW122085   5.556   1.930   4.650
 7062SOL    HW222086   5.456   1.968   4.774
 7063SOL     OW22087   3.791   6.488   0.978
 7063SOL    HW122088   3.877   6.530   1.008
 7063SOL    HW222089   3.801   6.388   0.976
 7064SOL     OW22090   3.791   2.459   0.336
 7064SOL    HW122091   3.867   2.426   0.392
 7064SOL    HW222092   3.810   2.553   0.306
 7065SOL     OW22093   4.161   3.598   1.505
 7065SOL    HW122094   4.250   3.645   1.511
 7065SOL    HW222095   4.177   3.499   1.499
 7066SOL     OW22096   3.510   6.422   0.566
 7066SOL    HW122097   3.490   6.417   0.468
 7066SOL    HW222098   3.551   6.336   0.596
 7067SOL     OW22099   0.008   3.975   5.286
 7067SOL    HW122100   0.064   4.045   5.243
 7067SOL    HW222101   6.936   3.988   5.260
 7068SOL     OW22102   1.492   0.656   3.582
 7068SOL    HW122103   1.538   0.731   3.630
 7068SOL    HW222104   1.512   0.662   3.484
 7069SOL     OW22105   1.597   4.370   4.800
 7069SOL    HW122106   1.585   4.430   4.880
 7069SOL    HW222107   1.616   4.277   4.832
 7070SOL     OW22108   6.151   4.983   4.655
 7070SOL    HW122109   6.097   4.952   4.733
 7070SOL    HW222110   6.158   4.909   4.588
 7071SOL     OW22111   1.335   6.597   5.741
 7071SOL    HW122112   1.291   6.633   5.659
 7071SOL    HW222113   1.432   6.581   5.723
 7072SOL     OW22114   0.347   6.441   6.519
 7072SOL    HW122115   0.274   6.387   6.478
 7072SOL    HW222116   0.388   6.390   6.595
 7073SOL     OW22117   0.661   0.525   6.075
 7073SOL    HW122118   0.719   0.454   6.036
 7073SOL    HW222119   0.600   0.561   6.004
 7074SOL     OW22120   3.630   2.389   1.438
 7074SOL    HW122121   3.670   2.395   1.529
 7074SOL    HW222122   3.540   2.347   1.443
 7075SOL     OW22123   1.716   5.890   3.266
 7075SOL    HW122124   1.649   5.827   3.227
 7075SOL    HW222125   1.718   5.881   3.365
 7076SOL     OW22126   2.488   2.548   6.994
 7076SOL    HW122127   2.492   2.487   6.915
 7076SOL    HW222128   2.571   2.538   0.025
 7077SOL     OW22129   2.216   5.711   5.625
 7077SOL    HW122130   2.139   5.771   5.645
 7077SOL    HW222131   2.239   5.717   5.528
 7078SOL     OW22132   6.004   0.925   3.493
 7078SOL    HW122133   5.985   0.853   3.427
 7078SOL    HW222134   5.930   0.993   3.491
 7079SOL     OW22135   5.936   6.213   5.767
 7079SOL    HW122136   6.035   6.212   5.779
 7079SOL    HW222137   5.892   6.208   5.857
 7080SOL     OW22138   4.796   0.583   3.796
 7080SOL    HW122139   4.787   0.605   3.893
 7080SOL    HW222140   4.736   0.507   3.773
 7081SOL     OW22141   3.862   1.126   4.529
 7081SOL    HW122142   3.863   1.073   4.614
 7081SOL    HW222143   3.945   1.107   4.477
 7082SOL     OW22144   5.255   0.649   6.082
 7082SOL    HW122145   5.315   0.571   6.070
 7082SOL    HW222146   5.171   0.635   6.029
 7083SOL     OW22147   3.690   0.269   6.284
 7083SOL    HW122148   3.607   0.317   6.258
 7083SOL    HW222149   3.684   0.242   6.380
 7084SOL     OW22150   6.893   6.333   6.061
 7084SOL    HW122151   6.971   6.274   6.083
 7084SOL    HW222152   6.897   6.359   5.965
 7085SOL     OW22153   2.707   2.272   1.511
 7085SOL    HW122154   2.689   2.365   1.479
 7085SOL    HW222155   2.758   2.222   1.442
 7086SOL     OW22156   6.144   0.061   6.017
 7086SOL    HW122157   6.142   0.156   5.986
 7086SOL    HW222158   6.058   0.038   6.062
 7087SOL     OW22159   1.080   3.442   4.092
 7087SOL    HW122160   1.012   3.419   4.024
 7087SOL    HW222161   1.141   3.363   4.107
 7088SOL     OW22162   6.054   2.780   5.797
 7088SOL    HW122163   6.090   2.813   5.884
 7088SOL    HW222164   6.122   2.794   5.725
 7089SOL     OW22165   2.613   1.698   0.317
 7089SOL    HW122166   2.531   1.716   0.372
 7089SOL    HW222167   2.694   1.732   0.366
 7090SOL     OW22168   2.702   2.519   5.264
 7090SOL    HW122169   2.797   2.550   5.263
 7090SOL    HW222170   2.641   2.597   5.270
 7091SOL     OW22171   6.769   6.011   6.710
 7091SOL    HW122172   6.846   6.073   6.697
 7091SOL    HW222173   6.733   5.983   6.621
 7092SOL     OW22174   3.313   3.877   0.871
 7092SOL    HW122175   3.365   3.889   0.787
 7092SOL    HW222176   3.277   3.784   0.876
 7093SOL     OW22177   3.438   3.626   4.729
 7093SOL    HW122178   3.389   3.539   4.738
 7093SOL    HW222179   3.395   3.681   4.658
 7094SOL     OW22180   0.855   0.337   5.961
 7094SOL    HW122181   0.954   0.348   5.967
 7094SOL    HW222182   0.832   0.286   5.877
 7095SOL     OW22183   0.708   3.172   6.828
 7095SOL    HW122184   0.709   3.268   6.853
 7095SOL    HW222185   0.688   3.163   6.730
 7096SOL     OW22186   4.656   1.682   2.886
 7096SOL    HW122187   4.570   1.632   2.885
 7096SOL    HW222188   4.705   1.664   2.971
 7097SOL     OW22189   0.614   0.321   1.731
 7097SOL    HW122190   0.524   0.366   1.728
 7097SOL    HW222191   0.638   0.302   1.826
 7098SOL     OW22192   1.805   6.816   5.982
 7098SOL    HW122193   1.789   6.843   5.888
 7098SOL    HW222194   1.796   6.717   5.991
 7099SOL     OW22195   0.496   0.931   6.579
 7099SOL    HW122196   0.536   1.011   6.533
 7099SOL    HW222197   0.499   0.852   6.518
 7100SOL     OW22198   5.884   2.840   1.319
 7100SOL    HW122199   5.949   2.860   1.246
 7100SOL    HW222200   5.805   2.901   1.311
 7101SOL     OW22201   2.547   0.265   5.213
 7101SOL    HW122202   2.585   0.249   5.304
 7101SOL    HW222203   2.611   0.231   5.144
 7102SOL     OW22204   4.473   2.161   0.629
 7102SOL    HW122205   4.570   2.140   0.644
 7102SOL    HW222206   4.454   2.163   0.531
 7103SOL     OW22207   3.757   6.840   6.661
 7103SOL    HW122208   3.854   6.839   6.685
 7103SOL    HW222209   3.727   6.748   6.639
 7104SOL     OW22210   1.126   2.475   3.015
 7104SOL    HW122211   1.222   2.505   3.017
 7104SOL    HW222212   1.111   2.415   2.937
 7105SOL     OW22213   3.369   3.818   5.019
 7105SOL    HW122214   3.364   3.918   5.019
 7105SOL    HW222215   3.438   3.788   4.953
 7106SOL     OW22216   3.096   2.903   5.246
 7106SOL    HW122217   3.122   2.939   5.157
 7106SOL    HW222218   3.169   2.845   5.282
 7107SOL     OW22219   3.060   1.918   0.524
 7107SOL    HW122220   3.068   2.015   0.545
 7107SOL    HW222221   2.963   1.892   0.522
 7108SOL     OW22222   4.862   0.266   1.530
 7108SOL    HW122223   4.874   0.364   1.544
 7108SOL    HW222224   4.926   0.216   1.588
 7109SOL     OW22225   3.667   6.901   6.388
 7109SOL    HW122226   3.722   6.895   6.471
 7109SOL    HW222227   3.718   6.951   6.317
 7110SOL     OW22228   4.456   5.268   3.414
 7110SOL    HW122229   4.426   5.311   3.499
 7110SOL    HW222230   4.381   5.212   3.378
 7111SOL     OW22231   2.180   3.333   4.397
 7111SOL    HW122232   2.142   3.376   4.315
 7111SOL    HW222233   2.175   3.397   4.473
 7112SOL     OW22234   0.883   6.276   3.492
 7112SOL    HW122235   0.977   6.253   3.518
 7112SOL    HW222236   0.832   6.304   3.574
 7113SOL     OW22237   4.080   3.567   4.350
 7113SOL    HW122238   4.118   3.583   4.441
 7113SOL    HW222239   4.066   3.654   4.304
 7114SOL     OW22240   3.944   1.206   0.913
 7114SOL    HW122241   3.883   1.270   0.866
 7114SOL    HW222242   4.023   1.187   0.855
 7115SOL     OW22243   4.735   1.595   0.902
 7115SOL    HW122244   4.739   1.605   1.001
 7115SOL    HW222245   4.774   1.507   0.875
 7116SOL     OW22246   5.484   4.332   2.986
 7116SOL    HW122247   5.463   4.417   2.937
 7116SOL    HW222248   5.423   4.324   3.066
 7117SOL     OW22249   6.072   6.836   1.624
 7117SOL    HW122250   6.035   6.837   1.717
 7117SOL    HW222251   5.997   6.845   1.558
 7118SOL     OW22252   6.446   2.990   0.837
 7118SOL    HW122253   6.510   2.914   0.824
 7118SOL    HW222254   6.494   3.067   0.880
 7119SOL     OW22255   6.943   1.857   3.391
 7119SOL    HW122256   6.868   1.891   3.447
 7119SOL    HW222257   0.007   1.881   3.434
 7120SOL     OW22258   5.263   1.068   3.164
 7120SOL    HW122259   5.240   0.977   3.130
 7120SOL    HW222260   5.310   1.120   3.093
 7121SOL     OW22261   3.177   6.701   3.093
 7121SOL    HW122262   3.188   6.643   3.174
 7121SOL    HW222263   3.212   6.652   3.012
 7122SOL     OW22264   5.910   0.600   6.686
 7122SOL    HW122265   5.982   0.556   6.632
 7122SOL    HW222266   5.832   0.538   6.692
 7123SOL     OW22267   2.699   5.122   1.231
 7123SOL    HW122268   2.613   5.167   1.254
 7123SOL    HW222269   2.753   5.181   1.171
 7124SOL     OW22270   0.403   4.941   0.630
 7124SOL    HW122271   0.468   4.872   0.664
 7124SOL    HW222272   0.451   5.003   0.567
 7125SOL     OW22273   6.231   6.779   2.679
 7125SOL    HW122274   6.173   6.760   2.758
 7125SOL    HW222275   6.274   6.869   2.689
 7126SOL     OW22276   1.329   4.448   0.239
 7126SOL    HW122277   1.427   4.465   0.227
 7126SOL    HW222278   1.315   4.358   0.280
 7127SOL     OW22279   3.912   6.760   4.424
 7127SOL    HW122280   3.987   6.700   4.453
 7127SOL    HW222281   3.826   6.728   4.465
 7128SOL     OW22282   3.071   4.070   1.271
 7128SOL    HW122283   3.071   4.030   1.179
 7128SOL    HW222284   2.977   4.082   1.302
 7129SOL     OW22285   2.425   7.001   1.611
 7129SOL    HW122286   2.515   0.021   1.617
 7129SOL    HW222287   2.379   0.006   1.527
 7130SOL     OW22288   1.818   4.404   3.179
 7130SOL    HW122289   1.719   4.394   3.189
 7130SOL    HW222290   1.848   4.488   3.225
 7131SOL     OW22291   2.511   0.852   2.898
 7131SOL    HW122292   2.546   0.841   2.805
 7131SOL    HW222293   2.482   0.947   2.912
 7132SOL     OW22294   3.228   4.042   3.390
 7132SOL    HW122295   3.313   4.093   3.406
 7132SOL    HW222296   3.185   4.021   3.478
 7133SOL     OW22297   5.341   5.066   2.896
 7133SOL    HW122298   5.403   5.020   2.832
 7133SOL    HW222299   5.261   5.008   2.912
 7134SOL     OW22300   5.384   4.309   4.343
 7134SOL    HW122301   5.327   4.391   4.356
 7134SOL    HW222302   5.443   4.322   4.264
 7135SOL     OW22303   1.013   2.164   4.861
 7135SOL    HW122304   0.970   2.215   4.935
 7135SOL    HW222305   1.073   2.094   4.900
 7136SOL     OW22306   1.788   1.642   0.135
 7136SOL    HW122307   1.728   1.650   0.056
 7136SOL    HW222308   1.826   1.550   0.139
 7137SOL     OW22309   4.328   0.546   4.733
 7137SOL    HW122310   4.343   0.610   4.658
 7137SOL    HW222311   4.322   0.453   4.697
 7138SOL     OW22312   2.090   4.183   0.886
 7138SOL    HW122313   2.135   4.264   0.848
 7138SOL    HW222314   2.100   4.106   0.822
 7139SOL     OW22315   3.581   2.492   1.177
 7139SOL    HW122316   3.582   2.458   1.271
 7139SOL    HW222317   3.669   2.536   1.157
 7140SOL     OW22318   6.029   3.922   5.213
 7140SOL    HW122319   6.110   3.965   5.174
 7140SOL    HW222320   6.056   3.849   5.275
 7141SOL     OW22321   2.876   6.754   0.302
 7141SOL    HW122322   2.795   6.744   0.244
 7141SOL    HW222323   2.852   6.801   0.387
 7142SOL     OW22324   3.991   5.675   4.164
 7142SOL    HW122325   4.061   5.739   4.196
 7142SOL    HW222326   3.934   5.719   4.095
 7143SOL     OW22327   2.032   3.618   5.350
 7143SOL    HW122328   1.952   3.677   5.352
 7143SOL    HW222329   2.094   3.648   5.277
 7144SOL     OW22330   0.651   2.576   3.807
 7144SOL    HW122331   0.695   2.661   3.834
 7144SOL    HW222332   0.569   2.597   3.754
 7145SOL     OW22333   4.630   6.935   6.795
 7145SOL    HW122334   4.624   7.015   6.855
 7145SOL    HW222335   4.678   6.959   6.711
 7146SOL     OW22336   3.494   5.210   0.198
 7146SOL    HW122337   3.592   5.217   0.179
 7146SOL    HW222338   3.445   5.201   0.111
 7147SOL     OW22339   0.354   0.473   3.422
 7147SOL    HW122340   0.441   0.500   3.463
 7147SOL    HW222341   0.301   0.554   3.399
 7148SOL     OW22342   0.936   0.882   1.733
 7148SOL    HW122343   0.893   0.973   1.737
 7148SOL    HW222344   1.035   0.892   1.736
 7149SOL     OW22345   6.448   1.769   3.252
 7149SOL    HW122346   6.544   1.754   3.228
 7149SOL    HW222347   6.440   1.851   3.309
 7150SOL     OW22348   6.314   3.102   0.156
 7150SOL    HW122349   6.386   3.108   0.225
 7150SOL    HW222350   6.259   3.186   0.158
 7151SOL     OW22351   2.589   6.049   1.941
 7151SOL    HW122352   2.529   6.063   2.020
 7151SOL    HW222353   2.594   6.134   1.889
 7152SOL     OW22354   1.423   2.792   3.671
 7152SOL    HW122355   1.354   2.732   3.710
 7152SOL    HW222356   1.480   2.829   3.744
 7153SOL     OW22357   3.863   1.469   3.920
 7153SOL    HW122358   3.905   1.494   4.007
 7153SOL    HW222359   3.810   1.385   3.931
 7154SOL     OW22360   4.872   5.824   4.077
 7154SOL    HW122361   4.893   5.760   4.002
 7154SOL    HW222362   4.875   5.775   4.164
 7155SOL     OW22363   3.018   0.208   1.099
 7155SOL    HW122364   2.998   0.216   1.197
 7155SOL    HW222365   3.096   0.266   1.077
 7156SOL     OW22366   7.008   5.883   4.828
 7156SOL    HW122367   7.021   5.791   4.866
 7156SOL    HW222368   6.948   5.878   4.748
 7157SOL     OW22369   4.786   4.386   1.005
 7157SOL    HW122370   4.814   4.425   0.917
 7157SOL    HW222371   4.740   4.456   1.059
 7158SOL     OW22372   6.768   6.652   3.734
 7158SOL    HW122373   6.688   6.595   3.749
 7158SOL    HW222374   6.794   6.697   3.820
 7159SOL     OW22375   1.042   5.289   0.564
 7159SOL    HW122376   0.953   5.296   0.521
 7159SOL    HW222377   1.113   5.323   0.502
 7160SOL     OW22378   5.445   0.429   1.940
 7160SOL    HW122379   5.512   0.387   1.879
 7160SOL    HW222380   5.353   0.414   1.904
 7161SOL     OW22381   3.782   3.171   3.746
 7161SOL    HW122382   3.842   3.188   3.825
 7161SOL    HW222383   3.763   3.258   3.700
 7162SOL     OW22384   3.164   5.067   3.620
 7162SOL    HW122385   3.091   5.016   3.666
 7162SOL    HW222386   3.203   5.011   3.548
 7163SOL     OW22387   2.480   0.384   2.986
 7163SOL    HW122388   2.481   0.483   2.998
 7163SOL    HW222389   2.569   0.346   3.011
 7164SOL     OW22390   2.142   1.342   3.273
 7164SOL    HW122391   2.101   1.426   3.237
 7164SOL    HW222392   2.080   1.265   3.257
 7165SOL     OW22393   5.194   1.115   1.190
 7165SOL    HW122394   5.228   1.111   1.096
 7165SOL    HW222395   5.240   1.045   1.245
 7166SOL     OW22396   5.011   4.612   1.337
 7166SOL    HW122397   4.930   4.650   1.382
 7166SOL    HW222398   5.068   4.565   1.405
 7167SOL     OW22399   4.848   3.200   5.059
 7167SOL    HW122400   4.913   3.239   5.125
 7167SOL    HW222401   4.810   3.115   5.097
 7168SOL     OW22402   0.965   0.428   3.787
 7168SOL    HW122403   1.013   0.399   3.704
 7168SOL    HW222404   0.958   0.527   3.789
 7169SOL     OW22405   1.493   2.387   5.318
 7169SOL    HW122406   1.428   2.314   5.297
 7169SOL    HW222407   1.562   2.353   5.381
 7170SOL     OW22408   6.469   4.897   4.344
 7170SOL    HW122409   6.565   4.871   4.345
 7170SOL    HW222410   6.412   4.815   4.356
 7171SOL     OW22411   4.090   3.187   5.378
 7171SOL    HW122412   4.081   3.232   5.467
 7171SOL    HW222413   4.163   3.232   5.325
 7172SOL     OW22414   1.202   0.478   0.488
 7172SOL    HW122415   1.274   0.477   0.418
 7172SOL    HW222416   1.114   0.456   0.446
 7173SOL     OW22417   6.962   5.985   5.860
 7173SOL    HW122418   7.017   6.022   5.785
 7173SOL    HW222419   7.017   5.922   5.915
 7174SOL     OW22420   1.738   5.279   0.463
 7174SOL    HW122421   1.688   5.352   0.416
 7174SOL    HW222422   1.771   5.213   0.395
 7175SOL     OW22423   6.483   4.137   6.172
 7175SOL    HW122424   6.565   4.188   6.147
 7175SOL    HW222425   6.406   4.199   6.181
 7176SOL     OW22426   6.000   3.931   1.278
 7176SOL    HW122427   5.915   3.972   1.244
 7176SOL    HW222428   6.026   3.977   1.364
 7177SOL     OW22429   0.317   5.724   2.291
 7177SOL    HW122430   0.352   5.631   2.299
 7177SOL    HW222431   0.391   5.790   2.310
 7178SOL     OW22432   0.599   2.522   6.087
 7178SOL    HW122433   0.550   2.441   6.055
 7178SOL    HW222434   0.637   2.571   6.008
 7179SOL     OW22435   2.786   3.729   5.822
 7179SOL    HW122436   2.881   3.713   5.846
 7179SOL    HW222437   2.726   3.681   5.887
 7180SOL     OW22438   0.253   6.108   1.980
 7180SOL    HW122439   0.250   6.008   1.986
 7180SOL    HW222440   0.296   6.145   2.062
 7181SOL     OW22441   5.409   0.556   1.352
 7181SOL    HW122442   5.357   0.527   1.271
 7181SOL    HW222443   5.350   0.611   1.411
 7182SOL     OW22444   2.801   4.348   5.643
 7182SOL    HW122445   2.740   4.407   5.590
 7182SOL    HW222446   2.768   4.253   5.638
 7183SOL     OW22447   1.157   5.340   2.713
 7183SOL    HW122448   1.211   5.354   2.796
 7183SOL    HW222449   1.069   5.385   2.722
 7184SOL     OW22450   2.296   6.575   3.989
 7184SOL    HW122451   2.236   6.613   3.918
 7184SOL    HW222452   2.346   6.497   3.951
 7185SOL     OW22453   4.720   2.681   6.880
 7185SOL    HW122454   4.739   2.779   6.890
 7185SOL    HW222455   4.803   2.629   6.900
 7186SOL     OW22456   0.636   6.528   4.818
 7186SOL    HW122457   0.725   6.541   4.861
 7186SOL    HW222458   0.567   6.581   4.867
 7187SOL     OW22459   2.207   4.180   1.408
 7187SOL    HW122460   2.142   4.147   1.340
 7187SOL    HW222461   2.297   4.193   1.366
 7188SOL     OW22462   5.225   1.419   1.579
 7188SOL    HW122463   5.284   1.352   1.534
 7188SOL    HW222464   5.279   1.474   1.642
 7189SOL     OW22465   6.257   1.274   4.982
 7189SOL    HW122466   6.346   1.289   5.026
 7189SOL    HW222467   6.263   1.197   4.919
 7190SOL     OW22468   4.828   4.809   3.574
 7190SOL    HW122469   4.907   4.807   3.514
 7190SOL    HW222470   4.775   4.725   3.562
 7191SOL     OW22471   1.716   3.345   1.900
 7191SOL    HW122472   1.810   3.360   1.869
 7191SOL    HW222473   1.653   3.370   1.826
 7192SOL     OW22474   3.061   4.718   5.786
 7192SOL    HW122475   3.001   4.662   5.730
 7192SOL    HW222476   3.039   4.815   5.772
 7193SOL     OW22477   4.241   2.283   3.813
 7193SOL    HW122478   4.258   2.303   3.717
 7193SOL    HW222479   4.144   2.293   3.833
 7194SOL     OW22480   2.660   1.613   2.211
 7194SOL    HW122481   2.723   1.659   2.272
 7194SOL    HW222482   2.650   1.666   2.126
 7195SOL     OW22483   1.093   5.625   1.203
 7195SOL    HW122484   1.023   5.570   1.159
 7195SOL    HW222485   1.173   5.568   1.224
 7196SOL     OW22486   2.988   3.273   2.181
 7196SOL    HW122487   3.082   3.303   2.163
 7196SOL    HW222488   2.955   3.316   2.265
 7197SOL     OW22489   6.991   1.819   6.041
 7197SOL    HW122490   0.049   1.822   6.098
 7197SOL    HW222491   6.937   1.902   6.055
 7198SOL     OW22492   1.022   6.330   6.818
 7198SOL    HW122493   1.060   6.253   6.871
 7198SOL    HW222494   0.956   6.295   6.752
 7199SOL     OW22495   6.550   6.511   2.837
 7199SOL    HW122496   6.489   6.520   2.916
 7199SOL    HW222497   6.497   6.517   2.753
 7200SOL     OW22498   2.056   1.282   1.238
 7200SOL    HW122499   2.070   1.350   1.166
 7200SOL    HW222500   2.098   1.315   1.323
 7201SOL     OW22501   2.080   4.606   3.909
 7201SOL    HW122502   2.072   4.550   3.826
 7201SOL    HW222503   2.160   4.664   3.901
 7202SOL     OW22504   4.138   0.870   6.610
 7202SOL    HW122505   4.209   0.889   6.677
 7202SOL    HW222506   4.054   0.843   6.658
 7203SOL     OW22507   5.283   0.929   0.153
 7203SOL    HW122508   5.195   0.903   0.192
 7203SOL    HW222509   5.273   1.013   0.100
 7204SOL     OW22510   5.986   1.601   3.036
 7204SOL    HW122511   5.969   1.699   3.023
 7204SOL    HW222512   6.058   1.572   2.974
 7205SOL     OW22513   1.764   4.740   2.394
 7205SOL    HW122514   1.795   4.655   2.436
 7205SOL    HW222515   1.665   4.739   2.385
 7206SOL     OW22516   6.345   0.896   1.662
 7206SOL    HW122517   6.371   0.806   1.697
 7206SOL    HW222518   6.413   0.928   1.596
 7207SOL     OW22519   3.697   6.951   1.819
 7207SOL    HW122520   3.689   0.026   1.803
 7207SOL    HW222521   3.632   6.902   1.761
 7208SOL     OW22522   3.329   0.655   5.648
 7208SOL    HW122523   3.335   0.559   5.676
 7208SOL    HW222524   3.283   0.708   5.719
 7209SOL     OW22525   3.966   3.431   4.836
 7209SOL    HW122526   4.019   3.515   4.825
 7209SOL    HW222527   4.016   3.354   4.798
 7210SOL     OW22528   4.700   1.190   4.098
 7210SOL    HW122529   4.716   1.152   4.007
 7210SOL    HW222530   4.787   1.217   4.139
 7211SOL     OW22531   1.687   5.405   3.100
 7211SOL    HW122532   1.748   5.474   3.139
 7211SOL    HW222533   1.611   5.450   3.053
 7212SOL     OW22534   5.986   6.254   4.216
 7212SOL    HW122535   5.924   6.239   4.138
 7212SOL    HW222536   6.067   6.303   4.184
 7213SOL     OW22537   5.571   1.056   5.441
 7213SOL    HW122538   5.568   0.976   5.501
 7213SOL    HW222539   5.589   1.026   5.348
 7214SOL     OW22540   1.565   5.076   4.888
 7214SOL    HW122541   1.654   5.115   4.864
 7214SOL    HW222542   1.526   5.029   4.808
 7215SOL     OW22543   1.231   3.660   3.798
 7215SOL    HW122544   1.227   3.570   3.843
 7215SOL    HW222545   1.224   3.732   3.867
 7216SOL     OW22546   2.348   0.899   1.245
 7216SOL    HW122547   2.321   0.967   1.176
 7216SOL    HW222548   2.352   0.809   1.203
 7217SOL     OW22549   1.038   3.022   2.549
 7217SOL    HW122550   1.031   3.008   2.648
 7217SOL    HW222551   0.948   3.048   2.513
 7218SOL     OW22552   5.160   2.675   5.746
 7218SOL    HW122553   5.199   2.710   5.831
 7218SOL    HW222554   5.196   2.583   5.729
 7219SOL     OW22555   3.652   0.842   2.517
 7219SOL    HW122556   3.744   0.821   2.484
 7219SOL    HW222557   3.643   0.940   2.530
 7220SOL     OW22558   6.908   1.042   2.857
 7220SOL    HW122559   6.900   0.945   2.832
 7220SOL    HW222560   6.980   1.085   2.803
 7221SOL     OW22561   5.519   5.576   6.172
 7221SOL    HW122562   5.426   5.582   6.207
 7221SOL    HW222563   5.557   5.668   6.161
 7222SOL     OW22564   0.266   6.244   1.406
 7222SOL    HW122565   0.196   6.174   1.394
 7222SOL    HW222566   0.327   6.217   1.481
 7223SOL     OW22567   3.666   0.818   5.541
 7223SOL    HW122568   3.641   0.886   5.472
 7223SOL    HW222569   3.621   0.840   5.627
 7224SOL     OW22570   5.280   6.891   4.531
 7224SOL    HW122571   5.202   6.848   4.486
 7224SOL    HW222572   5.293   6.850   4.622
 7225SOL     OW22573   2.234   6.113   6.905
 7225SOL    HW122574   2.238   6.211   6.919
 7225SOL    HW222575   2.232   6.066   6.993
 7226SOL     OW22576   6.877   6.763   0.931
 7226SOL    HW122577   6.916   6.755   0.839
 7226SOL    HW222578   6.947   6.741   0.998
 7227SOL     OW22579   6.740   2.131   6.804
 7227SOL    HW122580   6.799   2.149   6.882
 7227SOL    HW222581   6.691   2.215   6.779
 7228SOL     OW22582   1.426   0.631   2.835
 7228SOL    HW122583   1.399   0.694   2.908
 7228SOL    HW222584   1.389   0.663   2.748
 7229SOL     OW22585   0.622   0.526   3.446
 7229SOL    HW122586   0.666   0.447   3.403
 7229SOL    HW222587   0.663   0.610   3.412
 7230SOL     OW22588   5.192   4.146   3.223
 7230SOL    HW122589   5.218   4.223   3.165
 7230SOL    HW222590   5.254   4.069   3.206
 7231SOL     OW22591   5.582   0.926   6.447
 7231SOL    HW122592   5.548   0.988   6.376
 7231SOL    HW222593   5.506   0.871   6.482
 7232SOL     OW22594   3.895   4.610   1.167
 7232SOL    HW122595   3.931   4.634   1.077
 7232SOL    HW222596   3.969   4.574   1.224
 7233SOL     OW22597   6.407   2.165   6.455
 7233SOL    HW122598   6.403   2.133   6.550
 7233SOL    HW222599   6.423   2.264   6.454
 7234SOL     OW22600   5.788   1.995   1.981
 7234SOL    HW122601   5.859   1.946   2.032
 7234SOL    HW222602   5.725   1.929   1.941
 7235SOL     OW22603   5.744   3.818   5.454
 7235SOL    HW122604   5.829   3.857   5.487
 7235SOL    HW222605   5.676   3.890   5.441
 7236SOL     OW22606   3.094   0.784   3.247
 7236SOL    HW122607   3.000   0.769   3.214
 7236SOL    HW222608   3.158   0.741   3.184
 7237SOL     OW22609   5.990   5.521   5.812
 7237SOL    HW122610   5.898   5.515   5.775
 7237SOL    HW222611   5.988   5.564   5.902
 7238SOL     OW22612   1.745   1.545   1.027
 7238SOL    HW122613   1.647   1.533   1.039
 7238SOL    HW222614   1.763   1.628   0.974
 7239SOL     OW22615   4.146   1.544   1.744
 7239SOL    HW122616   4.202   1.573   1.666
 7239SOL    HW222617   4.189   1.575   1.829
 7240SOL     OW22618   2.762   4.734   0.103
 7240SOL    HW122619   2.671   4.693   0.109
 7240SOL    HW222620   2.829   4.671   0.141
 7241SOL     OW22621   3.598   0.346   4.936
 7241SOL    HW122622   3.662   0.337   5.012
 7241SOL    HW222623   3.507   0.318   4.965
 7242SOL     OW22624   4.960   4.802   6.842
 7242SOL    HW122625   4.872   4.792   6.888
 7242SOL    HW222626   5.023   4.852   6.901
 7243SOL     OW22627   0.637   5.562   0.446
 7243SOL    HW122628   0.596   5.653   0.446
 7243SOL    HW222629   0.711   5.559   0.378
 7244SOL     OW22630   6.046   0.903   1.156
 7244SOL    HW122631   6.031   0.892   1.255
 7244SOL    HW222632   5.958   0.908   1.110
 7245SOL     OW22633   0.550   1.863   3.662
 7245SOL    HW122634   0.474   1.798   3.664
 7245SOL    HW222635   0.570   1.895   3.755
 7246SOL     OW22636   0.377   6.036   5.927
 7246SOL    HW122637   0.413   5.955   5.880
 7246SOL    HW222638   0.452   6.098   5.950
 7247SOL     OW22639   3.583   5.893   2.612
 7247SOL    HW122640   3.634   5.964   2.661
 7247SOL    HW222641   3.635   5.808   2.614
 7248SOL     OW22642   3.010   0.522   4.721
 7248SOL    HW122643   2.964   0.447   4.767
 7248SOL    HW222644   3.037   0.590   4.790
 7249SOL     OW22645   6.143   5.841   6.778
 7249SOL    HW122646   6.114   5.936   6.761
 7249SOL    HW222647   6.206   5.840   6.856
 7250SOL     OW22648   2.959   4.395   6.543
 7250SOL    HW122649   2.987   4.348   6.459
 7250SOL    HW222650   2.914   4.481   6.520
 7251SOL     OW22651   5.715   0.138   4.848
 7251SOL    HW122652   5.796   0.080   4.852
 7251SOL    HW222653   5.727   0.215   4.911
 7252SOL     OW22654   3.781   3.753   5.068
 7252SOL    HW122655   3.749   3.760   4.974
 7252SOL    HW222656   3.877   3.783   5.074
 7253SOL     OW22657   5.232   6.113   1.643
 7253SOL    HW122658   5.170   6.159   1.706
 7253SOL    HW222659   5.178   6.056   1.580
 7254SOL     OW22660   4.769   6.090   5.412
 7254SOL    HW122661   4.819   6.053   5.333
 7254SOL    HW222662   4.766   6.020   5.484
 7255SOL     OW22663   3.681   3.838   2.240
 7255SOL    HW122664   3.702   3.933   2.266
 7255SOL    HW222665   3.654   3.835   2.144
 7256SOL     OW22666   4.668   4.778   4.229
 7256SOL    HW122667   4.673   4.809   4.324
 7256SOL    HW222668   4.577   4.744   4.209
 7257SOL     OW22669   5.664   4.123   3.035
 7257SOL    HW122670   5.624   4.039   3.070
 7257SOL    HW222671   5.597   4.197   3.040
 7258SOL     OW22672   3.691   6.929   4.731
 7258SOL    HW122673   3.724   6.983   4.653
 7258SOL    HW222674   3.591   6.933   4.735
 7259SOL     OW22675   2.400   5.770   5.817
 7259SOL    HW122676   2.340   5.757   5.738
 7259SOL    HW222677   2.482   5.820   5.789
 7260SOL     OW22678   3.741   2.065   1.753
 7260SOL    HW122679   3.812   2.022   1.808
 7260SOL    HW222680   3.721   2.156   1.790
 7261SOL     OW22681   1.661   3.964   1.998
 7261SOL    HW122682   1.685   3.939   2.092
 7261SOL    HW222683   1.660   3.882   1.941
 7262SOL     OW22684   6.326   2.238   5.371
 7262SOL    HW122685   6.246   2.258   5.315
 7262SOL    HW222686   6.394   2.188   5.317
 7263SOL     OW22687   4.140   6.346   2.087
 7263SOL    HW122688   4.093   6.266   2.125
 7263SOL    HW222689   4.211   6.316   2.023
 7264SOL     OW22690   1.030   6.529   5.717
 7264SOL    HW122691   1.117   6.490   5.745
 7264SOL    HW222692   1.045   6.601   5.650
 7265SOL     OW22693   4.305   4.326   5.748
 7265SOL    HW122694   4.207   4.311   5.762
 7265SOL    HW222695   4.332   4.411   5.794
 7266SOL     OW22696   5.753   1.610   2.029
 7266SOL    HW122697   5.815   1.662   2.088
 7266SOL    HW222698   5.700   1.546   2.085
 7267SOL     OW22699   0.355   3.912   4.302
 7267SOL    HW122700   0.353   3.907   4.202
 7267SOL    HW222701   0.305   3.994   4.332
 7268SOL     OW22702   3.262   6.872   1.109
 7268SOL    HW122703   3.354   6.883   1.145
 7268SOL    HW222704   3.241   6.774   1.102
 7269SOL     OW22705   1.559   6.828   1.480
 7269SOL    HW122706   1.502   6.746   1.476
 7269SOL    HW222707   1.630   6.816   1.549
 7270SOL     OW22708   3.178   1.542   2.453
 7270SOL    HW122709   3.247   1.500   2.512
 7270SOL    HW222710   3.201   1.639   2.439
 7271SOL     OW22711   6.211   3.683   3.695
 7271SOL    HW122712   6.270   3.602   3.690
 7271SOL    HW222713   6.138   3.668   3.762
 7272SOL     OW22714   5.745   2.307   1.452
 7272SOL    HW122715   5.655   2.272   1.427
 7272SOL    HW222716   5.733   2.384   1.515
 7273SOL     OW22717   5.709   5.531   6.614
 7273SOL    HW122718   5.614   5.539   6.583
 7273SOL    HW222719   5.757   5.617   6.594
 7274SOL     OW22720   6.734   4.845   5.473
 7274SOL    HW122721   6.731   4.847   5.373
 7274SOL    HW222722   6.708   4.935   5.509
 7275SOL     OW22723   5.939   0.263   1.108
 7275SOL    HW122724   5.897   0.336   1.162
 7275SOL    HW222725   6.010   0.218   1.161
 7276SOL     OW22726   2.862   1.895   3.657
 7276SOL    HW122727   2.789   1.844   3.612
 7276SOL    HW222728   2.833   1.989   3.673
 7277SOL     OW22729   5.635   1.453   4.225
 7277SOL    HW122730   5.669   1.387   4.158
 7277SOL    HW222731   5.622   1.407   4.313
 7278SOL     OW22732   2.573   1.735   3.070
 7278SOL    HW122733   2.546   1.829   3.092
 7278SOL    HW222734   2.624   1.734   2.984
 7279SOL     OW22735   4.407   4.228   0.887
 7279SOL    HW122736   4.466   4.219   0.807
 7279SOL    HW222737   4.317   4.189   0.867
 7280SOL     OW22738   6.082   2.297   5.555
 7280SOL    HW122739   6.113   2.240   5.632
 7280SOL    HW222740   6.161   2.331   5.504
 7281SOL     OW22741   4.163   5.026   1.667
 7281SOL    HW122742   4.122   5.043   1.757
 7281SOL    HW222743   4.163   4.928   1.649
 7282SOL     OW22744   6.024   3.612   2.399
 7282SOL    HW122745   5.951   3.569   2.453
 7282SOL    HW222746   6.010   3.711   2.397
 7283SOL     OW22747   4.283   5.109   2.940
 7283SOL    HW122748   4.343   5.074   2.868
 7283SOL    HW222749   4.328   5.098   3.029
 7284SOL     OW22750   0.225   2.075   2.806
 7284SOL    HW122751   0.276   1.989   2.812
 7284SOL    HW222752   0.129   2.055   2.789
 7285SOL     OW22753   4.792   3.111   1.633
 7285SOL    HW122754   4.722   3.102   1.562
 7285SOL    HW222755   4.749   3.103   1.723
 7286SOL     OW22756   0.208   1.807   3.141
 7286SOL    HW122757   0.109   1.790   3.132
 7286SOL    HW222758   0.253   1.725   3.176
 7287SOL     OW22759   2.306   2.181   3.257
 7287SOL    HW122760   2.219   2.231   3.251
 7287SOL    HW222761   2.381   2.246   3.264
 7288SOL     OW22762   2.449   1.726   2.624
 7288SOL    HW122763   2.511   1.797   2.657
 7288SOL    HW222764   2.385   1.702   2.697
 7289SOL     OW22765   6.608   1.686   1.160
 7289SOL    HW122766   6.624   1.666   1.257
 7289SOL    HW222767   6.675   1.754   1.129
 7290SOL     OW22768   3.966   1.217   4.908
 7290SOL    HW122769   4.050   1.204   4.961
 7290SOL    HW222770   3.924   1.304   4.934
 7291SOL     OW22771   3.016   1.356   0.600
 7291SOL    HW122772   2.983   1.262   0.605
 7291SOL    HW222773   3.115   1.358   0.614
 7292SOL     OW22774   2.467   0.370   2.262
 7292SOL    HW122775   2.391   0.316   2.299
 7292SOL    HW222776   2.458   0.465   2.293
 7293SOL     OW22777   7.005   1.571   4.095
 7293SOL    HW122778   6.922   1.593   4.146
 7293SOL    HW222779   6.997   1.479   4.056
 7294SOL     OW22780   3.430   6.322   2.210
 7294SOL    HW122781   3.443   6.411   2.255
 7294SOL    HW222782   3.361   6.331   2.138
 7295SOL     OW22783   6.317   4.619   1.768
 7295SOL    HW122784   6.242   4.664   1.816
 7295SOL    HW222785   6.337   4.668   1.683
 7296SOL     OW22786   4.715   4.934   1.976
 7296SOL    HW122787   4.683   4.873   2.049
 7296SOL    HW222788   4.745   5.020   2.015
 7297SOL     OW22789   4.277   7.001   1.321
 7297SOL    HW122790   4.281   0.048   1.391
 7297SOL    HW222791   4.312   0.013   1.234
 7298SOL     OW22792   3.893   5.065   0.070
 7298SOL    HW122793   3.795   5.066   0.050
 7298SOL    HW222794   3.933   4.979   0.038
 7299SOL     OW22795   1.073   2.667   6.094
 7299SOL    HW122796   1.103   2.632   6.183
 7299SOL    HW222797   0.983   2.708   6.103
 7300SOL     OW22798   0.236   4.821   2.327
 7300SOL    HW122799   0.198   4.876   2.253
 7300SOL    HW222800   0.203   4.855   2.415
 7301SOL     OW22801   4.779   1.742   5.664
 7301SOL    HW122802   4.852   1.682   5.694
 7301SOL    HW222803   4.690   1.699   5.684
 7302SOL     OW22804   5.728   1.955   6.075
 7302SOL    HW122805   5.701   1.917   5.987
 7302SOL    HW222806   5.689   1.899   6.149
 7303SOL     OW22807   2.618   1.719   1.958
 7303SOL    HW122808   2.559   1.793   1.925
 7303SOL    HW222809   2.714   1.742   1.939
 7304SOL     OW22810   2.636   5.756   0.893
 7304SOL    HW122811   2.664   5.685   0.828
 7304SOL    HW222812   2.707   5.827   0.896
 7305SOL     OW22813   6.270   1.226   0.355
 7305SOL    HW122814   6.254   1.128   0.346
 7305SOL    HW222815   6.360   1.249   0.318
 7306SOL     OW22816   0.556   2.659   1.557
 7306SOL    HW122817   0.631   2.725   1.552
 7306SOL    HW222818   0.473   2.700   1.519
 7307SOL     OW22819   2.202   0.499   0.696
 7307SOL    HW122820   2.117   0.493   0.748
 7307SOL    HW222821   2.187   0.469   0.602
 7308SOL     OW22822   4.694   1.130   2.658
 7308SOL    HW122823   4.630   1.091   2.724
 7308SOL    HW222824   4.720   1.060   2.591
 7309SOL     OW22825   2.693   5.142   3.356
 7309SOL    HW122826   2.681   5.106   3.263
 7309SOL    HW222827   2.789   5.131   3.383
 7310SOL     OW22828   2.175   3.153   5.752
 7310SOL    HW122829   2.247   3.117   5.811
 7310SOL    HW222830   2.086   3.117   5.782
 7311SOL     OW22831   0.513   5.926   6.215
 7311SOL    HW122832   0.466   5.852   6.167
 7311SOL    HW222833   0.557   5.986   6.148
 7312SOL     OW22834   6.922   2.156   3.979
 7312SOL    HW122835   6.916   2.123   4.073
 7312SOL    HW222836   6.888   2.250   3.974
 7313SOL     OW22837   2.569   0.866   2.612
 7313SOL    HW122838   2.471   0.852   2.620
 7313SOL    HW222839   2.588   0.962   2.596
 7314SOL     OW22840   0.412   4.593   6.063
 7314SOL    HW122841   0.502   4.558   6.038
 7314SOL    HW222842   0.374   4.646   5.987
 7315SOL     OW22843   1.869   4.993   2.529
 7315SOL    HW122844   1.896   4.953   2.617
 7315SOL    HW222845   1.874   4.923   2.458
 7316SOL     OW22846   3.305   2.361   1.104
 7316SOL    HW122847   3.272   2.293   1.039
 7316SOL    HW222848   3.402   2.380   1.086
 7317SOL     OW22849   3.741   1.998   0.415
 7317SOL    HW122850   3.781   2.040   0.497
 7317SOL    HW222851   3.642   2.009   0.418
 7318SOL     OW22852   5.502   5.894   0.958
 7318SOL    HW122853   5.602   5.900   0.953
 7318SOL    HW222854   5.473   5.887   1.054
 7319SOL     OW22855   5.635   5.894   6.573
 7319SOL    HW122856   5.638   5.994   6.575
 7319SOL    HW222857   5.556   5.864   6.520
 7320SOL     OW22858   0.350   2.111   1.339
 7320SOL    HW122859   0.424   2.047   1.321
 7320SOL    HW222860   0.277   2.098   1.272
 7321SOL     OW22861   1.151   1.148   6.844
 7321SOL    HW122862   1.126   1.235   6.801
 7321SOL    HW222863   1.244   1.124   6.818
 7322SOL     OW22864   1.406   3.340   3.357
 7322SOL    HW122865   1.378   3.430   3.325
 7322SOL    HW222866   1.487   3.311   3.306
 7323SOL     OW22867   1.015   2.991   0.880
 7323SOL    HW122868   0.986   2.902   0.845
 7323SOL    HW222869   1.009   2.991   0.980
 7324SOL     OW22870   5.598   4.402   3.852
 7324SOL    HW122871   5.649   4.328   3.808
 7324SOL    HW222872   5.636   4.490   3.825
 7325SOL     OW22873   4.327   1.035   5.908
 7325SOL    HW122874   4.390   1.072   5.976
 7325SOL    HW222875   4.289   1.110   5.853
 7326SOL     OW22876   3.563   0.632   0.658
 7326SOL    HW122877   3.610   0.635   0.746
 7326SOL    HW222878   3.465   0.646   0.671
 7327SOL     OW22879   1.257   4.343   3.035
 7327SOL    HW122880   1.287   4.431   3.072
 7327SOL    HW222881   1.334   4.278   3.037
 7328SOL     OW22882   4.525   5.002   4.588
 7328SOL    HW122883   4.533   5.058   4.671
 7328SOL    HW222884   4.602   5.020   4.528
 7329SOL     OW22885   3.200   3.548   1.244
 7329SOL    HW122886   3.246   3.626   1.286
 7329SOL    HW222887   3.221   3.544   1.147
 7330SOL     OW22888   2.781   3.236   1.702
 7330SOL    HW122889   2.801   3.138   1.698
 7330SOL    HW222890   2.757   3.268   1.610
 7331SOL     OW22891   5.385   2.933   2.097
 7331SOL    HW122892   5.434   2.952   2.012
 7331SOL    HW222893   5.444   2.951   2.175
 7332SOL     OW22894   3.366   6.130   6.001
 7332SOL    HW122895   3.438   6.155   5.935
 7332SOL    HW222896   3.366   6.031   6.014
 7333SOL     OW22897   0.767   0.878   1.003
 7333SOL    HW122898   0.680   0.889   0.957
 7333SOL    HW222899   0.816   0.966   1.003
 7334SOL     OW22900   2.756   6.136   4.093
 7334SOL    HW122901   2.817   6.065   4.129
 7334SOL    HW222902   2.767   6.220   4.146
 7335SOL     OW22903   6.827   3.159   2.012
 7335SOL    HW122904   6.734   3.130   2.034
 7335SOL    HW222905   6.875   3.086   1.963
 7336SOL     OW22906   2.153   6.337   2.101
 7336SOL    HW122907   2.141   6.430   2.137
 7336SOL    HW222908   2.204   6.341   2.015
 7337SOL     OW22909   2.440   1.531   3.296
 7337SOL    HW122910   2.496   1.471   3.240
 7337SOL    HW222911   2.344   1.504   3.288
 7338SOL     OW22912   5.185   3.332   1.444
 7338SOL    HW122913   5.127   3.256   1.472
 7338SOL    HW222914   5.133   3.393   1.384
 7339SOL     OW22915   6.906   5.914   4.567
 7339SOL    HW122916   6.835   5.918   4.497
 7339SOL    HW222917   6.981   5.857   4.536
 7340SOL     OW22918   2.845   6.943   0.812
 7340SOL    HW122919   2.769   6.896   0.858
 7340SOL    HW222920   2.923   6.949   0.874
 7341SOL     OW22921   6.687   5.434   4.620
 7341SOL    HW122922   6.645   5.422   4.530
 7341SOL    HW222923   6.692   5.532   4.641
 7342SOL     OW22924   1.226   5.265   1.172
 7342SOL    HW122925   1.133   5.273   1.135
 7342SOL    HW222926   1.288   5.238   1.099
 7343SOL     OW22927   5.341   3.004   2.746
 7343SOL    HW122928   5.266   2.963   2.694
 7343SOL    HW222929   5.309   3.031   2.836
 7344SOL     OW22930   2.240   1.203   0.023
 7344SOL    HW122931   2.316   1.248   6.999
 7344SOL    HW222932   2.199   1.134   6.986
 7345SOL     OW22933   3.702   5.497   0.554
 7345SOL    HW122934   3.683   5.503   0.457
 7345SOL    HW222935   3.783   5.552   0.576
 7346SOL     OW22936   3.834   4.807   1.726
 7346SOL    HW122937   3.810   4.742   1.798
 7346SOL    HW222938   3.831   4.900   1.764
 7347SOL     OW22939   6.287   3.079   2.600
 7347SOL    HW122940   6.241   3.008   2.654
 7347SOL    HW222941   6.218   3.135   2.553
 7348SOL     OW22942   0.704   2.123   5.036
 7348SOL    HW122943   0.622   2.082   4.995
 7348SOL    HW222944   0.677   2.182   5.112
 7349SOL     OW22945   3.884   1.493   0.427
 7349SOL    HW122946   3.904   1.545   0.343
 7349SOL    HW222947   3.792   1.453   0.420
 7350SOL     OW22948   2.272   1.243   3.070
 7350SOL    HW122949   2.248   1.308   3.142
 7350SOL    HW222950   2.239   1.277   2.982
 7351SOL     OW22951   4.325   4.553   6.848
 7351SOL    HW122952   4.255   4.481   6.849
 7351SOL    HW222953   4.358   4.568   6.940
 7352SOL     OW22954   6.922   1.016   3.384
 7352SOL    HW122955   6.917   0.957   3.303
 7352SOL    HW222956   6.847   1.082   3.381
 7353SOL     OW22957   5.056   2.597   5.081
 7353SOL    HW122958   5.085   2.537   5.006
 7353SOL    HW222959   5.005   2.674   5.044
 7354SOL     OW22960   6.433   4.211   5.160
 7354SOL    HW122961   6.522   4.225   5.203
 7354SOL    HW222962   6.401   4.297   5.120
 7355SOL     OW22963   1.432   4.380   2.079
 7355SOL    HW122964   1.495   4.436   2.025
 7355SOL    HW222965   1.345   4.427   2.089
 7356SOL     OW22966   6.162   1.588   5.535
 7356SOL    HW122967   6.179   1.505   5.590
 7356SOL    HW222968   6.203   1.576   5.445
 7357SOL     OW22969   6.491   1.476   0.693
 7357SOL    HW122970   6.412   1.426   0.658
 7357SOL    HW222971   6.506   1.452   0.789
 7358SOL     OW22972   2.954   0.740   4.049
 7358SOL    HW122973   3.034   0.748   4.108
 7358SOL    HW222974   2.954   0.815   3.983
 7359SOL     OW22975   3.572   3.104   3.015
 7359SOL    HW122976   3.541   3.199   3.023
 7359SOL    HW222977   3.540   3.065   2.929
 7360SOL     OW22978   0.243   2.732   5.904
 7360SOL    HW122979   0.265   2.772   5.993
 7360SOL    HW222980   0.326   2.701   5.859
 7361SOL     OW22981   5.424   6.781   2.509
 7361SOL    HW122982   5.467   6.713   2.568
 7361SOL    HW222983   5.368   6.843   2.564
 7362SOL     OW22984   2.016   6.556   5.772
 7362SOL    HW122985   2.005   6.614   5.691
 7362SOL    HW222986   2.104   6.574   5.814
 7363SOL     OW22987   5.106   2.716   6.540
 7363SOL    HW122988   5.011   2.693   6.517
 7363SOL    HW222989   5.154   2.745   6.458
 7364SOL     OW22990   5.492   0.952   1.803
 7364SOL    HW122991   5.505   0.997   1.891
 7364SOL    HW222992   5.513   0.855   1.812
 7365SOL     OW22993   3.316   0.837   2.300
 7365SOL    HW122994   3.286   0.856   2.207
 7365SOL    HW222995   3.388   0.767   2.299
 7366SOL     OW22996   0.839   5.555   0.276
 7366SOL    HW122997   0.839   5.575   0.178
 7366SOL    HW222998   0.932   5.564   0.312
 7367SOL     OW22999   4.999   3.429   0.078
 7367SOL    HW123000   5.065   3.504   0.074
 7367SOL    HW223001   4.955   3.419   7.012
 7368SOL     OW23002   3.312   3.739   3.741
 7368SOL    HW123003   3.279   3.718   3.833
 7368SOL    HW223004   3.340   3.835   3.737
 7369SOL     OW23005   4.391   2.339   6.895
 7369SOL    HW123006   4.375   2.406   6.822
 7369SOL    HW223007   4.426   2.386   6.976
 7370SOL     OW23008   1.827   6.157   1.441
 7370SOL    HW123009   1.879   6.195   1.518
 7370SOL    HW223010   1.878   6.171   1.356
 7371SOL     OW23011   2.499   4.884   4.685
 7371SOL    HW123012   2.487   4.829   4.602
 7371SOL    HW223013   2.464   4.977   4.669
 7372SOL     OW23014   3.195   0.026   5.897
 7372SOL    HW123015   3.160   6.962   5.864
 7372SOL    HW223016   3.289   0.014   5.930
 7373SOL     OW23017   3.854   0.768   1.524
 7373SOL    HW123018   3.947   0.798   1.502
 7373SOL    HW223019   3.856   0.673   1.553
 7374SOL     OW23020   1.848   3.371   6.072
 7374SOL    HW123021   1.762   3.359   6.121
 7374SOL    HW223022   1.830   3.386   5.975
 7375SOL     OW23023   0.871   6.884   2.969
 7375SOL    HW123024   0.873   6.912   3.065
 7375SOL    HW223025   0.906   6.959   2.912
 7376SOL     OW23026   2.912   4.083   5.558
 7376SOL    HW123027   2.942   3.990   5.541
 7376SOL    HW223028   2.899   4.131   5.471
 7377SOL     OW23029   4.614   4.541   1.178
 7377SOL    HW123030   4.560   4.487   1.242
 7377SOL    HW223031   4.686   4.590   1.227
 7378SOL     OW23032   6.605   2.036   5.547
 7378SOL    HW123033   6.660   2.117   5.564
 7378SOL    HW223034   6.610   2.012   5.450
 7379SOL     OW23035   3.471   1.677   1.566
 7379SOL    HW123036   3.558   1.652   1.524
 7379SOL    HW223037   3.487   1.742   1.640
 7380SOL     OW23038   6.815   3.050   5.071
 7380SOL    HW123039   6.911   3.024   5.078
 7380SOL    HW223040   6.797   3.126   5.134
 7381SOL     OW23041   5.785   2.290   0.254
 7381SOL    HW123042   5.688   2.294   0.231
 7381SOL    HW223043   5.830   2.374   0.224
 7382SOL     OW23044   0.218   6.236   3.465
 7382SOL    HW123045   0.278   6.213   3.388
 7382SOL    HW223046   0.195   6.153   3.515
 7383SOL     OW23047   6.897   6.098   3.518
 7383SOL    HW123048   6.977   6.119   3.575
 7383SOL    HW223049   6.843   6.026   3.562
 7384SOL     OW23050   6.055   1.432   2.530
 7384SOL    HW123051   6.106   1.360   2.483
 7384SOL    HW223052   6.092   1.445   2.622
 7385SOL     OW23053   4.864   0.108   1.916
 7385SOL    HW123054   4.784   0.049   1.918
 7385SOL    HW223055   4.917   0.090   1.833
 7386SOL     OW23056   0.240   2.361   5.754
 7386SOL    HW123057   0.213   2.456   5.772
 7386SOL    HW223058   0.163   2.313   5.712
 7387SOL     OW23059   4.068   5.774   3.102
 7387SOL    HW123060   4.004   5.772   3.178
 7387SOL    HW223061   4.158   5.805   3.135
 7388SOL     OW23062   6.703   5.090   4.449
 7388SOL    HW123063   6.649   5.110   4.367
 7388SOL    HW223064   6.795   5.061   4.421
 7389SOL     OW23065   1.220   3.948   5.843
 7389SOL    HW123066   1.301   3.942   5.902
 7389SOL    HW223067   1.171   3.861   5.845
 7390SOL     OW23068   2.160   6.661   5.424
 7390SOL    HW123069   2.229   6.596   5.458
 7390SOL    HW223070   2.167   6.668   5.325
 7391SOL     OW23071   6.858   3.228   0.450
 7391SOL    HW123072   6.952   3.253   0.426
 7391SOL    HW223073   6.832   3.145   0.399
 7392SOL     OW23074   2.700   4.705   3.132
 7392SOL    HW123075   2.642   4.648   3.189
 7392SOL    HW223076   2.758   4.763   3.190
 7393SOL     OW23077   0.757   3.458   1.558
 7393SOL    HW123078   0.698   3.384   1.591
 7393SOL    HW223079   0.812   3.492   1.634
 7394SOL     OW23080   2.831   3.685   6.377
 7394SOL    HW123081   2.902   3.642   6.320
 7394SOL    HW223082   2.757   3.619   6.393
 7395SOL     OW23083   1.257   6.291   0.574
 7395SOL    HW123084   1.292   6.238   0.497
 7395SOL    HW223085   1.267   6.238   0.658
 7396SOL     OW23086   0.819   0.123   0.400
 7396SOL    HW123087   0.758   0.044   0.399
 7396SOL    HW223088   0.806   0.174   0.486
 7397SOL     OW23089   6.601   5.431   4.903
 7397SOL    HW123090   6.642   5.422   4.812
 7397SOL    HW223091   6.638   5.512   4.949
 7398SOL     OW23092   4.199   5.527   3.455
 7398SOL    HW123093   4.226   5.542   3.361
 7398SOL    HW223094   4.269   5.472   3.502
 7399SOL     OW23095   4.805   4.033   4.925
 7399SOL    HW123096   4.727   4.081   4.886
 7399SOL    HW223097   4.890   4.073   4.889
 7400SOL     OW23098   2.212   5.212   6.592
 7400SOL    HW123099   2.306   5.186   6.569
 7400SOL    HW223100   2.200   5.310   6.576
 7401SOL     OW23101   6.333   1.935   4.626
 7401SOL    HW123102   6.425   1.923   4.589
 7401SOL    HW223103   6.273   1.861   4.594
 7402SOL     OW23104   2.212   0.072   3.771
 7402SOL    HW123105   2.243   0.022   3.853
 7402SOL    HW223106   2.234   0.018   3.690
 7403SOL     OW23107   1.827   3.318   1.529
 7403SOL    HW123108   1.737   3.357   1.516
 7403SOL    HW223109   1.897   3.388   1.515
 7404SOL     OW23110   1.356   1.144   2.316
 7404SOL    HW123111   1.322   1.160   2.409
 7404SOL    HW223112   1.413   1.061   2.316
 7405SOL     OW23113   2.616   4.828   6.123
 7405SOL    HW123114   2.694   4.877   6.084
 7405SOL    HW223115   2.618   4.732   6.093
 7406SOL     OW23116   0.408   5.198   1.878
 7406SOL    HW123117   0.489   5.165   1.830
 7406SOL    HW223118   0.326   5.171   1.828
 7407SOL     OW23119   2.127   0.138   6.465
 7407SOL    HW123120   2.076   0.162   6.547
 7407SOL    HW223121   2.088   0.057   6.423
 7408SOL     OW23122   0.941   3.888   5.685
 7408SOL    HW123123   0.857   3.908   5.634
 7408SOL    HW223124   1.019   3.895   5.623
 7409SOL     OW23125   3.069   5.682   5.885
 7409SOL    HW123126   3.143   5.660   5.821
 7409SOL    HW223127   2.999   5.734   5.837
 7410SOL     OW23128   5.811   5.012   0.874
 7410SOL    HW123129   5.792   4.926   0.826
 7410SOL    HW223130   5.843   4.993   0.966
 7411SOL     OW23131   4.692   5.833   5.582
 7411SOL    HW123132   4.782   5.863   5.614
 7411SOL    HW223133   4.698   5.739   5.551
 7412SOL     OW23134   0.991   2.351   0.078
 7412SOL    HW123135   0.966   2.292   0.156
 7412SOL    HW223136   0.997   2.295   7.019
 7413SOL     OW23137   6.584   3.610   4.605
 7413SOL    HW123138   6.661   3.646   4.658
 7413SOL    HW223139   6.505   3.600   4.665
 7414SOL     OW23140   6.753   5.571   3.220
 7414SOL    HW123141   6.733   5.511   3.297
 7414SOL    HW223142   6.838   5.621   3.238
 7415SOL     OW23143   2.081   2.121   2.779
 7415SOL    HW123144   2.169   2.160   2.806
 7415SOL    HW223145   2.075   2.119   2.679
 7416SOL     OW23146   4.923   6.437   4.145
 7416SOL    HW123147   4.932   6.537   4.147
 7416SOL    HW223148   4.964   6.398   4.227
 7417SOL     OW23149   0.626   6.190   0.476
 7417SOL    HW123150   0.648   6.148   0.388
 7417SOL    HW223151   0.566   6.269   0.461
 7418SOL     OW23152   1.489   3.513   0.324
 7418SOL    HW123153   1.470   3.423   0.284
 7418SOL    HW223154   1.473   3.584   0.256
 7419SOL     OW23155   6.193   1.116   4.785
 7419SOL    HW123156   6.255   1.126   4.707
 7419SOL    HW223157   6.105   1.080   4.754
 7420SOL     OW23158   7.014   5.273   2.231
 7420SOL    HW123159   6.938   5.316   2.280
 7420SOL    HW223160   0.033   5.205   2.289
 7421SOL     OW23161   3.948   2.974   1.193
 7421SOL    HW123162   3.902   2.892   1.228
 7421SOL    HW223163   4.016   2.947   1.124
 7422SOL     OW23164   0.885   2.904   1.126
 7422SOL    HW123165   0.946   2.852   1.185
 7422SOL    HW223166   0.806   2.847   1.103
 7423SOL     OW23167   1.937   6.041   6.818
 7423SOL    HW123168   1.983   6.126   6.844
 7423SOL    HW223169   1.838   6.057   6.811
 7424SOL     OW23170   6.165   1.473   4.199
 7424SOL    HW123171   6.137   1.480   4.103
 7424SOL    HW223172   6.239   1.406   4.207
 7425SOL     OW23173   4.094   6.032   5.923
 7425SOL    HW123174   4.052   5.942   5.912
 7425SOL    HW223175   4.144   6.055   5.839
 7426SOL     OW23176   0.807   0.996   6.815
 7426SOL    HW123177   0.867   1.028   6.888
 7426SOL    HW223178   0.784   0.900   6.830
 7427SOL     OW23179   4.653   5.681   3.949
 7427SOL    HW123180   4.711   5.642   4.020
 7427SOL    HW223181   4.642   5.779   3.965
 7428SOL     OW23182   3.304   2.025   6.187
 7428SOL    HW123183   3.268   1.988   6.101
 7428SOL    HW223184   3.311   2.125   6.180
 7429SOL     OW23185   6.492   6.888   3.243
 7429SOL    HW123186   6.506   6.797   3.281
 7429SOL    HW223187   6.394   6.908   3.241
 7430SOL     OW23188   6.984   4.210   4.787
 7430SOL    HW123189   0.029   4.265   4.833
 7430SOL    HW223190   6.936   4.153   4.853
 7431SOL     OW23191   0.800   4.366   2.180
 7431SOL    HW123192   0.712   4.402   2.210
 7431SOL    HW223193   0.786   4.298   2.108
 7432SOL     OW23194   0.895   6.582   4.990
 7432SOL    HW123195   0.904   6.671   4.945
 7432SOL    HW223196   0.985   6.541   5.001
 7433SOL     OW23197   6.150   5.573   1.049
 7433SOL    HW123198   6.179   5.508   0.979
 7433SOL    HW223199   6.230   5.620   1.087
 7434SOL     OW23200   4.742   0.972   6.354
 7434SOL    HW123201   4.741   1.064   6.314
 7434SOL    HW223202   4.836   0.939   6.359
 7435SOL     OW23203   1.910   6.057   0.450
 7435SOL    HW123204   1.840   6.086   0.514
 7435SOL    HW223205   1.890   6.094   0.359
 7436SOL     OW23206   5.116   2.626   0.235
 7436SOL    HW123207   5.093   2.537   0.196
 7436SOL    HW223208   5.148   2.615   0.329
 7437SOL     OW23209   0.455   5.789   5.807
 7437SOL    HW123210   0.422   5.814   5.716
 7437SOL    HW223211   0.525   5.719   5.799
 7438SOL     OW23212   6.161   4.139   2.253
 7438SOL    HW123213   6.177   4.217   2.314
 7438SOL    HW223214   6.243   4.121   2.200
 7439SOL     OW23215   1.350   6.495   3.813
 7439SOL    HW123216   1.401   6.516   3.730
 7439SOL    HW223217   1.283   6.423   3.794
 7440SOL     OW23218   0.814   2.025   4.343
 7440SOL    HW123219   0.862   2.084   4.278
 7440SOL    HW223220   0.725   1.999   4.305
 7441SOL     OW23221   5.195   6.954   4.068
 7441SOL    HW123222   5.270   6.946   4.134
 7441SOL    HW223223   5.232   6.970   3.977
 7442SOL     OW23224   1.645   1.346   6.782
 7442SOL    HW123225   1.672   1.295   6.863
 7442SOL    HW223226   1.695   1.432   6.778
 7443SOL     OW23227   7.008   0.715   1.055
 7443SOL    HW123228   0.015   0.660   0.978
 7443SOL    HW223229   6.914   0.687   1.080
 7444SOL     OW23230   0.073   2.202   6.253
 7444SOL    HW123231   0.160   2.155   6.238
 7444SOL    HW223232   0.075   2.291   6.208
 7445SOL     OW23233   5.159   2.769   2.098
 7445SOL    HW123234   5.129   2.760   2.003
 7445SOL    HW223235   5.248   2.816   2.100
 7446SOL     OW23236   0.117   3.001   1.416
 7446SOL    HW123237   0.139   2.977   1.321
 7446SOL    HW223238   0.024   2.970   1.438
 7447SOL     OW23239   0.709   4.224   5.819
 7447SOL    HW123240   0.610   4.218   5.833
 7447SOL    HW223241   0.753   4.258   5.901
 7448SOL     OW23242   6.926   6.693   6.186
 7448SOL    HW123243   0.000   6.676   6.186
 7448SOL    HW223244   6.888   6.673   6.096
 7449SOL     OW23245   4.662   2.219   2.662
 7449SOL    HW123246   4.651   2.247   2.567
 7449SOL    HW223247   4.672   2.301   2.720
 7450SOL     OW23248   3.150   0.779   2.702
 7450SOL    HW123249   3.182   0.854   2.761
 7450SOL    HW223250   3.111   0.817   2.618
 7451SOL     OW23251   1.624   0.873   3.658
 7451SOL    HW123252   1.691   0.832   3.720
 7451SOL    HW223253   1.589   0.958   3.697
 7452SOL     OW23254   1.623   6.676   4.959
 7452SOL    HW123255   1.697   6.673   4.892
 7452SOL    HW223256   1.658   6.711   5.046
 7453SOL     OW23257   6.239   5.950   5.041
 7453SOL    HW123258   6.192   5.919   5.123
 7453SOL    HW223259   6.301   6.024   5.065
 7454SOL     OW23260   0.436   3.348   0.634
 7454SOL    HW123261   0.504   3.417   0.656
 7454SOL    HW223262   0.392   3.316   0.718
 7455SOL     OW23263   4.892   1.971   0.043
 7455SOL    HW123264   4.935   1.884   0.068
 7455SOL    HW223265   4.793   1.958   0.036
 7456SOL     OW23266   2.010   3.285   5.026
 7456SOL    HW123267   2.051   3.227   5.096
 7456SOL    HW223268   2.038   3.380   5.041
 7457SOL     OW23269   5.870   0.991   5.752
 7457SOL    HW123270   5.895   0.966   5.846
 7457SOL    HW223271   5.852   1.089   5.748
 7458SOL     OW23272   2.840   1.190   0.276
 7458SOL    HW123273   2.831   1.224   0.183
 7458SOL    HW223274   2.834   1.267   0.340
 7459SOL     OW23275   4.377   0.744   4.541
 7459SOL    HW123276   4.466   0.725   4.499
 7459SOL    HW223277   4.351   0.838   4.524
 7460SOL     OW23278   0.448   4.541   6.800
 7460SOL    HW123279   0.429   4.469   6.866
 7460SOL    HW223280   0.469   4.626   6.849
 7461SOL     OW23281   4.916   0.856   3.907
 7461SOL    HW123282   4.894   0.780   3.846
 7461SOL    HW223283   4.871   0.939   3.873
 7462SOL     OW23284   2.408   1.499   2.184
 7462SOL    HW123285   2.498   1.529   2.217
 7462SOL    HW223286   2.420   1.449   2.098
 7463SOL     OW23287   3.774   3.449   2.833
 7463SOL    HW123288   3.757   3.547   2.823
 7463SOL    HW223289   3.780   3.408   2.742
 7464SOL     OW23290   5.602   6.020   0.577
 7464SOL    HW123291   5.696   5.987   0.583
 7464SOL    HW223292   5.541   5.953   0.620
 7465SOL     OW23293   3.188   0.534   1.789
 7465SOL    HW123294   3.266   0.569   1.840
 7465SOL    HW223295   3.221   0.480   1.711
 7466SOL     OW23296   0.979   0.626   6.987
 7466SOL    HW123297   0.904   0.595   6.929
 7466SOL    HW223298   0.987   0.726   6.980
 7467SOL     OW23299   6.791   1.389   1.267
 7467SOL    HW123300   6.766   1.362   1.360
 7467SOL    HW223301   6.808   1.488   1.264
 7468SOL     OW23302   6.471   3.454   3.050
 7468SOL    HW123303   6.517   3.369   3.076
 7468SOL    HW223304   6.379   3.456   3.091
 7469SOL     OW23305   0.338   1.315   2.078
 7469SOL    HW123306   0.370   1.241   2.019
 7469SOL    HW223307   0.390   1.314   2.164
 7470SOL     OW23308   6.820   2.523   2.144
 7470SOL    HW123309   6.720   2.517   2.136
 7470SOL    HW223310   6.844   2.578   2.224
 7471SOL     OW23311   6.187   6.199   5.959
 7471SOL    HW123312   6.239   6.115   5.940
 7471SOL    HW223313   6.116   6.180   6.026
 7472SOL     OW23314   3.276   6.582   2.866
 7472SOL    HW123315   3.310   6.649   2.800
 7472SOL    HW223316   3.348   6.515   2.885
 7473SOL     OW23317   6.766   3.581   4.850
 7473SOL    HW123318   6.713   3.631   4.918
 7473SOL    HW223319   6.838   3.529   4.896
 7474SOL     OW23320   3.784   0.954   3.079
 7474SOL    HW123321   3.870   1.002   3.097
 7474SOL    HW223322   3.794   0.895   2.999
 7475SOL     OW23323   4.382   1.484   0.293
 7475SOL    HW123324   4.471   1.511   0.255
 7475SOL    HW223325   4.370   1.527   0.383
 7476SOL     OW23326   3.713   6.802   4.984
 7476SOL    HW123327   3.730   6.869   4.911
 7476SOL    HW223328   3.738   6.711   4.952
 7477SOL     OW23329   4.964   2.134   3.854
 7477SOL    HW123330   4.924   2.044   3.871
 7477SOL    HW223331   4.942   2.162   3.760
 7478SOL     OW23332   1.569   5.480   1.022
 7478SOL    HW123333   1.482   5.446   0.986
 7478SOL    HW223334   1.643   5.420   0.993
 7479SOL     OW23335   4.876   0.420   6.725
 7479SOL    HW123336   4.892   0.471   6.641
 7479SOL    HW223337   4.783   0.382   6.725
 7480SOL     OW23338   7.014   5.046   0.811
 7480SOL    HW123339   6.946   4.974   0.793
 7480SOL    HW223340   0.042   5.064   0.727
 7481SOL     OW23341   5.995   5.163   0.720
 7481SOL    HW123342   5.978   5.082   0.664
 7481SOL    HW223343   5.917   5.180   0.780
 7482SOL     OW23344   4.986   0.775   4.156
 7482SOL    HW123345   5.081   0.743   4.151
 7482SOL    HW223346   4.960   0.816   4.068
 7483SOL     OW23347   3.221   0.949   6.287
 7483SOL    HW123348   3.195   1.000   6.369
 7483SOL    HW223349   3.267   1.010   6.223
 7484SOL     OW23350   1.977   0.031   2.103
 7484SOL    HW123351   2.072   0.057   2.124
 7484SOL    HW223352   1.953   0.063   2.011
 7485SOL     OW23353   1.775   6.525   6.855
 7485SOL    HW123354   1.691   6.538   6.802
 7485SOL    HW223355   1.751   6.518   6.952
 7486SOL     OW23356   2.257   6.930   5.555
 7486SOL    HW123357   2.347   6.933   5.510
 7486SOL    HW223358   2.212   6.843   5.535
 7487SOL     OW23359   3.969   5.715   3.538
 7487SOL    HW123360   4.043   5.648   3.543
 7487SOL    HW223361   3.908   5.703   3.617
 7488SOL     OW23362   3.625   1.082   6.163
 7488SOL    HW123363   3.644   1.176   6.132
 7488SOL    HW223364   3.610   1.082   6.262
 7489SOL     OW23365   5.437   3.427   3.110
 7489SOL    HW123366   5.517   3.378   3.143
 7489SOL    HW223367   5.454   3.526   3.114
 7490SOL     OW23368   5.926   1.582   1.801
 7490SOL    HW123369   5.864   1.580   1.880
 7490SOL    HW223370   5.875   1.613   1.721
 7491SOL     OW23371   6.645   5.552   6.479
 7491SOL    HW123372   6.595   5.493   6.543
 7491SOL    HW223373   6.580   5.611   6.432
 7492SOL     OW23374   1.890   2.609   4.566
 7492SOL    HW123375   1.859   2.594   4.660
 7492SOL    HW223376   1.986   2.583   4.557
 7493SOL     OW23377   5.201   3.639   6.978
 7493SOL    HW123378   5.244   3.690   6.904
 7493SOL    HW223379   5.244   3.664   0.041
 7494SOL     OW23380   5.587   1.323   1.642
 7494SOL    HW123381   5.604   1.227   1.619
 7494SOL    HW223382   5.658   1.379   1.600
 7495SOL     OW23383   0.763   2.014   2.108
 7495SOL    HW123384   0.846   2.069   2.121
 7495SOL    HW223385   0.693   2.070   2.064
 7496SOL     OW23386   1.118   4.784   5.702
 7496SOL    HW123387   1.110   4.759   5.605
 7496SOL    HW223388   1.204   4.749   5.738
 7497SOL     OW23389   2.165   4.555   1.640
 7497SOL    HW123390   2.161   4.645   1.596
 7497SOL    HW223391   2.204   4.565   1.732
 7498SOL     OW23392   3.984   1.845   4.240
 7498SOL    HW123393   3.936   1.877   4.158
 7498SOL    HW223394   4.058   1.783   4.213
 7499SOL     OW23395   5.202   5.758   4.164
 7499SOL    HW123396   5.162   5.667   4.154
 7499SOL    HW223397   5.178   5.813   4.084
 7500SOL     OW23398   4.977   4.275   1.184
 7500SOL    HW123399   4.939   4.294   1.274
 7500SOL    HW223400   4.926   4.326   1.115
 7501SOL     OW23401   0.454   4.116   4.036
 7501SOL    HW123402   0.540   4.119   4.088
 7501SOL    HW223403   0.414   4.025   4.045
 7502SOL     OW23404   1.843   1.583   4.938
 7502SOL    HW123405   1.801   1.511   4.994
 7502SOL    HW223406   1.861   1.664   4.995
 7503SOL     OW23407   2.500   1.989   6.219
 7503SOL    HW123408   2.538   1.904   6.184
 7503SOL    HW223409   2.532   2.066   6.163
 7504SOL     OW23410   3.989   6.433   3.565
 7504SOL    HW123411   3.999   6.377   3.482
 7504SOL    HW223412   3.970   6.527   3.539
 7505SOL     OW23413   1.595   1.968   4.674
 7505SOL    HW123414   1.514   1.920   4.707
 7505SOL    HW223415   1.673   1.906   4.675
 7506SOL     OW23416   3.545   1.792   2.994
 7506SOL    HW123417   3.462   1.808   2.941
 7506SOL    HW223418   3.532   1.823   3.088
 7507SOL     OW23419   1.343   6.010   6.110
 7507SOL    HW123420   1.302   6.090   6.066
 7507SOL    HW223421   1.273   5.961   6.162
 7508SOL     OW23422   5.371   0.135   3.568
 7508SOL    HW123423   5.328   0.150   3.657
 7508SOL    HW223424   5.409   0.220   3.534
 7509SOL     OW23425   4.714   3.972   6.113
 7509SOL    HW123426   4.656   3.920   6.176
 7509SOL    HW223427   4.775   3.909   6.064
 7510SOL     OW23428   3.504   4.073   4.947
 7510SOL    HW123429   3.583   4.048   5.003
 7510SOL    HW223430   3.447   4.137   4.997
 7511SOL     OW23431   1.071   0.616   2.249
 7511SOL    HW123432   1.076   0.704   2.296
 7511SOL    HW223433   1.145   0.557   2.281
 7512SOL     OW23434   1.777   2.629   1.793
 7512SOL    HW123435   1.758   2.708   1.852
 7512SOL    HW223436   1.721   2.634   1.711
 7513SOL     OW23437   0.965   2.944   6.770
 7513SOL    HW123438   0.906   2.863   6.774
 7513SOL    HW223439   0.909   3.025   6.750
 7514SOL     OW23440   2.736   5.945   2.905
 7514SOL    HW123441   2.797   5.874   2.940
 7514SOL    HW223442   2.705   6.002   2.981
 7515SOL     OW23443   6.176   5.898   2.731
 7515SOL    HW123444   6.227   5.817   2.701
 7515SOL    HW223445   6.184   5.970   2.663
 7516SOL     OW23446   0.301   1.052   2.781
 7516SOL    HW123447   0.322   1.121   2.849
 7516SOL    HW223448   0.320   0.961   2.818
 7517SOL     OW23449   0.410   4.056   1.477
 7517SOL    HW123450   0.350   4.108   1.538
 7517SOL    HW223451   0.479   4.117   1.438
 7518SOL     OW23452   5.074   5.574   3.540
 7518SOL    HW123453   5.030   5.487   3.562
 7518SOL    HW223454   5.163   5.579   3.585
 7519SOL     OW23455   2.436   5.859   3.905
 7519SOL    HW123456   2.357   5.900   3.860
 7519SOL    HW223457   2.468   5.781   3.851
 7520SOL     OW23458   1.846   6.180   4.210
 7520SOL    HW123459   1.911   6.137   4.148
 7520SOL    HW223460   1.894   6.243   4.272
 7521SOL     OW23461   4.650   4.353   5.689
 7521SOL    HW123462   4.746   4.327   5.682
 7521SOL    HW223463   4.593   4.271   5.686
 7522SOL     OW23464   1.841   0.811   1.303
 7522SOL    HW123465   1.764   0.755   1.334
 7522SOL    HW223466   1.848   0.892   1.361
 7523SOL     OW23467   5.911   6.927   6.566
 7523SOL    HW123468   5.855   6.854   6.527
 7523SOL    HW223469   5.906   6.923   6.665
 7524SOL     OW23470   0.229   1.528   5.021
 7524SOL    HW123471   0.161   1.482   4.964
 7524SOL    HW223472   0.265   1.607   4.972
 7525SOL     OW23473   1.434   0.239   0.847
 7525SOL    HW123474   1.338   0.260   0.828
 7525SOL    HW223475   1.478   0.319   0.889
 7526SOL     OW23476   3.556   2.904   4.773
 7526SOL    HW123477   3.488   2.874   4.840
 7526SOL    HW223478   3.646   2.907   4.816
 7527SOL     OW23479   5.133   5.377   3.320
 7527SOL    HW123480   5.058   5.354   3.258
 7527SOL    HW223481   5.096   5.404   3.409
 7528SOL     OW23482   6.595   3.580   6.576
 7528SOL    HW123483   6.610   3.494   6.527
 7528SOL    HW223484   6.680   3.609   6.619
 7529SOL     OW23485   3.471   1.253   5.858
 7529SOL    HW123486   3.498   1.184   5.792
 7529SOL    HW223487   3.395   1.307   5.821
 7530SOL     OW23488   0.597   3.739   2.612
 7530SOL    HW123489   0.653   3.675   2.561
 7530SOL    HW223490   0.513   3.694   2.641
 7531SOL     OW23491   3.948   2.220   3.906
 7531SOL    HW123492   3.952   2.155   3.830
 7531SOL    HW223493   3.861   2.208   3.955
 7532SOL     OW23494   5.372   5.254   2.501
 7532SOL    HW123495   5.369   5.226   2.405
 7532SOL    HW223496   5.453   5.215   2.544
 7533SOL     OW23497   3.879   0.600   4.287
 7533SOL    HW123498   3.823   0.535   4.338
 7533SOL    HW223499   3.939   0.649   4.349
 7534SOL     OW23500   5.002   6.716   4.966
 7534SOL    HW123501   5.097   6.686   4.978
 7534SOL    HW223502   4.943   6.636   4.956
 7535SOL     OW23503   3.164   3.262   6.217
 7535SOL    HW123504   3.141   3.360   6.216
 7535SOL    HW223505   3.256   3.250   6.181
 7536SOL     OW23506   3.918   6.384   4.106
 7536SOL    HW123507   3.976   6.395   4.025
 7536SOL    HW223508   3.898   6.287   4.120
 7537SOL     OW23509   2.168   5.008   5.707
 7537SOL    HW123510   2.151   4.938   5.637
 7537SOL    HW223511   2.261   5.042   5.698
 7538SOL     OW23512   2.870   3.580   2.371
 7538SOL    HW123513   2.771   3.574   2.370
 7538SOL    HW223514   2.909   3.492   2.399
 7539SOL     OW23515   2.074   2.820   4.677
 7539SOL    HW123516   1.980   2.804   4.646
 7539SOL    HW223517   2.110   2.902   4.633
 7540SOL     OW23518   2.027   1.269   6.788
 7540SOL    HW123519   2.002   1.172   6.790
 7540SOL    HW223520   2.028   1.305   6.881
 7541SOL     OW23521   6.447   2.370   5.916
 7541SOL    HW123522   6.431   2.463   5.881
 7541SOL    HW223523   6.449   2.306   5.840
 7542SOL     OW23524   1.350   6.828   6.681
 7542SOL    HW123525   1.255   6.817   6.654
 7542SOL    HW223526   1.409   6.821   6.601
 7543SOL     OW23527   3.802   3.090   0.064
 7543SOL    HW123528   3.806   3.150   0.144
 7543SOL    HW223529   3.885   3.099   0.010
 7544SOL     OW23530   2.189   1.866   2.458
 7544SOL    HW123531   2.174   1.772   2.427
 7544SOL    HW223532   2.150   1.878   2.549
 7545SOL     OW23533   5.414   6.166   4.499
 7545SOL    HW123534   5.358   6.125   4.572
 7545SOL    HW223535   5.418   6.265   4.511
 7546SOL     OW23536   5.128   0.770   6.590
 7546SOL    HW123537   5.069   0.814   6.658
 7546SOL    HW223538   5.152   0.678   6.621
 7547SOL     OW23539   3.235   0.464   0.055
 7547SOL    HW123540   3.280   0.433   6.995
 7547SOL    HW223541   3.266   0.408   0.132
 7548SOL     OW23542   1.742   2.465   1.523
 7548SOL    HW123543   1.752   2.551   1.474
 7548SOL    HW223544   1.646   2.451   1.547
 7549SOL     OW23545   5.809   2.315   2.190
 7549SOL    HW123546   5.843   2.384   2.253
 7549SOL    HW223547   5.714   2.294   2.212
 7550SOL     OW23548   2.013   5.629   1.252
 7550SOL    HW123549   1.933   5.615   1.193
 7550SOL    HW223550   2.074   5.696   1.209
 7551SOL     OW23551   4.895   3.556   6.455
 7551SOL    HW123552   4.896   3.654   6.432
 7551SOL    HW223553   4.883   3.545   6.553
 7552SOL     OW23554   3.598   5.266   3.505
 7552SOL    HW123555   3.532   5.323   3.456
 7552SOL    HW223556   3.648   5.323   3.570
 7553SOL     OW23557   4.093   5.218   5.748
 7553SOL    HW123558   4.165   5.149   5.754
 7553SOL    HW223559   4.118   5.298   5.802
 7554SOL     OW23560   6.479   0.768   1.096
 7554SOL    HW123561   6.521   0.841   1.149
 7554SOL    HW223562   6.446   0.697   1.158
 7555SOL     OW23563   1.472   6.029   5.458
 7555SOL    HW123564   1.503   6.114   5.416
 7555SOL    HW223565   1.422   5.975   5.390
 7556SOL     OW23566   0.623   2.761   5.353
 7556SOL    HW123567   0.698   2.748   5.288
 7556SOL    HW223568   0.646   2.716   5.440
 7557SOL     OW23569   4.736   3.819   0.051
 7557SOL    HW123570   4.659   3.882   0.039
 7557SOL    HW223571   4.805   3.836   7.005
 7558SOL     OW23572   1.514   3.320   3.593
 7558SOL    HW123573   1.512   3.419   3.606
 7558SOL    HW223574   1.471   3.297   3.505
 7559SOL     OW23575   0.591   4.198   1.321
 7559SOL    HW123576   0.639   4.112   1.303
 7559SOL    HW223577   0.584   4.251   1.236
 7560SOL     OW23578   4.425   6.832   0.064
 7560SOL    HW123579   4.358   6.783   0.009
 7560SOL    HW223580   4.515   6.789   0.053
 7561SOL     OW23581   0.098   2.757   0.927
 7561SOL    HW123582   0.167   2.712   0.870
 7561SOL    HW223583   0.036   2.809   0.869
 7562SOL     OW23584   5.848   5.689   5.213
 7562SOL    HW123585   5.770   5.628   5.197
 7562SOL    HW223586   5.868   5.691   5.311
 7563SOL     OW23587   2.234   0.527   2.132
 7563SOL    HW123588   2.311   0.480   2.089
 7563SOL    HW223589   2.152   0.470   2.125
 7564SOL     OW23590   4.995   6.036   3.912
 7564SOL    HW123591   4.942   6.003   3.990
 7564SOL    HW223592   4.943   6.023   3.828
 7565SOL     OW23593   4.726   4.524   0.772
 7565SOL    HW123594   4.739   4.472   0.688
 7565SOL    HW223595   4.730   4.622   0.752
 7566SOL     OW23596   1.454   5.930   4.189
 7566SOL    HW123597   1.503   5.937   4.102
 7566SOL    HW223598   1.451   6.020   4.233
 7567SOL     OW23599   2.931   4.200   0.340
 7567SOL    HW123600   3.013   4.142   0.335
 7567SOL    HW223601   2.852   4.149   0.307
 7568SOL     OW23602   4.710   4.687   2.946
 7568SOL    HW123603   4.795   4.722   2.907
 7568SOL    HW223604   4.655   4.644   2.874
 7569SOL     OW23605   4.554   0.034   0.721
 7569SOL    HW123606   4.499   7.011   0.791
 7569SOL    HW223607   4.615   0.100   0.765
 7570SOL     OW23608   6.337   5.106   4.391
 7570SOL    HW123609   6.244   5.082   4.417
 7570SOL    HW223610   6.388   5.024   4.367
 7571SOL     OW23611   4.993   4.652   2.234
 7571SOL    HW123612   4.986   4.698   2.145
 7571SOL    HW223613   5.082   4.608   2.241
 7572SOL     OW23614   2.566   1.725   4.944
 7572SOL    HW123615   2.606   1.642   4.983
 7572SOL    HW223616   2.628   1.762   4.874
 7573SOL     OW23617   2.380   5.765   4.340
 7573SOL    HW123618   2.444   5.833   4.376
 7573SOL    HW223619   2.308   5.748   4.407
 7574SOL     OW23620   4.969   6.352   2.972
 7574SOL    HW123621   4.921   6.432   2.936
 7574SOL    HW223622   4.970   6.280   2.903
 7575SOL     OW23623   3.604   1.996   5.002
 7575SOL    HW123624   3.659   2.019   5.083
 7575SOL    HW223625   3.640   1.913   4.960
 7576SOL     OW23626   6.146   2.766   0.721
 7576SOL    HW123627   6.125   2.780   0.818
 7576SOL    HW223628   6.185   2.675   0.708
 7577SOL     OW23629   5.219   0.351   5.010
 7577SOL    HW123630   5.173   0.434   4.980
 7577SOL    HW223631   5.249   0.298   4.931
 7578SOL     OW23632   2.465   4.714   4.463
 7578SOL    HW123633   2.366   4.701   4.458
 7578SOL    HW223634   2.510   4.625   4.472
 7579SOL     OW23635   4.069   1.576   3.257
 7579SOL    HW123636   3.976   1.612   3.253
 7579SOL    HW223637   4.120   1.604   3.176
 7580SOL     OW23638   1.854   3.778   2.815
 7580SOL    HW123639   1.930   3.735   2.766
 7580SOL    HW223640   1.768   3.753   2.770
 7581SOL     OW23641   6.129   0.638   1.191
 7581SOL    HW123642   6.103   0.734   1.195
 7581SOL    HW223643   6.223   0.627   1.223
 7582SOL     OW23644   3.235   0.905   1.044
 7582SOL    HW123645   3.197   0.838   0.980
 7582SOL    HW223646   3.209   0.997   1.016
 7583SOL     OW23647   6.729   2.982   2.268
 7583SOL    HW123648   6.747   3.068   2.221
 7583SOL    HW223649   6.770   2.985   2.359
 7584SOL     OW23650   2.594   0.519   0.994
 7584SOL    HW123651   2.534   0.464   0.936
 7584SOL    HW223652   2.572   0.616   0.983
 7585SOL     OW23653   1.801   4.867   6.218
 7585SOL    HW123654   1.859   4.871   6.137
 7585SOL    HW223655   1.846   4.811   6.288
 7586SOL     OW23656   2.769   1.061   2.247
 7586SOL    HW123657   2.712   1.138   2.217
 7586SOL    HW223658   2.735   0.977   2.206
 7587SOL     OW23659   1.509   1.025   5.823
 7587SOL    HW123660   1.547   1.102   5.770
 7587SOL    HW223661   1.543   1.029   5.916
 7588SOL     OW23662   0.298   4.273   1.645
 7588SOL    HW123663   0.372   4.333   1.615
 7588SOL    HW223664   0.238   4.252   1.567
 7589SOL     OW23665   5.514   5.718   0.740
 7589SOL    HW123666   5.539   5.623   0.757
 7589SOL    HW223667   5.529   5.772   0.822
 7590SOL     OW23668   1.612   0.581   5.859
 7590SOL    HW123669   1.624   0.629   5.946
 7590SOL    HW223670   1.699   0.543   5.829
 7591SOL     OW23671   6.782   4.856   0.768
 7591SOL    HW123672   6.776   4.846   0.669
 7591SOL    HW223673   6.748   4.772   0.812
 7592SOL     OW23674   5.422   5.668   0.477
 7592SOL    HW123675   5.362   5.742   0.445
 7592SOL    HW223676   5.465   5.696   0.563
 7593SOL     OW23677   6.087   2.209   6.677
 7593SOL    HW123678   6.178   2.237   6.707
 7593SOL    HW223679   6.054   2.135   6.735
 7594SOL     OW23680   1.357   5.939   3.755
 7594SOL    HW123681   1.296   5.932   3.676
 7594SOL    HW223682   1.424   5.864   3.752
 7595SOL     OW23683   6.176   2.722   0.038
 7595SOL    HW123684   6.203   2.681   0.125
 7595SOL    HW223685   6.235   2.800   0.018
 7596SOL     OW23686   5.382   4.239   2.115
 7596SOL    HW123687   5.375   4.221   2.016
 7596SOL    HW223688   5.452   4.308   2.131
 7597SOL     OW23689   3.428   5.204   1.555
 7597SOL    HW123690   3.445   5.259   1.473
 7597SOL    HW223691   3.461   5.253   1.635
 7598SOL     OW23692   6.840   1.144   3.673
 7598SOL    HW123693   6.859   1.106   3.764
 7598SOL    HW223694   6.876   1.237   3.668
 7599SOL     OW23695   6.482   2.260   2.587
 7599SOL    HW123696   6.434   2.287   2.671
 7599SOL    HW223697   6.531   2.174   2.603
 7600SOL     OW23698   2.346   1.651   1.307
 7600SOL    HW123699   2.332   1.693   1.218
 7600SOL    HW223700   2.391   1.716   1.369
 7601SOL     OW23701   2.058   6.484   4.660
 7601SOL    HW123702   2.108   6.570   4.647
 7601SOL    HW223703   1.998   6.470   4.581
 7602SOL     OW23704   0.383   3.704   4.653
 7602SOL    HW123705   0.476   3.668   4.652
 7602SOL    HW223706   0.346   3.696   4.746
 7603SOL     OW23707   1.048   6.707   1.366
 7603SOL    HW123708   0.989   6.626   1.361
 7603SOL    HW223709   1.008   6.774   1.428
 7604SOL     OW23710   5.207   6.480   5.789
 7604SOL    HW123711   5.185   6.399   5.843
 7604SOL    HW223712   5.131   6.544   5.792
 7605SOL     OW23713   6.065   4.687   6.866
 7605SOL    HW123714   6.153   4.641   6.877
 7605SOL    HW223715   5.994   4.619   6.847
 7606SOL     OW23716   5.997   2.042   2.570
 7606SOL    HW123717   5.949   2.078   2.490
 7606SOL    HW223718   5.944   2.063   2.653
 7607SOL     OW23719   4.771   6.986   6.561
 7607SOL    HW123720   4.834   7.022   6.492
 7607SOL    HW223721   4.686   6.957   6.517
 7608SOL     OW23722   3.270   3.323   3.263
 7608SOL    HW123723   3.268   3.423   3.263
 7608SOL    HW223724   3.340   3.291   3.328
 7609SOL     OW23725   1.477   3.275   4.385
 7609SOL    HW123726   1.484   3.192   4.330
 7609SOL    HW223727   1.501   3.354   4.329
 7610SOL     OW23728   5.220   0.141   1.272
 7610SOL    HW123729   5.177   0.077   1.337
 7610SOL    HW223730   5.159   0.219   1.258
 7611SOL     OW23731   1.642   1.855   0.277
 7611SOL    HW123732   1.545   1.837   0.258
 7611SOL    HW223733   1.699   1.789   0.229
 7612SOL     OW23734   3.982   1.964   3.202
 7612SOL    HW123735   3.951   2.022   3.277
 7612SOL    HW223736   4.080   1.948   3.210
 7613SOL     OW23737   4.727   1.114   2.126
 7613SOL    HW123738   4.651   1.057   2.156
 7613SOL    HW223739   4.698   1.169   2.048
 7614SOL     OW23740   4.299   2.396   0.429
 7614SOL    HW123741   4.217   2.430   0.475
 7614SOL    HW223742   4.375   2.459   0.446
 7615SOL     OW23743   3.685   5.205   5.748
 7615SOL    HW123744   3.702   5.124   5.803
 7615SOL    HW223745   3.587   5.214   5.729
 7616SOL     OW23746   6.226   3.945   3.578
 7616SOL    HW123747   6.231   3.865   3.638
 7616SOL    HW223748   6.217   4.028   3.633
 7617SOL     OW23749   2.872   5.367   2.605
 7617SOL    HW123750   2.919   5.453   2.582
 7617SOL    HW223751   2.914   5.292   2.555
 7618SOL     OW23752   1.872   2.567   0.123
 7618SOL    HW123753   1.926   2.523   0.195
 7618SOL    HW223754   1.845   2.499   0.055
 7619SOL     OW23755   5.080   3.533   6.136
 7619SOL    HW123756   5.106   3.437   6.131
 7619SOL    HW223757   4.980   3.541   6.141
 7620SOL     OW23758   3.314   6.960   1.806
 7620SOL    HW123759   3.318   6.914   1.895
 7620SOL    HW223760   3.390   6.928   1.749
 7621SOL     OW23761   2.741   0.709   1.708
 7621SOL    HW123762   2.698   0.704   1.618
 7621SOL    HW223763   2.789   0.797   1.717
 7622SOL     OW23764   4.213   2.556   0.223
 7622SOL    HW123765   4.238   2.468   0.264
 7622SOL    HW223766   4.221   2.628   0.291
 7623SOL     OW23767   4.626   0.620   5.876
 7623SOL    HW123768   4.564   0.685   5.920
 7623SOL    HW223769   4.583   0.583   5.794
 7624SOL     OW23770   0.600   0.819   3.455
 7624SOL    HW123771   0.513   0.771   3.468
 7624SOL    HW223772   0.633   0.853   3.543
 7625SOL     OW23773   4.796   0.358   1.272
 7625SOL    HW123774   4.746   0.279   1.237
 7625SOL    HW223775   4.826   0.339   1.366
 7626SOL     OW23776   1.800   5.599   4.886
 7626SOL    HW123777   1.894   5.566   4.888
 7626SOL    HW223778   1.798   5.691   4.848
 7627SOL     OW23779   6.999   2.351   0.752
 7627SOL    HW123780   6.908   2.319   0.727
 7627SOL    HW223781   0.043   2.312   0.690
 7628SOL     OW23782   3.082   1.912   0.904
 7628SOL    HW123783   2.984   1.891   0.904
 7628SOL    HW223784   3.131   1.847   0.845
 7629SOL     OW23785   0.113   5.974   3.058
 7629SOL    HW123786   0.212   5.987   3.069
 7629SOL    HW223787   0.081   5.904   3.122
 7630SOL     OW23788   6.292   0.840   2.771
 7630SOL    HW123789   6.373   0.813   2.719
 7630SOL    HW223790   6.252   0.922   2.731
 7631SOL     OW23791   0.459   2.612   3.630
 7631SOL    HW123792   0.490   2.675   3.559
 7631SOL    HW223793   0.470   2.518   3.597
 7632SOL     OW23794   4.703   1.273   0.176
 7632SOL    HW123795   4.641   1.226   0.238
 7632SOL    HW223796   4.763   1.334   0.229
 7633SOL     OW23797   5.557   3.890   0.080
 7633SOL    HW123798   5.603   3.814   0.126
 7633SOL    HW223799   5.551   3.871   7.006
 7634SOL     OW23800   1.303   1.369   1.955
 7634SOL    HW123801   1.311   1.297   1.886
 7634SOL    HW223802   1.387   1.424   1.956
 7635SOL     OW23803   2.963   4.571   5.585
 7635SOL    HW123804   2.999   4.546   5.495
 7635SOL    HW223805   2.914   4.493   5.624
 7636SOL     OW23806   0.752   0.410   3.968
 7636SOL    HW123807   0.808   0.412   3.885
 7636SOL    HW223808   0.665   0.456   3.951
 7637SOL     OW23809   2.067   6.037   4.498
 7637SOL    HW123810   1.979   6.061   4.539
 7637SOL    HW223811   2.140   6.052   4.564
 7638SOL     OW23812   5.422   5.140   2.197
 7638SOL    HW123813   5.440   5.042   2.191
 7638SOL    HW223814   5.324   5.155   2.209
 7639SOL     OW23815   0.922   1.905   5.148
 7639SOL    HW123816   0.856   1.943   5.083
 7639SOL    HW223817   0.960   1.979   5.203
 7640SOL     OW23818   2.377   1.726   6.889
 7640SOL    HW123819   2.315   1.648   6.880
 7640SOL    HW223820   2.392   1.746   6.986
 7641SOL     OW23821   5.532   3.655   2.144
 7641SOL    HW123822   5.505   3.708   2.064
 7641SOL    HW223823   5.627   3.675   2.167
 7642SOL     OW23824   2.750   2.306   2.437
 7642SOL    HW123825   2.666   2.329   2.487
 7642SOL    HW223826   2.733   2.314   2.339
 7643SOL     OW23827   4.880   3.282   3.534
 7643SOL    HW123828   4.894   3.381   3.535
 7643SOL    HW223829   4.853   3.252   3.625
 7644SOL     OW23830   6.793   3.136   2.668
 7644SOL    HW123831   6.695   3.124   2.657
 7644SOL    HW223832   6.810   3.225   2.711
 7645SOL     OW23833   4.387   3.722   6.595
 7645SOL    HW123834   4.330   3.660   6.541
 7645SOL    HW223835   4.459   3.761   6.537
 7646SOL     OW23836   2.175   1.778   1.659
 7646SOL    HW123837   2.190   1.865   1.707
 7646SOL    HW223838   2.244   1.712   1.687
 7647SOL     OW23839   2.575   4.052   1.501
 7647SOL    HW123840   2.536   4.078   1.589
 7647SOL    HW223841   2.619   3.963   1.510
 7648SOL     OW23842   4.194   0.908   3.973
 7648SOL    HW123843   4.275   0.959   4.000
 7648SOL    HW223844   4.178   0.919   3.875
 7649SOL     OW23845   3.137   1.003   1.795
 7649SOL    HW123846   3.132   1.075   1.864
 7649SOL    HW223847   3.193   1.034   1.718
 7650SOL     OW23848   6.261   4.337   2.417
 7650SOL    HW123849   6.206   4.407   2.462
 7650SOL    HW223850   6.273   4.259   2.480
 7651SOL     OW23851   3.899   1.336   6.418
 7651SOL    HW123852   3.854   1.261   6.467
 7651SOL    HW223853   3.831   1.404   6.393
 7652SOL     OW23854   0.824   3.617   2.112
 7652SOL    HW123855   0.877   3.613   2.197
 7652SOL    HW223856   0.861   3.689   2.053
 7653SOL     OW23857   2.820   1.954   1.434
 7653SOL    HW123858   2.755   1.918   1.366
 7653SOL    HW223859   2.878   2.023   1.390
 7654SOL     OW23860   4.785   4.122   3.790
 7654SOL    HW123861   4.837   4.063   3.853
 7654SOL    HW223862   4.811   4.101   3.696
 7655SOL     OW23863   4.051   6.280   5.323
 7655SOL    HW123864   4.065   6.193   5.276
 7655SOL    HW223865   4.138   6.312   5.361
 7656SOL     OW23866   0.793   6.664   5.226
 7656SOL    HW123867   0.840   6.643   5.140
 7656SOL    HW223868   0.844   6.733   5.277
 7657SOL     OW23869   3.672   1.283   3.601
 7657SOL    HW123870   3.642   1.243   3.515
 7657SOL    HW223871   3.630   1.234   3.677
 7658SOL     OW23872   4.118   0.862   5.993
 7658SOL    HW123873   4.088   0.805   5.916
 7658SOL    HW223874   4.185   0.929   5.960
 7659SOL     OW23875   5.828   0.304   0.649
 7659SOL    HW123876   5.747   0.363   0.654
 7659SOL    HW223877   5.891   0.328   0.723
 7660SOL     OW23878   6.091   5.068   4.055
 7660SOL    HW123879   6.157   5.034   4.122
 7660SOL    HW223880   5.999   5.041   4.082
 7661SOL     OW23881   6.489   2.510   3.801
 7661SOL    HW123882   6.489   2.593   3.744
 7661SOL    HW223883   6.422   2.445   3.766
 7662SOL     OW23884   6.892   4.808   1.973
 7662SOL    HW123885   6.844   4.891   2.000
 7662SOL    HW223886   6.863   4.733   2.032
 7663SOL     OW23887   0.136   5.468   6.896
 7663SOL    HW123888   0.073   5.494   6.822
 7663SOL    HW223889   0.106   5.508   6.982
 7664SOL     OW23890   2.513   5.019   3.895
 7664SOL    HW123891   2.474   4.984   3.810
 7664SOL    HW223892   2.448   5.081   3.940
 7665SOL     OW23893   3.346   6.641   5.017
 7665SOL    HW123894   3.345   6.579   5.095
 7665SOL    HW223895   3.358   6.735   5.049
 7666SOL     OW23896   1.215   0.988   1.239
 7666SOL    HW123897   1.299   0.944   1.206
 7666SOL    HW223898   1.227   1.087   1.237
 7667SOL     OW23899   3.995   6.131   6.327
 7667SOL    HW123900   3.942   6.129   6.243
 7667SOL    HW223901   4.082   6.084   6.313
 7668SOL     OW23902   3.331   4.011   1.311
 7668SOL    HW123903   3.330   3.997   1.410
 7668SOL    HW223904   3.238   4.028   1.279
 7669SOL     OW23905   4.498   6.394   4.368
 7669SOL    HW123906   4.547   6.479   4.388
 7669SOL    HW223907   4.534   6.354   4.284
 7670SOL     OW23908   1.473   4.881   0.612
 7670SOL    HW123909   1.499   4.785   0.620
 7670SOL    HW223910   1.520   4.922   0.534
 7671SOL     OW23911   5.699   2.934   4.553
 7671SOL    HW123912   5.651   2.973   4.474
 7671SOL    HW223913   5.633   2.896   4.618
 7672SOL     OW23914   5.824   0.896   2.782
 7672SOL    HW123915   5.732   0.934   2.786
 7672SOL    HW223916   5.891   0.969   2.792
 7673SOL     OW23917   1.097   4.422   0.952
 7673SOL    HW123918   1.148   4.361   1.012
 7673SOL    HW223919   1.003   4.429   0.985
 7674SOL     OW23920   5.770   1.716   4.801
 7674SOL    HW123921   5.825   1.794   4.832
 7674SOL    HW223922   5.748   1.728   4.704
 7675SOL     OW23923   4.197   6.710   3.299
 7675SOL    HW123924   4.285   6.707   3.252
 7675SOL    HW223925   4.210   6.744   3.393
 7676SOL     OW23926   1.956   0.438   0.818
 7676SOL    HW123927   1.906   0.385   0.749
 7676SOL    HW223928   1.893   0.501   0.864
 7677SOL     OW23929   1.930   2.742   2.611
 7677SOL    HW123930   1.844   2.786   2.584
 7677SOL    HW223931   1.982   2.717   2.529
 7678SOL     OW23932   6.395   6.461   0.634
 7678SOL    HW123933   6.352   6.389   0.689
 7678SOL    HW223934   6.388   6.548   0.682
 7679SOL     OW23935   0.802   5.261   5.315
 7679SOL    HW123936   0.768   5.168   5.296
 7679SOL    HW223937   0.875   5.256   5.383
 7680SOL     OW23938   3.765   2.905   0.358
 7680SOL    HW123939   3.739   2.996   0.388
 7680SOL    HW223940   3.790   2.908   0.261
 7681SOL     OW23941   2.986   1.529   0.026
 7681SOL    HW123942   3.031   1.566   0.107
 7681SOL    HW223943   2.958   1.605   6.990
 7682SOL     OW23944   3.020   0.147   1.647
 7682SOL    HW123945   3.023   0.048   1.661
 7682SOL    HW223946   2.970   0.189   1.723
 7683SOL     OW23947   5.564   1.903   3.531
 7683SOL    HW123948   5.515   1.985   3.561
 7683SOL    HW223949   5.514   1.860   3.456
 7684SOL     OW23950   4.530   1.643   5.737
 7684SOL    HW123951   4.467   1.720   5.748
 7684SOL    HW223952   4.569   1.618   5.826
 7685SOL     OW23953   3.351   2.993   0.870
 7685SOL    HW123954   3.267   2.953   0.908
 7685SOL    HW223955   3.368   2.954   0.779
 7686SOL     OW23956   3.768   6.936   3.544
 7686SOL    HW123957   3.674   6.945   3.578
 7686SOL    HW223958   3.824   7.011   3.579
 7687SOL     OW23959   5.071   4.957   5.659
 7687SOL    HW123960   5.104   4.942   5.566
 7687SOL    HW223961   5.143   5.000   5.713
 7688SOL     OW23962   0.196   6.559   4.713
 7688SOL    HW123963   0.215   6.564   4.811
 7688SOL    HW223964   0.280   6.576   4.662
 7689SOL     OW23965   4.092   6.264   4.697
 7689SOL    HW123966   4.173   6.319   4.681
 7689SOL    HW223967   4.011   6.323   4.695
 7690SOL     OW23968   0.186   5.102   3.598
 7690SOL    HW123969   0.197   5.113   3.697
 7690SOL    HW223970   0.182   5.192   3.555
 7691SOL     OW23971   4.874   3.304   4.791
 7691SOL    HW123972   4.858   3.259   4.880
 7691SOL    HW223973   4.858   3.238   4.718
 7692SOL     OW23974   1.828   6.323   2.149
 7692SOL    HW123975   1.809   6.379   2.229
 7692SOL    HW223976   1.854   6.231   2.178
 7693SOL     OW23977   4.952   1.646   6.495
 7693SOL    HW123978   5.024   1.648   6.425
 7693SOL    HW223979   4.993   1.664   6.584
 7694SOL     OW23980   0.373   5.479   4.470
 7694SOL    HW123981   0.286   5.528   4.456
 7694SOL    HW223982   0.356   5.397   4.524
 7695SOL     OW23983   3.666   0.010   0.732
 7695SOL    HW123984   3.695   7.018   0.638
 7695SOL    HW223985   3.657   0.108   0.748
 7696SOL     OW23986   0.202   2.918   5.684
 7696SOL    HW123987   0.233   2.837   5.734
 7696SOL    HW223988   0.110   2.903   5.649
 7697SOL     OW23989   3.826   1.794   2.390
 7697SOL    HW123990   3.825   1.891   2.417
 7697SOL    HW223991   3.763   1.780   2.314
 7698SOL     OW23992   6.765   3.161   5.794
 7698SOL    HW123993   6.859   3.176   5.824
 7698SOL    HW223994   6.717   3.104   5.861
 7699SOL     OW23995   2.492   5.118   6.554
 7699SOL    HW123996   2.562   5.047   6.565
 7699SOL    HW223997   2.524   5.203   6.597
 7700SOL     OW23998   4.951   6.313   4.396
 7700SOL    HW123999   4.927   6.239   4.332
 7700SOL    HW224000   4.909   6.295   4.485
 7701SOL     OW24001   6.384   2.237   4.415
 7701SOL    HW124002   6.285   2.231   4.417
 7701SOL    HW224003   6.424   2.146   4.409
 7702SOL     OW24004   3.041   6.673   5.654
 7702SOL    HW124005   2.953   6.630   5.633
 7702SOL    HW224006   3.091   6.615   5.719
 7703SOL     OW24007   0.660   1.089   5.704
 7703SOL    HW124008   0.711   1.084   5.790
 7703SOL    HW224009   0.656   1.184   5.673
 7704SOL     OW24010   4.488   4.290   0.061
 7704SOL    HW124011   4.422   4.363   0.078
 7704SOL    HW224012   4.568   4.303   0.120
 7705SOL     OW24013   3.798   5.231   4.831
 7705SOL    HW124014   3.796   5.139   4.790
 7705SOL    HW224015   3.850   5.229   4.916
 7706SOL     OW24016   0.011   0.893   4.944
 7706SOL    HW124017   0.087   0.936   4.993
 7706SOL    HW224018   6.983   0.836   5.008
 7707SOL     OW24019   0.006   5.094   6.363
 7707SOL    HW124020   0.023   5.028   6.437
 7707SOL    HW224021   0.089   5.103   6.308
 7708SOL     OW24022   4.160   6.628   4.540
 7708SOL    HW124023   4.097   6.567   4.588
 7708SOL    HW224024   4.198   6.580   4.460
 7709SOL     OW24025   4.281   2.135   2.284
 7709SOL    HW124026   4.319   2.060   2.339
 7709SOL    HW224027   4.262   2.213   2.344
 7710SOL     OW24028   1.883   1.010   0.183
 7710SOL    HW124029   1.920   0.926   0.143
 7710SOL    HW224030   1.957   1.066   0.220
 7711SOL     OW24031   5.444   6.611   5.577
 7711SOL    HW124032   5.507   6.545   5.536
 7711SOL    HW224033   5.456   6.700   5.533
 7712SOL     OW24034   5.481   5.206   1.114
 7712SOL    HW124035   5.556   5.140   1.115
 7712SOL    HW224036   5.403   5.168   1.064
 7713SOL     OW24037   1.274   4.232   6.231
 7713SOL    HW124038   1.225   4.171   6.293
 7713SOL    HW224039   1.252   4.327   6.253
 7714SOL     OW24040   5.479   4.312   4.083
 7714SOL    HW124041   5.530   4.355   4.008
 7714SOL    HW224042   5.507   4.216   4.091
 7715SOL     OW24043   4.835   0.950   1.201
 7715SOL    HW124044   4.848   0.904   1.113
 7715SOL    HW224045   4.769   1.023   1.191
 7716SOL     OW24046   4.374   2.131   3.202
 7716SOL    HW124047   4.306   2.201   3.222
 7716SOL    HW224048   4.455   2.147   3.259
 7717SOL     OW24049   3.109   1.576   5.558
 7717SOL    HW124050   3.178   1.600   5.490
 7717SOL    HW224051   3.038   1.647   5.560
 7718SOL     OW24052   3.142   6.136   3.876
 7718SOL    HW124053   3.145   6.223   3.828
 7718SOL    HW224054   3.047   6.102   3.878
 7719SOL     OW24055   6.626   2.096   4.777
 7719SOL    HW124056   6.720   2.129   4.770
 7719SOL    HW224057   6.562   2.170   4.757
 7720SOL     OW24058   6.164   5.662   1.904
 7720SOL    HW124059   6.218   5.696   1.981
 7720SOL    HW224060   6.078   5.624   1.937
 7721SOL     OW24061   2.126   4.626   2.205
 7721SOL    HW124062   2.135   4.631   2.305
 7721SOL    HW224063   2.031   4.646   2.179
 7722SOL     OW24064   6.942   5.436   3.741
 7722SOL    HW124065   6.989   5.491   3.810
 7722SOL    HW224066   6.910   5.351   3.783
 7723SOL     OW24067   6.502   3.115   0.338
 7723SOL    HW124068   6.463   3.135   0.428
 7723SOL    HW224069   6.568   3.041   0.346
 7724SOL     OW24070   1.465   4.541   1.000
 7724SOL    HW124071   1.391   4.480   1.026
 7724SOL    HW224072   1.534   4.544   1.073
 7725SOL     OW24073   5.544   3.019   4.364
 7725SOL    HW124074   5.578   3.105   4.326
 7725SOL    HW224075   5.450   3.004   4.335
 7726SOL     OW24076   0.473   4.659   3.099
 7726SOL    HW124077   0.502   4.727   3.032
 7726SOL    HW224078   0.550   4.597   3.118
 7727SOL     OW24079   6.187   2.416   2.265
 7727SOL    HW124080   6.261   2.349   2.266
 7727SOL    HW224081   6.212   2.495   2.321
 7728SOL     OW24082   2.064   2.340   3.158
 7728SOL    HW124083   2.108   2.430   3.159
 7728SOL    HW224084   2.007   2.332   3.077
 7729SOL     OW24085   4.952   2.388   0.515
 7729SOL    HW124086   4.857   2.394   0.484
 7729SOL    HW224087   4.959   2.323   0.591
 7730SOL     OW24088   5.891   0.656   2.252
 7730SOL    HW124089   5.912   0.636   2.348
 7730SOL    HW224090   5.799   0.693   2.245
 7731SOL     OW24091   5.701   1.067   6.647
 7731SOL    HW124092   5.732   1.004   6.717
 7731SOL    HW224093   5.672   1.016   6.566
 7732SOL     OW24094   4.208   5.715   0.559
 7732SOL    HW124095   4.280   5.766   0.606
 7732SOL    HW224096   4.245   5.627   0.528
 7733SOL     OW24097   3.562   0.378   2.330
 7733SOL    HW124098   3.575   0.408   2.425
 7733SOL    HW224099   3.486   0.315   2.325
 7734SOL     OW24100   1.887   2.235   2.942
 7734SOL    HW124101   1.973   2.223   2.892
 7734SOL    HW224102   1.810   2.222   2.881
 7735SOL     OW24103   4.694   4.470   0.166
 7735SOL    HW124104   4.793   4.476   0.181
 7735SOL    HW224105   4.646   4.481   0.253
 7736SOL     OW24106   6.444   4.859   6.904
 7736SOL    HW124107   6.352   4.829   6.930
 7736SOL    HW224108   6.468   4.819   6.816
 7737SOL     OW24109   4.936   1.446   0.620
 7737SOL    HW124110   5.018   1.496   0.649
 7737SOL    HW224111   4.931   1.359   0.670
 7738SOL     OW24112   3.157   5.372   6.855
 7738SOL    HW124113   3.236   5.314   6.834
 7738SOL    HW224114   3.153   5.389   6.953
 7739SOL     OW24115   6.038   2.683   0.981
 7739SOL    HW124116   6.027   2.633   1.067
 7739SOL    HW224117   5.998   2.629   0.906
 7740SOL     OW24118   0.830   6.874   3.252
 7740SOL    HW124119   0.736   6.903   3.267
 7740SOL    HW224120   0.854   6.802   3.317
 7741SOL     OW24121   2.504   5.403   4.586
 7741SOL    HW124122   2.567   5.390   4.663
 7741SOL    HW224123   2.543   5.469   4.521
 7742SOL     OW24124   6.551   1.571   3.699
 7742SOL    HW124125   6.604   1.586   3.616
 7742SOL    HW224126   6.576   1.484   3.740
 7743SOL     OW24127   4.452   2.399   3.934
 7743SOL    HW124128   4.499   2.339   3.998
 7743SOL    HW224129   4.369   2.355   3.900
 7744SOL     OW24130   6.559   0.637   4.172
 7744SOL    HW124131   6.511   0.552   4.150
 7744SOL    HW224132   6.495   0.700   4.217
 7745SOL     OW24133   4.210   3.395   6.169
 7745SOL    HW124134   4.194   3.298   6.151
 7745SOL    HW224135   4.302   3.420   6.141
 7746SOL     OW24136   1.375   0.719   0.622
 7746SOL    HW124137   1.289   0.667   0.613
 7746SOL    HW224138   1.364   0.790   0.692
 7747SOL     OW24139   5.126   5.951   0.849
 7747SOL    HW124140   5.169   5.946   0.940
 7747SOL    HW224141   5.176   6.017   0.793
 7748SOL     OW24142   2.884   4.235   6.750
 7748SOL    HW124143   2.922   4.282   6.670
 7748SOL    HW224144   2.866   4.302   6.822
 7749SOL     OW24145   5.299   3.082   5.839
 7749SOL    HW124146   5.368   3.105   5.907
 7749SOL    HW224147   5.277   3.164   5.785
 7750SOL     OW24148   6.213   5.077   2.539
 7750SOL    HW124149   6.283   5.108   2.474
 7750SOL    HW224150   6.166   5.156   2.578
 7751SOL     OW24151   0.913   2.716   2.545
 7751SOL    HW124152   0.950   2.809   2.550
 7751SOL    HW224153   0.955   2.667   2.469
 7752SOL     OW24154   4.461   2.019   3.735
 7752SOL    HW124155   4.467   1.996   3.832
 7752SOL    HW224156   4.378   1.979   3.696
 7753SOL     OW24157   3.099   1.611   4.426
 7753SOL    HW124158   3.111   1.702   4.385
 7753SOL    HW224159   3.114   1.617   4.524
 7754SOL     OW24160   5.018   6.596   2.255
 7754SOL    HW124161   4.920   6.608   2.268
 7754SOL    HW224162   5.062   6.587   2.345
 7755SOL     OW24163   0.105   4.261   5.527
 7755SOL    HW124164   0.144   4.326   5.592
 7755SOL    HW224165   0.168   4.247   5.450
 7756SOL     OW24166   2.527   5.058   2.093
 7756SOL    HW124167   2.521   4.998   2.173
 7756SOL    HW224168   2.623   5.072   2.069
 7757SOL     OW24169   0.035   3.989   1.997
 7757SOL    HW124170   0.087   3.950   1.921
 7757SOL    HW224171   6.990   3.923   2.028
 7758SOL     OW24172   1.453   1.752   4.773
 7758SOL    HW124173   1.482   1.675   4.716
 7758SOL    HW224174   1.353   1.753   4.779
 7759SOL     OW24175   2.291   2.398   0.474
 7759SOL    HW124176   2.239   2.375   0.556
 7759SOL    HW224177   2.235   2.379   0.393
 7760SOL     OW24178   4.322   2.732   0.013
 7760SOL    HW124179   4.294   2.658   0.075
 7760SOL    HW224180   4.383   2.795   0.061
 7761SOL     OW24181   5.109   5.493   4.189
 7761SOL    HW124182   5.021   5.523   4.227
 7761SOL    HW224183   5.099   5.476   4.091
 7762SOL     OW24184   6.165   1.862   2.443
 7762SOL    HW124185   6.121   1.935   2.495
 7762SOL    HW224186   6.253   1.894   2.409
 7763SOL     OW24187   2.604   6.948   4.254
 7763SOL    HW124188   2.664   6.869   4.244
 7763SOL    HW224189   2.658   0.006   4.271
 7764SOL     OW24190   2.616   4.116   5.611
 7764SOL    HW124191   2.665   4.030   5.618
 7764SOL    HW224192   2.538   4.105   5.549
 7765SOL     OW24193   6.200   3.096   5.433
 7765SOL    HW124194   6.101   3.089   5.433
 7765SOL    HW224195   6.227   3.187   5.463
 7766SOL     OW24196   5.709   3.966   6.638
 7766SOL    HW124197   5.746   4.030   6.571
 7766SOL    HW224198   5.729   3.872   6.611
 7767SOL     OW24199   3.591   6.903   4.100
 7767SOL    HW124200   3.689   6.924   4.095
 7767SOL    HW224201   3.554   6.938   4.186
 7768SOL     OW24202   4.691   5.218   3.513
 7768SOL    HW124203   4.692   5.143   3.580
 7768SOL    HW224204   4.602   5.222   3.469
 7769SOL     OW24205   3.597   3.159   5.441
 7769SOL    HW124206   3.515   3.133   5.493
 7769SOL    HW224207   3.585   3.251   5.404
 7770SOL     OW24208   2.117   3.444   4.645
 7770SOL    HW124209   2.107   3.502   4.726
 7770SOL    HW224210   2.027   3.411   4.616
 7771SOL     OW24211   2.358   3.032   5.908
 7771SOL    HW124212   2.375   3.073   5.998
 7771SOL    HW224213   2.440   2.986   5.876
 7772SOL     OW24214   5.245   7.023   1.879
 7772SOL    HW124215   5.193   6.940   1.899
 7772SOL    HW224216   5.343   7.004   1.889
 7773SOL     OW24217   3.015   6.101   6.748
 7773SOL    HW124218   3.106   6.141   6.736
 7773SOL    HW224219   3.024   6.010   6.788
 7774SOL     OW24220   5.143   1.478   2.524
 7774SOL    HW124221   5.185   1.502   2.612
 7774SOL    HW224222   5.069   1.543   2.504
 7775SOL     OW24223   2.347   2.115   0.484
 7775SOL    HW124224   2.265   2.068   0.517
 7775SOL    HW224225   2.351   2.207   0.525
 7776SOL     OW24226   1.370   1.295   4.801
 7776SOL    HW124227   1.375   1.266   4.897
 7776SOL    HW224228   1.427   1.235   4.745
 7777SOL     OW24229   6.109   5.440   4.356
 7777SOL    HW124230   6.126   5.469   4.450
 7777SOL    HW224231   6.088   5.342   4.356
 7778SOL     OW24232   6.939   4.624   2.928
 7778SOL    HW124233   6.965   4.646   3.022
 7778SOL    HW224234   6.989   4.542   2.899
 7779SOL     OW24235   4.559   6.226   1.860
 7779SOL    HW124236   4.616   6.260   1.784
 7779SOL    HW224237   4.611   6.233   1.945
 7780SOL     OW24238   6.157   6.425   4.980
 7780SOL    HW124239   6.083   6.476   4.935
 7780SOL    HW224240   6.159   6.331   4.946
 7781SOL     OW24241   1.259   2.712   1.040
 7781SOL    HW124242   1.195   2.652   0.992
 7781SOL    HW224243   1.296   2.779   0.975
 7782SOL     OW24244   5.955   2.617   4.165
 7782SOL    HW124245   5.967   2.692   4.099
 7782SOL    HW224246   5.924   2.655   4.252
 7783SOL     OW24247   1.551   6.437   5.088
 7783SOL    HW124248   1.576   6.517   5.034
 7783SOL    HW224249   1.560   6.355   5.032
 7784SOL     OW24250   1.751   2.029   1.444
 7784SOL    HW124251   1.825   1.990   1.389
 7784SOL    HW224252   1.748   1.984   1.533
 7785SOL     OW24253   0.524   0.176   3.269
 7785SOL    HW124254   0.591   0.241   3.305
 7785SOL    HW224255   0.450   0.164   3.335
 7786SOL     OW24256   4.038   1.184   5.313
 7786SOL    HW124257   3.950   1.141   5.293
 7786SOL    HW224258   4.111   1.117   5.301
 7787SOL     OW24259   2.465   2.640   1.817
 7787SOL    HW124260   2.430   2.603   1.903
 7787SOL    HW224261   2.558   2.606   1.802
 7788SOL     OW24262   6.863   4.686   1.440
 7788SOL    HW124263   6.850   4.651   1.347
 7788SOL    HW224264   6.787   4.658   1.498
 7789SOL     OW24265   3.157   1.977   5.929
 7789SOL    HW124266   3.096   1.898   5.934
 7789SOL    HW224267   3.244   1.949   5.887
 7790SOL     OW24268   4.364   4.406   1.639
 7790SOL    HW124269   4.311   4.365   1.565
 7790SOL    HW224270   4.371   4.342   1.715
 7791SOL     OW24271   2.567   5.152   2.528
 7791SOL    HW124272   2.666   5.152   2.518
 7791SOL    HW224273   2.540   5.091   2.602
 7792SOL     OW24274   0.781   1.712   2.621
 7792SOL    HW124275   0.831   1.798   2.612
 7792SOL    HW224276   0.785   1.661   2.535
 7793SOL     OW24277   5.153   0.535   6.741
 7793SOL    HW124278   5.090   0.482   6.685
 7793SOL    HW224279   5.120   0.538   6.835
 7794SOL     OW24280   0.890   6.646   3.410
 7794SOL    HW124281   0.982   6.646   3.449
 7794SOL    HW224282   0.877   6.564   3.355
 7795SOL     OW24283   2.963   5.388   0.311
 7795SOL    HW124284   2.926   5.447   0.239
 7795SOL    HW224285   2.902   5.310   0.325
 7796SOL     OW24286   3.387   3.700   0.142
 7796SOL    HW124287   3.476   3.707   0.098
 7796SOL    HW224288   3.319   3.750   0.089
 7797SOL     OW24289   0.755   6.068   3.003
 7797SOL    HW124290   0.655   6.079   3.006
 7797SOL    HW224291   0.795   6.146   2.954
 7798SOL     OW24292   0.919   3.422   0.701
 7798SOL    HW124293   0.894   3.348   0.763
 7798SOL    HW224294   1.000   3.469   0.737
 7799SOL     OW24295   2.695   6.336   3.303
 7799SOL    HW124296   2.727   6.256   3.353
 7799SOL    HW224297   2.762   6.361   3.233
 7800SOL     OW24298   0.143   6.672   2.211
 7800SOL    HW124299   0.123   6.665   2.309
 7800SOL    HW224300   0.160   6.768   2.187
 7801SOL     OW24301   1.695   1.597   1.607
 7801SOL    HW124302   1.727   1.570   1.698
 7801SOL    HW224303   1.731   1.688   1.585
 7802SOL     OW24304   6.757   3.848   4.604
 7802SOL    HW124305   6.748   3.945   4.624
 7802SOL    HW224306   6.725   3.830   4.511
 7803SOL     OW24307   3.302   2.779   5.415
 7803SOL    HW124308   3.258   2.737   5.494
 7803SOL    HW224309   3.357   2.710   5.367
 7804SOL     OW24310   3.441   1.821   5.173
 7804SOL    HW124311   3.406   1.886   5.105
 7804SOL    HW224312   3.498   1.753   5.127
 7805SOL     OW24313   4.697   3.518   0.484
 7805SOL    HW124314   4.796   3.531   0.473
 7805SOL    HW224315   4.670   3.432   0.440
 7806SOL     OW24316   6.396   1.337   5.900
 7806SOL    HW124317   6.461   1.313   5.827
 7806SOL    HW224318   6.446   1.356   5.984
 7807SOL     OW24319   1.626   4.954   5.896
 7807SOL    HW124320   1.666   5.007   5.971
 7807SOL    HW224321   1.527   4.950   5.907
 7808SOL     OW24322   5.931   3.776   2.728
 7808SOL    HW124323   5.871   3.706   2.689
 7808SOL    HW224324   5.880   3.830   2.795
 7809SOL     OW24325   4.964   5.325   2.483
 7809SOL    HW124326   4.989   5.246   2.540
 7809SOL    HW224327   4.865   5.335   2.481
 7810SOL     OW24328   3.294   6.631   6.133
 7810SOL    HW124329   3.374   6.590   6.090
 7810SOL    HW224330   3.225   6.561   6.150
 7811SOL     OW24331   1.838   6.076   3.099
 7811SOL    HW124332   1.760   6.080   3.037
 7811SOL    HW224333   1.811   6.032   3.184
 7812SOL     OW24334   3.302   1.730   6.175
 7812SOL    HW124335   3.230   1.727   6.245
 7812SOL    HW224336   3.328   1.825   6.158
 7813SOL     OW24337   5.483   0.173   0.585
 7813SOL    HW124338   5.465   0.156   0.488
 7813SOL    HW224339   5.469   0.270   0.605
 7814SOL     OW24340   6.947   2.973   1.875
 7814SOL    HW124341   6.968   2.888   1.924
 7814SOL    HW224342   7.019   2.992   1.809
 7815SOL     OW24343   5.571   4.031   5.506
 7815SOL    HW124344   5.475   4.055   5.494
 7815SOL    HW224345   5.629   4.105   5.471
 7816SOL     OW24346   0.719   0.944   5.452
 7816SOL    HW124347   0.625   0.922   5.426
 7816SOL    HW224348   0.722   1.036   5.493
 7817SOL     OW24349   3.276   2.780   6.909
 7817SOL    HW124350   3.246   2.828   6.827
 7817SOL    HW224351   3.376   2.776   6.911
 7818SOL     OW24352   5.735   0.090   4.096
 7818SOL    HW124353   5.827   0.091   4.136
 7818SOL    HW224354   5.674   0.148   4.151
 7819SOL     OW24355   1.169   3.278   4.479
 7819SOL    HW124356   1.137   3.230   4.398
 7819SOL    HW224357   1.266   3.302   4.468
 7820SOL     OW24358   1.118   6.689   5.499
 7820SOL    HW124359   1.125   6.603   5.449
 7820SOL    HW224360   1.176   6.757   5.456
 7821SOL     OW24361   4.635   6.687   0.188
 7821SOL    HW124362   4.599   6.594   0.200
 7821SOL    HW224363   4.732   6.682   0.166
 7822SOL     OW24364   0.523   1.500   5.039
 7822SOL    HW124365   0.424   1.485   5.035
 7822SOL    HW224366   0.553   1.546   4.955
 7823SOL     OW24367   2.489   3.522   5.367
 7823SOL    HW124368   2.400   3.486   5.397
 7823SOL    HW224369   2.546   3.446   5.334
 7824SOL     OW24370   5.227   3.063   3.014
 7824SOL    HW124371   5.238   3.157   3.045
 7824SOL    HW224372   5.132   3.034   3.027
 7825SOL     OW24373   3.532   3.746   2.462
 7825SOL    HW124374   3.605   3.760   2.396
 7825SOL    HW224375   3.571   3.741   2.554
 7826SOL     OW24376   6.222   7.002   1.468
 7826SOL    HW124377   6.277   6.948   1.404
 7826SOL    HW224378   6.174   6.940   1.530
 7827SOL     OW24379   4.717   3.905   0.498
 7827SOL    HW124380   4.620   3.917   0.479
 7827SOL    HW224381   4.729   3.865   0.588
 7828SOL     OW24382   0.782   5.723   0.664
 7828SOL    HW124383   0.834   5.656   0.612
 7828SOL    HW224384   0.697   5.745   0.615
 7829SOL     OW24385   4.019   3.268   2.543
 7829SOL    HW124386   4.032   3.364   2.515
 7829SOL    HW224387   4.031   3.260   2.642
 7830SOL     OW24388   5.927   2.830   0.066
 7830SOL    HW124389   5.842   2.780   0.050
 7830SOL    HW224390   6.005   2.775   0.033
 7831SOL     OW24391   1.662   2.620   6.911
 7831SOL    HW124392   1.572   2.637   6.870
 7831SOL    HW224393   1.668   2.525   6.941
 7832SOL     OW24394   2.821   2.697   5.585
 7832SOL    HW124395   2.797   2.600   5.578
 7832SOL    HW224396   2.810   2.727   5.679
 7833SOL     OW24397   1.498   0.154   0.565
 7833SOL    HW124398   1.469   0.169   0.659
 7833SOL    HW224399   1.531   0.240   0.525
 7834SOL     OW24400   0.307   0.405   1.807
 7834SOL    HW124401   0.211   0.395   1.780
 7834SOL    HW224402   0.340   0.318   1.844
 7835SOL     OW24403   2.178   2.388   4.770
 7835SOL    HW124404   2.157   2.423   4.679
 7835SOL    HW224405   2.275   2.405   4.790
 7836SOL     OW24406   2.335   0.354   6.618
 7836SOL    HW124407   2.258   0.359   6.555
 7836SOL    HW224408   2.359   0.258   6.633
 7837SOL     OW24409   5.735   6.856   3.461
 7837SOL    HW124410   5.828   6.845   3.496
 7837SOL    HW224411   5.674   6.878   3.537
 7838SOL     OW24412   3.564   6.677   3.650
 7838SOL    HW124413   3.601   6.612   3.717
 7838SOL    HW224414   3.563   6.769   3.690
 7839SOL     OW24415   0.008   5.076   4.601
 7839SOL    HW124416   0.021   5.151   4.536
 7839SOL    HW224417   0.092   5.024   4.609
 7840SOL     OW24418   5.116   3.243   6.169
 7840SOL    HW124419   5.055   3.165   6.184
 7840SOL    HW224420   5.190   3.241   6.236
 7841SOL     OW24421   1.234   1.875   6.357
 7841SOL    HW124422   1.333   1.860   6.350
 7841SOL    HW224423   1.188   1.832   6.280
 7842SOL     OW24424   2.835   1.419   2.540
 7842SOL    HW124425   2.875   1.450   2.453
 7842SOL    HW224426   2.885   1.339   2.573
 7843SOL     OW24427   6.270   3.829   1.229
 7843SOL    HW124428   6.333   3.848   1.304
 7843SOL    HW224429   6.194   3.894   1.231
 7844SOL     OW24430   4.062   1.362   4.443
 7844SOL    HW124431   4.104   1.328   4.527
 7844SOL    HW224432   3.986   1.302   4.417
 7845SOL     OW24433   0.684   1.037   4.171
 7845SOL    HW124434   0.733   1.124   4.165
 7845SOL    HW224435   0.600   1.041   4.116
 7846SOL     OW24436   3.966   0.187   2.015
 7846SOL    HW124437   4.043   0.182   2.079
 7846SOL    HW224438   3.893   0.241   2.056
 7847SOL     OW24439   6.829   0.668   0.300
 7847SOL    HW124440   6.909   0.631   0.348
 7847SOL    HW224441   6.859   0.709   0.213
 7848SOL     OW24442   4.735   4.335   0.570
 7848SOL    HW124443   4.651   4.313   0.620
 7848SOL    HW224444   4.783   4.250   0.547
 7849SOL     OW24445   5.622   4.279   5.327
 7849SOL    HW124446   5.719   4.255   5.337
 7849SOL    HW224447   5.614   4.373   5.293
 7850SOL     OW24448   0.871   0.796   4.177
 7850SOL    HW124449   0.814   0.862   4.129
 7850SOL    HW224450   0.866   0.812   4.276
 7851SOL     OW24451   4.907   6.641   0.173
 7851SOL    HW124452   4.933   6.686   0.259
 7851SOL    HW224453   4.885   6.545   0.191
 7852SOL     OW24454   2.443   6.307   6.511
 7852SOL    HW124455   2.524   6.295   6.454
 7852SOL    HW224456   2.444   6.399   6.551
 7853SOL     OW24457   2.593   2.756   0.707
 7853SOL    HW124458   2.571   2.673   0.758
 7853SOL    HW224459   2.511   2.813   0.698
 7854SOL     OW24460   3.514   4.144   2.770
 7854SOL    HW124461   3.483   4.104   2.856
 7854SOL    HW224462   3.446   4.128   2.698
 7855SOL     OW24463   3.555   0.143   5.730
 7855SOL    HW124464   3.475   0.173   5.678
 7855SOL    HW224465   3.565   0.200   5.812
 7856SOL     OW24466   4.608   3.292   6.232
 7856SOL    HW124467   4.568   3.203   6.209
 7856SOL    HW224468   4.626   3.296   6.330
 7857SOL     OW24469   0.552   1.974   4.873
 7857SOL    HW124470   0.539   2.046   4.805
 7857SOL    HW224471   0.629   1.916   4.845
 7858SOL     OW24472   6.210   4.448   3.807
 7858SOL    HW124473   6.183   4.527   3.751
 7858SOL    HW224474   6.304   4.460   3.837
 7859SOL     OW24475   0.786   5.746   6.653
 7859SOL    HW124476   0.806   5.783   6.743
 7859SOL    HW224477   0.857   5.681   6.626
 7860SOL     OW24478   3.440   0.384   2.031
 7860SOL    HW124479   3.523   0.381   2.088
 7860SOL    HW224480   3.434   0.299   1.978
 7861SOL     OW24481   5.464   4.123   0.580
 7861SOL    HW124482   5.519   4.047   0.545
 7861SOL    HW224483   5.367   4.105   0.562
 7862SOL     OW24484   3.242   4.417   1.579
 7862SOL    HW124485   3.236   4.494   1.642
 7862SOL    HW224486   3.159   4.412   1.524
 7863SOL     OW24487   6.754   6.056   2.197
 7863SOL    HW124488   6.796   6.101   2.275
 7863SOL    HW224489   6.681   5.995   2.229
 7864SOL     OW24490   0.930   5.229   4.254
 7864SOL    HW124491   0.943   5.138   4.295
 7864SOL    HW224492   0.879   5.287   4.318
 7865SOL     OW24493   2.879   0.654   2.325
 7865SOL    HW124494   2.978   0.652   2.339
 7865SOL    HW224495   2.833   0.635   2.411
 7866SOL     OW24496   2.510   2.615   4.225
 7866SOL    HW124497   2.544   2.530   4.183
 7866SOL    HW224498   2.520   2.609   4.324
 7867SOL     OW24499   5.503   4.937   2.707
 7867SOL    HW124500   5.536   5.012   2.650
 7867SOL    HW224501   5.558   4.855   2.689
 7868SOL     OW24502   5.352   0.107   0.838
 7868SOL    HW124503   5.344   0.012   0.869
 7868SOL    HW224504   5.411   0.110   0.758
 7869SOL     OW24505   0.457   2.905   2.735
 7869SOL    HW124506   0.398   2.975   2.695
 7869SOL    HW224507   0.501   2.940   2.817
 7870SOL     OW24508   0.039   6.490   3.235
 7870SOL    HW124509   0.135   6.464   3.244
 7870SOL    HW224510   7.010   6.449   3.310
 7871SOL     OW24511   5.114   3.541   3.978
 7871SOL    HW124512   5.157   3.616   3.928
 7871SOL    HW224513   5.171   3.459   3.972
 7872SOL     OW24514   6.471   3.033   3.891
 7872SOL    HW124515   6.564   3.059   3.918
 7872SOL    HW224516   6.474   2.991   3.800
 7873SOL     OW24517   6.918   5.196   5.246
 7873SOL    HW124518   6.968   5.171   5.328
 7873SOL    HW224519   6.820   5.182   5.261
 7874SOL     OW24520   6.013   0.757   0.453
 7874SOL    HW124521   5.955   0.750   0.372
 7874SOL    HW224522   6.001   0.847   0.495
 7875SOL     OW24523   4.391   3.663   6.877
 7875SOL    HW124524   4.312   3.603   6.865
 7875SOL    HW224525   4.414   3.706   6.791
 7876SOL     OW24526   6.729   0.122   4.216
 7876SOL    HW124527   6.716   0.090   4.310
 7876SOL    HW224528   6.821   0.101   4.186
 7877SOL     OW24529   6.735   2.280   1.857
 7877SOL    HW124530   6.798   2.266   1.933
 7877SOL    HW224531   6.655   2.221   1.868
 7878SOL     OW24532   4.558   4.080   1.640
 7878SOL    HW124533   4.487   4.129   1.691
 7878SOL    HW224534   4.646   4.123   1.657
 7879SOL     OW24535   5.342   0.666   4.901
 7879SOL    HW124536   5.356   0.733   4.973
 7879SOL    HW224537   5.292   0.707   4.825
 7880SOL     OW24538   1.154   6.746   6.428
 7880SOL    HW124539   1.073   6.748   6.369
 7880SOL    HW224540   1.215   6.672   6.400
 7881SOL     OW24541   0.674   5.341   3.869
 7881SOL    HW124542   0.675   5.249   3.830
 7881SOL    HW224543   0.757   5.356   3.922
 7882SOL     OW24544   0.267   3.761   2.081
 7882SOL    HW124545   0.353   3.780   2.127
 7882SOL    HW224546   0.223   3.848   2.055
 7883SOL     OW24547   3.475   1.388   4.188
 7883SOL    HW124548   3.385   1.425   4.215
 7883SOL    HW224549   3.463   1.299   4.145
 7884SOL     OW24550   0.662   3.381   4.501
 7884SOL    HW124551   0.761   3.391   4.496
 7884SOL    HW224552   0.632   3.394   4.596
 7885SOL     OW24553   6.072   5.326   3.927
 7885SOL    HW124554   6.072   5.303   3.829
 7885SOL    HW224555   6.117   5.253   3.978
 7886SOL     OW24556   4.893   3.673   3.765
 7886SOL    HW124557   4.854   3.724   3.689
 7886SOL    HW224558   4.989   3.700   3.778
 7887SOL     OW24559   2.365   2.924   0.679
 7887SOL    HW124560   2.335   2.936   0.585
 7887SOL    HW224561   2.291   2.885   0.734
 7888SOL     OW24562   6.147   2.170   4.647
 7888SOL    HW124563   6.212   2.096   4.630
 7888SOL    HW224564   6.125   2.175   4.744
 7889SOL     OW24565   5.585   4.942   0.290
 7889SOL    HW124566   5.589   4.995   0.205
 7889SOL    HW224567   5.493   4.905   0.302
 7890SOL     OW24568   1.763   3.614   4.233
 7890SOL    HW124569   1.769   3.713   4.226
 7890SOL    HW224570   1.759   3.588   4.330
 7891SOL     OW24571   0.177   1.705   4.230
 7891SOL    HW124572   0.111   1.659   4.172
 7891SOL    HW224573   0.129   1.757   4.301
 7892SOL     OW24574   0.198   1.637   5.658
 7892SOL    HW124575   0.278   1.695   5.670
 7892SOL    HW224576   0.119   1.677   5.705
 7893SOL     OW24577   6.188   7.011   0.586
 7893SOL    HW124578   6.092   7.021   0.611
 7893SOL    HW224579   6.242   0.056   0.634
 7894SOL     OW24580   3.704   1.528   6.328
 7894SOL    HW124581   3.670   1.591   6.398
 7894SOL    HW224582   3.656   1.546   6.242
 7895SOL     OW24583   5.072   6.307   3.220
 7895SOL    HW124584   4.993   6.268   3.267
 7895SOL    HW224585   5.045   6.334   3.127
 7896SOL     OW24586   2.754   2.969   1.234
 7896SOL    HW124587   2.727   2.991   1.140
 7896SOL    HW224588   2.679   2.923   1.281
 7897SOL     OW24589   3.237   3.388   0.435
 7897SOL    HW124590   3.189   3.323   0.376
 7897SOL    HW224591   3.254   3.346   0.524
 7898SOL     OW24592   5.981   6.679   3.591
 7898SOL    HW124593   5.972   6.664   3.493
 7898SOL    HW224594   6.016   6.772   3.608
 7899SOL     OW24595   6.230   5.108   3.397
 7899SOL    HW124596   6.229   5.117   3.297
 7899SOL    HW224597   6.242   5.198   3.438
 7900SOL     OW24598   0.779   4.471   1.571
 7900SOL    HW124599   0.812   4.504   1.482
 7900SOL    HW224600   0.850   4.485   1.640
 7901SOL     OW24601   6.796   0.970   6.664
 7901SOL    HW124602   6.771   0.902   6.733
 7901SOL    HW224603   6.759   1.059   6.690
 7902SOL     OW24604   0.902   6.499   2.373
 7902SOL    HW124605   0.987   6.495   2.426
 7902SOL    HW224606   0.906   6.577   2.311
 7903SOL     OW24607   2.995   2.207   4.847
 7903SOL    HW124608   3.052   2.244   4.921
 7903SOL    HW224609   2.936   2.135   4.884
 7904SOL     OW24610   5.029   1.070   2.130
 7904SOL    HW124611   4.930   1.074   2.124
 7904SOL    HW224612   5.068   1.155   2.095
 7905SOL     OW24613   5.601   1.058   1.541
 7905SOL    HW124614   5.591   1.022   1.633
 7905SOL    HW224615   5.649   0.992   1.484
 7906SOL     OW24616   1.682   5.415   0.685
 7906SOL    HW124617   1.617   5.363   0.740
 7906SOL    HW224618   1.702   5.366   0.601
 7907SOL     OW24619   6.703   0.026   2.927
 7907SOL    HW124620   6.717   0.080   2.844
 7907SOL    HW224621   6.640   0.075   2.988
 7908SOL     OW24622   0.805   0.279   6.440
 7908SOL    HW124623   0.749   0.228   6.374
 7908SOL    HW224624   0.810   0.228   6.525
 7909SOL     OW24625   5.963   4.346   2.191
 7909SOL    HW124626   5.907   4.344   2.108
 7909SOL    HW224627   6.023   4.266   2.193
 7910SOL     OW24628   1.015   3.512   0.163
 7910SOL    HW124629   1.104   3.545   0.130
 7910SOL    HW224630   0.974   3.453   0.093
 7911SOL     OW24631   0.607   3.996   0.058
 7911SOL    HW124632   0.533   3.938   0.092
 7911SOL    HW224633   0.662   3.945   7.015
 7912SOL     OW24634   5.796   5.243   0.423
 7912SOL    HW124635   5.731   5.297   0.370
 7912SOL    HW224636   5.746   5.182   0.484
 7913SOL     OW24637   0.991   4.675   1.303
 7913SOL    HW124638   1.029   4.764   1.327
 7913SOL    HW224639   0.930   4.685   1.224
 7914SOL     OW24640   6.520   5.951   4.805
 7914SOL    HW124641   6.481   5.905   4.726
 7914SOL    HW224642   6.493   6.048   4.805
 7915SOL     OW24643   3.965   6.277   2.462
 7915SOL    HW124644   3.883   6.222   2.478
 7915SOL    HW224645   4.045   6.217   2.461
 7916SOL     OW24646   1.551   0.230   4.538
 7916SOL    HW124647   1.532   0.158   4.604
 7916SOL    HW224648   1.467   0.253   4.488
 7917SOL     OW24649   4.149   3.610   0.741
 7917SOL    HW124650   4.110   3.587   0.830
 7917SOL    HW224651   4.247   3.590   0.742
 7918SOL     OW24652   2.044   1.750   4.321
 7918SOL    HW124653   1.961   1.805   4.308
 7918SOL    HW224654   2.062   1.698   4.237
 7919SOL     OW24655   2.130   6.242   4.300
 7919SOL    HW124656   2.136   6.188   4.384
 7919SOL    HW224657   2.192   6.202   4.231
 7920SOL     OW24658   4.937   0.234   0.942
 7920SOL    HW124659   5.008   0.237   0.872
 7920SOL    HW224660   4.979   0.240   1.032
 7921SOL     OW24661   5.436   2.097   1.115
 7921SOL    HW124662   5.499   2.098   1.037
 7921SOL    HW224663   5.342   2.103   1.081
 7922SOL     OW24664   1.286   5.727   0.836
 7922SOL    HW124665   1.357   5.661   0.810
 7922SOL    HW224666   1.196   5.685   0.827
 7923SOL     OW24667   5.028   1.226   0.382
 7923SOL    HW124668   4.952   1.290   0.378
 7923SOL    HW224669   4.992   1.132   0.383
 7924SOL     OW24670   6.223   6.270   0.767
 7924SOL    HW124671   6.260   6.181   0.740
 7924SOL    HW224672   6.152   6.256   0.837
 7925SOL     OW24673   1.582   6.340   6.611
 7925SOL    HW124674   1.576   6.438   6.627
 7925SOL    HW224675   1.499   6.295   6.643
 7926SOL     OW24676   4.609   5.455   0.359
 7926SOL    HW124677   4.660   5.469   0.274
 7926SOL    HW224678   4.667   5.480   0.437
 7927SOL     OW24679   4.136   0.001   2.970
 7927SOL    HW124680   4.171   0.084   3.013
 7927SOL    HW224681   4.095   0.023   2.882
 7928SOL     OW24682   6.714   1.945   3.489
 7928SOL    HW124683   6.622   1.938   3.452
 7928SOL    HW224684   6.714   2.007   3.567
 7929SOL     OW24685   4.082   4.310   6.302
 7929SOL    HW124686   4.154   4.296   6.233
 7929SOL    HW224687   4.115   4.375   6.371
 7930SOL     OW24688   4.492   6.231   5.787
 7930SOL    HW124689   4.416   6.281   5.746
 7930SOL    HW224690   4.507   6.146   5.738
 7931SOL     OW24691   3.739   2.335   0.734
 7931SOL    HW124692   3.745   2.249   0.684
 7931SOL    HW224693   3.807   2.336   0.807
 7932SOL     OW24694   1.614   4.351   2.563
 7932SOL    HW124695   1.557   4.373   2.483
 7932SOL    HW224696   1.639   4.254   2.559
 7933SOL     OW24697   0.613   1.147   6.983
 7933SOL    HW124698   0.673   1.178   0.033
 7933SOL    HW224699   0.631   1.050   6.964
 7934SOL     OW24700   1.068   4.925   1.371
 7934SOL    HW124701   1.036   4.951   1.462
 7934SOL    HW224702   1.005   4.960   1.302
 7935SOL     OW24703   4.823   3.219   3.788
 7935SOL    HW124704   4.800   3.145   3.852
 7935SOL    HW224705   4.824   3.306   3.838
 7936SOL     OW24706   3.602   5.955   3.680
 7936SOL    HW124707   3.680   6.013   3.705
 7936SOL    HW224708   3.520   5.989   3.726
 7937SOL     OW24709   3.760   1.026   6.894
 7937SOL    HW124710   3.700   0.947   6.881
 7937SOL    HW224711   3.855   0.996   6.886
 7938SOL     OW24712   3.383   6.741   4.145
 7938SOL    HW124713   3.315   6.793   4.196
 7938SOL    HW224714   3.456   6.802   4.114
 7939SOL     OW24715   0.589   1.587   4.142
 7939SOL    HW124716   0.670   1.608   4.196
 7939SOL    HW224717   0.575   1.488   4.141
 7940SOL     OW24718   5.560   1.253   3.307
 7940SOL    HW124719   5.465   1.267   3.280
 7940SOL    HW224720   5.617   1.325   3.267
 7941SOL     OW24721   3.760   6.891   1.406
 7941SOL    HW124722   3.814   6.908   1.323
 7941SOL    HW224723   3.803   6.936   1.484
 7942SOL     OW24724   1.142   4.924   0.902
 7942SOL    HW124725   1.053   4.929   0.948
 7942SOL    HW224726   1.173   4.829   0.900
 7943SOL     OW24727   1.606   6.022   6.059
 7943SOL    HW124728   1.650   5.941   6.020
 7943SOL    HW224729   1.507   6.007   6.063
 7944SOL     OW24730   1.417   2.358   1.348
 7944SOL    HW124731   1.403   2.418   1.269
 7944SOL    HW224732   1.365   2.274   1.336
 7945SOL     OW24733   6.030   4.474   2.950
 7945SOL    HW124734   6.045   4.566   2.986
 7945SOL    HW224735   5.933   4.451   2.957
 7946SOL     OW24736   3.545   1.579   6.106
 7946SOL    HW124737   3.461   1.630   6.125
 7946SOL    HW224738   3.594   1.622   6.031
 7947SOL     OW24739   0.580   3.609   5.968
 7947SOL    HW124740   0.611   3.611   6.063
 7947SOL    HW224741   0.655   3.635   5.908
 7948SOL     OW24742   1.332   4.675   2.572
 7948SOL    HW124743   1.252   4.630   2.532
 7948SOL    HW224744   1.398   4.607   2.604
 7949SOL     OW24745   3.887   6.517   6.014
 7949SOL    HW124746   3.868   6.574   6.094
 7949SOL    HW224747   3.924   6.429   6.044
 7950SOL     OW24748   5.679   4.576   5.270
 7950SOL    HW124749   5.778   4.593   5.267
 7950SOL    HW224750   5.631   4.664   5.274
 7951SOL     OW24751   3.492   6.290   2.489
 7951SOL    HW124752   3.509   6.238   2.405
 7951SOL    HW224753   3.480   6.387   2.466
 7952SOL     OW24754   5.930   3.863   6.800
 7952SOL    HW124755   5.858   3.928   6.776
 7952SOL    HW224756   6.011   3.881   6.744
 7953SOL     OW24757   3.113   0.726   0.853
 7953SOL    HW124758   3.040   0.780   0.811
 7953SOL    HW224759   3.173   0.690   0.782
 7954SOL     OW24760   3.925   3.600   6.469
 7954SOL    HW124761   3.962   3.688   6.498
 7954SOL    HW224762   3.825   3.606   6.462
 7955SOL     OW24763   1.472   1.892   6.943
 7955SOL    HW124764   1.385   1.845   6.931
 7955SOL    HW224765   1.492   1.903   0.017
 7956SOL     OW24766   6.533   6.238   0.103
 7956SOL    HW124767   6.607   6.294   0.139
 7956SOL    HW224768   6.453   6.246   0.162
 7957SOL     OW24769   4.536   0.901   5.710
 7957SOL    HW124770   4.440   0.894   5.735
 7957SOL    HW224771   4.556   0.837   5.636
 7958SOL     OW24772   5.877   2.498   0.099
 7958SOL    HW124773   5.800   2.557   0.078
 7958SOL    HW224774   5.896   2.438   0.021
 7959SOL     OW24775   5.587   1.499   6.072
 7959SOL    HW124776   5.682   1.475   6.049
 7959SOL    HW224777   5.534   1.510   5.988
 7960SOL     OW24778   0.094   1.018   5.871
 7960SOL    HW124779   0.022   0.953   5.847
 7960SOL    HW224780   0.164   1.018   5.800
 7961SOL     OW24781   6.396   6.516   0.205
 7961SOL    HW124782   6.475   6.500   0.264
 7961SOL    HW224783   6.317   6.542   0.261
 7962SOL     OW24784   5.499   6.896   5.969
 7962SOL    HW124785   5.544   6.882   5.881
 7962SOL    HW224786   5.413   6.845   5.972
 7963SOL     OW24787   6.975   6.357   4.269
 7963SOL    HW124788   7.019   6.415   4.337
 7963SOL    HW224789   6.883   6.332   4.301
 7964SOL     OW24790   6.846   4.231   1.702
 7964SOL    HW124791   6.830   4.273   1.791
 7964SOL    HW224792   6.941   4.199   1.696
 7965SOL     OW24793   3.087   2.738   6.361
 7965SOL    HW124794   3.169   2.786   6.393
 7965SOL    HW224795   3.105   2.699   6.270
 7966SOL     OW24796   5.022   3.533   4.945
 7966SOL    HW124797   5.033   3.533   4.846
 7966SOL    HW224798   4.927   3.551   4.968
 7967SOL     OW24799   1.811   4.624   1.703
 7967SOL    HW124800   1.770   4.710   1.675
 7967SOL    HW224801   1.910   4.635   1.711
 7968SOL     OW24802   0.322   2.911   5.062
 7968SOL    HW124803   0.337   2.910   5.161
 7968SOL    HW224804   0.390   2.970   5.019
 7969SOL     OW24805   4.676   5.016   0.101
 7969SOL    HW124806   4.591   5.064   0.082
 7969SOL    HW224807   4.681   4.996   0.199
 7970SOL     OW24808   5.742   2.874   2.375
 7970SOL    HW124809   5.762   2.839   2.467
 7970SOL    HW224810   5.651   2.916   2.375
 7971SOL     OW24811   3.278   1.152   0.453
 7971SOL    HW124812   3.197   1.119   0.405
 7971SOL    HW224813   3.360   1.120   0.406
 7972SOL     OW24814   4.045   3.747   3.608
 7972SOL    HW124815   3.984   3.684   3.656
 7972SOL    HW224816   4.062   3.714   3.516
 7973SOL     OW24817   6.550   4.018   2.254
 7973SOL    HW124818   6.498   4.046   2.335
 7973SOL    HW224819   6.557   3.918   2.253
 7974SOL     OW24820   6.736   2.384   6.316
 7974SOL    HW124821   6.808   2.453   6.317
 7974SOL    HW224822   6.768   2.301   6.362
 7975SOL     OW24823   5.696   0.605   1.331
 7975SOL    HW124824   5.621   0.569   1.387
 7975SOL    HW224825   5.663   0.624   1.239
 7976SOL     OW24826   0.918   0.108   0.766
 7976SOL    HW124827   0.882   0.068   0.850
 7976SOL    HW224828   0.999   0.162   0.787
 7977SOL     OW24829   5.545   5.609   3.477
 7977SOL    HW124830   5.447   5.612   3.454
 7977SOL    HW224831   5.558   5.637   3.572
 7978SOL     OW24832   0.288   4.595   1.719
 7978SOL    HW124833   0.375   4.558   1.686
 7978SOL    HW224834   0.304   4.651   1.800
 7979SOL     OW24835   1.708   2.416   4.230
 7979SOL    HW124836   1.717   2.317   4.220
 7979SOL    HW224837   1.650   2.436   4.310
 7980SOL     OW24838   4.135   5.450   0.295
 7980SOL    HW124839   4.213   5.454   0.358
 7980SOL    HW224840   4.145   5.521   0.226
 7981SOL     OW24841   1.624   4.747   3.090
 7981SOL    HW124842   1.671   4.757   3.178
 7981SOL    HW224843   1.604   4.650   3.074
 7982SOL     OW24844   6.420   2.190   5.716
 7982SOL    HW124845   6.479   2.129   5.664
 7982SOL    HW224846   6.331   2.146   5.731
 7983SOL     OW24847   5.112   1.173   1.706
 7983SOL    HW124848   5.071   1.218   1.785
 7983SOL    HW224849   5.128   1.240   1.633
 7984SOL     OW24850   1.081   2.103   3.156
 7984SOL    HW124851   1.005   2.106   3.092
 7984SOL    HW224852   1.084   2.187   3.209
 7985SOL     OW24853   2.605   2.922   5.538
 7985SOL    HW124854   2.681   2.875   5.494
 7985SOL    HW224855   2.528   2.927   5.474
 7986SOL     OW24856   3.135   1.178   3.812
 7986SOL    HW124857   3.140   1.253   3.879
 7986SOL    HW224858   3.117   1.216   3.721
 7987SOL     OW24859   1.237   3.588   6.963
 7987SOL    HW124860   1.182   3.528   6.906
 7987SOL    HW224861   1.334   3.566   6.951
 7988SOL     OW24862   6.610   1.650   1.432
 7988SOL    HW124863   6.549   1.577   1.465
 7988SOL    HW224864   6.703   1.633   1.465
 7989SOL     OW24865   0.054   4.509   0.660
 7989SOL    HW124866   0.096   4.597   0.680
 7989SOL    HW224867   6.985   4.523   0.625
 7990SOL     OW24868   3.865   5.511   5.390
 7990SOL    HW124869   3.873   5.419   5.429
 7990SOL    HW224870   3.825   5.504   5.299
 7991SOL     OW24871   6.141   1.518   4.938
 7991SOL    HW124872   6.045   1.545   4.950
 7991SOL    HW224873   6.151   1.420   4.958
 7992SOL     OW24874   2.692   6.841   6.865
 7992SOL    HW124875   2.710   6.937   6.889
 7992SOL    HW224876   2.625   6.838   6.791
 7993SOL     OW24877   6.584   6.002   1.512
 7993SOL    HW124878   6.669   6.042   1.545
 7993SOL    HW224879   6.550   5.935   1.578
 7994SOL     OW24880   5.726   0.266   3.773
 7994SOL    HW124881   5.725   0.166   3.782
 7994SOL    HW224882   5.657   0.305   3.835
 7995SOL     OW24883   0.497   4.650   1.329
 7995SOL    HW124884   0.571   4.663   1.262
 7995SOL    HW224885   0.490   4.732   1.385
 7996SOL     OW24886   2.791   1.018   3.080
 7996SOL    HW124887   2.868   1.040   3.020
 7996SOL    HW224888   2.716   0.980   3.026
 7997SOL     OW24889   1.415   1.616   6.478
 7997SOL    HW124890   1.465   1.686   6.528
 7997SOL    HW224891   1.453   1.608   6.386
 7998SOL     OW24892   2.387   0.913   0.470
 7998SOL    HW124893   2.397   0.819   0.501
 7998SOL    HW224894   2.449   0.972   0.521
 7999SOL     OW24895   0.676   0.562   4.493
 7999SOL    HW124896   0.742   0.567   4.419
 7999SOL    HW224897   0.661   0.654   4.530
 8000SOL     OW24898   4.456   5.252   6.740
 8000SOL    HW124899   4.469   5.264   6.838
 8000SOL    HW224900   4.457   5.154   6.718
 8001SOL     OW24901   4.460   6.566   1.573
 8001SOL    HW124902   4.366   6.569   1.606
 8001SOL    HW224903   4.522   6.548   1.649
 8002SOL     OW24904   0.611   0.363   5.176
 8002SOL    HW124905   0.617   0.311   5.091
 8002SOL    HW224906   0.579   0.304   5.250
 8003SOL     OW24907   2.060   5.463   2.443
 8003SOL    HW124908   2.122   5.485   2.368
 8003SOL    HW224909   2.072   5.367   2.469
 8004SOL     OW24910   1.292   3.142   3.709
 8004SOL    HW124911   1.374   3.171   3.660
 8004SOL    HW224912   1.241   3.077   3.653
 8005SOL     OW24913   2.165   0.116   3.358
 8005SOL    HW124914   2.225   0.129   3.279
 8005SOL    HW224915   2.175   0.193   3.421
 8006SOL     OW24916   3.668   4.889   5.191
 8006SOL    HW124917   3.749   4.896   5.250
 8006SOL    HW224918   3.697   4.890   5.095
 8007SOL     OW24919   6.195   0.427   6.382
 8007SOL    HW124920   6.292   0.436   6.363
 8007SOL    HW224921   6.181   0.366   6.460
 8008SOL     OW24922   5.768   6.547   6.897
 8008SOL    HW124923   5.761   6.543   6.997
 8008SOL    HW224924   5.681   6.577   6.859
 8009SOL     OW24925   5.023   2.067   6.391
 8009SOL    HW124926   4.967   1.996   6.349
 8009SOL    HW224927   5.031   2.050   6.489
 8010SOL     OW24928   2.960   1.813   5.558
 8010SOL    HW124929   2.997   1.889   5.612
 8010SOL    HW224930   2.888   1.846   5.498
 8011SOL     OW24931   4.266   1.626   2.403
 8011SOL    HW124932   4.346   1.567   2.389
 8011SOL    HW224933   4.234   1.617   2.497
 8012SOL     OW24934   7.006   1.100   5.157
 8012SOL    HW124935   6.993   1.177   5.219
 8012SOL    HW224936   6.930   1.036   5.167
 8013SOL     OW24937   3.558   2.087   2.526
 8013SOL    HW124938   3.651   2.087   2.487
 8013SOL    HW224939   3.492   2.069   2.453
 8014SOL     OW24940   2.003   1.537   2.343
 8014SOL    HW124941   2.103   1.537   2.349
 8014SOL    HW224942   1.975   1.509   2.251
 8015SOL     OW24943   3.357   0.279   5.585
 8015SOL    HW124944   3.257   0.284   5.587
 8015SOL    HW224945   3.387   0.260   5.492
 8016SOL     OW24946   3.693   1.760   4.853
 8016SOL    HW124947   3.721   1.732   4.761
 8016SOL    HW224948   3.747   1.711   4.921
 8017SOL     OW24949   6.146   5.946   1.102
 8017SOL    HW124950   6.132   5.955   1.201
 8017SOL    HW224951   6.214   5.875   1.084
 8018SOL     OW24952   4.390   1.846   6.777
 8018SOL    HW124953   4.298   1.806   6.780
 8018SOL    HW224954   4.382   1.945   6.770
 8019SOL     OW24955   2.325   3.770   0.863
 8019SOL    HW124956   2.297   3.865   0.853
 8019SOL    HW224957   2.311   3.722   0.776
 8020SOL     OW24958   6.849   0.912   5.443
 8020SOL    HW124959   6.830   0.815   5.460
 8020SOL    HW224960   6.831   0.933   5.347
 8021SOL     OW24961   1.782   2.278   1.344
 8021SOL    HW124962   1.742   2.354   1.396
 8021SOL    HW224963   1.745   2.191   1.378
 8022SOL     OW24964   4.942   1.657   2.474
 8022SOL    HW124965   4.966   1.754   2.462
 8022SOL    HW224966   4.843   1.646   2.472
 8023SOL     OW24967   5.150   6.117   2.217
 8023SOL    HW124968   5.224   6.135   2.281
 8023SOL    HW224969   5.108   6.204   2.190
 8024SOL     OW24970   2.153   0.929   6.513
 8024SOL    HW124971   2.174   0.997   6.583
 8024SOL    HW224972   2.237   0.897   6.470
 8025SOL     OW24973   1.351   5.777   1.872
 8025SOL    HW124974   1.364   5.752   1.776
 8025SOL    HW224975   1.256   5.758   1.899
 8026SOL     OW24976   0.914   5.322   6.531
 8026SOL    HW124977   0.848   5.248   6.545
 8026SOL    HW224978   0.921   5.376   6.615
 8027SOL     OW24979   3.378   0.684   6.695
 8027SOL    HW124980   3.417   0.593   6.685
 8027SOL    HW224981   3.280   0.677   6.711
 8028SOL     OW24982   3.039   5.497   5.253
 8028SOL    HW124983   3.090   5.570   5.206
 8028SOL    HW224984   3.073   5.489   5.347
 8029SOL     OW24985   6.972   6.715   0.366
 8029SOL    HW124986   6.877   6.730   0.393
 8029SOL    HW224987   7.010   6.800   0.329
 8030SOL     OW24988   0.685   3.969   0.874
 8030SOL    HW124989   0.739   3.982   0.791
 8030SOL    HW224990   0.632   3.884   0.867
 8031SOL     OW24991   0.411   0.738   3.166
 8031SOL    HW124992   0.481   0.671   3.191
 8031SOL    HW224993   0.452   0.830   3.163
 8032SOL     OW24994   6.100   2.873   1.158
 8032SOL    HW124995   6.060   2.802   1.099
 8032SOL    HW224996   6.150   2.938   1.102
 8033SOL     OW24997   5.361   3.639   0.841
 8033SOL    HW124998   5.280   3.648   0.783
 8033SOL    HW224999   5.334   3.637   0.937
 8034SOL     OW25000   6.055   0.416   5.738
 8034SOL    HW125001   6.073   0.413   5.640
 8034SOL    HW225002   6.035   0.509   5.766
 8035SOL     OW25003   5.765   1.991   2.787
 8035SOL    HW125004   5.689   2.056   2.783
 8035SOL    HW225005   5.761   1.930   2.708
 8036SOL     OW25006   5.961   2.543   3.397
 8036SOL    HW125007   6.053   2.519   3.364
 8036SOL    HW225008   5.920   2.463   3.441
 8037SOL     OW25009   1.542   2.034   5.664
 8037SOL    HW125010   1.542   1.966   5.591
 8037SOL    HW225011   1.486   2.001   5.740
 8038SOL     OW25012   6.960   4.637   2.434
 8038SOL    HW125013   6.982   4.684   2.519
 8038SOL    HW225014   7.006   4.548   2.431
 8039SOL     OW25015   1.446   2.398   5.609
 8039SOL    HW125016   1.442   2.409   5.510
 8039SOL    HW225017   1.539   2.376   5.637
 8040SOL     OW25018   2.121   5.412   6.304
 8040SOL    HW125019   2.158   5.413   6.397
 8040SOL    HW225020   2.116   5.317   6.271
 8041SOL     OW25021   3.939   1.276   3.642
 8041SOL    HW125022   3.844   1.247   3.626
 8041SOL    HW225023   3.958   1.274   3.740
 8042SOL     OW25024   4.340   4.118   5.582
 8042SOL    HW125025   4.324   4.206   5.627
 8042SOL    HW225026   4.369   4.134   5.488
 8043SOL     OW25027   5.205   5.826   6.727
 8043SOL    HW125028   5.117   5.815   6.680
 8043SOL    HW225029   5.251   5.737   6.733
 8044SOL     OW25030   2.717   3.822   1.548
 8044SOL    HW125031   2.662   3.745   1.580
 8044SOL    HW225032   2.797   3.834   1.608
 8045SOL     OW25033   0.223   2.334   3.250
 8045SOL    HW125034   0.263   2.316   3.160
 8045SOL    HW225035   0.169   2.255   3.279
 8046SOL     OW25036   6.837   4.575   2.104
 8046SOL    HW125037   6.912   4.521   2.142
 8046SOL    HW225038   6.791   4.522   2.032
 8047SOL     OW25039   3.678   6.598   6.570
 8047SOL    HW125040   3.701   6.509   6.530
 8047SOL    HW225041   3.604   6.586   6.637
 8048SOL     OW25042   3.703   2.536   6.159
 8048SOL    HW125043   3.771   2.477   6.202
 8048SOL    HW225044   3.716   2.536   6.060
 8049SOL     OW25045   1.203   1.413   0.023
 8049SOL    HW125046   1.139   1.428   6.972
 8049SOL    HW225047   1.289   1.460   0.004
 8050SOL     OW25048   0.337   4.552   5.462
 8050SOL    HW125049   0.431   4.518   5.453
 8050SOL    HW225050   0.289   4.540   5.376
 8051SOL     OW25051   4.388   6.149   3.405
 8051SOL    HW125052   4.321   6.098   3.459
 8051SOL    HW225053   4.368   6.247   3.413
 8052SOL     OW25054   2.502   2.511   2.332
 8052SOL    HW125055   2.584   2.497   2.276
 8052SOL    HW225056   2.527   2.503   2.429
 8053SOL     OW25057   1.906   2.759   6.911
 8053SOL    HW125058   1.980   2.726   6.970
 8053SOL    HW225059   1.834   2.690   6.907
 8054SOL     OW25060   4.859   3.405   5.286
 8054SOL    HW125061   4.778   3.436   5.236
 8054SOL    HW225062   4.847   3.427   5.383
 8055SOL     OW25063   6.116   0.283   6.604
 8055SOL    HW125064   6.174   0.205   6.630
 8055SOL    HW225065   6.063   0.313   6.682
 8056SOL     OW25066   2.406   1.523   5.097
 8056SOL    HW125067   2.384   1.557   5.006
 8056SOL    HW225068   2.390   1.596   5.164
 8057SOL     OW25069   2.906   2.051   1.967
 8057SOL    HW125070   2.992   2.017   1.931
 8057SOL    HW225071   2.910   2.151   1.976
 8058SOL     OW25072   3.708   6.801   2.650
 8058SOL    HW125073   3.766   6.857   2.709
 8058SOL    HW225074   3.628   6.854   2.621
 8059SOL     OW25075   2.702   2.853   6.353
 8059SOL    HW125076   2.659   2.776   6.400
 8059SOL    HW225077   2.755   2.820   6.275
 8060SOL     OW25078   6.000   0.723   5.572
 8060SOL    HW125079   5.905   0.744   5.595
 8060SOL    HW225080   6.060   0.791   5.614
 8061SOL     OW25081   0.376   0.601   2.675
 8061SOL    HW125082   0.289   0.608   2.625
 8061SOL    HW225083   0.432   0.530   2.634
 8062SOL     OW25084   4.100   5.513   5.625
 8062SOL    HW125085   4.009   5.484   5.595
 8062SOL    HW225086   4.169   5.449   5.590
 8063SOL     OW25087   3.590   5.252   3.090
 8063SOL    HW125088   3.608   5.157   3.064
 8063SOL    HW225089   3.494   5.263   3.114
 8064SOL     OW25090   6.257   1.654   0.813
 8064SOL    HW125091   6.312   1.688   0.890
 8064SOL    HW225092   6.194   1.583   0.845
 8065SOL     OW25093   4.100   5.622   6.487
 8065SOL    HW125094   4.033   5.573   6.542
 8065SOL    HW225095   4.137   5.699   6.539
 8066SOL     OW25096   0.201   0.053   5.534
 8066SOL    HW125097   0.276   0.011   5.585
 8066SOL    HW225098   0.124   7.013   5.530
 8067SOL     OW25099   5.147   2.677   3.837
 8067SOL    HW125100   5.246   2.669   3.841
 8067SOL    HW225101   5.110   2.601   3.782
 8068SOL     OW25102   5.979   4.276   1.296
 8068SOL    HW125103   5.998   4.213   1.220
 8068SOL    HW225104   5.993   4.229   1.383
 8069SOL     OW25105   2.886   5.340   3.135
 8069SOL    HW125106   2.922   5.386   3.215
 8069SOL    HW225107   2.794   5.305   3.154
 8070SOL     OW25108   4.072   4.819   0.560
 8070SOL    HW125109   3.984   4.865   0.551
 8070SOL    HW225110   4.057   4.721   0.575
 8071SOL     OW25111   2.629   6.885   5.936
 8071SOL    HW125112   2.709   6.914   5.988
 8071SOL    HW225113   2.590   6.963   5.888
 8072SOL     OW25114   1.234   2.241   5.734
 8072SOL    HW125115   1.284   2.159   5.763
 8072SOL    HW225116   1.298   2.304   5.688
 8073SOL     OW25117   3.722   0.577   6.920
 8073SOL    HW125118   3.800   0.584   6.982
 8073SOL    HW225119   3.755   0.568   6.826
 8074SOL     OW25120   1.239   0.848   6.353
 8074SOL    HW125121   1.259   0.896   6.438
 8074SOL    HW225122   1.273   0.902   6.276
 8075SOL     OW25123   0.163   0.027   0.845
 8075SOL    HW125124   0.085   0.062   0.898
 8075SOL    HW225125   0.213   6.984   0.900
 8076SOL     OW25126   6.616   5.887   0.554
 8076SOL    HW125127   6.690   5.949   0.526
 8076SOL    HW225128   6.647   5.831   0.631
 8077SOL     OW25129   4.758   4.784   0.660
 8077SOL    HW125130   4.669   4.831   0.660
 8077SOL    HW225131   4.826   4.843   0.704
 8078SOL     OW25132   0.687   0.250   2.489
 8078SOL    HW125133   0.754   0.304   2.439
 8078SOL    HW225134   0.728   0.163   2.517
 8079SOL     OW25135   1.315   1.972   5.824
 8079SOL    HW125136   1.324   1.914   5.905
 8079SOL    HW225137   1.292   1.915   5.745
 8080SOL     OW25138   1.570   2.932   3.209
 8080SOL    HW125139   1.649   2.883   3.245
 8080SOL    HW225140   1.507   2.955   3.283
 8081SOL     OW25141   6.363   6.184   4.738
 8081SOL    HW125142   6.410   6.211   4.654
 8081SOL    HW225143   6.268   6.159   4.716
 8082SOL     OW25144   4.097   1.550   2.189
 8082SOL    HW125145   4.155   1.580   2.265
 8082SOL    HW225146   4.006   1.528   2.224
 8083SOL     OW25147   5.735   2.519   5.070
 8083SOL    HW125148   5.832   2.544   5.064
 8083SOL    HW225149   5.684   2.594   5.111
 8084SOL     OW25150   3.924   1.721   5.647
 8084SOL    HW125151   3.841   1.729   5.593
 8084SOL    HW225152   3.918   1.643   5.708
 8085SOL     OW25153   1.521   6.186   4.238
 8085SOL    HW125154   1.612   6.183   4.199
 8085SOL    HW225155   1.455   6.211   4.168
 8086SOL     OW25156   7.000   0.841   2.469
 8086SOL    HW125157   7.021   0.865   2.564
 8086SOL    HW225158   0.012   0.912   2.408
 8087SOL     OW25159   1.372   0.950   0.816
 8087SOL    HW125160   1.334   1.043   0.823
 8087SOL    HW225161   1.471   0.954   0.828
 8088SOL     OW25162   6.145   0.363   4.520
 8088SOL    HW125163   6.216   0.311   4.567
 8088SOL    HW225164   6.063   0.366   4.576
 8089SOL     OW25165   5.726   2.553   6.451
 8089SOL    HW125166   5.643   2.507   6.483
 8089SOL    HW225167   5.761   2.506   6.371
 8090SOL     OW25168   4.365   2.033   5.381
 8090SOL    HW125169   4.327   1.941   5.378
 8090SOL    HW225170   4.293   2.101   5.366
 8091SOL     OW25171   1.969   4.826   4.376
 8091SOL    HW125172   1.943   4.823   4.473
 8091SOL    HW225173   1.970   4.922   4.345
 8092SOL     OW25174   4.961   1.973   5.676
 8092SOL    HW125175   4.895   1.898   5.677
 8092SOL    HW225176   4.981   2.001   5.770
 8093SOL     OW25177   3.787   6.464   2.307
 8093SOL    HW125178   3.809   6.439   2.213
 8093SOL    HW225179   3.837   6.405   2.370
 8094SOL     OW25180   1.732   4.498   3.704
 8094SOL    HW125181   1.774   4.497   3.795
 8094SOL    HW225182   1.767   4.576   3.652
 8095SOL     OW25183   1.176   4.835   5.408
 8095SOL    HW125184   1.187   4.927   5.371
 8095SOL    HW225185   1.081   4.806   5.399
 8096SOL     OW25186   0.795   5.722   1.775
 8096SOL    HW125187   0.714   5.670   1.747
 8096SOL    HW225188   0.796   5.810   1.726
 8097SOL     OW25189   3.714   5.940   5.288
 8097SOL    HW125190   3.732   5.860   5.345
 8097SOL    HW225191   3.634   5.923   5.230
 8098SOL     OW25192   1.453   5.788   5.188
 8098SOL    HW125193   1.358   5.808   5.214
 8098SOL    HW225194   1.486   5.710   5.240
 8099SOL     OW25195   2.450   5.609   3.319
 8099SOL    HW125196   2.361   5.612   3.275
 8099SOL    HW225197   2.462   5.521   3.365
 8100SOL     OW25198   6.935   0.123   0.069
 8100SOL    HW125199   6.913   0.201   0.128
 8100SOL    HW225200   7.019   0.141   0.018
 8101SOL     OW25201   2.009   6.541   1.667
 8101SOL    HW125202   2.099   6.585   1.673
 8101SOL    HW225203   1.965   6.545   1.757
 8102SOL     OW25204   1.716   3.275   5.208
 8102SOL    HW125205   1.676   3.190   5.242
 8102SOL    HW225206   1.731   3.268   5.110
 8103SOL     OW25207   3.478   1.426   1.931
 8103SOL    HW125208   3.431   1.380   2.007
 8103SOL    HW225209   3.574   1.438   1.954
 8104SOL     OW25210   1.851   6.403   0.241
 8104SOL    HW125211   1.844   6.503   0.236
 8104SOL    HW225212   1.826   6.373   0.333
 8105SOL     OW25213   0.096   0.448   3.079
 8105SOL    HW125214   0.091   0.412   3.172
 8105SOL    HW225215   0.188   0.434   3.043
 8106SOL     OW25216   2.381   6.450   5.730
 8106SOL    HW125217   2.297   6.435   5.677
 8106SOL    HW225218   2.366   6.524   5.795
 8107SOL     OW25219   2.049   6.307   6.015
 8107SOL    HW125220   1.960   6.265   6.033
 8107SOL    HW225221   2.054   6.396   6.060
 8108SOL     OW25222   0.698   1.525   6.585
 8108SOL    HW125223   0.726   1.441   6.633
 8108SOL    HW225224   0.635   1.501   6.511
 8109SOL     OW25225   6.442   2.775   0.618
 8109SOL    HW125226   6.369   2.841   0.601
 8109SOL    HW225227   6.442   2.749   0.715
 8110SOL     OW25228   4.043   5.310   1.266
 8110SOL    HW125229   4.125   5.261   1.297
 8110SOL    HW225230   3.963   5.251   1.273
 8111SOL     OW25231   6.409   1.550   2.644
 8111SOL    HW125232   6.471   1.572   2.568
 8111SOL    HW225233   6.334   1.616   2.645
 8112SOL     OW25234   1.087   3.418   5.484
 8112SOL    HW125235   1.175   3.428   5.438
 8112SOL    HW225236   1.075   3.493   5.549
 8113SOL     OW25237   5.790   3.042   6.976
 8113SOL    HW125238   5.839   2.969   0.001
 8113SOL    HW225239   5.693   3.039   7.002
 8114SOL     OW25240   2.078   4.173   1.149
 8114SOL    HW125241   2.018   4.252   1.136
 8114SOL    HW225242   2.112   4.142   1.060
 8115SOL     OW25243   2.074   1.401   6.122
 8115SOL    HW125244   2.057   1.497   6.100
 8115SOL    HW225245   2.065   1.386   6.220
 8116SOL     OW25246   3.488   3.951   1.095
 8116SOL    HW125247   3.434   3.900   1.027
 8116SOL    HW225248   3.426   3.995   1.160
 8117SOL     OW25249   2.874   6.982   2.761
 8117SOL    HW125250   2.795   6.921   2.769
 8117SOL    HW225251   2.869   0.028   2.833
 8118SOL     OW25252   6.750   2.413   0.624
 8118SOL    HW125253   6.778   2.508   0.641
 8118SOL    HW225254   6.657   2.412   0.589
 8119SOL     OW25255   6.017   5.976   6.463
 8119SOL    HW125256   6.016   6.065   6.508
 8119SOL    HW225257   6.111   5.953   6.437
 8120SOL     OW25258   2.560   6.138   1.337
 8120SOL    HW125259   2.528   6.139   1.242
 8120SOL    HW225260   2.497   6.086   1.393
 8121SOL     OW25261   1.549   3.067   2.984
 8121SOL    HW125262   1.577   3.009   3.060
 8121SOL    HW225263   1.522   3.157   3.019
 8122SOL     OW25264   0.594   4.463   2.282
 8122SOL    HW125265   0.515   4.402   2.284
 8122SOL    HW225266   0.639   4.462   2.372
 8123SOL     OW25267   0.280   1.998   5.844
 8123SOL    HW125268   0.343   1.997   5.767
 8123SOL    HW225269   0.187   1.979   5.812
 8124SOL     OW25270   5.224   4.792   4.707
 8124SOL    HW125271   5.211   4.696   4.681
 8124SOL    HW225272   5.214   4.850   4.627
 8125SOL     OW25273   1.524   6.256   3.050
 8125SOL    HW125274   1.426   6.256   3.071
 8125SOL    HW225275   1.576   6.260   3.135
 8126SOL     OW25276   3.802   4.910   4.100
 8126SOL    HW125277   3.842   4.829   4.143
 8126SOL    HW225278   3.826   4.991   4.154
 8127SOL     OW25279   3.683   2.849   0.004
 8127SOL    HW125280   3.657   2.834   6.933
 8127SOL    HW225281   3.721   2.941   0.015
 8128SOL     OW25282   3.664   3.009   1.555
 8128SOL    HW125283   3.715   2.927   1.580
 8128SOL    HW225284   3.572   2.983   1.525
 8129SOL     OW25285   1.173   3.014   1.367
 8129SOL    HW125286   1.221   3.086   1.417
 8129SOL    HW225287   1.153   3.046   1.274
 8130SOL     OW25288   1.454   5.179   6.912
 8130SOL    HW125289   1.358   5.176   6.939
 8130SOL    HW225290   1.476   5.270   6.875
 8131SOL     OW25291   1.759   3.480   0.212
 8131SOL    HW125292   1.774   3.566   0.260
 8131SOL    HW225293   1.697   3.422   0.265
 8132SOL     OW25294   6.927   6.969   4.868
 8132SOL    HW125295   7.007   6.928   4.824
 8132SOL    HW225296   6.957   0.020   4.927
 8133SOL     OW25297   3.315   5.040   0.833
 8133SOL    HW125298   3.253   5.010   0.760
 8133SOL    HW225299   3.266   5.039   0.920
 8134SOL     OW25300   5.677   0.955   5.209
 8134SOL    HW125301   5.724   0.877   5.249
 8134SOL    HW225302   5.742   1.010   5.156
 8135SOL     OW25303   2.289   0.134   1.423
 8135SOL    HW125304   2.356   0.084   1.368
 8135SOL    HW225305   2.282   0.228   1.390
 8136SOL     OW25306   4.596   4.806   2.198
 8136SOL    HW125307   4.555   4.729   2.149
 8136SOL    HW225308   4.645   4.773   2.279
 8137SOL     OW25309   4.233   1.863   4.550
 8137SOL    HW125310   4.245   1.765   4.561
 8137SOL    HW225311   4.182   1.900   4.628
 8138SOL     OW25312   4.685   1.173   1.170
 8138SOL    HW125313   4.590   1.181   1.141
 8138SOL    HW225314   4.699   1.227   1.252
 8139SOL     OW25315   1.106   2.334   3.568
 8139SOL    HW125316   1.199   2.345   3.603
 8139SOL    HW225317   1.041   2.375   3.632
 8140SOL     OW25318   3.843   0.707   3.632
 8140SOL    HW125319   3.787   0.653   3.694
 8140SOL    HW225320   3.851   0.801   3.667
 8141SOL     OW25321   4.179   4.781   4.658
 8141SOL    HW125322   4.136   4.695   4.631
 8141SOL    HW225323   4.231   4.768   4.742
 8142SOL     OW25324   6.101   5.478   0.276
 8142SOL    HW125325   6.031   5.526   0.328
 8142SOL    HW225326   6.093   5.380   0.292
 8143SOL     OW25327   6.075   4.156   4.786
 8143SOL    HW125328   5.991   4.205   4.763
 8143SOL    HW225329   6.062   4.058   4.770
 8144SOL     OW25330   5.937   6.229   6.530
 8144SOL    HW125331   5.929   6.249   6.432
 8144SOL    HW225332   5.864   6.276   6.580
 8145SOL     OW25333   6.178   6.078   2.521
 8145SOL    HW125334   6.079   6.083   2.538
 8145SOL    HW225335   6.195   6.073   2.422
 8146SOL     OW25336   2.939   1.177   4.699
 8146SOL    HW125337   3.035   1.206   4.701
 8146SOL    HW225338   2.932   1.089   4.652
 8147SOL     OW25339   4.635   1.397   3.769
 8147SOL    HW125340   4.540   1.384   3.797
 8147SOL    HW225341   4.687   1.437   3.844
 8148SOL     OW25342   5.493   3.845   3.452
 8148SOL    HW125343   5.585   3.815   3.428
 8148SOL    HW225344   5.455   3.784   3.522
 8149SOL     OW25345   4.285   4.915   3.472
 8149SOL    HW125346   4.337   4.830   3.458
 8149SOL    HW225347   4.251   4.917   3.566
 8150SOL     OW25348   0.747   5.507   7.023
 8150SOL    HW125349   0.656   5.542   7.005
 8150SOL    HW225350   0.742   5.410   0.024
 8151SOL     OW25351   1.156   1.773   5.443
 8151SOL    HW125352   1.124   1.687   5.484
 8151SOL    HW225353   1.101   1.849   5.477
 8152SOL     OW25354   1.650   1.019   2.825
 8152SOL    HW125355   1.686   1.092   2.883
 8152SOL    HW225356   1.683   0.931   2.858
 8153SOL     OW25357   1.938   6.330   0.636
 8153SOL    HW125358   1.935   6.318   0.735
 8153SOL    HW225359   2.028   6.365   0.609
 8154SOL     OW25360   2.394   6.657   3.553
 8154SOL    HW125361   2.476   6.599   3.554
 8154SOL    HW225362   2.312   6.599   3.555
 8155SOL     OW25363   2.863   3.630   3.373
 8155SOL    HW125364   2.915   3.712   3.347
 8155SOL    HW225365   2.776   3.628   3.324
 8156SOL     OW25366   6.213   0.326   5.949
 8156SOL    HW125367   6.152   0.362   5.879
 8156SOL    HW225368   6.233   0.398   6.015
 8157SOL     OW25369   6.342   3.608   6.718
 8157SOL    HW125370   6.345   3.645   6.811
 8157SOL    HW225371   6.435   3.604   6.681
 8158SOL     OW25372   1.581   5.008   2.266
 8158SOL    HW125373   1.579   4.914   2.301
 8158SOL    HW225374   1.603   5.071   2.341
 8159SOL     OW25375   1.878   6.073   2.217
 8159SOL    HW125376   1.940   6.044   2.290
 8159SOL    HW225377   1.880   6.005   2.144
 8160SOL     OW25378   4.399   2.292   1.662
 8160SOL    HW125379   4.479   2.232   1.662
 8160SOL    HW225380   4.320   2.243   1.698
 8161SOL     OW25381   5.297   1.438   0.968
 8161SOL    HW125382   5.271   1.345   0.993
 8161SOL    HW225383   5.215   1.495   0.964
 8162SOL     OW25384   6.098   0.307   2.010
 8162SOL    HW125385   6.088   0.259   2.096
 8162SOL    HW225386   6.055   0.255   1.937
 8163SOL     OW25387   2.115   4.076   5.228
 8163SOL    HW125388   2.201   4.057   5.182
 8163SOL    HW225389   2.133   4.121   5.316
 8164SOL     OW25390   4.235   2.311   2.038
 8164SOL    HW125391   4.279   2.255   2.108
 8164SOL    HW225392   4.294   2.388   2.015
 8165SOL     OW25393   2.384   5.100   1.538
 8165SOL    HW125394   2.291   5.118   1.568
 8165SOL    HW225395   2.442   5.081   1.618
 8166SOL     OW25396   2.959   6.918   1.940
 8166SOL    HW125397   2.863   6.939   1.960
 8166SOL    HW225398   3.018   6.989   1.977
 8167SOL     OW25399   6.121   2.633   3.731
 8167SOL    HW125400   6.072   2.546   3.735
 8167SOL    HW225401   6.156   2.656   3.822
 8168SOL     OW25402   3.407   1.359   3.243
 8168SOL    HW125403   3.331   1.409   3.200
 8168SOL    HW225404   3.488   1.418   3.245
 8169SOL     OW25405   4.593   3.679   6.155
 8169SOL    HW125406   4.651   3.610   6.196
 8169SOL    HW225407   4.539   3.725   6.227
 8170SOL     OW25408   0.875   5.661   4.015
 8170SOL    HW125409   0.941   5.700   4.078
 8170SOL    HW225410   0.879   5.561   4.021
 8171SOL     OW25411   0.753   1.887   5.885
 8171SOL    HW125412   0.720   1.805   5.931
 8171SOL    HW225413   0.734   1.881   5.787
 8172SOL     OW25414   6.857   6.368   1.062
 8172SOL    HW125415   6.918   6.426   1.116
 8172SOL    HW225416   6.875   6.272   1.082
 8173SOL     OW25417   4.365   2.786   6.776
 8173SOL    HW125418   4.330   2.757   6.865
 8173SOL    HW225419   4.357   2.711   6.711
 8174SOL     OW25420   6.036   0.315   2.384
 8174SOL    HW125421   6.075   0.319   2.476
 8174SOL    HW225422   5.937   0.326   2.389
 8175SOL     OW25423   0.887   3.267   6.143
 8175SOL    HW125424   0.899   3.242   6.239
 8175SOL    HW225425   0.959   3.332   6.117
 8176SOL     OW25426   2.608   5.648   2.252
 8176SOL    HW125427   2.647   5.562   2.284
 8176SOL    HW225428   2.654   5.677   2.168
 8177SOL     OW25429   0.465   6.857   5.642
 8177SOL    HW125430   0.436   6.762   5.636
 8177SOL    HW225431   0.544   6.864   5.704
 8178SOL     OW25432   2.088   6.804   6.654
 8178SOL    HW125433   2.184   6.832   6.658
 8178SOL    HW225434   2.041   6.834   6.738
 8179SOL     OW25435   3.342   1.375   0.320
 8179SOL    HW125436   3.335   1.300   0.255
 8179SOL    HW225437   3.344   1.338   0.413
 8180SOL     OW25438   5.985   5.769   5.430
 8180SOL    HW125439   6.062   5.740   5.486
 8180SOL    HW225440   5.919   5.819   5.486
 8181SOL     OW25441   2.524   2.483   2.596
 8181SOL    HW125442   2.579   2.434   2.664
 8181SOL    HW225443   2.427   2.469   2.615
 8182SOL     OW25444   3.720   2.987   5.272
 8182SOL    HW125445   3.662   2.907   5.254
 8182SOL    HW225446   3.676   3.046   5.340
 8183SOL     OW25447   1.122   3.578   4.847
 8183SOL    HW125448   1.137   3.596   4.945
 8183SOL    HW225449   1.206   3.598   4.796
 8184SOL     OW25450   5.631   6.007   5.389
 8184SOL    HW125451   5.624   5.935   5.459
 8184SOL    HW225452   5.724   6.043   5.388
 8185SOL     OW25453   2.204   1.361   2.788
 8185SOL    HW125454   2.105   1.358   2.778
 8185SOL    HW225455   2.239   1.450   2.759
 8186SOL     OW25456   3.727   5.365   6.192
 8186SOL    HW125457   3.692   5.283   6.146
 8186SOL    HW225458   3.715   5.356   6.290
 8187SOL     OW25459   1.028   2.133   5.258
 8187SOL    HW125460   0.950   2.184   5.294
 8187SOL    HW225461   1.060   2.176   5.174
 8188SOL     OW25462   5.617   3.756   2.465
 8188SOL    HW125463   5.612   3.851   2.496
 8188SOL    HW225464   5.666   3.753   2.378
 8189SOL     OW25465   5.802   4.284   2.421
 8189SOL    HW125466   5.719   4.334   2.397
 8189SOL    HW225467   5.870   4.297   2.349
 8190SOL     OW25468   5.083   3.670   3.064
 8190SOL    HW125469   5.036   3.584   3.084
 8190SOL    HW225470   5.019   3.735   3.025
 8191SOL     OW25471   0.625   5.147   3.007
 8191SOL    HW125472   0.584   5.111   2.924
 8191SOL    HW225473   0.724   5.154   2.995
 8192SOL     OW25474   1.551   4.210   1.551
 8192SOL    HW125475   1.644   4.193   1.583
 8192SOL    HW225476   1.491   4.135   1.578
 8193SOL     OW25477   3.725   0.860   6.029
 8193SOL    HW125478   3.676   0.932   6.077
 8193SOL    HW225479   3.820   0.888   6.016
 8194SOL     OW25480   1.230   0.426   0.756
 8194SOL    HW125481   1.134   0.437   0.782
 8194SOL    HW225482   1.241   0.446   0.659
 8195SOL     OW25483   6.348   0.131   0.771
 8195SOL    HW125484   6.399   0.112   0.687
 8195SOL    HW225485   6.344   0.230   0.786
 8196SOL     OW25486   2.563   0.532   6.098
 8196SOL    HW125487   2.594   0.592   6.173
 8196SOL    HW225488   2.567   0.583   6.012
 8197SOL     OW25489   0.609   6.620   6.869
 8197SOL    HW125490   0.651   6.560   6.800
 8197SOL    HW225491   0.680   6.654   6.931
 8198SOL     OW25492   3.719   6.520   2.713
 8198SOL    HW125493   3.679   6.612   2.716
 8198SOL    HW225494   3.818   6.528   2.703
 8199SOL     OW25495   6.068   3.628   0.285
 8199SOL    HW125496   6.080   3.568   0.364
 8199SOL    HW225497   5.972   3.653   0.276
 8200SOL     OW25498   5.049   3.514   1.294
 8200SOL    HW125499   5.118   3.561   1.239
 8200SOL    HW225500   4.960   3.522   1.250
 8201SOL     OW25501   6.086   1.003   4.124
 8201SOL    HW125502   6.125   0.913   4.140
 8201SOL    HW225503   6.155   1.064   4.086
 8202SOL     OW25504   1.377   4.310   3.589
 8202SOL    HW125505   1.336   4.252   3.519
 8202SOL    HW225506   1.381   4.405   3.555
 8203SOL     OW25507   5.983   3.307   0.969
 8203SOL    HW125508   5.952   3.280   0.877
 8203SOL    HW225509   5.905   3.340   1.022
 8204SOL     OW25510   3.510   6.877   0.886
 8204SOL    HW125511   3.573   6.933   0.833
 8204SOL    HW225512   3.539   6.876   0.982
 8205SOL     OW25513   5.929   5.310   3.108
 8205SOL    HW125514   5.905   5.220   3.071
 8205SOL    HW225515   5.869   5.331   3.185
 8206SOL     OW25516   4.541   1.797   4.184
 8206SOL    HW125517   4.627   1.796   4.134
 8206SOL    HW225518   4.560   1.795   4.283
 8207SOL     OW25519   2.574   6.439   0.027
 8207SOL    HW125520   2.598   6.384   6.971
 8207SOL    HW225521   2.494   6.400   0.072
 8208SOL     OW25522   1.349   4.967   6.087
 8208SOL    HW125523   1.257   4.965   6.046
 8208SOL    HW225524   1.362   5.053   6.135
 8209SOL     OW25525   0.410   6.619   5.357
 8209SOL    HW125526   0.483   6.652   5.416
 8209SOL    HW225527   0.410   6.519   5.357
 8210SOL     OW25528   2.620   2.121   6.824
 8210SOL    HW125529   2.649   2.138   6.730
 8210SOL    HW225530   2.689   2.155   6.887
 8211SOL     OW25531   3.081   3.364   4.769
 8211SOL    HW125532   3.180   3.359   4.777
 8211SOL    HW225533   3.041   3.276   4.794
 8212SOL     OW25534   3.669   6.661   0.543
 8212SOL    HW125535   3.635   6.568   0.557
 8212SOL    HW225536   3.592   6.724   0.537
 8213SOL     OW25537   4.242   4.113   1.667
 8213SOL    HW125538   4.152   4.121   1.710
 8213SOL    HW225539   4.313   4.142   1.731
 8214SOL     OW25540   3.797   5.260   4.355
 8214SOL    HW125541   3.727   5.264   4.427
 8214SOL    HW225542   3.833   5.352   4.340
 8215SOL     OW25543   3.305   6.027   6.548
 8215SOL    HW125544   3.249   6.033   6.465
 8215SOL    HW225545   3.277   5.946   6.601
 8216SOL     OW25546   5.898   4.875   2.064
 8216SOL    HW125547   5.922   4.956   2.011
 8216SOL    HW225548   5.805   4.885   2.101
 8217SOL     OW25549   2.531   6.118   3.948
 8217SOL    HW125550   2.607   6.116   4.013
 8217SOL    HW225551   2.505   6.025   3.925
 8218SOL     OW25552   3.054   6.812   4.955
 8218SOL    HW125553   3.007   6.861   5.028
 8218SOL    HW225554   3.153   6.827   4.963
 8219SOL     OW25555   4.141   2.930   1.680
 8219SOL    HW125556   4.073   2.968   1.617
 8219SOL    HW225557   4.122   2.834   1.696
 8220SOL     OW25558   3.610   4.166   4.267
 8220SOL    HW125559   3.603   4.178   4.366
 8220SOL    HW225560   3.700   4.129   4.244
 8221SOL     OW25561   5.377   3.923   3.203
 8221SOL    HW125562   5.423   3.877   3.126
 8221SOL    HW225563   5.427   3.903   3.287
 8222SOL     OW25564   6.787   3.021   0.321
 8222SOL    HW125565   6.883   2.993   0.328
 8222SOL    HW225566   6.728   2.943   0.341
 8223SOL     OW25567   1.910   6.279   5.687
 8223SOL    HW125568   1.966   6.344   5.739
 8223SOL    HW225569   1.850   6.230   5.749
 8224SOL     OW25570   5.419   1.569   0.455
 8224SOL    HW125571   5.381   1.643   0.400
 8224SOL    HW225572   5.357   1.491   0.453
 8225SOL     OW25573   5.464   1.874   0.220
 8225SOL    HW125574   5.368   1.846   0.230
 8225SOL    HW225575   5.513   1.853   0.305
 8226SOL     OW25576   4.202   0.733   0.696
 8226SOL    HW125577   4.251   0.728   0.782
 8226SOL    HW225578   4.184   0.829   0.673
 8227SOL     OW25579   4.364   2.395   2.793
 8227SOL    HW125580   4.392   2.327   2.861
 8227SOL    HW225581   4.275   2.368   2.754
 8228SOL     OW25582   2.225   6.963   4.540
 8228SOL    HW125583   2.129   6.957   4.564
 8228SOL    HW225584   2.239   0.014   4.475
 8229SOL     OW25585   4.586   4.478   0.407
 8229SOL    HW125586   4.547   4.564   0.440
 8229SOL    HW225587   4.643   4.438   0.479
 8230SOL     OW25588   5.461   0.461   6.060
 8230SOL    HW125589   5.499   0.373   6.032
 8230SOL    HW225590   5.529   0.533   6.045
 8231SOL     OW25591   2.581   1.909   2.821
 8231SOL    HW125592   2.627   1.985   2.775
 8231SOL    HW225593   2.547   1.939   2.910
 8232SOL     OW25594   3.613   5.764   3.039
 8232SOL    HW125595   3.640   5.679   3.085
 8232SOL    HW225596   3.525   5.751   2.994
 8233SOL     OW25597   0.848   1.232   5.887
 8233SOL    HW125598   0.852   1.142   5.931
 8233SOL    HW225599   0.917   1.291   5.928
 8234SOL     OW25600   0.626   2.188   0.650
 8234SOL    HW125601   0.599   2.265   0.708
 8234SOL    HW225602   0.724   2.194   0.631
 8235SOL     OW25603   0.905   6.874   1.537
 8235SOL    HW125604   0.871   6.872   1.632
 8235SOL    HW225605   0.901   6.968   1.502
 8236SOL     OW25606   0.946   6.388   1.791
 8236SOL    HW125607   0.968   6.409   1.886
 8236SOL    HW225608   0.854   6.421   1.771
 8237SOL     OW25609   4.176   5.102   6.231
 8237SOL    HW125610   4.138   5.185   6.190
 8237SOL    HW225611   4.125   5.080   6.315
 8238SOL     OW25612   0.441   4.649   0.547
 8238SOL    HW125613   0.392   4.566   0.522
 8238SOL    HW225614   0.517   4.625   0.608
 8239SOL     OW25615   1.810   1.511   5.387
 8239SOL    HW125616   1.764   1.570   5.454
 8239SOL    HW225617   1.903   1.544   5.372
 8240SOL     OW25618   3.641   3.780   4.828
 8240SOL    HW125619   3.580   3.720   4.777
 8240SOL    HW225620   3.678   3.850   4.767
 8241SOL     OW25621   2.020   4.410   5.160
 8241SOL    HW125622   2.050   4.344   5.091
 8241SOL    HW225623   2.018   4.366   5.250
 8242SOL     OW25624   0.777   3.405   2.968
 8242SOL    HW125625   0.815   3.389   3.060
 8242SOL    HW225626   0.697   3.464   2.976
 8243SOL     OW25627   1.899   5.640   4.489
 8243SOL    HW125628   1.922   5.609   4.397
 8243SOL    HW225629   1.847   5.568   4.536
 8244SOL     OW25630   6.627   1.314   3.844
 8244SOL    HW125631   6.705   1.253   3.864
 8244SOL    HW225632   6.574   1.275   3.768
 8245SOL     OW25633   5.535   2.011   3.069
 8245SOL    HW125634   5.546   2.049   2.977
 8245SOL    HW225635   5.446   2.038   3.105
 8246SOL     OW25636   1.502   5.194   6.559
 8246SOL    HW125637   1.521   5.097   6.574
 8246SOL    HW225638   1.404   5.211   6.569
 8247SOL     OW25639   3.008   5.914   2.528
 8247SOL    HW125640   3.009   5.953   2.620
 8247SOL    HW225641   2.915   5.916   2.492
 8248SOL     OW25642   6.699   5.362   3.412
 8248SOL    HW125643   6.795   5.349   3.387
 8248SOL    HW225644   6.646   5.284   3.381
 8249SOL     OW25645   3.359   1.592   6.715
 8249SOL    HW125646   3.331   1.674   6.765
 8249SOL    HW225647   3.374   1.616   6.619
 8250SOL     OW25648   0.829   1.967   0.109
 8250SOL    HW125649   0.856   1.910   0.031
 8250SOL    HW225650   0.731   1.954   0.126
 8251SOL     OW25651   1.079   2.646   5.584
 8251SOL    HW125652   1.135   2.661   5.503
 8251SOL    HW225653   1.090   2.723   5.647
 8252SOL     OW25654   0.922   2.270   6.600
 8252SOL    HW125655   0.976   2.250   6.518
 8252SOL    HW225656   0.828   2.238   6.586
 8253SOL     OW25657   4.037   6.002   0.508
 8253SOL    HW125658   4.079   5.944   0.439
 8253SOL    HW225659   4.108   6.041   0.567
 8254SOL     OW25660   5.507   5.458   6.894
 8254SOL    HW125661   5.436   5.410   6.843
 8254SOL    HW225662   5.580   5.394   6.919
 8255SOL     OW25663   2.395   0.774   5.674
 8255SOL    HW125664   2.306   0.815   5.658
 8255SOL    HW225665   2.421   0.718   5.596
 8256SOL     OW25666   1.426   4.842   5.121
 8256SOL    HW125667   1.421   4.928   5.170
 8256SOL    HW225668   1.358   4.841   5.048
 8257SOL     OW25669   5.294   4.045   2.872
 8257SOL    HW125670   5.294   3.945   2.877
 8257SOL    HW225671   5.377   4.076   2.825
 8258SOL     OW25672   0.477   3.083   2.256
 8258SOL    HW125673   0.446   3.066   2.162
 8258SOL    HW225674   0.558   3.141   2.254
 8259SOL     OW25675   5.339   1.881   3.926
 8259SOL    HW125676   5.307   1.808   3.865
 8259SOL    HW225677   5.431   1.908   3.899
 8260SOL     OW25678   4.219   2.364   1.325
 8260SOL    HW125679   4.271   2.435   1.373
 8260SOL    HW225680   4.283   2.297   1.288
 8261SOL     OW25681   5.668   1.111   2.482
 8261SOL    HW125682   5.604   1.188   2.477
 8261SOL    HW225683   5.620   1.030   2.516
 8262SOL     OW25684   5.465   3.718   1.581
 8262SOL    HW125685   5.391   3.651   1.591
 8262SOL    HW225686   5.430   3.809   1.602
 8263SOL     OW25687   6.156   2.046   5.733
 8263SOL    HW125688   6.159   1.993   5.648
 8263SOL    HW225689   6.170   1.985   5.811
 8264SOL     OW25690   3.234   0.176   2.593
 8264SOL    HW125691   3.194   0.107   2.653
 8264SOL    HW225692   3.252   0.259   2.646
 8265SOL     OW25693   4.517   6.239   0.913
 8265SOL    HW125694   4.617   6.229   0.920
 8265SOL    HW225695   4.493   6.265   0.820
 8266SOL     OW25696   3.293   0.898   3.851
 8266SOL    HW125697   3.251   0.965   3.790
 8266SOL    HW225698   3.228   0.823   3.868
 8267SOL     OW25699   2.045   3.267   2.423
 8267SOL    HW125700   1.951   3.289   2.448
 8267SOL    HW225701   2.052   3.258   2.324
 8268SOL     OW25702   3.119   4.710   6.298
 8268SOL    HW125703   3.124   4.687   6.201
 8268SOL    HW225704   3.030   4.682   6.335
 8269SOL     OW25705   6.118   2.941   4.598
 8269SOL    HW125706   6.019   2.949   4.604
 8269SOL    HW225707   6.157   2.940   4.691
 8270SOL     OW25708   3.898   6.398   6.398
 8270SOL    HW125709   3.925   6.303   6.383
 8270SOL    HW225710   3.968   6.445   6.452
 8271SOL     OW25711   3.543   6.500   6.118
 8271SOL    HW125712   3.487   6.499   6.201
 8271SOL    HW225713   3.635   6.533   6.140
 8272SOL     OW25714   1.115   0.501   1.852
 8272SOL    HW125715   1.061   0.507   1.936
 8272SOL    HW225716   1.161   0.412   1.849
 8273SOL     OW25717   4.107   0.726   0.283
 8273SOL    HW125718   4.159   0.711   0.199
 8273SOL    HW225719   4.009   0.728   0.263
 8274SOL     OW25720   5.007   6.465   5.269
 8274SOL    HW125721   5.061   6.435   5.347
 8274SOL    HW225722   5.047   6.430   5.185
 8275SOL     OW25723   5.523   0.292   3.953
 8275SOL    HW125724   5.524   0.268   4.050
 8275SOL    HW225725   5.483   0.383   3.941
 8276SOL     OW25726   6.585   1.903   6.734
 8276SOL    HW125727   6.620   1.902   6.641
 8276SOL    HW225728   6.609   1.990   6.778
 8277SOL     OW25729   1.102   0.275   0.007
 8277SOL    HW125730   1.057   0.191   0.037
 8277SOL    HW225731   1.048   0.317   6.959
 8278SOL     OW25732   2.940   1.655   0.684
 8278SOL    HW125733   2.975   1.569   0.644
 8278SOL    HW225734   3.010   1.726   0.676
 8279SOL     OW25735   3.594   6.025   5.512
 8279SOL    HW125736   3.623   5.999   5.420
 8279SOL    HW225737   3.674   6.031   5.572
 8280SOL     OW25738   5.443   4.287   0.320
 8280SOL    HW125739   5.459   4.353   0.247
 8280SOL    HW225740   5.424   4.197   0.280
 8281SOL     OW25741   2.729   5.484   0.161
 8281SOL    HW125742   2.648   5.449   0.209
 8281SOL    HW225743   2.715   5.580   0.139
 8282SOL     OW25744   2.816   2.962   1.669
 8282SOL    HW125745   2.773   2.888   1.616
 8282SOL    HW225746   2.896   2.926   1.716
 8283SOL     OW25747   0.492   6.610   4.136
 8283SOL    HW125748   0.553   6.540   4.099
 8283SOL    HW225749   0.406   6.568   4.164
 8284SOL     OW25750   3.615   1.570   2.341
 8284SOL    HW125751   3.536   1.510   2.328
 8284SOL    HW225752   3.605   1.652   2.285
 8285SOL     OW25753   2.069   4.479   6.685
 8285SOL    HW125754   2.127   4.535   6.625
 8285SOL    HW225755   1.973   4.505   6.672
 8286SOL     OW25756   5.458   2.660   5.342
 8286SOL    HW125757   5.392   2.613   5.283
 8286SOL    HW225758   5.423   2.751   5.364
 8287SOL     OW25759   1.756   0.022   3.924
 8287SOL    HW125760   1.672   0.035   3.978
 8287SOL    HW225761   1.803   0.109   3.914
 8288SOL     OW25762   2.175   0.290   2.766
 8288SOL    HW125763   2.143   0.323   2.855
 8288SOL    HW225764   2.257   0.340   2.739
 8289SOL     OW25765   5.905   1.375   6.281
 8289SOL    HW125766   5.847   1.392   6.360
 8289SOL    HW225767   5.998   1.404   6.301
 8290SOL     OW25768   4.583   2.811   1.721
 8290SOL    HW125769   4.650   2.740   1.742
 8290SOL    HW225770   4.621   2.901   1.744
 8291SOL     OW25771   4.426   5.869   6.678
 8291SOL    HW125772   4.465   5.853   6.587
 8291SOL    HW225773   4.348   5.931   6.671
 8292SOL     OW25774   0.651   3.252   4.797
 8292SOL    HW125775   0.736   3.214   4.761
 8292SOL    HW225776   0.574   3.200   4.761
 8293SOL     OW25777   2.893   5.480   3.625
 8293SOL    HW125778   2.797   5.452   3.628
 8293SOL    HW225779   2.944   5.431   3.696
 8294SOL     OW25780   4.879   3.730   5.868
 8294SOL    HW125781   4.924   3.652   5.825
 8294SOL    HW225782   4.817   3.773   5.803
 8295SOL     OW25783   5.158   5.165   2.249
 8295SOL    HW125784   5.133   5.235   2.316
 8295SOL    HW225785   5.097   5.087   2.258
 8296SOL     OW25786   4.073   6.923   1.930
 8296SOL    HW125787   4.033   7.015   1.930
 8296SOL    HW225788   4.121   6.909   1.844
 8297SOL     OW25789   5.223   4.455   3.709
 8297SOL    HW125790   5.247   4.434   3.804
 8297SOL    HW225791   5.287   4.525   3.674
 8298SOL     OW25792   0.310   6.778   0.091
 8298SOL    HW125793   0.290   6.876   0.098
 8298SOL    HW225794   0.357   6.748   0.174
 8299SOL     OW25795   1.074   3.582   1.088
 8299SOL    HW125796   1.044   3.503   1.141
 8299SOL    HW225797   0.999   3.647   1.078
 8300SOL     OW25798   6.054   5.175   3.678
 8300SOL    HW125799   6.000   5.236   3.620
 8300SOL    HW225800   6.076   5.092   3.627
 8301SOL     OW25801   5.607   6.726   0.547
 8301SOL    HW125802   5.595   6.698   0.452
 8301SOL    HW225803   5.673   6.667   0.592
 8302SOL     OW25804   3.750   0.212   5.500
 8302SOL    HW125805   3.838   0.260   5.494
 8302SOL    HW225806   3.684   0.256   5.440
 8303SOL     OW25807   0.246   5.215   2.666
 8303SOL    HW125808   0.250   5.117   2.688
 8303SOL    HW225809   0.219   5.266   2.747
 8304SOL     OW25810   6.015   4.604   3.370
 8304SOL    HW125811   6.063   4.521   3.397
 8304SOL    HW225812   6.070   4.653   3.301
 8305SOL     OW25813   5.356   6.788   5.062
 8305SOL    HW125814   5.393   6.872   5.101
 8305SOL    HW225815   5.427   6.740   5.011
 8306SOL     OW25816   0.006   1.736   2.948
 8306SOL    HW125817   6.990   1.824   2.921
 8306SOL    HW225818   6.964   1.663   2.933
 8307SOL     OW25819   1.727   3.022   2.763
 8307SOL    HW125820   1.708   3.070   2.677
 8307SOL    HW225821   1.656   3.046   2.830
 8308SOL     OW25822   0.519   5.180   0.909
 8308SOL    HW125823   0.555   5.180   0.816
 8308SOL    HW225824   0.425   5.214   0.909
 8309SOL     OW25825   6.715   4.778   4.445
 8309SOL    HW125826   6.696   4.786   4.542
 8309SOL    HW225827   6.813   4.792   4.429
 8310SOL     OW25828   1.810   0.267   1.075
 8310SOL    HW125829   1.766   0.243   1.161
 8310SOL    HW225830   1.902   0.301   1.093
 8311SOL     OW25831   5.268   5.648   3.365
 8311SOL    HW125832   5.260   5.558   3.323
 8311SOL    HW225833   5.187   5.667   3.420
 8312SOL     OW25834   5.654   1.316   0.221
 8312SOL    HW125835   5.618   1.227   0.192
 8312SOL    HW225836   5.738   1.335   0.172
 8313SOL     OW25837   5.706   2.577   5.979
 8313SOL    HW125838   5.678   2.669   5.954
 8313SOL    HW225839   5.763   2.581   6.061
 8314SOL     OW25840   4.676   5.941   3.953
 8314SOL    HW125841   4.604   5.952   4.022
 8314SOL    HW225842   4.758   5.903   3.997
 8315SOL     OW25843   3.366   3.350   4.718
 8315SOL    HW125844   3.420   3.308   4.791
 8315SOL    HW225845   3.374   3.295   4.635
 8316SOL     OW25846   2.541   2.151   5.999
 8316SOL    HW125847   2.482   2.230   5.979
 8316SOL    HW225848   2.636   2.176   5.984
 8317SOL     OW25849   1.056   2.320   3.914
 8317SOL    HW125850   1.125   2.263   3.957
 8317SOL    HW225851   0.978   2.264   3.886
 8318SOL     OW25852   4.335   6.942   6.133
 8318SOL    HW125853   4.338   6.997   6.049
 8318SOL    HW225854   4.241   6.912   6.150
 8319SOL     OW25855   2.357   5.498   6.202
 8319SOL    HW125856   2.399   5.556   6.271
 8319SOL    HW225857   2.268   5.467   6.234
 8320SOL     OW25858   3.520   3.212   4.916
 8320SOL    HW125859   3.589   3.258   4.859
 8320SOL    HW225860   3.500   3.122   4.878
 8321SOL     OW25861   0.058   6.941   0.606
 8321SOL    HW125862   0.029   7.022   0.555
 8321SOL    HW225863   0.106   6.968   0.688
 8322SOL     OW25864   0.484   6.407   0.307
 8322SOL    HW125865   0.511   6.381   0.215
 8322SOL    HW225866   0.391   6.376   0.325
 8323SOL     OW25867   5.666   4.606   0.400
 8323SOL    HW125868   5.694   4.510   0.401
 8323SOL    HW225869   5.627   4.631   0.489
 8324SOL     OW25870   5.149   6.115   0.373
 8324SOL    HW125871   5.158   6.178   0.451
 8324SOL    HW225872   5.203   6.150   0.297
 8325SOL     OW25873   1.272   6.506   5.981
 8325SOL    HW125874   1.356   6.479   6.028
 8325SOL    HW225875   1.295   6.551   5.895
 8326SOL     OW25876   1.626   3.178   6.614
 8326SOL    HW125877   1.658   3.093   6.655
 8326SOL    HW225878   1.541   3.207   6.659
 8327SOL     OW25879   1.271   5.984   4.961
 8327SOL    HW125880   1.277   6.041   5.042
 8327SOL    HW225881   1.364   5.964   4.927
 8328SOL     OW25882   0.850   6.291   0.169
 8328SOL    HW125883   0.811   6.291   0.077
 8328SOL    HW225884   0.946   6.264   0.165
 8329SOL     OW25885   1.550   3.189   4.647
 8329SOL    HW125886   1.517   3.230   4.732
 8329SOL    HW225887   1.545   3.256   4.573
 8330SOL     OW25888   3.288   1.200   0.119
 8330SOL    HW125889   3.203   1.165   0.157
 8330SOL    HW225890   3.284   1.197   0.019
 8331SOL     OW25891   1.452   2.406   6.336
 8331SOL    HW125892   1.354   2.421   6.325
 8331SOL    HW225893   1.502   2.487   6.303
 8332SOL     OW25894   6.359   4.256   1.987
 8332SOL    HW125895   6.262   4.275   1.999
 8332SOL    HW225896   6.383   4.263   1.891
 8333SOL     OW25897   1.598   3.948   0.145
 8333SOL    HW125898   1.610   3.975   0.049
 8333SOL    HW225899   1.649   4.011   0.204
 8334SOL     OW25900   2.778   2.312   5.986
 8334SOL    HW125901   2.830   2.332   5.903
 8334SOL    HW225902   2.837   2.267   6.053
 8335SOL     OW25903   5.164   4.659   6.396
 8335SOL    HW125904   5.182   4.734   6.460
 8335SOL    HW225905   5.120   4.696   6.314
 8336SOL     OW25906   0.811   4.178   3.506
 8336SOL    HW125907   0.804   4.264   3.558
 8336SOL    HW225908   0.760   4.107   3.554
 8337SOL     OW25909   0.402   1.659   4.344
 8337SOL    HW125910   0.313   1.689   4.311
 8337SOL    HW225911   0.463   1.644   4.266
 8338SOL     OW25912   3.448   5.377   1.343
 8338SOL    HW125913   3.526   5.438   1.329
 8338SOL    HW225914   3.367   5.415   1.298
 8339SOL     OW25915   6.172   0.655   1.554
 8339SOL    HW125916   6.096   0.677   1.616
 8339SOL    HW225917   6.159   0.563   1.517
 8340SOL     OW25918   6.005   2.020   6.876
 8340SOL    HW125919   6.079   1.989   6.935
 8340SOL    HW225920   5.995   1.958   6.798
 8341SOL     OW25921   4.013   1.646   1.131
 8341SOL    HW125922   4.018   1.607   1.223
 8341SOL    HW225923   3.918   1.660   1.106
 8342SOL     OW25924   4.694   0.448   0.332
 8342SOL    HW125925   4.653   0.437   0.423
 8342SOL    HW225926   4.764   0.378   0.318
 8343SOL     OW25927   5.543   4.378   3.572
 8343SOL    HW125928   5.488   4.329   3.640
 8343SOL    HW225929   5.587   4.312   3.512
 8344SOL     OW25930   1.075   4.896   6.014
 8344SOL    HW125931   1.053   4.992   6.001
 8344SOL    HW225932   1.063   4.847   5.927
 8345SOL     OW25933   5.089   0.106   3.852
 8345SOL    HW125934   5.053   0.103   3.945
 8345SOL    HW225935   5.160   0.036   3.841
 8346SOL     OW25936   5.714   3.360   4.645
 8346SOL    HW125937   5.749   3.425   4.576
 8346SOL    HW225938   5.703   3.408   4.732
 8347SOL     OW25939   2.214   1.441   6.687
 8347SOL    HW125940   2.176   1.533   6.671
 8347SOL    HW225941   2.151   1.388   6.742
 8348SOL     OW25942   3.042   6.217   2.219
 8348SOL    HW125943   3.118   6.261   2.170
 8348SOL    HW225944   3.063   6.213   2.316
 8349SOL     OW25945   6.225   6.020   2.261
 8349SOL    HW125946   6.319   6.009   2.294
 8349SOL    HW225947   6.219   6.097   2.198
 8350SOL     OW25948   1.932   0.938   6.750
 8350SOL    HW125949   1.838   0.971   6.739
 8350SOL    HW225950   1.934   0.840   6.732
 8351SOL     OW25951   0.392   3.592   2.732
 8351SOL    HW125952   0.306   3.607   2.683
 8351SOL    HW225953   0.385   3.630   2.824
 8352SOL     OW25954   2.735   5.422   1.264
 8352SOL    HW125955   2.807   5.491   1.276
 8352SOL    HW225956   2.694   5.431   1.174
 8353SOL     OW25957   1.357   4.886   1.676
 8353SOL    HW125958   1.257   4.884   1.671
 8353SOL    HW225959   1.392   4.948   1.606
 8354SOL     OW25960   3.154   0.143   3.061
 8354SOL    HW125961   3.092   0.153   2.983
 8354SOL    HW225962   3.239   0.192   3.043
 8355SOL     OW25963   3.074   6.588   6.668
 8355SOL    HW125964   3.028   6.604   6.756
 8355SOL    HW225965   3.022   6.632   6.595
 8356SOL     OW25966   1.689   4.907   0.402
 8356SOL    HW125967   1.736   4.828   0.440
 8356SOL    HW225968   1.755   4.971   0.364
 8357SOL     OW25969   4.608   6.778   5.776
 8357SOL    HW125970   4.580   6.731   5.859
 8357SOL    HW225971   4.691   6.831   5.793
 8358SOL     OW25972   1.148   1.065   4.985
 8358SOL    HW125973   1.242   1.098   5.001
 8358SOL    HW225974   1.111   1.028   5.070
 8359SOL     OW25975   3.819   1.886   5.955
 8359SOL    HW125976   3.866   1.881   6.043
 8359SOL    HW225977   3.860   1.958   5.899
 8360SOL     OW25978   4.682   0.259   0.821
 8360SOL    HW125979   4.658   0.347   0.861
 8360SOL    HW225980   4.772   0.231   0.854
 8361SOL     OW25981   4.083   1.153   6.670
 8361SOL    HW125982   4.110   1.064   6.634
 8361SOL    HW225983   4.005   1.188   6.619
 8362SOL     OW25984   0.308   4.416   1.033
 8362SOL    HW125985   0.231   4.426   0.970
 8362SOL    HW225986   0.284   4.455   1.122
 8363SOL     OW25987   1.563   2.958   0.754
 8363SOL    HW125988   1.569   3.058   0.760
 8363SOL    HW225989   1.475   2.927   0.791
 8364SOL     OW25990   6.999   3.294   4.580
 8364SOL    HW125991   0.022   3.381   4.596
 8364SOL    HW225992   6.955   3.296   4.490
 8365SOL     OW25993   1.388   2.094   2.064
 8365SOL    HW125994   1.326   2.172   2.059
 8365SOL    HW225995   1.448   2.104   2.143
 8366SOL     OW25996   5.640   5.113   2.535
 8366SOL    HW125997   5.662   5.031   2.483
 8366SOL    HW225998   5.711   5.182   2.520
 8367SOL     OW25999   2.463   5.352   4.072
 8367SOL    HW126000   2.525   5.290   4.120
 8367SOL    HW226001   2.398   5.299   4.017
 8368SOL     OW26002   5.828   6.289   6.276
 8368SOL    HW126003   5.878   6.367   6.237
 8368SOL    HW226004   5.734   6.316   6.294
 8369SOL     OW26005   2.329   6.432   1.079
 8369SOL    HW126006   2.371   6.458   1.166
 8369SOL    HW226007   2.288   6.513   1.036
 8370SOL     OW26008   2.642   4.375   6.942
 8370SOL    HW126009   2.648   4.443   6.869
 8370SOL    HW226010   2.619   4.420   0.004
 8371SOL     OW26011   1.810   4.577   5.001
 8371SOL    HW126012   1.849   4.521   5.073
 8371SOL    HW226013   1.765   4.657   5.042
 8372SOL     OW26014   1.899   6.465   1.459
 8372SOL    HW126015   1.952   6.472   1.544
 8372SOL    HW226016   1.961   6.469   1.381
 8373SOL     OW26017   6.818   1.778   3.821
 8373SOL    HW126018   6.901   1.827   3.796
 8373SOL    HW226019   6.807   1.698   3.762
 8374SOL     OW26020   6.777   1.602   4.233
 8374SOL    HW126021   6.788   1.512   4.275
 8374SOL    HW226022   6.696   1.602   4.174
 8375SOL     OW26023   3.211   0.885   4.690
 8375SOL    HW126024   3.146   0.834   4.745
 8375SOL    HW226025   3.163   0.943   4.625
 8376SOL     OW26026   1.585   1.657   3.468
 8376SOL    HW126027   1.488   1.645   3.487
 8376SOL    HW226028   1.606   1.620   3.377
 8377SOL     OW26029   5.084   5.225   0.344
 8377SOL    HW126030   5.048   5.317   0.362
 8377SOL    HW226031   5.116   5.219   0.250
 8378SOL     OW26032   5.247   5.722   4.454
 8378SOL    HW126033   5.220   5.767   4.368
 8378SOL    HW226034   5.339   5.685   4.444
 8379SOL     OW26035   5.451   1.446   1.189
 8379SOL    HW126036   5.394   1.451   1.107
 8379SOL    HW226037   5.414   1.508   1.258
 8380SOL     OW26038   6.710   5.744   0.796
 8380SOL    HW126039   6.704   5.644   0.803
 8380SOL    HW226040   6.806   5.772   0.808
 8381SOL     OW26041   0.537   1.673   2.909
 8381SOL    HW126042   0.560   1.606   2.838
 8381SOL    HW226043   0.558   1.634   2.999
 8382SOL     OW26044   1.817   0.929   0.706
 8382SOL    HW126045   1.910   0.940   0.672
 8382SOL    HW226046   1.818   0.930   0.806
 8383SOL     OW26047   2.991   6.940   6.833
 8383SOL    HW126048   3.036   6.939   6.744
 8383SOL    HW226049   2.905   6.989   6.827
 8384SOL     OW26050   0.813   3.021   2.904
 8384SOL    HW126051   0.844   3.058   2.991
 8384SOL    HW226052   0.868   2.941   2.880
 8385SOL     OW26053   4.257   3.127   1.407
 8385SOL    HW126054   4.233   3.223   1.414
 8385SOL    HW226055   4.189   3.072   1.457
 8386SOL     OW26056   2.313   5.708   1.769
 8386SOL    HW126057   2.259   5.739   1.847
 8386SOL    HW226058   2.410   5.711   1.792
 8387SOL     OW26059   1.677   1.253   3.062
 8387SOL    HW126060   1.678   1.225   3.158
 8387SOL    HW226061   1.590   1.297   3.041
 8388SOL     OW26062   4.686   6.074   1.391
 8388SOL    HW126063   4.704   5.982   1.356
 8388SOL    HW226064   4.667   6.136   1.314
 8389SOL     OW26065   0.355   2.779   3.826
 8389SOL    HW126066   0.370   2.719   3.748
 8389SOL    HW226067   0.402   2.742   3.906
 8390SOL     OW26068   2.868   7.001   5.443
 8390SOL    HW126069   2.815   7.001   5.528
 8390SOL    HW226070   2.964   7.018   5.464
 8391SOL     OW26071   5.430   5.924   1.208
 8391SOL    HW126072   5.429   5.887   1.300
 8391SOL    HW226073   5.424   6.024   1.212
 8392SOL     OW26074   6.261   6.496   5.621
 8392SOL    HW126075   6.169   6.509   5.658
 8392SOL    HW226076   6.323   6.469   5.695
 8393SOL     OW26077   0.104   5.693   3.087
 8393SOL    HW126078   0.105   5.596   3.064
 8393SOL    HW226079   0.066   5.745   3.010
 8394SOL     OW26080   1.075   1.999   2.741
 8394SOL    HW126081   1.154   1.941   2.720
 8394SOL    HW226082   1.020   1.956   2.812
 8395SOL     OW26083   0.708   6.181   5.662
 8395SOL    HW126084   0.748   6.262   5.705
 8395SOL    HW226085   0.659   6.208   5.579
 8396SOL     OW26086   4.696   3.567   1.326
 8396SOL    HW126087   4.631   3.492   1.327
 8396SOL    HW226088   4.729   3.582   1.233
 8397SOL     OW26089   1.873   5.463   3.718
 8397SOL    HW126090   1.824   5.398   3.659
 8397SOL    HW226091   1.956   5.494   3.671
 8398SOL     OW26092   4.872   1.935   0.679
 8398SOL    HW126093   4.857   1.959   0.583
 8398SOL    HW226094   4.787   1.904   0.719
 8399SOL     OW26095   5.910   5.651   0.366
 8399SOL    HW126096   5.857   5.649   0.452
 8399SOL    HW226097   5.904   5.741   0.325
 8400SOL     OW26098   6.176   0.366   3.990
 8400SOL    HW126099   6.147   0.425   3.914
 8400SOL    HW226100   6.095   0.336   4.041
 8401SOL     OW26101   3.121   4.952   6.090
 8401SOL    HW126102   3.148   4.982   5.998
 8401SOL    HW226103   3.174   4.870   6.115
 8402SOL     OW26104   4.354   2.088   0.346
 8402SOL    HW126105   4.383   2.094   0.251
 8402SOL    HW226106   4.322   2.177   0.377
 8403SOL     OW26107   1.322   2.073   4.650
 8403SOL    HW126108   1.416   2.099   4.667
 8403SOL    HW226109   1.317   2.016   4.568
 8404SOL     OW26110   4.264   4.791   5.520
 8404SOL    HW126111   4.220   4.764   5.605
 8404SOL    HW226112   4.362   4.801   5.535
 8405SOL     OW26113   0.819   2.682   5.186
 8405SOL    HW126114   0.811   2.692   5.087
 8405SOL    HW226115   0.915   2.693   5.213
 8406SOL     OW26116   5.220   3.433   1.720
 8406SOL    HW126117   5.202   3.390   1.808
 8406SOL    HW226118   5.234   3.363   1.651
 8407SOL     OW26119   5.110   3.990   2.375
 8407SOL    HW126120   5.012   4.001   2.361
 8407SOL    HW226121   5.132   4.007   2.471
 8408SOL     OW26122   4.600   2.627   3.928
 8408SOL    HW126123   4.542   2.547   3.917
 8408SOL    HW226124   4.696   2.600   3.919
 8409SOL     OW26125   0.725   2.445   4.103
 8409SOL    HW126126   0.679   2.463   4.016
 8409SOL    HW226127   0.788   2.520   4.122
 8410SOL     OW26128   3.795   7.008   2.309
 8410SOL    HW126129   3.762   0.007   2.218
 8410SOL    HW226130   3.804   6.909   2.317
 8411SOL     OW26131   1.955   2.897   3.688
 8411SOL    HW126132   1.973   2.810   3.734
 8411SOL    HW226133   2.031   2.960   3.706
 8412SOL     OW26134   6.186   2.929   2.787
 8412SOL    HW126135   6.203   2.877   2.871
 8412SOL    HW226136   6.118   3.000   2.805
 8413SOL     OW26137   2.514   4.266   0.755
 8413SOL    HW126138   2.592   4.244   0.813
 8413SOL    HW226139   2.448   4.321   0.807
 8414SOL     OW26140   4.882   6.532   2.532
 8414SOL    HW126141   4.817   6.567   2.465
 8414SOL    HW226142   4.964   6.590   2.533
 8415SOL     OW26143   6.305   3.273   2.343
 8415SOL    HW126144   6.384   3.298   2.400
 8415SOL    HW226145   6.317   3.180   2.309
 8416SOL     OW26146   5.105   3.758   2.225
 8416SOL    HW126147   5.008   3.738   2.236
 8416SOL    HW226148   5.136   3.820   2.296
 8417SOL     OW26149   2.663   5.846   6.087
 8417SOL    HW126150   2.576   5.873   6.128
 8417SOL    HW226151   2.656   5.848   5.988
 8418SOL     OW26152   5.949   5.528   2.609
 8418SOL    HW126153   5.980   5.610   2.561
 8418SOL    HW226154   5.884   5.479   2.552
 8419SOL     OW26155   4.260   0.007   3.850
 8419SOL    HW126156   4.241   6.995   3.758
 8419SOL    HW226157   4.265   0.107   3.846
 8420SOL     OW26158   3.937   1.912   6.210
 8420SOL    HW126159   3.872   1.963   6.266
 8420SOL    HW226160   3.940   1.817   6.241
 8421SOL     OW26161   2.303   6.907   1.866
 8421SOL    HW126162   2.324   6.916   1.769
 8421SOL    HW226163   2.348   6.981   1.917
 8422SOL     OW26164   3.936   6.990   1.603
 8422SOL    HW126165   3.879   0.009   1.673
 8422SOL    HW226166   4.022   6.959   1.645
 8423SOL     OW26167   2.798   4.125   1.222
 8423SOL    HW126168   2.728   4.054   1.220
 8423SOL    HW226169   2.772   4.200   1.162
 8424SOL     OW26170   3.099   2.121   2.742
 8424SOL    HW126171   3.197   2.125   2.723
 8424SOL    HW226172   3.083   2.138   2.840
 8425SOL     OW26173   5.572   5.147   0.095
 8425SOL    HW126174   5.565   5.227   0.155
 8425SOL    HW226175   5.643   5.164   0.026
 8426SOL     OW26176   3.836   3.507   2.519
 8426SOL    HW126177   3.775   3.428   2.525
 8426SOL    HW226178   3.833   3.544   2.426
 8427SOL     OW26179   2.255   3.549   6.115
 8427SOL    HW126180   2.326   3.618   6.103
 8427SOL    HW226181   2.297   3.461   6.134
 8428SOL     OW26182   5.819   4.583   2.287
 8428SOL    HW126183   5.870   4.605   2.370
 8428SOL    HW226184   5.878   4.531   2.225
 8429SOL     OW26185   1.688   6.289   2.585
 8429SOL    HW126186   1.636   6.252   2.662
 8429SOL    HW226187   1.783   6.258   2.591
 8430SOL     OW26188   4.551   4.359   3.037
 8430SOL    HW126189   4.455   4.333   3.050
 8430SOL    HW226190   4.556   4.435   2.973
 8431SOL     OW26191   3.080   3.981   0.989
 8431SOL    HW126192   3.053   4.055   0.928
 8431SOL    HW226193   3.164   3.938   0.955
 8432SOL     OW26194   4.479   6.250   6.453
 8432SOL    HW126195   4.430   6.234   6.539
 8432SOL    HW226196   4.537   6.171   6.433
 8433SOL     OW26197   0.946   1.401   5.179
 8433SOL    HW126198   0.891   1.482   5.160
 8433SOL    HW226199   1.036   1.412   5.136
 8434SOL     OW26200   5.768   6.375   5.639
 8434SOL    HW126201   5.720   6.339   5.559
 8434SOL    HW226202   5.832   6.307   5.673
 8435SOL     OW26203   4.587   2.039   1.385
 8435SOL    HW126204   4.528   1.983   1.443
 8435SOL    HW226205   4.536   2.117   1.350
 8436SOL     OW26206   3.685   4.750   1.317
 8436SOL    HW126207   3.709   4.653   1.310
 8436SOL    HW226208   3.730   4.801   1.244
 8437SOL     OW26209   0.116   1.218   1.082
 8437SOL    HW126210   0.053   1.294   1.062
 8437SOL    HW226211   0.065   1.132   1.082
 8438SOL     OW26212   1.913   6.530   1.920
 8438SOL    HW126213   1.894   6.453   1.981
 8438SOL    HW226214   1.960   6.602   1.972
 8439SOL     OW26215   6.558   6.159   2.042
 8439SOL    HW126216   6.527   6.240   2.092
 8439SOL    HW226217   6.651   6.135   2.072
 8440SOL     OW26218   0.366   1.627   3.768
 8440SOL    HW126219   0.375   1.556   3.698
 8440SOL    HW226220   0.268   1.645   3.784
 8441SOL     OW26221   4.125   5.367   0.802
 8441SOL    HW126222   4.126   5.422   0.885
 8441SOL    HW226223   4.066   5.287   0.814
 8442SOL     OW26224   2.025   3.947   0.166
 8442SOL    HW126225   2.099   3.898   0.120
 8442SOL    HW226226   2.064   4.014   0.229
 8443SOL     OW26227   2.193   1.014   2.117
 8443SOL    HW126228   2.150   1.019   2.208
 8443SOL    HW226229   2.271   0.953   2.121
 8444SOL     OW26230   4.124   0.112   3.501
 8444SOL    HW126231   4.128   0.211   3.484
 8444SOL    HW226232   4.189   0.065   3.441
 8445SOL     OW26233   3.806   4.934   2.001
 8445SOL    HW126234   3.728   4.871   2.005
 8445SOL    HW226235   3.779   5.022   2.039
 8446SOL     OW26236   6.748   4.455   3.355
 8446SOL    HW126237   6.744   4.445   3.455
 8446SOL    HW226238   6.840   4.436   3.323
 8447SOL     OW26239   4.810   3.078   1.055
 8447SOL    HW126240   4.802   3.002   1.120
 8447SOL    HW226241   4.906   3.101   1.043
 8448SOL     OW26242   0.760   3.129   6.538
 8448SOL    HW126243   0.697   3.206   6.537
 8448SOL    HW226244   0.737   3.066   6.463
 8449SOL     OW26245   1.858   2.047   5.453
 8449SOL    HW126246   1.911   2.006   5.378
 8449SOL    HW226247   1.893   2.014   5.540
 8450SOL     OW26248   2.067   5.200   2.548
 8450SOL    HW126249   2.160   5.172   2.525
 8450SOL    HW226250   2.004   5.125   2.529
 8451SOL     OW26251   3.493   3.004   0.635
 8451SOL    HW126252   3.532   2.914   0.653
 8451SOL    HW226253   3.563   3.065   0.600
 8452SOL     OW26254   6.588   5.883   1.267
 8452SOL    HW126255   6.579   5.929   1.355
 8452SOL    HW226256   6.643   5.801   1.277
 8453SOL     OW26257   0.189   4.407   5.728
 8453SOL    HW126258   0.266   4.433   5.670
 8453SOL    HW226259   0.222   4.366   5.812
 8454SOL     OW26260   1.763   6.807   4.714
 8454SOL    HW126261   1.858   6.838   4.702
 8454SOL    HW226262   1.702   6.870   4.667
 8455SOL     OW26263   5.847   2.029   1.497
 8455SOL    HW126264   5.936   2.025   1.541
 8455SOL    HW226265   5.806   2.119   1.514
 8456SOL     OW26266   5.250   5.648   3.017
 8456SOL    HW126267   5.212   5.557   2.999
 8456SOL    HW226268   5.218   5.711   2.946
 8457SOL     OW26269   6.939   6.268   6.661
 8457SOL    HW126270   6.939   6.366   6.682
 8457SOL    HW226271   7.023   6.244   6.613
 8458SOL     OW26272   1.125   1.333   1.251
 8458SOL    HW126273   1.222   1.310   1.241
 8458SOL    HW226274   1.088   1.288   1.333
 8459SOL     OW26275   2.778   5.042   2.833
 8459SOL    HW126276   2.794   4.968   2.898
 8459SOL    HW226277   2.705   5.016   2.770
 8460SOL     OW26278   4.726   0.866   0.537
 8460SOL    HW126279   4.635   0.850   0.499
 8460SOL    HW226280   4.796   0.832   0.473
 8461SOL     OW26281   5.324   4.160   2.382
 8461SOL    HW126282   5.241   4.110   2.357
 8461SOL    HW226283   5.370   4.193   2.300
 8462SOL     OW26284   2.662   4.941   0.286
 8462SOL    HW126285   2.707   4.853   0.274
 8462SOL    HW226286   2.580   4.945   0.229
 8463SOL     OW26287   6.156   0.839   0.192
 8463SOL    HW126288   6.060   0.867   0.192
 8463SOL    HW226289   6.206   0.893   0.260
 8464SOL     OW26290   0.274   3.486   6.280
 8464SOL    HW126291   0.229   3.562   6.233
 8464SOL    HW226292   0.278   3.407   6.218
 8465SOL     OW26293   4.418   3.083   1.180
 8465SOL    HW126294   4.364   3.088   1.265
 8465SOL    HW226295   4.401   3.164   1.125
 8466SOL     OW26296   6.152   1.341   5.646
 8466SOL    HW126297   6.211   1.283   5.701
 8466SOL    HW226298   6.097   1.285   5.585
 8467SOL     OW26299   3.510   0.932   0.953
 8467SOL    HW126300   3.519   0.926   0.854
 8467SOL    HW226301   3.413   0.921   0.978
 8468SOL     OW26302   6.210   2.911   0.514
 8468SOL    HW126303   6.171   2.843   0.576
 8468SOL    HW226304   6.153   2.919   0.432
 8469SOL     OW26305   4.489   3.078   6.069
 8469SOL    HW126306   4.391   3.086   6.084
 8469SOL    HW226307   4.508   2.999   6.011
 8470SOL     OW26308   1.661   4.833   1.406
 8470SOL    HW126309   1.702   4.849   1.316
 8470SOL    HW226310   1.721   4.869   1.477
 8471SOL     OW26311   3.626   2.021   4.703
 8471SOL    HW126312   3.638   1.928   4.737
 8471SOL    HW226313   3.639   2.086   4.779
 8472SOL     OW26314   5.722   1.289   5.479
 8472SOL    HW126315   5.809   1.300   5.433
 8472SOL    HW226316   5.682   1.200   5.455
 8473SOL     OW26317   4.754   4.413   6.917
 8473SOL    HW126318   4.737   4.428   7.014
 8473SOL    HW226319   4.752   4.315   6.897
 8474SOL     OW26320   3.546   4.110   3.048
 8474SOL    HW126321   3.607   4.034   3.025
 8474SOL    HW226322   3.585   4.162   3.124
 8475SOL     OW26323   0.369   2.777   2.097
 8475SOL    HW126324   0.281   2.818   2.123
 8475SOL    HW226325   0.421   2.754   2.179
 8476SOL     OW26326   6.033   0.093   2.184
 8476SOL    HW126327   6.062   0.150   2.261
 8476SOL    HW226328   5.935   0.104   2.169
 8477SOL     OW26329   5.533   0.021   1.948
 8477SOL    HW126330   5.610   6.996   1.988
 8477SOL    HW226331   5.547   0.119   1.957
 8478SOL     OW26332   6.308   0.574   5.655
 8478SOL    HW126333   6.261   0.594   5.741
 8478SOL    HW226334   6.375   0.645   5.636
 8479SOL     OW26335   0.857   2.330   0.939
 8479SOL    HW126336   0.761   2.306   0.952
 8479SOL    HW226337   0.900   2.266   0.875
 8480SOL     OW26338   4.030   3.808   6.934
 8480SOL    HW126339   4.030   3.717   6.894
 8480SOL    HW226340   4.124   3.841   6.942
 8481SOL     OW26341   4.296   1.694   3.605
 8481SOL    HW126342   4.224   1.649   3.657
 8481SOL    HW226343   4.279   1.793   3.602
 8482SOL     OW26344   4.724   0.975   0.800
 8482SOL    HW126345   4.656   1.032   0.846
 8482SOL    HW226346   4.680   0.923   0.727
 8483SOL     OW26347   3.297   5.718   2.940
 8483SOL    HW126348   3.267   5.653   3.011
 8483SOL    HW226349   3.283   5.676   2.850
 8484SOL     OW26350   5.516   5.628   4.825
 8484SOL    HW126351   5.579   5.705   4.825
 8484SOL    HW226352   5.559   5.549   4.781
 8485SOL     OW26353   3.189   2.533   0.404
 8485SOL    HW126354   3.200   2.591   0.485
 8485SOL    HW226355   3.257   2.459   0.407
 8486SOL     OW26356   0.839   2.090   3.012
 8486SOL    HW126357   0.803   2.030   3.084
 8486SOL    HW226358   0.767   2.106   2.944
 8487SOL     OW26359   6.173   1.564   5.835
 8487SOL    HW126360   6.178   1.485   5.775
 8487SOL    HW226361   6.131   1.641   5.785
 8488SOL     OW26362   4.278   4.852   1.403
 8488SOL    HW126363   4.190   4.861   1.450
 8488SOL    HW226364   4.349   4.828   1.469
 8489SOL     OW26365   5.276   2.102   1.970
 8489SOL    HW126366   5.341   2.126   2.042
 8489SOL    HW226367   5.293   2.008   1.940
 8490SOL     OW26368   2.771   0.187   6.289
 8490SOL    HW126369   2.781   0.238   6.375
 8490SOL    HW226370   2.792   0.091   6.304
 8491SOL     OW26371   2.935   5.639   1.840
 8491SOL    HW126372   2.930   5.733   1.807
 8491SOL    HW226373   2.875   5.581   1.786
 8492SOL     OW26374   6.958   6.413   4.008
 8492SOL    HW126375   7.001   6.375   4.091
 8492SOL    HW226376   6.909   6.497   4.031
 8493SOL     OW26377   4.740   0.907   6.878
 8493SOL    HW126378   4.680   0.857   6.940
 8493SOL    HW226379   4.686   0.973   6.825
 8494SOL     OW26380   6.483   4.477   2.337
 8494SOL    HW126381   6.420   4.399   2.333
 8494SOL    HW226382   6.576   4.443   2.352
 8495SOL     OW26383   6.616   5.562   6.949
 8495SOL    HW126384   6.586   5.624   6.876
 8495SOL    HW226385   6.567   5.475   6.941
 8496SOL     OW26386   5.519   3.013   1.858
 8496SOL    HW126387   5.430   3.034   1.817
 8496SOL    HW226388   5.589   3.010   1.785
 8497SOL     OW26389   6.805   1.034   3.924
 8497SOL    HW126390   6.879   0.968   3.930
 8497SOL    HW226391   6.719   0.990   3.951
 8498SOL     OW26392   4.756   0.331   4.041
 8498SOL    HW126393   4.837   0.271   4.037
 8498SOL    HW226394   4.786   0.426   4.041
 8499SOL     OW26395   6.311   6.586   6.289
 8499SOL    HW126396   6.344   6.621   6.201
 8499SOL    HW226397   6.280   6.662   6.346
 8500SOL     OW26398   0.984   0.840   4.798
 8500SOL    HW126399   0.932   0.919   4.828
 8500SOL    HW226400   0.949   0.758   4.843
 8501SOL     OW26401   0.764   2.253   6.360
 8501SOL    HW126402   0.850   2.270   6.312
 8501SOL    HW226403   0.719   2.173   6.320
 8502SOL     OW26404   0.848   3.734   0.149
 8502SOL    HW126405   0.774   3.742   0.215
 8502SOL    HW226406   0.908   3.658   0.174
 8503SOL     OW26407   5.903   1.318   4.612
 8503SOL    HW126408   5.936   1.223   4.616
 8503SOL    HW226409   5.948   1.372   4.682
 8504SOL     OW26410   1.212   6.105   1.745
 8504SOL    HW126411   1.120   6.082   1.777
 8504SOL    HW226412   1.278   6.087   1.819
 8505SOL     OW26413   4.877   3.426   2.928
 8505SOL    HW126414   4.894   3.347   2.869
 8505SOL    HW226415   4.885   3.510   2.875
 8506SOL     OW26416   1.738   0.633   6.199
 8506SOL    HW126417   1.686   0.548   6.198
 8506SOL    HW226418   1.689   0.701   6.253
 8507SOL     OW26419   3.542   6.285   5.406
 8507SOL    HW126420   3.583   6.200   5.439
 8507SOL    HW226421   3.454   6.299   5.453
 8508SOL     OW26422   3.451   1.915   6.446
 8508SOL    HW126423   3.391   1.939   6.522
 8508SOL    HW226424   3.411   1.948   6.360
 8509SOL     OW26425   5.636   1.767   3.107
 8509SOL    HW126426   5.715   1.768   3.169
 8509SOL    HW226427   5.629   1.855   3.060
 8510SOL     OW26428   6.445   2.294   4.704
 8510SOL    HW126429   6.428   2.386   4.739
 8510SOL    HW226430   6.380   2.272   4.632
 8511SOL     OW26431   5.849   2.530   2.360
 8511SOL    HW126432   5.877   2.608   2.304
 8511SOL    HW226433   5.771   2.556   2.417
 8512SOL     OW26434   2.187   6.897   5.852
 8512SOL    HW126435   2.223   6.905   5.759
 8512SOL    HW226436   2.133   6.978   5.874
 8513SOL     OW26437   5.088   6.440   6.205
 8513SOL    HW126438   5.011   6.453   6.143
 8513SOL    HW226439   5.056   6.442   6.299
 8514SOL     OW26440   3.195   5.831   3.762
 8514SOL    HW126441   3.252   5.913   3.759
 8514SOL    HW226442   3.118   5.842   3.698
 8515SOL     OW26443   5.936   1.566   0.903
 8515SOL    HW126444   5.905   1.490   0.845
 8515SOL    HW226445   6.023   1.541   0.946
 8516SOL     OW26446   6.965   2.242   2.523
 8516SOL    HW126447   6.905   2.253   2.602
 8516SOL    HW226448   6.915   2.264   2.439
 8517SOL     OW26449   1.224   4.095   0.560
 8517SOL    HW126450   1.174   4.107   0.646
 8517SOL    HW226451   1.263   4.003   0.558
 8518SOL     OW26452   3.284   5.409   0.905
 8518SOL    HW126453   3.267   5.430   0.809
 8518SOL    HW226454   3.367   5.354   0.913
 8519SOL     OW26455   1.729   4.783   2.833
 8519SOL    HW126456   1.717   4.787   2.932
 8519SOL    HW226457   1.805   4.843   2.807
 8520SOL     OW26458   2.532   0.520   0.007
 8520SOL    HW126459   2.499   0.615   0.010
 8520SOL    HW226460   2.454   0.458   0.018
 8521SOL     OW26461   1.082   0.020   6.756
 8521SOL    HW126462   1.171   0.051   6.789
 8521SOL    HW226463   1.050   0.082   6.684
 8522SOL     OW26464   1.936   6.214   4.992
 8522SOL    HW126465   1.893   6.304   4.996
 8522SOL    HW226466   1.875   6.150   4.946
 8523SOL     OW26467   1.324   0.154   6.797
 8523SOL    HW126468   1.305   0.248   6.824
 8523SOL    HW226469   1.392   0.153   6.724
 8524SOL     OW26470   1.460   2.276   5.973
 8524SOL    HW126471   1.423   2.334   6.045
 8524SOL    HW226472   1.458   2.180   6.004
 8525SOL     OW26473   5.037   2.957   3.286
 8525SOL    HW126474   5.005   3.042   3.244
 8525SOL    HW226475   5.040   2.885   3.217
 8526SOL     OW26476   2.150   2.921   2.003
 8526SOL    HW126477   2.218   2.916   1.930
 8526SOL    HW226478   2.075   2.981   1.974
 8527SOL     OW26479   4.268   0.093   4.380
 8527SOL    HW126480   4.250   7.019   4.373
 8527SOL    HW226481   4.241   0.138   4.295
 8528SOL     OW26482   4.983   2.597   6.936
 8528SOL    HW126483   5.051   2.662   6.901
 8528SOL    HW226484   5.028   2.533   6.998
 8529SOL     OW26485   0.134   4.355   0.144
 8529SOL    HW126486   0.191   4.431   0.113
 8529SOL    HW226487   0.055   4.391   0.194
 8530SOL     OW26488   1.655   3.187   5.877
 8530SOL    HW126489   1.663   3.170   5.975
 8530SOL    HW226490   1.590   3.122   5.836
 8531SOL     OW26491   4.290   4.673   2.712
 8531SOL    HW126492   4.330   4.765   2.707
 8531SOL    HW226493   4.203   4.677   2.761
 8532SOL     OW26494   1.543   4.481   5.979
 8532SOL    HW126495   1.534   4.422   6.059
 8532SOL    HW226496   1.581   4.428   5.903
 8533SOL     OW26497   3.592   0.627   5.989
 8533SOL    HW126498   3.502   0.643   6.030
 8533SOL    HW226499   3.648   0.709   6.000
 8534SOL     OW26500   2.031   2.752   2.885
 8534SOL    HW126501   2.130   2.757   2.895
 8534SOL    HW226502   2.006   2.769   2.790
 8535SOL     OW26503   6.705   2.851   4.087
 8535SOL    HW126504   6.766   2.866   4.009
 8535SOL    HW226505   6.678   2.939   4.126
 8536SOL     OW26506   0.051   1.149   4.497
 8536SOL    HW126507   0.095   1.119   4.581
 8536SOL    HW226508   0.120   1.180   4.432
 8537SOL     OW26509   6.385   0.169   2.331
 8537SOL    HW126510   6.373   0.201   2.237
 8537SOL    HW226511   6.474   0.123   2.339
 8538SOL     OW26512   5.644   1.338   4.740
 8538SOL    HW126513   5.656   1.375   4.832
 8538SOL    HW226514   5.733   1.313   4.703
 8539SOL     OW26515   6.874   2.944   2.512
 8539SOL    HW126516   6.859   3.010   2.586
 8539SOL    HW226517   6.970   2.943   2.486
 8540SOL     OW26518   3.828   0.429   0.254
 8540SOL    HW126519   3.796   0.405   0.346
 8540SOL    HW226520   3.756   0.476   0.204
 8541SOL     OW26521   3.711   6.943   5.216
 8541SOL    HW126522   3.779   7.015   5.210
 8541SOL    HW226523   3.714   6.886   5.134
 8542SOL     OW26524   1.423   5.185   6.221
 8542SOL    HW126525   1.350   5.172   6.288
 8542SOL    HW226526   1.502   5.228   6.266
 8543SOL     OW26527   2.129   2.561   6.115
 8543SOL    HW126528   2.178   2.642   6.083
 8543SOL    HW226529   2.039   2.557   6.073
 8544SOL     OW26530   5.684   4.572   5.900
 8544SOL    HW126531   5.667   4.664   5.862
 8544SOL    HW226532   5.779   4.547   5.884
 8545SOL     OW26533   2.532   0.281   6.209
 8545SOL    HW126534   2.543   0.365   6.157
 8545SOL    HW226535   2.622   0.238   6.222
 8546SOL     OW26536   5.091   1.021   2.424
 8546SOL    HW126537   5.062   1.030   2.328
 8546SOL    HW226538   5.047   1.093   2.478
 8547SOL     OW26539   5.711   5.966   5.868
 8547SOL    HW126540   5.617   5.967   5.834
 8547SOL    HW226541   5.730   6.053   5.914
 8548SOL     OW26542   0.461   3.412   5.828
 8548SOL    HW126543   0.433   3.479   5.758
 8548SOL    HW226544   0.489   3.460   5.911
 8549SOL     OW26545   2.123   6.978   4.230
 8549SOL    HW126546   2.128   0.049   4.259
 8549SOL    HW226547   2.102   6.974   4.133
 8550SOL     OW26548   6.676   4.361   6.125
 8550SOL    HW126549   6.762   4.392   6.165
 8550SOL    HW226550   6.641   4.431   6.063
 8551SOL     OW26551   2.020   0.717   5.678
 8551SOL    HW126552   2.073   0.649   5.627
 8551SOL    HW226553   1.930   0.679   5.700
 8552SOL     OW26554   3.190   1.857   2.509
 8552SOL    HW126555   3.146   1.919   2.573
 8552SOL    HW226556   3.251   1.908   2.449
 8553SOL     OW26557   5.117   4.001   6.826
 8553SOL    HW126558   5.142   4.045   6.912
 8553SOL    HW226559   5.197   3.996   6.767
 8554SOL     OW26560   2.260   1.199   0.496
 8554SOL    HW126561   2.299   1.244   0.577
 8554SOL    HW226562   2.331   1.145   0.451
 8555SOL     OW26563   3.762   1.232   4.017
 8555SOL    HW126564   3.727   1.232   4.111
 8555SOL    HW226565   3.829   1.159   4.007
 8556SOL     OW26566   1.759   5.781   0.569
 8556SOL    HW126567   1.785   5.729   0.488
 8556SOL    HW226568   1.693   5.728   0.623
 8557SOL     OW26569   6.552   0.712   6.396
 8557SOL    HW126570   6.461   0.678   6.370
 8557SOL    HW226571   6.542   0.783   6.465
 8558SOL     OW26572   3.168   6.382   4.187
 8558SOL    HW126573   3.150   6.293   4.146
 8558SOL    HW226574   3.134   6.382   4.281
 8559SOL     OW26575   2.219   4.815   2.899
 8559SOL    HW126576   2.158   4.737   2.885
 8559SOL    HW226577   2.311   4.781   2.919
 8560SOL     OW26578   2.082   4.541   0.297
 8560SOL    HW126579   2.028   4.458   0.312
 8560SOL    HW226580   2.166   4.518   0.249
 8561SOL     OW26581   4.612   0.751   2.854
 8561SOL    HW126582   4.579   0.842   2.828
 8561SOL    HW226583   4.712   0.748   2.841
 8562SOL     OW26584   5.133   1.984   6.935
 8562SOL    HW126585   5.039   1.963   6.962
 8562SOL    HW226586   5.179   2.031   7.011
 8563SOL     OW26587   2.785   5.063   2.392
 8563SOL    HW126588   2.875   5.028   2.367
 8563SOL    HW226589   2.714   5.008   2.348
 8564SOL     OW26590   3.886   0.157   0.191
 8564SOL    HW126591   3.979   0.120   0.203
 8564SOL    HW226592   3.886   0.254   0.215
 8565SOL     OW26593   1.591   5.009   1.002
 8565SOL    HW126594   1.596   5.015   1.101
 8565SOL    HW226595   1.624   4.920   0.972
 8566SOL     OW26596   3.401   1.427   2.255
 8566SOL    HW126597   3.309   1.435   2.294
 8566SOL    HW226598   3.402   1.354   2.186
 8567SOL     OW26599   1.614   3.086   2.024
 8567SOL    HW126600   1.606   3.175   1.980
 8567SOL    HW226601   1.696   3.039   1.992
 8568SOL     OW26602   5.964   0.301   6.835
 8568SOL    HW126603   5.876   0.324   6.794
 8568SOL    HW226604   5.999   0.379   6.887
 8569SOL     OW26605   4.156   2.082   6.976
 8569SOL    HW126606   4.085   2.125   0.007
 8569SOL    HW226607   4.189   2.148   6.908
 8570SOL     OW26608   2.132   2.542   2.114
 8570SOL    HW126609   2.158   2.630   2.152
 8570SOL    HW226610   2.066   2.497   2.174
 8571SOL     OW26611   1.805   0.812   2.921
 8571SOL    HW126612   1.818   0.797   3.019
 8571SOL    HW226613   1.893   0.812   2.874
 8572SOL     OW26614   2.164   4.207   5.467
 8572SOL    HW126615   2.174   4.172   5.560
 8572SOL    HW226616   2.254   4.220   5.426
 8573SOL     OW26617   3.454   6.360   0.303
 8573SOL    HW126618   3.485   6.305   0.226
 8573SOL    HW226619   3.420   6.448   0.269
 8574SOL     OW26620   5.117   0.551   4.855
 8574SOL    HW126621   5.211   0.582   4.869
 8574SOL    HW226622   5.054   0.624   4.882
 8575SOL     OW26623   3.092   6.209   3.447
 8575SOL    HW126624   3.032   6.134   3.478
 8575SOL    HW226625   3.186   6.175   3.439
 8576SOL     OW26626   1.331   4.745   3.781
 8576SOL    HW126627   1.305   4.685   3.705
 8576SOL    HW226628   1.277   4.829   3.777
 8577SOL     OW26629   1.863   1.442   0.435
 8577SOL    HW126630   1.777   1.483   0.406
 8577SOL    HW226631   1.897   1.381   0.364
 8578SOL     OW26632   0.212   6.708   6.448
 8578SOL    HW126633   0.236   6.721   6.352
 8578SOL    HW226634   0.173   6.617   6.460
 8579SOL     OW26635   2.724   6.587   2.113
 8579SOL    HW126636   2.775   6.566   2.030
 8579SOL    HW226637   2.731   6.510   2.177
 8580SOL     OW26638   1.856   0.877   1.035
 8580SOL    HW126639   1.830   0.846   1.126
 8580SOL    HW226640   1.903   0.965   1.042
 8581SOL     OW26641   3.430   4.677   1.498
 8581SOL    HW126642   3.388   4.614   1.433
 8581SOL    HW226643   3.367   4.695   1.573
 8582SOL     OW26644   3.414   5.138   5.693
 8582SOL    HW126645   3.389   5.046   5.665
 8582SOL    HW226646   3.340   5.201   5.671
 8583SOL     OW26647   3.987   0.383   2.780
 8583SOL    HW126648   3.986   0.444   2.859
 8583SOL    HW226649   3.894   0.354   2.759
 8584SOL     OW26650   6.959   1.608   5.069
 8584SOL    HW126651   6.888   1.545   5.101
 8584SOL    HW226652   0.005   1.558   5.020
 8585SOL     OW26653   5.642   2.602   2.512
 8585SOL    HW126654   5.719   2.657   2.543
 8585SOL    HW226655   5.558   2.656   2.517
 8586SOL     OW26656   6.738   6.388   0.200
 8586SOL    HW126657   6.790   6.353   0.278
 8586SOL    HW226658   6.792   6.456   0.151
 8587SOL     OW26659   0.654   1.795   6.662
 8587SOL    HW126660   0.619   1.798   6.755
 8587SOL    HW226661   0.640   1.704   6.624
 8588SOL     OW26662   3.007   1.735   6.239
 8588SOL    HW126663   2.987   1.827   6.272
 8588SOL    HW226664   2.926   1.677   6.249
 8589SOL     OW26665   6.617   3.024   6.819
 8589SOL    HW126666   6.563   3.076   6.752
 8589SOL    HW226667   6.603   3.062   6.910
 8590SOL     OW26668   0.809   0.081   4.377
 8590SOL    HW126669   0.809   0.167   4.427
 8590SOL    HW226670   0.832   0.006   4.439
 8591SOL     OW26671   6.829   4.809   6.822
 8591SOL    HW126672   6.868   4.899   6.803
 8591SOL    HW226673   6.878   4.766   6.898
 8592SOL     OW26674   0.337   1.699   4.852
 8592SOL    HW126675   0.383   1.788   4.855
 8592SOL    HW226676   0.370   1.647   4.774
 8593SOL     OW26677   4.723   1.448   6.973
 8593SOL    HW126678   4.629   1.466   6.945
 8593SOL    HW226679   4.728   1.360   7.020
 8594SOL     OW26680   6.488   2.722   6.296
 8594SOL    HW126681   6.410   2.784   6.291
 8594SOL    HW226682   6.476   2.647   6.232
 8595SOL     OW26683   5.873   6.630   3.335
 8595SOL    HW126684   5.915   6.550   3.293
 8595SOL    HW226685   5.777   6.636   3.308
 8596SOL     OW26686   0.992   1.483   4.165
 8596SOL    HW126687   1.018   1.449   4.075
 8596SOL    HW226688   1.020   1.579   4.173
 8597SOL     OW26689   5.760   3.463   6.783
 8597SOL    HW126690   5.834   3.516   6.741
 8597SOL    HW226691   5.672   3.495   6.748
 8598SOL     OW26692   5.946   6.512   4.815
 8598SOL    HW126693   5.959   6.549   4.723
 8598SOL    HW226694   5.939   6.412   4.810
 8599SOL     OW26695   6.878   3.362   4.339
 8599SOL    HW126696   6.912   3.409   4.257
 8599SOL    HW226697   6.791   3.402   4.366
 8600SOL     OW26698   4.837   1.760   1.151
 8600SOL    HW126699   4.899   1.760   1.073
 8600SOL    HW226700   4.752   1.807   1.126
 8601SOL     OW26701   0.256   6.481   3.948
 8601SOL    HW126702   0.279   6.544   3.874
 8601SOL    HW226703   0.218   6.397   3.909
 8602SOL     OW26704   2.233   6.141   4.963
 8602SOL    HW126705   2.140   6.137   4.999
 8602SOL    HW226706   2.232   6.184   4.873
 8603SOL     OW26707   0.187   0.205   0.439
 8603SOL    HW126708   0.132   0.131   0.401
 8603SOL    HW226709   0.129   0.265   0.494
 8604SOL     OW26710   7.017   4.526   6.598
 8604SOL    HW126711   0.028   4.443   6.555
 8604SOL    HW226712   6.956   4.573   6.534
 8605SOL     OW26713   6.950   4.863   4.997
 8605SOL    HW126714   6.926   4.918   4.917
 8605SOL    HW226715   6.940   4.766   4.975
 8606SOL     OW26716   1.735   2.068   0.562
 8606SOL    HW126717   1.719   2.158   0.522
 8606SOL    HW226718   1.734   1.999   0.490
 8607SOL     OW26719   2.467   4.171   1.300
 8607SOL    HW126720   2.477   4.133   1.392
 8607SOL    HW226721   2.483   4.098   1.233
 8608SOL     OW26722   1.978   4.930   2.774
 8608SOL    HW126723   2.040   4.852   2.776
 8608SOL    HW226724   1.955   4.958   2.867
 8609SOL     OW26725   4.004   1.503   4.168
 8609SOL    HW126726   3.964   1.457   4.247
 8609SOL    HW226727   4.089   1.547   4.194
 8610SOL     OW26728   6.896   6.278   3.292
 8610SOL    HW126729   6.892   6.200   3.355
 8610SOL    HW226730   6.908   6.245   3.199
 8611SOL     OW26731   3.294   1.353   4.944
 8611SOL    HW126732   3.386   1.373   4.910
 8611SOL    HW226733   3.291   1.363   5.043
 8612SOL     OW26734   3.194   3.657   3.986
 8612SOL    HW126735   3.267   3.627   4.047
 8612SOL    HW226736   3.123   3.587   3.983
 8613SOL     OW26737   3.849   2.962   2.187
 8613SOL    HW126738   3.917   2.951   2.114
 8613SOL    HW226739   3.757   2.952   2.148
 8614SOL     OW26740   1.803   1.736   3.181
 8614SOL    HW126741   1.710   1.697   3.187
 8614SOL    HW226742   1.811   1.812   3.245
 8615SOL     OW26743   3.814   1.539   4.477
 8615SOL    HW126744   3.910   1.533   4.451
 8615SOL    HW226745   3.787   1.455   4.523
 8616SOL     OW26746   5.722   4.256   3.379
 8616SOL    HW126747   5.807   4.255   3.327
 8616SOL    HW226748   5.698   4.163   3.405
 8617SOL     OW26749   2.818   0.502   3.477
 8617SOL    HW126750   2.772   0.501   3.566
 8617SOL    HW226751   2.836   0.409   3.447
 8618SOL     OW26752   5.171   4.128   1.280
 8618SOL    HW126753   5.248   4.191   1.286
 8618SOL    HW226754   5.094   4.173   1.235
 8619SOL     OW26755   4.951   4.982   0.756
 8619SOL    HW126756   5.022   4.913   0.746
 8619SOL    HW226757   4.932   4.996   0.853
 8620SOL     OW26758   2.548   0.538   4.162
 8620SOL    HW126759   2.530   0.614   4.225
 8620SOL    HW226760   2.647   0.526   4.153
 8621SOL     OW26761   5.711   3.188   1.591
 8621SOL    HW126762   5.707   3.228   1.499
 8621SOL    HW226763   5.768   3.106   1.589
 8622SOL     OW26764   6.917   4.968   3.008
 8622SOL    HW126765   7.005   4.932   3.040
 8622SOL    HW226766   6.847   4.897   3.016
 8623SOL     OW26767   1.211   3.556   4.309
 8623SOL    HW126768   1.156   3.610   4.373
 8623SOL    HW226769   1.155   3.530   4.231
 8624SOL     OW26770   3.054   3.991   4.864
 8624SOL    HW126771   3.080   4.008   4.768
 8624SOL    HW226772   2.992   3.913   4.869
 8625SOL     OW26773   4.071   2.731   5.668
 8625SOL    HW126774   4.110   2.797   5.603
 8625SOL    HW226775   4.081   2.766   5.761
 8626SOL     OW26776   3.758   3.657   0.631
 8626SOL    HW126777   3.688   3.588   0.649
 8626SOL    HW226778   3.843   3.611   0.603
 8627SOL     OW26779   2.218   1.054   1.803
 8627SOL    HW126780   2.145   0.993   1.834
 8627SOL    HW226781   2.304   1.030   1.848
 8628SOL     OW26782   0.297   6.877   0.992
 8628SOL    HW126783   0.232   6.923   1.052
 8628SOL    HW226784   0.325   6.790   1.033
 8629SOL     OW26785   0.156   6.311   5.708
 8629SOL    HW126786   0.161   6.270   5.799
 8629SOL    HW226787   0.106   6.398   5.714
 8630SOL     OW26788   4.857   2.978   2.252
 8630SOL    HW126789   4.814   3.009   2.168
 8630SOL    HW226790   4.788   2.940   2.314
 8631SOL     OW26791   2.577   6.694   6.457
 8631SOL    HW126792   2.515   6.671   6.383
 8631SOL    HW226793   2.565   6.629   6.532
 8632SOL     OW26794   5.449   5.182   5.323
 8632SOL    HW126795   5.383   5.119   5.284
 8632SOL    HW226796   5.468   5.156   5.418
 8633SOL     OW26797   5.460   4.265   6.115
 8633SOL    HW126798   5.456   4.210   6.032
 8633SOL    HW226799   5.417   4.215   6.190
 8634SOL     OW26800   4.356   2.871   0.614
 8634SOL    HW126801   4.395   2.963   0.626
 8634SOL    HW226802   4.428   2.803   0.618
 8635SOL     OW26803   5.200   2.293   6.020
 8635SOL    HW126804   5.253   2.221   6.064
 8635SOL    HW226805   5.257   2.375   6.010
 8636SOL     OW26806   4.611   0.004   1.952
 8636SOL    HW126807   4.542   0.002   1.880
 8636SOL    HW226808   4.568   0.028   2.039
 8637SOL     OW26809   1.333   2.115   6.710
 8637SOL    HW126810   1.399   2.052   6.751
 8637SOL    HW226811   1.283   2.162   6.783
 8638SOL     OW26812   4.868   2.581   4.009
 8638SOL    HW126813   4.867   2.484   4.033
 8638SOL    HW226814   4.957   2.606   3.971
 8639SOL     OW26815   3.643   3.694   0.027
 8639SOL    HW126816   3.723   3.704   0.086
 8639SOL    HW226817   3.673   3.675   6.957
 8640SOL     OW26818   2.870   3.342   0.478
 8640SOL    HW126819   2.808   3.357   0.555
 8640SOL    HW226820   2.953   3.296   0.511
 8641SOL     OW26821   4.808   5.647   1.926
 8641SOL    HW126822   4.796   5.580   1.853
 8641SOL    HW226823   4.898   5.690   1.917
 8642SOL     OW26824   1.011   5.649   3.539
 8642SOL    HW126825   1.085   5.594   3.578
 8642SOL    HW226826   0.959   5.691   3.613
 8643SOL     OW26827   3.876   6.231   0.970
 8643SOL    HW126828   3.877   6.155   0.905
 8643SOL    HW226829   3.850   6.197   1.060
 8644SOL     OW26830   6.229   2.419   6.268
 8644SOL    HW126831   6.293   2.407   6.344
 8644SOL    HW226832   6.241   2.344   6.202
 8645SOL     OW26833   5.727   4.481   2.951
 8645SOL    HW126834   5.663   4.405   2.956
 8645SOL    HW226835   5.732   4.527   3.039
 8646SOL     OW26836   6.400   2.351   5.036
 8646SOL    HW126837   6.421   2.406   4.955
 8646SOL    HW226838   6.358   2.409   5.106
 8647SOL     OW26839   2.272   5.439   1.726
 8647SOL    HW126840   2.289   5.534   1.755
 8647SOL    HW226841   2.188   5.436   1.672
 8648SOL     OW26842   5.228   4.913   0.657
 8648SOL    HW126843   5.260   4.994   0.608
 8648SOL    HW226844   5.261   4.917   0.752
 8649SOL     OW26845   5.163   0.292   0.800
 8649SOL    HW126846   5.186   0.325   0.708
 8649SOL    HW226847   5.219   0.212   0.821
 8650SOL     OW26848   2.528   6.362   5.069
 8650SOL    HW126849   2.457   6.296   5.095
 8650SOL    HW226850   2.507   6.451   5.111
 8651SOL     OW26851   3.446   2.184   1.481
 8651SOL    HW126852   3.471   2.196   1.577
 8651SOL    HW226853   3.346   2.185   1.472
 8652SOL     OW26854   1.218   2.944   3.553
 8652SOL    HW126855   1.121   2.936   3.530
 8652SOL    HW226856   1.253   2.855   3.580
 8653SOL     OW26857   6.625   1.181   6.666
 8653SOL    HW126858   6.647   1.272   6.702
 8653SOL    HW226859   6.632   1.182   6.566
 8654SOL     OW26860   0.085   4.478   1.875
 8654SOL    HW126861   0.157   4.518   1.818
 8654SOL    HW226862   0.086   4.523   1.965
 8655SOL     OW26863   0.116   0.858   4.706
 8655SOL    HW126864   0.084   0.847   4.800
 8655SOL    HW226865   0.133   0.955   4.687
 8656SOL     OW26866   4.758   6.990   0.964
 8656SOL    HW126867   4.776   6.932   0.884
 8656SOL    HW226868   4.835   0.028   0.978
 8657SOL     OW26869   4.320   1.131   3.476
 8657SOL    HW126870   4.420   1.134   3.479
 8657SOL    HW226871   4.285   1.221   3.449
 8658SOL     OW26872   6.268   4.363   0.735
 8658SOL    HW126873   6.352   4.331   0.779
 8658SOL    HW226874   6.194   4.364   0.802
 8659SOL     OW26875   3.410   1.178   3.007
 8659SOL    HW126876   3.467   1.217   2.934
 8659SOL    HW226877   3.410   1.239   3.086
 8660SOL     OW26878   0.109   3.805   1.784
 8660SOL    HW126879   0.095   3.708   1.805
 8660SOL    HW226880   0.202   3.819   1.750
 8661SOL     OW26881   6.694   3.732   2.309
 8661SOL    HW126882   6.762   3.751   2.380
 8661SOL    HW226883   6.661   3.638   2.319
 8662SOL     OW26884   1.875   4.019   3.142
 8662SOL    HW126885   1.804   3.958   3.107
 8662SOL    HW226886   1.862   4.110   3.102
 8663SOL     OW26887   4.434   5.745   2.486
 8663SOL    HW126888   4.478   5.835   2.494
 8663SOL    HW226889   4.343   5.756   2.445
 8664SOL     OW26890   3.756   5.951   3.196
 8664SOL    HW126891   3.692   6.004   3.251
 8664SOL    HW226892   3.705   5.888   3.137
 8665SOL     OW26893   5.561   3.573   0.073
 8665SOL    HW126894   5.653   3.536   0.055
 8665SOL    HW226895   5.495   3.499   0.074
 8666SOL     OW26896   4.949   6.926   2.421
 8666SOL    HW126897   4.894   6.913   2.339
 8666SOL    HW226898   4.919   7.009   2.469
 8667SOL     OW26899   5.016   2.026   3.389
 8667SOL    HW126900   4.945   2.083   3.430
 8667SOL    HW226901   5.029   1.944   3.445
 8668SOL     OW26902   5.311   2.328   4.986
 8668SOL    HW126903   5.383   2.279   4.938
 8668SOL    HW226904   5.224   2.313   4.939
 8669SOL     OW26905   6.240   6.025   6.272
 8669SOL    HW126906   6.264   6.107   6.220
 8669SOL    HW226907   6.223   5.949   6.209
 8670SOL     OW26908   6.590   4.378   6.469
 8670SOL    HW126909   6.661   4.448   6.481
 8670SOL    HW226910   6.599   4.336   6.379
 8671SOL     OW26911   0.630   2.866   3.171
 8671SOL    HW126912   0.588   2.948   3.131
 8671SOL    HW226913   0.728   2.866   3.150
 8672SOL     OW26914   0.632   0.988   2.740
 8672SOL    HW126915   0.680   0.975   2.827
 8672SOL    HW226916   0.545   0.937   2.742
 8673SOL     OW26917   0.172   1.694   1.618
 8673SOL    HW126918   0.200   1.599   1.608
 8673SOL    HW226919   0.088   1.697   1.673
 8674SOL     OW26920   6.886   3.757   3.783
 8674SOL    HW126921   6.887   3.754   3.683
 8674SOL    HW226922   6.885   3.853   3.813
 8675SOL     OW26923   3.315   2.182   5.323
 8675SOL    HW126924   3.310   2.107   5.257
 8675SOL    HW226925   3.286   2.267   5.279
 8676SOL     OW26926   5.284   1.124   0.927
 8676SOL    HW126927   5.380   1.120   0.957
 8676SOL    HW226928   5.280   1.117   0.827
 8677SOL     OW26929   2.270   6.819   6.338
 8677SOL    HW126930   2.180   6.811   6.295
 8677SOL    HW226931   2.292   6.915   6.353
 8678SOL     OW26932   1.406   1.746   0.155
 8678SOL    HW126933   1.407   1.662   0.100
 8678SOL    HW226934   1.311   1.772   0.173
 8679SOL     OW26935   1.672   2.257   5.779
 8679SOL    HW126936   1.610   2.275   5.856
 8679SOL    HW226937   1.645   2.173   5.733
 8680SOL     OW26938   6.954   0.937   0.225
 8680SOL    HW126939   7.007   0.905   0.146
 8680SOL    HW226940   7.009   0.929   0.308
 8681SOL     OW26941   5.412   6.788   1.738
 8681SOL    HW126942   5.395   6.887   1.740
 8681SOL    HW226943   5.503   6.771   1.699
 8682SOL     OW26944   2.025   0.627   1.382
 8682SOL    HW126945   1.962   0.696   1.347
 8682SOL    HW226946   1.973   0.548   1.414
 8683SOL     OW26947   1.645   4.332   4.102
 8683SOL    HW126948   1.663   4.249   4.049
 8683SOL    HW226949   1.705   4.405   4.070
 8684SOL     OW26950   1.904   4.017   4.167
 8684SOL    HW126951   1.979   4.071   4.205
 8684SOL    HW226952   1.859   4.067   4.094
 8685SOL     OW26953   5.081   2.404   4.865
 8685SOL    HW126954   5.062   2.415   4.767
 8685SOL    HW226955   5.016   2.341   4.905
 8686SOL     OW26956   1.064   5.264   3.201
 8686SOL    HW126957   1.120   5.285   3.281
 8686SOL    HW226958   1.106   5.303   3.119
 8687SOL     OW26959   4.659   4.444   6.180
 8687SOL    HW126960   4.685   4.393   6.098
 8687SOL    HW226961   4.621   4.381   6.248
 8688SOL     OW26962   0.310   3.833   5.156
 8688SOL    HW126963   0.359   3.865   5.237
 8688SOL    HW226964   0.281   3.911   5.101
 8689SOL     OW26965   3.850   3.437   0.097
 8689SOL    HW126966   3.910   3.511   0.127
 8689SOL    HW226967   3.836   3.444   7.022
 8690SOL     OW26968   1.931   2.217   2.544
 8690SOL    HW126969   1.936   2.298   2.602
 8690SOL    HW226970   1.989   2.229   2.463
 8691SOL     OW26971   3.458   2.546   5.309
 8691SOL    HW126972   3.399   2.473   5.275
 8691SOL    HW226973   3.523   2.508   5.375
 8692SOL     OW26974   4.321   1.731   5.376
 8692SOL    HW126975   4.397   1.668   5.395
 8692SOL    HW226976   4.319   1.752   5.278
 8693SOL     OW26977   6.581   6.973   5.847
 8693SOL    HW126978   6.572   6.996   5.944
 8693SOL    HW226979   6.504   7.011   5.796
 8694SOL     OW26980   5.700   3.325   5.270
 8694SOL    HW126981   5.659   3.238   5.244
 8694SOL    HW226982   5.683   3.342   5.367
 8695SOL     OW26983   3.512   4.378   6.479
 8695SOL    HW126984   3.506   4.429   6.393
 8695SOL    HW226985   3.420   4.363   6.515
 8696SOL     OW26986   2.909   5.186   5.867
 8696SOL    HW126987   2.923   5.279   5.834
 8696SOL    HW226988   2.821   5.180   5.915
 8697SOL     OW26989   2.236   3.425   5.409
 8697SOL    HW126990   2.158   3.485   5.392
 8697SOL    HW226991   2.204   3.338   5.445
 8698SOL     OW26992   5.360   5.802   5.942
 8698SOL    HW126993   5.370   5.881   5.881
 8698SOL    HW226994   5.436   5.802   6.008
 8699SOL     OW26995   1.289   2.720   6.412
 8699SOL    HW126996   1.254   2.751   6.500
 8699SOL    HW226997   1.214   2.685   6.356
 8700SOL     OW26998   1.542   0.434   3.771
 8700SOL    HW126999   1.456   0.427   3.719
 8700SOL    HW227000   1.530   0.501   3.844
 8701SOL     OW27001   0.672   2.356   0.343
 8701SOL    HW127002   0.657   2.387   0.436
 8701SOL    HW227003   0.682   2.256   0.342
 8702SOL     OW27004   5.250   4.803   1.540
 8702SOL    HW127005   5.220   4.708   1.545
 8702SOL    HW227006   5.316   4.814   1.466
 8703SOL     OW27007   2.237   6.085   0.785
 8703SOL    HW127008   2.296   6.004   0.797
 8703SOL    HW227009   2.206   6.089   0.690
 8704SOL     OW27010   0.821   0.487   4.843
 8704SOL    HW127011   0.738   0.471   4.789
 8704SOL    HW227012   0.804   0.561   4.909
 8705SOL     OW27013   4.065   2.489   6.774
 8705SOL    HW127014   4.060   2.490   6.874
 8705SOL    HW227015   3.979   2.455   6.736
 8706SOL     OW27016   4.783   3.488   6.203
 8706SOL    HW127017   4.825   3.511   6.291
 8706SOL    HW227018   4.740   3.398   6.209
 8707SOL     OW27019   1.774   1.730   5.165
 8707SOL    HW127020   1.679   1.747   5.138
 8707SOL    HW227021   1.777   1.653   5.230
 8708SOL     OW27022   5.972   2.596   0.343
 8708SOL    HW127023   5.918   2.580   0.259
 8708SOL    HW227024   6.063   2.628   0.319
 8709SOL     OW27025   6.076   6.757   5.514
 8709SOL    HW127026   6.172   6.781   5.529
 8709SOL    HW227027   6.048   6.686   5.578
 8710SOL     OW27028   2.261   1.280   3.516
 8710SOL    HW127029   2.180   1.239   3.557
 8710SOL    HW227030   2.238   1.319   3.427
 8711SOL     OW27031   1.499   1.535   1.138
 8711SOL    HW127032   1.509   1.548   1.237
 8711SOL    HW227033   1.444   1.609   1.101
 8712SOL     OW27034   1.793   4.008   5.424
 8712SOL    HW127035   1.845   4.005   5.339
 8712SOL    HW227036   1.803   4.098   5.466
 8713SOL     OW27037   0.339   3.883   1.656
 8713SOL    HW127038   0.394   3.799   1.664
 8713SOL    HW227039   0.375   3.938   1.580
 8714SOL     OW27040   6.921   5.586   6.404
 8714SOL    HW127041   6.824   5.570   6.424
 8714SOL    HW227042   6.966   5.624   6.484
 8715SOL     OW27043   2.113   3.338   1.537
 8715SOL    HW127044   2.192   3.304   1.588
 8715SOL    HW227045   2.107   3.289   1.449
 8716SOL     OW27046   6.760   0.104   2.042
 8716SOL    HW127047   6.673   0.071   2.003
 8716SOL    HW227048   6.825   0.028   2.047
 8717SOL     OW27049   2.366   3.641   0.601
 8717SOL    HW127050   2.292   3.643   0.534
 8717SOL    HW227051   2.447   3.686   0.563
 8718SOL     OW27052   2.177   4.769   6.054
 8718SOL    HW127053   2.218   4.769   6.145
 8718SOL    HW227054   2.244   4.738   5.987
 8719SOL     OW27055   3.519   0.549   5.223
 8719SOL    HW127056   3.468   0.577   5.142
 8719SOL    HW227057   3.616   0.537   5.199
 8720SOL     OW27058   6.955   5.210   4.978
 8720SOL    HW127059   6.930   5.184   5.071
 8720SOL    HW227060   6.917   5.144   4.914
 8721SOL     OW27061   0.144   0.165   6.969
 8721SOL    HW127062   0.204   0.240   6.942
 8721SOL    HW227063   0.143   0.095   6.898
 8722SOL     OW27064   3.671   0.940   1.185
 8722SOL    HW127065   3.632   0.966   1.097
 8722SOL    HW227066   3.667   0.841   1.195
 8723SOL     OW27067   4.102   0.125   2.723
 8723SOL    HW127068   4.031   0.192   2.744
 8723SOL    HW227069   4.081   0.081   2.636
 8724SOL     OW27070   3.926   0.877   4.236
 8724SOL    HW127071   3.968   0.808   4.295
 8724SOL    HW227072   3.888   0.833   4.154
 8725SOL     OW27073   0.031   0.008   3.771
 8725SOL    HW127074   6.975   7.021   3.711
 8725SOL    HW227075   0.069   6.942   3.793
 8726SOL     OW27076   0.231   0.842   1.021
 8726SOL    HW127077   0.256   0.806   1.111
 8726SOL    HW227078   0.132   0.840   1.010
 8727SOL     OW27079   4.648   6.634   6.278
 8727SOL    HW127080   4.571   6.589   6.324
 8727SOL    HW227081   4.617   6.717   6.233
 8728SOL     OW27082   6.395   0.038   4.389
 8728SOL    HW127083   6.359   6.998   4.321
 8728SOL    HW227084   6.486   0.008   4.418
 8729SOL     OW27085   4.852   6.304   6.086
 8729SOL    HW127086   4.793   6.375   6.046
 8729SOL    HW227087   4.902   6.257   6.013
 8730SOL     OW27088   4.542   5.420   1.482
 8730SOL    HW127089   4.557   5.519   1.477
 8730SOL    HW227090   4.460   5.397   1.430
 8731SOL     OW27091   0.039   1.595   3.604
 8731SOL    HW127092   0.061   1.618   3.699
 8731SOL    HW227093   6.989   1.654   3.571
 8732SOL     OW27094   6.144   6.758   0.483
 8732SOL    HW127095   6.161   6.855   0.503
 8732SOL    HW227096   6.161   6.703   0.564
 8733SOL     OW27097   6.249   5.330   2.656
 8733SOL    HW127098   6.314   5.268   2.699
 8733SOL    HW227099   6.197   5.378   2.727
 8734SOL     OW27100   6.927   3.258   2.402
 8734SOL    HW127101   6.955   3.163   2.388
 8734SOL    HW227102   6.936   3.282   2.499
 8735SOL     OW27103   6.733   3.568   5.170
 8735SOL    HW127104   6.794   3.609   5.238
 8735SOL    HW227105   6.679   3.639   5.127
 8736SOL     OW27106   1.082   6.029   4.072
 8736SOL    HW127107   1.158   6.013   4.008
 8736SOL    HW227108   1.090   6.121   4.110
 8737SOL     OW27109   1.704   6.159   6.801
 8737SOL    HW127110   1.664   6.185   6.889
 8737SOL    HW227111   1.702   6.237   6.739
 8738SOL     OW27112   1.454   2.990   3.447
 8738SOL    HW127113   1.361   2.980   3.483
 8738SOL    HW227114   1.520   2.985   3.522
 8739SOL     OW27115   5.098   4.073   5.813
 8739SOL    HW127116   5.092   4.112   5.905
 8739SOL    HW227117   5.142   3.983   5.818
 8740SOL     OW27118   2.924   0.288   5.049
 8740SOL    HW127119   2.908   0.385   5.032
 8740SOL    HW227120   2.893   0.264   5.141
 8741SOL     OW27121   1.328   0.653   2.552
 8741SOL    HW127122   1.378   0.581   2.502
 8741SOL    HW227123   1.250   0.613   2.599
 8742SOL     OW27124   2.889   1.797   2.325
 8742SOL    HW127125   2.982   1.791   2.290
 8742SOL    HW227126   2.837   1.863   2.270
 8743SOL     OW27127   0.507   2.255   1.783
 8743SOL    HW127128   0.606   2.247   1.772
 8743SOL    HW227129   0.481   2.226   1.875
 8744SOL     OW27130   3.382   4.361   5.788
 8744SOL    HW127131   3.296   4.314   5.810
 8744SOL    HW227132   3.457   4.295   5.788
 8745SOL     OW27133   5.940   0.914   6.023
 8745SOL    HW127134   5.871   0.952   6.085
 8745SOL    HW227135   5.950   0.816   6.041
 8746SOL     OW27136   4.901   5.469   5.236
 8746SOL    HW127137   4.896   5.389   5.296
 8746SOL    HW227138   4.957   5.540   5.279
 8747SOL     OW27139   0.474   0.422   2.484
 8747SOL    HW127140   0.395   0.390   2.430
 8747SOL    HW227141   0.543   0.350   2.487
 8748SOL     OW27142   6.445   1.839   3.691
 8748SOL    HW127143   6.522   1.790   3.733
 8748SOL    HW227144   6.376   1.859   3.760
 8749SOL     OW27145   2.524   1.470   4.019
 8749SOL    HW127146   2.503   1.408   4.095
 8749SOL    HW227147   2.447   1.472   3.955
 8750SOL     OW27148   3.827   3.763   0.250
 8750SOL    HW127149   3.789   3.810   0.330
 8750SOL    HW227150   3.901   3.818   0.211
 8751SOL     OW27151   1.931   6.320   0.899
 8751SOL    HW127152   2.026   6.312   0.929
 8751SOL    HW227153   1.889   6.229   0.894
 8752SOL     OW27154   6.095   3.099   6.071
 8752SOL    HW127155   6.091   3.001   6.055
 8752SOL    HW227156   6.190   3.127   6.086
 8753SOL     OW27157   2.529   2.527   0.874
 8753SOL    HW127158   2.522   2.453   0.807
 8753SOL    HW227159   2.576   2.493   0.956
 8754SOL     OW27160   1.703   5.114   6.854
 8754SOL    HW127161   1.612   5.107   6.896
 8754SOL    HW227162   1.706   5.194   6.795
 8755SOL     OW27163   0.353   3.188   1.544
 8755SOL    HW127164   0.312   3.141   1.466
 8755SOL    HW227165   0.309   3.277   1.556
 8756SOL     OW27166   1.931   1.723   1.741
 8756SOL    HW127167   2.028   1.715   1.718
 8756SOL    HW227168   1.922   1.745   1.838
 8757SOL     OW27169   5.109   5.952   5.289
 8757SOL    HW127170   5.125   6.031   5.350
 8757SOL    HW227171   5.058   5.983   5.209
 8758SOL     OW27172   3.481   5.855   5.159
 8758SOL    HW127173   3.437   5.931   5.111
 8758SOL    HW227174   3.474   5.773   5.103
 8759SOL     OW27175   5.779   0.588   0.916
 8759SOL    HW127176   5.787   0.489   0.904
 8759SOL    HW227177   5.835   0.635   0.848
 8760SOL     OW27178   2.618   2.436   4.445
 8760SOL    HW127179   2.609   2.338   4.427
 8760SOL    HW227180   2.633   2.451   4.543
 8761SOL     OW27181   5.487   1.542   2.674
 8761SOL    HW127182   5.515   1.536   2.578
 8761SOL    HW227183   5.553   1.596   2.725
 8762SOL     OW27184   3.008   5.470   3.356
 8762SOL    HW127185   2.961   5.557   3.343
 8762SOL    HW227186   2.981   5.430   3.445
 8763SOL     OW27187   0.588   0.378   6.885
 8763SOL    HW127188   0.669   0.422   6.848
 8763SOL    HW227189   0.616   0.311   6.954
 8764SOL     OW27190   2.826   5.164   5.150
 8764SOL    HW127191   2.749   5.177   5.213
 8764SOL    HW227192   2.850   5.068   5.146
 8765SOL     OW27193   4.392   6.700   4.706
 8765SOL    HW127194   4.338   6.647   4.641
 8765SOL    HW227195   4.423   6.641   4.780
 8766SOL     OW27196   4.630   6.422   5.953
 8766SOL    HW127197   4.571   6.499   5.976
 8766SOL    HW227198   4.592   6.372   5.875
 8767SOL     OW27199   1.978   1.049   4.179
 8767SOL    HW127200   1.949   1.066   4.085
 8767SOL    HW227201   1.930   1.112   4.240
 8768SOL     OW27202   6.407   1.414   0.005
 8768SOL    HW127203   6.388   1.329   6.979
 8768SOL    HW227204   6.498   1.409   0.046
 8769SOL     OW27205   6.307   0.035   0.129
 8769SOL    HW127206   6.297   6.987   0.197
 8769SOL    HW227207   6.349   7.021   0.046
 8770SOL     OW27208   5.353   3.077   0.152
 8770SOL    HW127209   5.417   3.109   0.222
 8770SOL    HW227210   5.272   3.137   0.151
 8771SOL     OW27211   0.383   2.921   0.295
 8771SOL    HW127212   0.313   2.986   0.325
 8771SOL    HW227213   0.413   2.865   0.372
 8772SOL     OW27214   6.970   6.983   4.275
 8772SOL    HW127215   0.027   6.974   4.216
 8772SOL    HW227216   6.995   6.961   4.370
 8773SOL     OW27217   0.436   0.956   4.560
 8773SOL    HW127218   0.342   0.922   4.551
 8773SOL    HW227219   0.498   0.894   4.514
 8774SOL     OW27220   1.107   1.576   0.323
 8774SOL    HW127221   1.098   1.664   0.275
 8774SOL    HW227222   1.169   1.516   0.272
 8775SOL     OW27223   5.752   2.717   3.766
 8775SOL    HW127224   5.824   2.737   3.831
 8775SOL    HW227225   5.707   2.802   3.738
 8776SOL     OW27226   4.431   3.139   0.658
 8776SOL    HW127227   4.358   3.202   0.632
 8776SOL    HW227228   4.495   3.184   0.720
 8777SOL     OW27229   6.895   2.241   2.817
 8777SOL    HW127230   6.804   2.280   2.806
 8777SOL    HW227231   6.939   2.283   2.897
 8778SOL     OW27232   3.353   4.805   6.876
 8778SOL    HW127233   3.396   4.726   6.833
 8778SOL    HW227234   3.422   4.857   6.926
 8779SOL     OW27235   4.055   4.800   3.364
 8779SOL    HW127236   3.993   4.775   3.439
 8779SOL    HW227237   4.138   4.841   3.402
 8780SOL     OW27238   6.902   4.380   3.988
 8780SOL    HW127239   6.952   4.293   3.985
 8780SOL    HW227240   6.922   4.427   4.074
 8781SOL     OW27241   3.247   0.861   2.024
 8781SOL    HW127242   3.289   0.770   2.016
 8781SOL    HW227243   3.183   0.875   1.949
 8782SOL     OW27244   5.228   2.173   0.953
 8782SOL    HW127245   5.260   2.251   0.899
 8782SOL    HW227246   5.190   2.104   0.893
 8783SOL     OW27247   5.310   3.190   4.732
 8783SOL    HW127248   5.260   3.222   4.813
 8783SOL    HW227249   5.406   3.177   4.754
 8784SOL     OW27250   5.316   0.963   1.363
 8784SOL    HW127251   5.285   0.898   1.432
 8784SOL    HW227252   5.397   0.926   1.316
 8785SOL     OW27253   0.189   5.882   5.327
 8785SOL    HW127254   0.178   5.982   5.332
 8785SOL    HW227255   0.105   5.841   5.292
 8786SOL     OW27256   4.865   1.581   2.734
 8786SOL    HW127257   4.888   1.634   2.653
 8786SOL    HW227258   4.789   1.625   2.782
 8787SOL     OW27259   3.583   6.045   0.943
 8787SOL    HW127260   3.507   6.018   0.883
 8787SOL    HW227261   3.668   6.041   0.891
 8788SOL     OW27262   1.279   6.755   3.925
 8788SOL    HW127263   1.313   6.661   3.913
 8788SOL    HW227264   1.221   6.780   3.847
 8789SOL     OW27265   6.995   2.541   6.405
 8789SOL    HW127266   0.034   2.487   6.462
 8789SOL    HW227267   6.987   2.633   6.443
 8790SOL     OW27268   5.160   3.554   5.588
 8790SOL    HW127269   5.197   3.507   5.668
 8790SOL    HW227270   5.063   3.574   5.602
 8791SOL     OW27271   3.472   6.096   4.709
 8791SOL    HW127272   3.398   6.151   4.748
 8791SOL    HW227273   3.559   6.122   4.753
 8792SOL     OW27274   5.045   4.978   1.585
 8792SOL    HW127275   5.125   4.917   1.585
 8792SOL    HW227276   4.975   4.941   1.646
 8793SOL     OW27277   0.123   5.774   4.552
 8793SOL    HW127278   0.136   5.815   4.643
 8793SOL    HW227279   0.198   5.802   4.492
 8794SOL     OW27280   6.990   1.456   2.680
 8794SOL    HW127281   0.065   1.461   2.696
 8794SOL    HW227282   6.972   1.392   2.605
 8795SOL     OW27283   1.302   5.959   0.091
 8795SOL    HW127284   1.352   5.938   0.007
 8795SOL    HW227285   1.248   5.879   0.118
 8796SOL     OW27286   6.273   3.202   3.789
 8796SOL    HW127287   6.200   3.140   3.760
 8796SOL    HW227288   6.350   3.149   3.823
 8797SOL     OW27289   4.746   6.691   3.763
 8797SOL    HW127290   4.741   6.765   3.829
 8797SOL    HW227291   4.794   6.722   3.681
 8798SOL     OW27292   3.073   0.257   5.635
 8798SOL    HW127293   2.974   0.267   5.622
 8798SOL    HW227294   3.094   0.264   5.732
 8799SOL     OW27295   0.616   4.872   1.791
 8799SOL    HW127296   0.636   4.825   1.705
 8799SOL    HW227297   0.625   4.971   1.778
 8800SOL     OW27298   6.969   5.792   5.242
 8800SOL    HW127299   6.878   5.835   5.246
 8800SOL    HW227300   6.962   5.697   5.273
 8801SOL     OW27301   5.702   3.078   5.819
 8801SOL    HW127302   5.710   2.990   5.772
 8801SOL    HW227303   5.789   3.127   5.814
 8802SOL     OW27304   1.152   6.545   6.730
 8802SOL    HW127305   1.107   6.468   6.774
 8802SOL    HW227306   1.108   6.630   6.758
 8803SOL     OW27307   6.536   6.660   6.447
 8803SOL    HW127308   6.525   6.618   6.537
 8803SOL    HW227309   6.502   6.597   6.377
 8804SOL     OW27310   1.622   6.127   2.831
 8804SOL    HW127311   1.580   6.175   2.909
 8804SOL    HW227312   1.587   6.034   2.826
 8805SOL     OW27313   5.380   4.979   3.551
 8805SOL    HW127314   5.369   5.078   3.545
 8805SOL    HW227315   5.448   4.949   3.485
 8806SOL     OW27316   2.237   0.646   1.206
 8806SOL    HW127317   2.162   0.638   1.272
 8806SOL    HW227318   2.201   0.672   1.117
 8807SOL     OW27319   4.858   2.659   1.218
 8807SOL    HW127320   4.901   2.744   1.250
 8807SOL    HW227321   4.768   2.679   1.181
 8808SOL     OW27322   1.477   2.291   6.940
 8808SOL    HW127323   1.476   2.200   6.982
 8808SOL    HW227324   1.508   2.359   7.007
 8809SOL     OW27325   0.499   3.772   3.308
 8809SOL    HW127326   0.565   3.697   3.317
 8809SOL    HW227327   0.539   3.845   3.252
 8810SOL     OW27328   0.745   1.075   5.135
 8810SOL    HW127329   0.815   1.097   5.204
 8810SOL    HW227330   0.701   0.989   5.159
 8811SOL     OW27331   4.106   5.445   2.313
 8811SOL    HW127332   4.043   5.454   2.236
 8811SOL    HW227333   4.068   5.380   2.379
 8812SOL     OW27334   4.923   1.164   6.637
 8812SOL    HW127335   4.930   1.175   6.538
 8812SOL    HW227336   4.943   1.251   6.682
 8813SOL     OW27337   2.216   4.053   3.595
 8813SOL    HW127338   2.256   3.962   3.583
 8813SOL    HW227339   2.141   4.066   3.530
 8814SOL     OW27340   5.347   0.554   5.726
 8814SOL    HW127341   5.424   0.501   5.691
 8814SOL    HW227342   5.376   0.649   5.739
 8815SOL     OW27343   5.512   0.865   0.311
 8815SOL    HW127344   5.523   0.768   0.332
 8815SOL    HW227345   5.417   0.883   0.285
 8816SOL     OW27346   1.019   6.002   4.371
 8816SOL    HW127347   1.005   6.098   4.393
 8816SOL    HW227348   1.115   5.977   4.388
 8817SOL     OW27349   1.517   2.676   3.455
 8817SOL    HW127350   1.487   2.728   3.535
 8817SOL    HW227351   1.600   2.717   3.418
 8818SOL     OW27352   0.888   0.358   5.508
 8818SOL    HW127353   0.986   0.344   5.520
 8818SOL    HW227354   0.839   0.278   5.542
 8819SOL     OW27355   5.272   4.893   6.506
 8819SOL    HW127356   5.353   4.936   6.544
 8819SOL    HW227357   5.270   4.907   6.407
 8820SOL     OW27358   3.310   0.721   5.347
 8820SOL    HW127359   3.341   0.741   5.440
 8820SOL    HW227360   3.377   0.662   5.302
 8821SOL     OW27361   6.847   4.640   6.395
 8821SOL    HW127362   6.873   4.608   6.303
 8821SOL    HW227363   6.824   4.737   6.391
 8822SOL     OW27364   6.477   0.392   4.401
 8822SOL    HW127365   6.536   0.385   4.321
 8822SOL    HW227366   6.405   0.459   4.383
 8823SOL     OW27367   3.962   1.152   3.189
 8823SOL    HW127368   4.041   1.209   3.209
 8823SOL    HW227369   3.960   1.075   3.253
 8824SOL     OW27370   1.506   0.884   1.944
 8824SOL    HW127371   1.598   0.923   1.955
 8824SOL    HW227372   1.438   0.946   1.982
 8825SOL     OW27373   0.145   6.011   0.315
 8825SOL    HW127374   0.102   5.927   0.349
 8825SOL    HW227375   0.105   6.036   0.227
 8826SOL     OW27376   1.218   3.987   1.049
 8826SOL    HW127377   1.127   4.025   1.029
 8826SOL    HW227378   1.252   3.939   0.969
 8827SOL     OW27379   4.746   0.002   2.768
 8827SOL    HW127380   4.670   6.966   2.790
 8827SOL    HW227381   4.795   0.026   2.852
 8828SOL     OW27382   4.143   2.346   6.185
 8828SOL    HW127383   4.158   2.250   6.163
 8828SOL    HW227384   4.184   2.404   6.115
 8829SOL     OW27385   6.935   1.121   1.670
 8829SOL    HW127386   6.919   1.208   1.716
 8829SOL    HW227387   0.006   1.094   1.682
 8830SOL     OW27388   2.545   0.635   3.067
 8830SOL    HW127389   2.571   0.714   3.012
 8830SOL    HW227390   2.591   0.640   3.156
 8831SOL     OW27391   0.737   2.629   1.872
 8831SOL    HW127392   0.734   2.723   1.838
 8831SOL    HW227393   0.768   2.568   1.798
 8832SOL     OW27394   5.766   0.905   4.572
 8832SOL    HW127395   5.727   0.931   4.660
 8832SOL    HW227396   5.767   0.984   4.511
 8833SOL     OW27397   4.803   2.399   1.198
 8833SOL    HW127398   4.890   2.352   1.209
 8833SOL    HW227399   4.818   2.498   1.200
 8834SOL     OW27400   5.549   3.951   5.791
 8834SOL    HW127401   5.639   3.985   5.815
 8834SOL    HW227402   5.537   3.954   5.692
 8835SOL     OW27403   0.057   0.443   5.987
 8835SOL    HW127404   0.080   0.492   5.902
 8835SOL    HW227405   0.140   0.430   6.041
 8836SOL     OW27406   4.975   1.915   1.740
 8836SOL    HW127407   4.928   1.967   1.811
 8836SOL    HW227408   5.020   1.836   1.780
 8837SOL     OW27409   3.736   6.715   0.089
 8837SOL    HW127410   3.796   6.667   0.154
 8837SOL    HW227411   3.771   6.807   0.074
 8838SOL     OW27412   1.653   3.954   3.717
 8838SOL    HW127413   1.674   3.883   3.650
 8838SOL    HW227414   1.639   4.041   3.670
 8839SOL     OW27415   5.320   5.693   2.415
 8839SOL    HW127416   5.323   5.613   2.476
 8839SOL    HW227417   5.266   5.671   2.334
 8840SOL     OW27418   0.023   0.363   1.779
 8840SOL    HW127419   7.021   0.296   1.709
 8840SOL    HW227420   6.999   0.449   1.762
 8841SOL     OW27421   3.715   0.593   1.134
 8841SOL    HW127422   3.666   0.610   1.220
 8841SOL    HW227423   3.691   0.502   1.100
 8842SOL     OW27424   4.170   3.643   4.627
 8842SOL    HW127425   4.133   3.670   4.716
 8842SOL    HW227426   4.258   3.597   4.640
 8843SOL     OW27427   2.607   6.292   6.812
 8843SOL    HW127428   2.555   6.212   6.784
 8843SOL    HW227429   2.689   6.301   6.755
 8844SOL     OW27430   3.457   2.465   6.431
 8844SOL    HW127431   3.511   2.385   6.460
 8844SOL    HW227432   3.404   2.499   6.509
 8845SOL     OW27433   6.626   4.150   2.048
 8845SOL    HW127434   6.615   4.092   2.129
 8845SOL    HW227435   6.536   4.180   2.016
 8846SOL     OW27436   5.441   4.537   4.946
 8846SOL    HW127437   5.488   4.450   4.931
 8846SOL    HW227438   5.343   4.521   4.958
 8847SOL     OW27439   1.869   1.675   3.875
 8847SOL    HW127440   1.955   1.718   3.903
 8847SOL    HW227441   1.854   1.692   3.778
 8848SOL     OW27442   4.845   1.422   0.347
 8848SOL    HW127443   4.870   1.506   0.299
 8848SOL    HW227444   4.857   1.435   0.446
 8849SOL     OW27445   3.016   4.914   4.411
 8849SOL    HW127446   3.042   4.982   4.479
 8849SOL    HW227447   3.097   4.882   4.363
 8850SOL     OW27448   3.356   0.889   1.352
 8850SOL    HW127449   3.441   0.839   1.333
 8850SOL    HW227450   3.292   0.875   1.277
 8851SOL     OW27451   6.614   4.729   2.125
 8851SOL    HW127452   6.561   4.680   2.055
 8851SOL    HW227453   6.705   4.688   2.132
 8852SOL     OW27454   4.638   2.723   4.566
 8852SOL    HW127455   4.628   2.629   4.601
 8852SOL    HW227456   4.617   2.788   4.640
 8853SOL     OW27457   4.265   1.552   5.671
 8853SOL    HW127458   4.359   1.583   5.677
 8853SOL    HW227459   4.206   1.613   5.723
 8854SOL     OW27460   1.133   2.040   6.899
 8854SOL    HW127461   1.113   1.990   6.814
 8854SOL    HW227462   1.080   2.124   6.901
 8855SOL     OW27463   6.066   5.217   0.032
 8855SOL    HW127464   6.161   5.233   0.057
 8855SOL    HW227465   6.009   5.224   0.114
 8856SOL     OW27466   5.769   1.168   4.443
 8856SOL    HW127467   5.811   1.156   4.353
 8856SOL    HW227468   5.822   1.235   4.495
 8857SOL     OW27469   0.200   2.733   4.822
 8857SOL    HW127470   0.125   2.786   4.782
 8857SOL    HW227471   0.276   2.794   4.845
 8858SOL     OW27472   0.123   4.064   6.869
 8858SOL    HW127473   0.030   4.063   6.905
 8858SOL    HW227474   0.179   3.997   6.917
 8859SOL     OW27475   3.161   5.212   5.209
 8859SOL    HW127476   3.156   5.312   5.213
 8859SOL    HW227477   3.095   5.178   5.142
 8860SOL     OW27478   1.247   2.392   1.559
 8860SOL    HW127479   1.306   2.389   1.479
 8860SOL    HW227480   1.164   2.443   1.538
 8861SOL     OW27481   2.810   3.324   0.207
 8861SOL    HW127482   2.882   3.320   0.138
 8861SOL    HW227483   2.847   3.360   0.293
 8862SOL     OW27484   6.797   2.534   4.746
 8862SOL    HW127485   6.833   2.446   4.775
 8862SOL    HW227486   6.766   2.586   4.826
 8863SOL     OW27487   1.808   5.204   4.909
 8863SOL    HW127488   1.759   5.290   4.919
 8863SOL    HW227489   1.861   5.186   4.992
 8864SOL     OW27490   0.814   2.766   6.085
 8864SOL    HW127491   0.745   2.722   6.141
 8864SOL    HW227492   0.802   2.739   5.989
 8865SOL     OW27493   2.363   2.324   6.600
 8865SOL    HW127494   2.387   2.263   6.525
 8865SOL    HW227495   2.426   2.308   6.677
 8866SOL     OW27496   3.845   0.016   4.521
 8866SOL    HW127497   3.872   6.950   4.486
 8866SOL    HW227498   3.917   0.082   4.501
 8867SOL     OW27499   7.018   3.025   3.790
 8867SOL    HW127500   0.005   3.120   3.817
 8867SOL    HW227501   0.025   2.965   3.864
 8868SOL     OW27502   4.051   3.579   1.015
 8868SOL    HW127503   4.046   3.494   1.068
 8868SOL    HW227504   3.975   3.638   1.039
 8869SOL     OW27505   5.470   2.694   4.138
 8869SOL    HW127506   5.524   2.778   4.149
 8869SOL    HW227507   5.432   2.691   4.046
 8870SOL     OW27508   4.252   1.716   1.020
 8870SOL    HW127509   4.267   1.619   1.002
 8870SOL    HW227510   4.171   1.727   1.077
 8871SOL     OW27511   2.196   2.129   4.841
 8871SOL    HW127512   2.254   2.105   4.763
 8871SOL    HW227513   2.167   2.224   4.833
 8872SOL     OW27514   1.788   3.165   3.733
 8872SOL    HW127515   1.809   3.223   3.654
 8872SOL    HW227516   1.832   3.202   3.815
 8873SOL     OW27517   0.310   6.076   4.816
 8873SOL    HW127518   0.373   6.003   4.841
 8873SOL    HW227519   0.216   6.045   4.830
 8874SOL     OW27520   2.092   1.224   0.254
 8874SOL    HW127521   2.137   1.230   0.343
 8874SOL    HW227522   2.160   1.212   0.182
 8875SOL     OW27523   1.660   2.138   4.379
 8875SOL    HW127524   1.566   2.110   4.394
 8875SOL    HW227525   1.697   2.180   4.462
 8876SOL     OW27526   1.770   6.922   4.293
 8876SOL    HW127527   1.827   6.842   4.278
 8876SOL    HW227528   1.679   6.907   4.254
 8877SOL     OW27529   2.756   6.723   5.046
 8877SOL    HW127530   2.670   6.722   4.996
 8877SOL    HW227531   2.821   6.661   5.002
 8878SOL     OW27532   5.653   4.649   6.887
 8878SOL    HW127533   5.691   4.742   6.887
 8878SOL    HW227534   5.554   4.653   6.874
 8879SOL     OW27535   4.706   5.570   4.557
 8879SOL    HW127536   4.639   5.644   4.568
 8879SOL    HW227537   4.792   5.608   4.522
 8880SOL     OW27538   0.206   5.581   5.614
 8880SOL    HW127539   0.241   5.538   5.698
 8880SOL    HW227540   0.244   5.673   5.605
 8881SOL     OW27541   6.834   0.544   1.856
 8881SOL    HW127542   6.835   0.643   1.845
 8881SOL    HW227543   6.740   0.513   1.873
 8882SOL     OW27544   5.724   1.831   6.600
 8882SOL    HW127545   5.816   1.831   6.640
 8882SOL    HW227546   5.694   1.737   6.586
 8883SOL     OW27547   6.929   1.262   5.372
 8883SOL    HW127548   7.008   1.313   5.406
 8883SOL    HW227549   6.845   1.301   5.409
 8884SOL     OW27550   6.361   0.336   5.547
 8884SOL    HW127551   6.377   0.256   5.606
 8884SOL    HW227552   6.344   0.416   5.604
 8885SOL     OW27553   4.679   3.834   1.355
 8885SOL    HW127554   4.690   3.735   1.354
 8885SOL    HW227555   4.760   3.878   1.316
 8886SOL     OW27556   3.162   0.162   6.872
 8886SOL    HW127557   3.114   0.074   6.866
 8886SOL    HW227558   3.251   0.148   6.915
 8887SOL     OW27559   2.510   0.786   0.932
 8887SOL    HW127560   2.604   0.820   0.938
 8887SOL    HW227561   2.454   0.853   0.884
 8888SOL     OW27562   3.073   1.638   2.696
 8888SOL    HW127563   3.107   1.624   2.603
 8888SOL    HW227564   3.002   1.709   2.695
 8889SOL     OW27565   4.018   0.411   5.438
 8889SOL    HW127566   4.029   0.423   5.536
 8889SOL    HW227567   4.057   0.324   5.410
 8890SOL     OW27568   0.896   4.962   4.341
 8890SOL    HW127569   0.798   4.950   4.328
 8890SOL    HW227570   0.945   4.887   4.298
 8891SOL     OW27571   3.688   2.072   6.757
 8891SOL    HW127572   3.624   2.002   6.791
 8891SOL    HW227573   3.654   2.163   6.784
 8892SOL     OW27574   0.517   6.062   2.842
 8892SOL    HW127575   0.512   5.967   2.812
 8892SOL    HW227576   0.533   6.121   2.763
 8893SOL     OW27577   0.688   1.360   1.226
 8893SOL    HW127578   0.676   1.282   1.288
 8893SOL    HW227579   0.733   1.329   1.142
 8894SOL     OW27580   4.049   3.353   6.424
 8894SOL    HW127581   4.086   3.366   6.332
 8894SOL    HW227582   4.000   3.435   6.452
 8895SOL     OW27583   0.496   6.643   2.322
 8895SOL    HW127584   0.555   6.580   2.373
 8895SOL    HW227585   0.509   6.629   2.224
 8896SOL     OW27586   1.856   3.923   4.817
 8896SOL    HW127587   1.956   3.923   4.809
 8896SOL    HW227588   1.819   4.003   4.769
 8897SOL     OW27589   1.481   2.102   1.619
 8897SOL    HW127590   1.569   2.064   1.592
 8897SOL    HW227591   1.495   2.182   1.678
 8898SOL     OW27592   5.889   3.790   5.020
 8898SOL    HW127593   5.803   3.821   4.979
 8898SOL    HW227594   5.908   3.846   5.101
 8899SOL     OW27595   2.206   4.278   0.038
 8899SOL    HW127596   2.277   4.345   0.014
 8899SOL    HW227597   2.234   4.188   0.005
 8900SOL     OW27598   5.500   2.229   3.375
 8900SOL    HW127599   5.492   2.170   3.455
 8900SOL    HW227600   5.411   2.239   3.332
 8901SOL     OW27601   2.112   6.934   2.838
 8901SOL    HW127602   2.161   6.970   2.918
 8901SOL    HW227603   2.171   6.942   2.757
 8902SOL     OW27604   1.825   5.375   5.689
 8902SOL    HW127605   1.871   5.450   5.640
 8902SOL    HW227606   1.894   5.313   5.726
 8903SOL     OW27607   1.620   1.526   3.216
 8903SOL    HW127608   1.554   1.475   3.160
 8903SOL    HW227609   1.680   1.462   3.264
 8904SOL     OW27610   1.528   5.701   3.154
 8904SOL    HW127611   1.517   5.602   3.158
 8904SOL    HW227612   1.438   5.745   3.162
 8905SOL     OW27613   2.405   4.079   5.420
 8905SOL    HW127614   2.362   4.015   5.484
 8905SOL    HW227615   2.415   4.035   5.331
 8906SOL     OW27616   0.896   5.722   5.720
 8906SOL    HW127617   0.950   5.665   5.658
 8906SOL    HW227618   0.929   5.708   5.814
 8907SOL     OW27619   3.407   2.831   4.990
 8907SOL    HW127620   3.333   2.765   4.979
 8907SOL    HW227621   3.371   2.916   5.027
 8908SOL     OW27622   0.344   2.564   1.058
 8908SOL    HW127623   0.387   2.642   1.012
 8908SOL    HW227624   0.329   2.587   1.155
 8909SOL     OW27625   2.781   0.433   5.843
 8909SOL    HW127626   2.845   0.502   5.808
 8909SOL    HW227627   2.807   0.408   5.937
 8910SOL     OW27628   3.428   3.837   6.726
 8910SOL    HW127629   3.417   3.911   6.792
 8910SOL    HW227630   3.477   3.871   6.646
 8911SOL     OW27631   3.257   2.006   3.911
 8911SOL    HW127632   3.345   1.968   3.939
 8911SOL    HW227633   3.196   1.932   3.883
 8912SOL     OW27634   5.070   2.954   5.855
 8912SOL    HW127635   5.156   2.994   5.822
 8912SOL    HW227636   4.996   2.979   5.793
 8913SOL     OW27637   5.124   3.724   0.693
 8913SOL    HW127638   5.150   3.809   0.739
 8913SOL    HW227639   5.091   3.746   0.601
 8914SOL     OW27640   4.304   2.158   4.740
 8914SOL    HW127641   4.350   2.070   4.726
 8914SOL    HW227642   4.233   2.170   4.670
 8915SOL     OW27643   1.141   5.063   1.807
 8915SOL    HW127644   1.140   5.161   1.829
 8915SOL    HW227645   1.175   5.012   1.886
 8916SOL     OW27646   6.722   3.575   1.875
 8916SOL    HW127647   6.651   3.644   1.868
 8916SOL    HW227648   6.695   3.493   1.824
 8917SOL     OW27649   6.022   5.553   6.099
 8917SOL    HW127650   5.965   5.561   6.180
 8917SOL    HW227651   6.105   5.501   6.121
 8918SOL     OW27652   4.423   4.811   6.568
 8918SOL    HW127653   4.508   4.789   6.616
 8918SOL    HW227654   4.442   4.875   6.494
 8919SOL     OW27655   2.002   4.599   0.902
 8919SOL    HW127656   1.997   4.540   0.821
 8919SOL    HW227657   2.096   4.634   0.912
 8920SOL     OW27658   6.303   5.963   5.906
 8920SOL    HW127659   6.350   5.875   5.918
 8920SOL    HW227660   6.232   5.953   5.837
 8921SOL     OW27661   1.757   6.982   3.574
 8921SOL    HW127662   1.706   6.922   3.637
 8921SOL    HW227663   1.713   6.981   3.484
 8922SOL     OW27664   6.312   4.112   7.007
 8922SOL    HW127665   6.314   4.161   0.070
 8922SOL    HW227666   6.286   4.175   6.934
 8923SOL     OW27667   1.938   4.322   5.417
 8923SOL    HW127668   2.023   4.269   5.423
 8923SOL    HW227669   1.916   4.361   5.506
 8924SOL     OW27670   2.842   5.749   5.482
 8924SOL    HW127671   2.793   5.679   5.430
 8924SOL    HW227672   2.879   5.817   5.418
 8925SOL     OW27673   6.410   6.507   1.956
 8925SOL    HW127674   6.475   6.539   1.886
 8925SOL    HW227675   6.445   6.530   2.046
 8926SOL     OW27676   5.956   1.641   0.624
 8926SOL    HW127677   5.988   1.642   0.719
 8926SOL    HW227678   5.857   1.624   0.622
 8927SOL     OW27679   2.566   1.988   5.478
 8927SOL    HW127680   2.662   1.996   5.452
 8927SOL    HW227681   2.512   2.053   5.424
 8928SOL     OW27682   0.070   0.110   5.078
 8928SOL    HW127683   0.046   0.178   5.008
 8928SOL    HW227684   0.112   0.031   5.034
 8929SOL     OW27685   6.004   3.706   4.108
 8929SOL    HW127686   6.004   3.701   4.008
 8929SOL    HW227687   6.021   3.800   4.136
 8930SOL     OW27688   0.696   5.179   4.965
 8930SOL    HW127689   0.793   5.175   4.942
 8930SOL    HW227690   0.678   5.260   5.020
 8931SOL     OW27691   5.551   1.114   0.984
 8931SOL    HW127692   5.563   1.032   1.040
 8931SOL    HW227693   5.596   1.192   1.028
 8932SOL     OW27694   6.888   0.416   6.870
 8932SOL    HW127695   6.945   0.353   6.817
 8932SOL    HW227696   6.795   0.417   6.831
 8933SOL     OW27697   1.602   6.544   5.699
 8933SOL    HW127698   1.649   6.460   5.723
 8933SOL    HW227699   1.667   6.619   5.693
 8934SOL     OW27700   4.319   6.649   2.980
 8934SOL    HW127701   4.219   6.659   2.974
 8934SOL    HW227702   4.358   6.649   2.888
 8935SOL     OW27703   5.588   2.843   3.326
 8935SOL    HW127704   5.605   2.777   3.253
 8935SOL    HW227705   5.495   2.879   3.317
 8936SOL     OW27706   1.492   4.715   2.349
 8936SOL    HW127707   1.421   4.718   2.419
 8936SOL    HW227708   1.454   4.680   2.263
 8937SOL     OW27709   4.788   6.883   5.053
 8937SOL    HW127710   4.797   6.928   5.142
 8937SOL    HW227711   4.860   6.814   5.043
 8938SOL     OW27712   5.872   0.317   1.494
 8938SOL    HW127713   5.772   0.315   1.496
 8938SOL    HW227714   5.903   0.378   1.421
 8939SOL     OW27715   6.734   3.133   3.776
 8939SOL    HW127716   6.690   3.089   3.698
 8939SOL    HW227717   6.814   3.080   3.804
 8940SOL     OW27718   6.242   2.504   0.665
 8940SOL    HW127719   6.172   2.450   0.619
 8940SOL    HW227720   6.259   2.466   0.756
 8941SOL     OW27721   4.319   2.571   1.748
 8941SOL    HW127722   4.357   2.618   1.668
 8941SOL    HW227723   4.338   2.473   1.742
 8942SOL     OW27724   5.804   4.076   4.775
 8942SOL    HW127725   5.741   4.091   4.698
 8942SOL    HW227726   5.752   4.050   4.856
 8943SOL     OW27727   4.428   4.254   0.346
 8943SOL    HW127728   4.367   4.212   0.413
 8943SOL    HW227729   4.432   4.353   0.362
 8944SOL     OW27730   5.684   5.507   5.082
 8944SOL    HW127731   5.754   5.525   5.013
 8944SOL    HW227732   5.604   5.465   5.038
 8945SOL     OW27733   5.174   4.195   3.615
 8945SOL    HW127734   5.176   4.294   3.626
 8945SOL    HW227735   5.096   4.169   3.557
 8946SOL     OW27736   4.658   0.774   5.445
 8946SOL    HW127737   4.694   0.684   5.467
 8946SOL    HW227738   4.729   0.843   5.459
 8947SOL     OW27739   2.309   4.990   6.390
 8947SOL    HW127740   2.266   5.056   6.329
 8947SOL    HW227741   2.376   5.037   6.447
 8948SOL     OW27742   5.865   1.257   2.650
 8948SOL    HW127743   5.808   1.202   2.588
 8948SOL    HW227744   5.896   1.339   2.602
 8949SOL     OW27745   4.025   6.319   0.716
 8949SOL    HW127746   3.996   6.295   0.809
 8949SOL    HW227747   4.075   6.405   0.717
 8950SOL     OW27748   3.634   3.467   0.757
 8950SOL    HW127749   3.657   3.527   0.833
 8950SOL    HW227750   3.569   3.397   0.788
 8951SOL     OW27751   1.917   0.738   4.429
 8951SOL    HW127752   1.839   0.735   4.366
 8951SOL    HW227753   1.893   0.693   4.515
 8952SOL     OW27754   2.078   4.196   4.271
 8952SOL    HW127755   2.098   4.279   4.219
 8952SOL    HW227756   2.092   4.213   4.369
 8953SOL     OW27757   1.200   4.655   0.884
 8953SOL    HW127758   1.151   4.572   0.910
 8953SOL    HW227759   1.293   4.651   0.920
 8954SOL     OW27760   2.472   4.397   5.757
 8954SOL    HW127761   2.520   4.346   5.829
 8954SOL    HW227762   2.508   4.369   5.668
 8955SOL     OW27763   5.313   2.670   4.463
 8955SOL    HW127764   5.331   2.753   4.410
 8955SOL    HW227765   5.281   2.597   4.402
 8956SOL     OW27766   0.804   5.788   6.944
 8956SOL    HW127767   0.817   5.689   6.938
 8956SOL    HW227768   0.822   5.818   0.014
 8957SOL     OW27769   6.958   6.173   3.051
 8957SOL    HW127770   0.018   6.118   3.056
 8957SOL    HW227771   6.977   6.257   3.001
 8958SOL     OW27772   1.914   2.817   4.966
 8958SOL    HW127773   1.994   2.823   5.026
 8958SOL    HW227774   1.913   2.895   4.904
 8959SOL     OW27775   6.884   2.546   2.710
 8959SOL    HW127776   6.947   2.592   2.648
 8959SOL    HW227777   6.797   2.530   2.662
 8960SOL     OW27778   5.509   4.569   3.317
 8960SOL    HW127779   5.507   4.546   3.414
 8960SOL    HW227780   5.435   4.520   3.270
 8961SOL     OW27781   2.074   1.490   4.868
 8961SOL    HW127782   1.993   1.547   4.884
 8961SOL    HW227783   2.046   1.406   4.822
 8962SOL     OW27784   6.853   5.624   2.148
 8962SOL    HW127785   6.781   5.673   2.098
 8962SOL    HW227786   6.893   5.554   2.088
 8963SOL     OW27787   4.998   6.765   5.353
 8963SOL    HW127788   5.079   6.823   5.343
 8963SOL    HW227789   5.025   6.669   5.355
 8964SOL     OW27790   1.473   2.658   4.861
 8964SOL    HW127791   1.501   2.593   4.933
 8964SOL    HW227792   1.411   2.726   4.901
 8965SOL     OW27793   4.163   5.731   6.000
 8965SOL    HW127794   4.234   5.794   5.967
 8965SOL    HW227795   4.075   5.756   5.958
 8966SOL     OW27796   4.273   5.759   5.110
 8966SOL    HW127797   4.201   5.690   5.098
 8966SOL    HW227798   4.330   5.762   5.028
 8967SOL     OW27799   2.840   7.001   3.816
 8967SOL    HW127800   2.895   6.969   3.893
 8967SOL    HW227801   2.899   7.011   3.736
 8968SOL     OW27802   3.743   5.146   2.405
 8968SOL    HW127803   3.646   5.158   2.423
 8968SOL    HW227804   3.795   5.212   2.460
 8969SOL     OW27805   1.063   0.920   2.724
 8969SOL    HW127806   1.030   0.906   2.631
 8969SOL    HW227807   1.163   0.930   2.723
 8970SOL     OW27808   1.826   0.265   3.865
 8970SOL    HW127809   1.862   0.257   3.773
 8970SOL    HW227810   1.730   0.291   3.862
 8971SOL     OW27811   3.566   4.948   6.986
 8971SOL    HW127812   3.631   4.973   6.914
 8971SOL    HW227813   3.614   4.900   0.035
 8972SOL     OW27814   6.232   3.529   6.988
 8972SOL    HW127815   6.312   3.584   7.012
 8972SOL    HW227816   6.152   3.562   0.014
 8973SOL     OW27817   1.519   2.385   3.436
 8973SOL    HW127818   1.613   2.364   3.462
 8973SOL    HW227819   1.514   2.478   3.400
 8974SOL     OW27820   2.257   4.435   4.807
 8974SOL    HW127821   2.204   4.520   4.805
 8974SOL    HW227822   2.229   4.380   4.886
 8975SOL     OW27823   0.445   5.470   6.195
 8975SOL    HW127824   0.539   5.437   6.193
 8975SOL    HW227825   0.421   5.497   6.288
 8976SOL     OW27826   6.287   0.017   2.549
 8976SOL    HW127827   6.332   0.040   2.636
 8976SOL    HW227828   6.344   0.048   2.473
 8977SOL     OW27829   6.466   4.862   5.885
 8977SOL    HW127830   6.457   4.955   5.921
 8977SOL    HW227831   6.388   4.808   5.915
 8978SOL     OW27832   5.868   5.768   6.544
 8978SOL    HW127833   5.783   5.819   6.559
 8978SOL    HW227834   5.941   5.832   6.518
 8979SOL     OW27835   1.239   4.828   4.920
 8979SOL    HW127836   1.167   4.889   4.951
 8979SOL    HW227837   1.202   4.765   4.852
 8980SOL     OW27838   3.471   0.288   6.878
 8980SOL    HW127839   3.541   0.229   6.839
 8980SOL    HW227840   3.494   0.308   6.974
 8981SOL     OW27841   4.657   3.761   6.489
 8981SOL    HW127842   4.657   3.835   6.555
 8981SOL    HW227843   4.721   3.781   6.415
 8982SOL     OW27844   0.455   1.561   2.173
 8982SOL    HW127845   0.518   1.599   2.105
 8982SOL    HW227846   0.369   1.535   2.129
 8983SOL     OW27847   1.756   6.455   2.376
 8983SOL    HW127848   1.719   6.409   2.457
 8983SOL    HW227849   1.692   6.526   2.346
 8984SOL     OW27850   0.083   0.773   4.177
 8984SOL    HW127851   0.137   0.690   4.193
 8984SOL    HW227852   0.067   0.819   4.265
 8985SOL     OW27853   5.079   1.945   1.481
 8985SOL    HW127854   5.035   1.950   1.570
 8985SOL    HW227855   5.009   1.953   1.409
 8986SOL     OW27856   6.895   4.619   0.504
 8986SOL    HW127857   6.811   4.673   0.505
 8986SOL    HW227858   6.971   4.677   0.478
 8987SOL     OW27859   2.253   6.653   1.923
 8987SOL    HW127860   2.174   6.630   1.980
 8987SOL    HW227861   2.266   6.752   1.923
 8988SOL     OW27862   1.969   6.247   1.675
 8988SOL    HW127863   1.986   6.218   1.769
 8988SOL    HW227864   1.966   6.347   1.671
 8989SOL     OW27865   5.256   2.310   3.251
 8989SOL    HW127866   5.328   2.373   3.225
 8989SOL    HW227867   5.198   2.290   3.172
 8990SOL     OW27868   3.488   1.109   2.397
 8990SOL    HW127869   3.436   1.025   2.380
 8990SOL    HW227870   3.468   1.175   2.325
 8991SOL     OW27871   1.221   1.516   0.742
 8991SOL    HW127872   1.163   1.575   0.686
 8991SOL    HW227873   1.312   1.510   0.700
 8992SOL     OW27874   1.037   3.956   6.301
 8992SOL    HW127875   1.011   3.999   6.388
 8992SOL    HW227876   0.972   3.984   6.230
 8993SOL     OW27877   5.952   3.608   4.485
 8993SOL    HW127878   5.941   3.703   4.455
 8993SOL    HW227879   5.980   3.607   4.581
 8994SOL     OW27880   0.918   5.457   2.794
 8994SOL    HW127881   0.958   5.513   2.866
 8994SOL    HW227882   0.878   5.516   2.724
 8995SOL     OW27883   2.141   3.943   4.764
 8995SOL    HW127884   2.191   3.956   4.850
 8995SOL    HW227885   2.206   3.919   4.692
 8996SOL     OW27886   0.917   3.884   2.019
 8996SOL    HW127887   0.897   3.874   1.921
 8996SOL    HW227888   1.009   3.922   2.030
 8997SOL     OW27889   4.617   2.031   5.501
 8997SOL    HW127890   4.630   1.934   5.524
 8997SOL    HW227891   4.524   2.045   5.468
 8998SOL     OW27892   0.736   1.635   6.018
 8998SOL    HW127893   0.643   1.636   6.053
 8998SOL    HW227894   0.791   1.572   6.074
 8999SOL     OW27895   5.680   1.005   4.863
 8999SOL    HW127896   5.585   1.037   4.873
 8999SOL    HW227897   5.681   0.905   4.857
 9000SOL     OW27898   2.103   4.439   0.673
 9000SOL    HW127899   2.043   4.380   0.619
 9000SOL    HW227900   2.138   4.513   0.615
 9001SOL     OW27901   1.729   4.874   3.308
 9001SOL    HW127902   1.820   4.912   3.326
 9001SOL    HW227903   1.660   4.938   3.340
 9002SOL     OW27904   4.890   4.564   6.242
 9002SOL    HW127905   4.942   4.486   6.277
 9002SOL    HW227906   4.802   4.532   6.207
 9003SOL     OW27907   5.451   3.494   6.214
 9003SOL    HW127908   5.475   3.508   6.118
 9003SOL    HW227909   5.353   3.507   6.227
 9004SOL     OW27910   4.345   5.465   0.461
 9004SOL    HW127911   4.434   5.489   0.423
 9004SOL    HW227912   4.356   5.439   0.557
 9005SOL     OW27913   4.775   2.254   3.011
 9005SOL    HW127914   4.707   2.199   2.964
 9005SOL    HW227915   4.806   2.328   2.952
 9006SOL     OW27916   1.661   6.907   0.798
 9006SOL    HW127917   1.673   6.981   0.732
 9006SOL    HW227918   1.640   6.822   0.750
 9007SOL     OW27919   2.771   6.381   4.239
 9007SOL    HW127920   2.720   6.441   4.178
 9007SOL    HW227921   2.734   6.388   4.332
 9008SOL     OW27922   6.557   4.375   2.938
 9008SOL    HW127923   6.508   4.459   2.958
 9008SOL    HW227924   6.492   4.300   2.926
 9009SOL     OW27925   3.875   6.516   1.371
 9009SOL    HW127926   3.879   6.605   1.328
 9009SOL    HW227927   3.794   6.467   1.340
 9010SOL     OW27928   1.026   6.121   5.160
 9010SOL    HW127929   1.015   6.022   5.168
 9010SOL    HW227930   1.123   6.145   5.166
 9011SOL     OW27931   4.184   1.864   1.732
 9011SOL    HW127932   4.236   1.781   1.713
 9011SOL    HW227933   4.204   1.895   1.825
 9012SOL     OW27934   6.481   5.844   1.700
 9012SOL    HW127935   6.386   5.868   1.721
 9012SOL    HW227936   6.496   5.747   1.721
 9013SOL     OW27937   4.918   6.035   3.166
 9013SOL    HW127938   4.931   6.066   3.072
 9013SOL    HW227939   4.995   5.977   3.193
 9014SOL     OW27940   3.582   1.243   0.615
 9014SOL    HW127941   3.568   1.148   0.643
 9014SOL    HW227942   3.631   1.292   0.686
 9015SOL     OW27943   6.660   1.356   5.400
 9015SOL    HW127944   6.689   1.450   5.416
 9015SOL    HW227945   6.561   1.355   5.384
 9016SOL     OW27946   6.668   6.224   5.857
 9016SOL    HW127947   6.748   6.164   5.845
 9016SOL    HW227948   6.594   6.172   5.899
 9017SOL     OW27949   0.311   3.873   4.032
 9017SOL    HW127950   0.359   3.786   4.041
 9017SOL    HW227951   0.224   3.858   3.983
 9018SOL     OW27952   3.653   2.408   5.533
 9018SOL    HW127953   3.726   2.463   5.574
 9018SOL    HW227954   3.565   2.450   5.554
 9019SOL     OW27955   1.772   6.667   0.211
 9019SOL    HW127956   1.777   6.753   0.263
 9019SOL    HW227957   1.703   6.675   0.139
 9020SOL     OW27958   0.413   4.873   2.922
 9020SOL    HW127959   0.424   4.938   2.846
 9020SOL    HW227960   0.320   4.878   2.957
 9021SOL     OW27961   6.722   5.979   5.291
 9021SOL    HW127962   6.740   6.077   5.281
 9021SOL    HW227963   6.677   5.945   5.209
 9022SOL     OW27964   3.131   1.007   6.625
 9022SOL    HW127965   3.105   0.914   6.597
 9022SOL    HW227966   3.227   1.007   6.653
 9023SOL     OW27967   3.542   2.893   2.834
 9023SOL    HW127968   3.581   2.891   2.742
 9023SOL    HW227969   3.545   2.801   2.874
 9024SOL     OW27970   2.076   0.130   6.735
 9024SOL    HW127971   1.977   0.118   6.748
 9024SOL    HW227972   2.108   0.205   6.792
 9025SOL     OW27973   6.822   4.569   1.178
 9025SOL    HW127974   6.911   4.574   1.134
 9025SOL    HW227975   6.788   4.475   1.175
 9026SOL     OW27976   3.283   3.389   5.262
 9026SOL    HW127977   3.211   3.339   5.309
 9026SOL    HW227978   3.241   3.452   5.196
 9027SOL     OW27979   2.391   2.573   2.884
 9027SOL    HW127980   2.378   2.659   2.933
 9027SOL    HW227981   2.332   2.572   2.803
 9028SOL     OW27982   2.491   4.587   5.049
 9028SOL    HW127983   2.462   4.673   5.008
 9028SOL    HW227984   2.590   4.577   5.039
 9029SOL     OW27985   4.848   5.212   3.241
 9029SOL    HW127986   4.774   5.279   3.234
 9029SOL    HW227987   4.867   5.193   3.337
 9030SOL     OW27988   3.219   1.940   1.578
 9030SOL    HW127989   3.315   1.947   1.603
 9030SOL    HW227990   3.206   1.861   1.517
 9031SOL     OW27991   2.029   0.806   0.145
 9031SOL    HW127992   2.081   0.794   0.230
 9031SOL    HW227993   2.016   0.717   0.102
 9032SOL     OW27994   1.718   1.543   2.229
 9032SOL    HW127995   1.683   1.471   2.290
 9032SOL    HW227996   1.652   1.617   2.222
 9033SOL     OW27997   1.467   3.546   2.709
 9033SOL    HW127998   1.408   3.567   2.631
 9033SOL    HW227999   1.455   3.451   2.735
 9034SOL     OW28000   2.171   0.497   5.899
 9034SOL    HW128001   2.194   0.572   5.838
 9034SOL    HW228002   2.098   0.525   5.961
 9035SOL     OW28003   6.767   1.332   4.357
 9035SOL    HW128004   6.817   1.274   4.293
 9035SOL    HW228005   6.749   1.280   4.441
 9036SOL     OW28006   1.225   1.996   4.957
 9036SOL    HW128007   1.281   2.078   4.969
 9036SOL    HW228008   1.237   1.961   4.864
 9037SOL     OW28009   2.187   4.034   5.870
 9037SOL    HW128010   2.238   3.954   5.839
 9037SOL    HW228011   2.218   4.115   5.820
 9038SOL     OW28012   5.791   6.793   5.523
 9038SOL    HW128013   5.749   6.871   5.477
 9038SOL    HW228014   5.890   6.798   5.511
 9039SOL     OW28015   2.399   5.499   5.906
 9039SOL    HW128016   2.413   5.593   5.876
 9039SOL    HW228017   2.432   5.489   6.000
 9040SOL     OW28018   2.426   1.408   1.643
 9040SOL    HW128019   2.513   1.409   1.593
 9040SOL    HW228020   2.368   1.334   1.609
 9041SOL     OW28021   1.431   3.280   6.987
 9041SOL    HW128022   1.349   3.289   0.020
 9041SOL    HW228023   1.506   3.243   0.018
 9042SOL     OW28024   2.713   5.188   3.960
 9042SOL    HW128025   2.647   5.123   3.923
 9042SOL    HW228026   2.788   5.138   4.004
 9043SOL     OW28027   6.635   2.416   6.854
 9043SOL    HW128028   6.670   2.496   6.903
 9043SOL    HW228029   6.542   2.435   6.821
 9044SOL     OW28030   6.373   4.784   0.212
 9044SOL    HW128031   6.468   4.758   0.228
 9044SOL    HW228032   6.363   4.882   0.224
 9045SOL     OW28033   3.786   6.121   4.125
 9045SOL    HW128034   3.718   6.050   4.141
 9045SOL    HW228035   3.843   6.095   4.047
 9046SOL     OW28036   3.309   3.959   5.707
 9046SOL    HW128037   3.348   3.952   5.615
 9046SOL    HW228038   3.258   4.045   5.715
 9047SOL     OW28039   1.236   4.515   4.977
 9047SOL    HW128040   1.172   4.507   4.900
 9047SOL    HW228041   1.201   4.581   5.043
 9048SOL     OW28042   1.776   3.033   4.783
 9048SOL    HW128043   1.697   3.007   4.839
 9048SOL    HW228044   1.749   3.040   4.688
 9049SOL     OW28045   4.946   5.811   6.596
 9049SOL    HW128046   4.904   5.897   6.626
 9049SOL    HW228047   4.878   5.737   6.603
 9050SOL     OW28048   0.583   6.263   5.436
 9050SOL    HW128049   0.545   6.249   5.345
 9050SOL    HW228050   0.658   6.329   5.431
 9051SOL     OW28051   5.149   6.195   6.072
 9051SOL    HW128052   5.091   6.121   6.035
 9051SOL    HW228053   5.091   6.263   6.117
 9052SOL     OW28054   2.276   5.550   4.712
 9052SOL    HW128055   2.371   5.520   4.707
 9052SOL    HW228056   2.219   5.489   4.658
 9053SOL     OW28057   2.723   1.631   3.282
 9053SOL    HW128058   2.689   1.546   3.321
 9053SOL    HW228059   2.670   1.654   3.200
 9054SOL     OW28060   3.593   0.256   1.492
 9054SOL    HW128061   3.553   0.165   1.501
 9054SOL    HW228062   3.665   0.268   1.560
 9055SOL     OW28063   1.313   1.331   4.372
 9055SOL    HW128064   1.236   1.380   4.414
 9055SOL    HW228065   1.350   1.265   4.436
 9056SOL     OW28066   5.845   1.379   2.890
 9056SOL    HW128067   5.839   1.329   2.804
 9056SOL    HW228068   5.923   1.441   2.887
 9057SOL     OW28069   4.276   6.627   6.826
 9057SOL    HW128070   4.209   6.641   6.899
 9057SOL    HW228071   4.294   6.714   6.780
 9058SOL     OW28072   1.756   2.650   5.140
 9058SOL    HW128073   1.804   2.716   5.082
 9058SOL    HW228074   1.822   2.590   5.185
 9059SOL     OW28075   6.904   0.871   3.164
 9059SOL    HW128076   6.992   0.824   3.159
 9059SOL    HW228077   6.834   0.815   3.120
 9060SOL     OW28078   0.651   5.130   1.759
 9060SOL    HW128079   0.671   5.194   1.685
 9060SOL    HW228080   0.719   5.140   1.831
 9061SOL     OW28081   5.528   4.161   2.740
 9061SOL    HW128082   5.515   4.206   2.829
 9061SOL    HW228083   5.624   4.165   2.714
 9062SOL     OW28084   0.708   5.680   2.989
 9062SOL    HW128085   0.743   5.596   3.032
 9062SOL    HW228086   0.781   5.722   2.935
 9063SOL     OW28087   4.606   1.579   1.893
 9063SOL    HW128088   4.539   1.515   1.930
 9063SOL    HW228089   4.593   1.669   1.935
 9064SOL     OW28090   0.857   5.286   3.384
 9064SOL    HW128091   0.886   5.289   3.480
 9064SOL    HW228092   0.938   5.276   3.326
 9065SOL     OW28093   2.633   4.519   5.517
 9065SOL    HW128094   2.563   4.461   5.474
 9065SOL    HW228095   2.677   4.575   5.446
 9066SOL     OW28096   4.992   4.965   4.810
 9066SOL    HW128097   4.967   5.034   4.742
 9066SOL    HW228098   5.090   4.946   4.803
 9067SOL     OW28099   1.329   6.276   4.076
 9067SOL    HW128100   1.251   6.285   4.139
 9067SOL    HW228101   1.364   6.367   4.053
 9068SOL     OW28102   4.736   0.060   5.623
 9068SOL    HW128103   4.736   0.043   5.722
 9068SOL    HW228104   4.698   7.004   5.576
 9069SOL     OW28105   5.517   2.190   1.356
 9069SOL    HW128106   5.481   2.156   1.269
 9069SOL    HW228107   5.478   2.137   1.431
 9070SOL     OW28108   1.431   1.642   5.963
 9070SOL    HW128109   1.514   1.695   5.952
 9070SOL    HW228110   1.381   1.638   5.876
 9071SOL     OW28111   4.766   2.204   6.227
 9071SOL    HW128112   4.785   2.213   6.325
 9071SOL    HW228113   4.827   2.264   6.175
 9072SOL     OW28114   4.855   0.827   2.817
 9072SOL    HW128115   4.944   0.820   2.773
 9072SOL    HW228116   4.862   0.886   2.898
 9073SOL     OW28117   4.779   1.687   5.266
 9073SOL    HW128118   4.723   1.760   5.227
 9073SOL    HW228119   4.874   1.700   5.239
 9074SOL     OW28120   1.839   0.940   1.712
 9074SOL    HW128121   1.825   0.847   1.679
 9074SOL    HW228122   1.916   0.942   1.776
 9075SOL     OW28123   6.025   6.098   0.905
 9075SOL    HW128124   5.960   6.164   0.942
 9075SOL    HW228125   6.052   6.034   0.976
 9076SOL     OW28126   6.640   0.464   2.586
 9076SOL    HW128127   6.706   0.471   2.512
 9076SOL    HW228128   6.671   0.397   2.653
 9077SOL     OW28129   6.327   1.685   6.277
 9077SOL    HW128130   6.326   1.785   6.274
 9077SOL    HW228131   6.422   1.653   6.273
 9078SOL     OW28132   5.066   6.320   0.091
 9078SOL    HW128133   5.166   6.317   0.093
 9078SOL    HW228134   5.035   6.360   0.004
 9079SOL     OW28135   1.458   1.212   6.652
 9079SOL    HW128136   1.521   1.261   6.712
 9079SOL    HW228137   1.496   1.207   6.560
 9080SOL     OW28138   5.904   3.438   1.525
 9080SOL    HW128139   5.959   3.374   1.471
 9080SOL    HW228140   5.937   3.440   1.619
 9081SOL     OW28141   4.653   1.962   6.925
 9081SOL    HW128142   4.655   1.953   6.826
 9081SOL    HW228143   4.584   1.901   6.964
 9082SOL     OW28144   3.654   5.831   6.068
 9082SOL    HW128145   3.618   5.876   5.986
 9082SOL    HW228146   3.679   5.737   6.046
 9083SOL     OW28147   4.285   5.429   6.393
 9083SOL    HW128148   4.209   5.494   6.387
 9083SOL    HW228149   4.258   5.350   6.448
 9084SOL     OW28150   6.693   2.325   6.033
 9084SOL    HW128151   6.683   2.367   6.124
 9084SOL    HW228152   6.604   2.320   5.989
 9085SOL     OW28153   2.151   4.999   6.786
 9085SOL    HW128154   2.128   4.920   6.730
 9085SOL    HW228155   2.194   5.069   6.729
 9086SOL     OW28156   6.998   4.334   0.954
 9086SOL    HW128157   6.908   4.313   0.991
 9086SOL    HW228158   0.002   4.426   0.984
 9087SOL     OW28159   5.781   0.821   1.675
 9087SOL    HW128160   5.704   0.759   1.693
 9087SOL    HW228161   5.864   0.784   1.716
 9088SOL     OW28162   6.579   6.501   0.430
 9088SOL    HW128163   6.603   6.597   0.447
 9088SOL    HW228164   6.507   6.473   0.492
 9089SOL     OW28165   5.141   5.438   3.900
 9089SOL    HW128166   5.240   5.454   3.911
 9089SOL    HW228167   5.126   5.358   3.843
 9090SOL     OW28168   5.409   6.018   5.223
 9090SOL    HW128169   5.481   6.001   5.291
 9090SOL    HW228170   5.327   5.967   5.248
 9091SOL     OW28171   2.538   1.804   1.055
 9091SOL    HW128172   2.445   1.838   1.069
 9091SOL    HW228173   2.556   1.797   0.957
 9092SOL     OW28174   1.360   0.745   5.900
 9092SOL    HW128175   1.432   0.726   5.833
 9092SOL    HW228176   1.291   0.804   5.857
 9093SOL     OW28177   1.723   3.929   0.618
 9093SOL    HW128178   1.703   3.832   0.606
 9093SOL    HW228179   1.660   3.968   0.685
 9094SOL     OW28180   6.764   4.437   1.884
 9094SOL    HW128181   6.665   4.444   1.876
 9094SOL    HW228182   6.807   4.514   1.835
 9095SOL     OW28183   3.168   3.028   7.013
 9095SOL    HW128184   3.173   3.110   6.956
 9095SOL    HW228185   3.209   2.951   6.965
 9096SOL     OW28186   5.375   2.520   3.125
 9096SOL    HW128187   5.417   2.558   3.043
 9096SOL    HW228188   5.353   2.593   3.189
 9097SOL     OW28189   0.899   4.841   6.221
 9097SOL    HW128190   0.812   4.807   6.185
 9097SOL    HW228191   0.956   4.873   6.145
 9098SOL     OW28192   4.076   3.575   2.765
 9098SOL    HW128193   4.044   3.483   2.790
 9098SOL    HW228194   4.097   3.577   2.668
 9099SOL     OW28195   2.020   3.421   0.693
 9099SOL    HW128196   2.083   3.362   0.643
 9099SOL    HW228197   1.938   3.437   0.638
 9100SOL     OW28198   0.164   2.881   1.173
 9100SOL    HW128199   0.161   2.783   1.196
 9100SOL    HW228200   0.192   2.891   1.077
 9101SOL     OW28201   1.831   2.680   1.433
 9101SOL    HW128202   1.911   2.660   1.490
 9101SOL    HW228203   1.801   2.774   1.450
 9102SOL     OW28204   3.627   5.568   2.466
 9102SOL    HW128205   3.641   5.622   2.383
 9102SOL    HW228206   3.712   5.565   2.519
 9103SOL     OW28207   0.357   3.980   0.557
 9103SOL    HW128208   0.440   3.945   0.602
 9103SOL    HW228209   0.384   4.042   0.483
 9104SOL     OW28210   4.639   6.631   1.109
 9104SOL    HW128211   4.641   6.604   1.013
 9104SOL    HW228212   4.714   6.693   1.128
 9105SOL     OW28213   1.749   1.726   5.617
 9105SOL    HW128214   1.818   1.794   5.643
 9105SOL    HW228215   1.685   1.766   5.551
 9106SOL     OW28216   6.129   4.920   0.790
 9106SOL    HW128217   6.073   4.975   0.853
 9106SOL    HW228218   6.084   4.917   0.701
 9107SOL     OW28219   4.366   0.175   1.503
 9107SOL    HW128220   4.320   0.203   1.587
 9107SOL    HW228221   4.463   0.200   1.509
 9108SOL     OW28222   4.699   5.531   5.547
 9108SOL    HW128223   4.631   5.460   5.565
 9108SOL    HW228224   4.791   5.490   5.546
 9109SOL     OW28225   3.028   1.838   3.892
 9109SOL    HW128226   3.071   1.748   3.888
 9109SOL    HW228227   2.948   1.839   3.832
 9110SOL     OW28228   1.627   4.230   3.624
 9110SOL    HW128229   1.670   4.317   3.649
 9110SOL    HW228230   1.528   4.242   3.615
 9111SOL     OW28231   3.775   4.156   1.572
 9111SOL    HW128232   3.844   4.140   1.501
 9111SOL    HW228233   3.705   4.085   1.567
 9112SOL     OW28234   0.323   4.312   2.275
 9112SOL    HW128235   0.289   4.290   2.184
 9112SOL    HW228236   0.294   4.404   2.301
 9113SOL     OW28237   4.267   6.804   0.619
 9113SOL    HW128238   4.362   6.777   0.606
 9113SOL    HW228239   4.249   6.889   0.569
 9114SOL     OW28240   3.051   4.973   1.698
 9114SOL    HW128241   3.034   4.923   1.783
 9114SOL    HW228242   2.973   4.963   1.637
 9115SOL     OW28243   1.264   4.664   5.213
 9115SOL    HW128244   1.340   4.720   5.180
 9115SOL    HW228245   1.210   4.717   5.278
 9116SOL     OW28246   0.005   1.271   5.967
 9116SOL    HW128247   6.970   1.263   6.048
 9116SOL    HW228248   0.038   1.181   5.940
 9117SOL     OW28249   6.886   2.440   6.697
 9117SOL    HW128250   6.843   2.456   6.608
 9117SOL    HW228251   6.834   2.486   6.769
 9118SOL     OW28252   6.590   6.640   1.807
 9118SOL    HW128253   6.683   6.678   1.805
 9118SOL    HW228254   6.572   6.591   1.721
 9119SOL     OW28255   6.419   0.306   1.618
 9119SOL    HW128256   6.414   0.238   1.690
 9119SOL    HW228257   6.469   0.268   1.540
 9120SOL     OW28258   5.384   1.399   6.215
 9120SOL    HW128259   5.466   1.437   6.173
 9120SOL    HW228260   5.336   1.471   6.266
 9121SOL     OW28261   0.480   1.707   6.065
 9121SOL    HW128262   0.460   1.805   6.063
 9121SOL    HW228263   0.419   1.662   6.131
 9122SOL     OW28264   1.943   3.016   2.929
 9122SOL    HW128265   1.963   2.919   2.930
 9122SOL    HW228266   1.871   3.035   2.861
 9123SOL     OW28267   2.583   5.883   6.551
 9123SOL    HW128268   2.658   5.887   6.618
 9123SOL    HW228269   2.505   5.935   6.586
 9124SOL     OW28270   6.645   5.770   5.485
 9124SOL    HW128271   6.690   5.853   5.451
 9124SOL    HW228272   6.557   5.760   5.439
 9125SOL     OW28273   4.633   4.297   3.914
 9125SOL    HW128274   4.701   4.329   3.979
 9125SOL    HW228275   4.669   4.219   3.862
 9126SOL     OW28276   5.953   0.577   1.985
 9126SOL    HW128277   5.945   0.625   2.072
 9126SOL    HW228278   5.992   0.486   2.000
 9127SOL     OW28279   5.356   0.026   6.895
 9127SOL    HW128280   5.433   6.995   6.929
 9127SOL    HW228281   5.391   0.107   6.849
 9128SOL     OW28282   3.756   2.031   5.215
 9128SOL    HW128283   3.704   2.109   5.249
 9128SOL    HW228284   3.844   2.061   5.179
 9129SOL     OW28285   1.468   1.541   6.203
 9129SOL    HW128286   1.565   1.560   6.214
 9129SOL    HW228287   1.441   1.559   6.109
 9130SOL     OW28288   5.816   4.662   0.780
 9130SOL    HW128289   5.794   4.675   0.877
 9130SOL    HW228290   5.915   4.648   0.770
 9131SOL     OW28291   0.756   3.873   4.534
 9131SOL    HW128292   0.700   3.932   4.592
 9131SOL    HW228293   0.721   3.875   4.441
 9132SOL     OW28294   6.599   3.464   4.387
 9132SOL    HW128295   6.516   3.408   4.384
 9132SOL    HW228296   6.598   3.520   4.470
 9133SOL     OW28297   2.295   4.434   0.889
 9133SOL    HW128298   2.229   4.467   0.821
 9133SOL    HW228299   2.351   4.510   0.921
 9134SOL     OW28300   2.840   6.307   6.656
 9134SOL    HW128301   2.855   6.322   6.558
 9134SOL    HW228302   2.904   6.238   6.689
 9135SOL     OW28303   6.319   6.273   3.741
 9135SOL    HW128304   6.400   6.218   3.758
 9135SOL    HW228305   6.338   6.340   3.669
 9136SOL     OW28306   5.033   5.540   5.640
 9136SOL    HW128307   5.062   5.607   5.708
 9136SOL    HW228308   5.051   5.576   5.548
 9137SOL     OW28309   4.080   0.920   1.794
 9137SOL    HW128310   4.062   1.009   1.834
 9137SOL    HW228311   4.026   0.850   1.842
 9138SOL     OW28312   5.551   5.005   6.184
 9138SOL    HW128313   5.645   5.026   6.158
 9138SOL    HW228314   5.550   4.922   6.239
 9139SOL     OW28315   3.572   1.270   5.114
 9139SOL    HW128316   3.622   1.263   5.201
 9139SOL    HW228317   3.510   1.192   5.105
 9140SOL     OW28318   6.657   2.512   2.593
 9140SOL    HW128319   6.580   2.450   2.607
 9140SOL    HW228320   6.626   2.591   2.541
 9141SOL     OW28321   5.417   6.998   5.672
 9141SOL    HW128322   5.499   6.943   5.659
 9141SOL    HW228323   5.413   0.045   5.601
 9142SOL     OW28324   0.549   3.065   6.081
 9142SOL    HW128325   0.533   2.983   6.026
 9142SOL    HW228326   0.566   3.143   6.020
 9143SOL     OW28327   4.286   3.491   0.444
 9143SOL    HW128328   4.350   3.517   0.372
 9143SOL    HW228329   4.335   3.482   0.531
 9144SOL     OW28330   2.387   5.426   5.400
 9144SOL    HW128331   2.385   5.453   5.304
 9144SOL    HW228332   2.335   5.492   5.454
 9145SOL     OW28333   0.339   4.311   6.910
 9145SOL    HW128334   0.384   4.240   6.964
 9145SOL    HW228335   0.240   4.299   6.916
 9146SOL     OW28336   6.020   2.622   1.517
 9146SOL    HW128337   5.925   2.591   1.527
 9146SOL    HW228338   6.081   2.544   1.521
 9147SOL     OW28339   4.390   5.396   4.033
 9147SOL    HW128340   4.441   5.310   4.025
 9147SOL    HW228341   4.335   5.410   3.951
 9148SOL     OW28342   5.096   5.829   3.201
 9148SOL    HW128343   5.034   5.751   3.209
 9148SOL    HW228344   5.185   5.798   3.166
 9149SOL     OW28345   5.022   2.846   4.647
 9149SOL    HW128346   4.973   2.933   4.653
 9149SOL    HW228347   5.120   2.861   4.655
 9150SOL     OW28348   5.193   7.003   3.414
 9150SOL    HW128349   5.264   0.046   3.437
 9150SOL    HW228350   5.202   6.923   3.474
 9151SOL     OW28351   1.434   4.095   2.203
 9151SOL    HW128352   1.531   4.105   2.223
 9151SOL    HW228353   1.397   4.182   2.170
 9152SOL     OW28354   2.599   6.461   3.566
 9152SOL    HW128355   2.604   6.441   3.468
 9152SOL    HW228356   2.630   6.381   3.617
 9153SOL     OW28357   1.548   2.436   6.591
 9153SOL    HW128358   1.640   2.473   6.579
 9153SOL    HW228359   1.506   2.422   6.501
 9154SOL     OW28360   2.673   5.591   6.810
 9154SOL    HW128361   2.607   5.657   6.775
 9154SOL    HW228362   2.654   5.572   6.906
 9155SOL     OW28363   2.068   3.946   6.130
 9155SOL    HW128364   2.039   3.881   6.060
 9155SOL    HW228365   2.062   4.039   6.094
 9156SOL     OW28366   3.932   2.342   0.919
 9156SOL    HW128367   3.903   2.418   0.977
 9156SOL    HW228368   4.029   2.322   0.938
 9157SOL     OW28369   5.326   4.530   5.373
 9157SOL    HW128370   5.341   4.459   5.305
 9157SOL    HW228371   5.406   4.537   5.433
 9158SOL     OW28372   7.002   3.785   4.664
 9158SOL    HW128373   7.015   3.693   4.702
 9158SOL    HW228374   6.904   3.803   4.656
 9159SOL     OW28375   0.030   5.134   2.511
 9159SOL    HW128376   0.040   5.232   2.525
 9159SOL    HW228377   0.112   5.087   2.543
 9160SOL     OW28378   0.920   6.711   6.290
 9160SOL    HW128379   0.857   6.775   6.246
 9160SOL    HW228380   0.900   6.618   6.259
 9161SOL     OW28381   5.053   3.804   4.975
 9161SOL    HW128382   5.010   3.714   4.979
 9161SOL    HW228383   5.134   3.804   5.033
 9162SOL     OW28384   5.063   3.199   2.727
 9162SOL    HW128385   5.077   3.178   2.631
 9162SOL    HW228386   5.020   3.121   2.773
 9163SOL     OW28387   2.860   2.132   3.778
 9163SOL    HW128388   2.930   2.173   3.837
 9163SOL    HW228389   2.820   2.203   3.720
 9164SOL     OW28390   2.608   0.918   6.740
 9164SOL    HW128391   2.517   0.957   6.756
 9164SOL    HW228392   2.602   0.842   6.676
 9165SOL     OW28393   5.748   0.661   6.382
 9165SOL    HW128394   5.723   0.757   6.400
 9165SOL    HW228395   5.714   0.604   6.456
 9166SOL     OW28396   4.177   5.828   0.995
 9166SOL    HW128397   4.089   5.856   0.956
 9166SOL    HW228398   4.251   5.881   0.953
 9167SOL     OW28399   1.512   3.456   5.838
 9167SOL    HW128400   1.476   3.390   5.772
 9167SOL    HW228401   1.606   3.433   5.861
 9168SOL     OW28402   2.134   0.178   5.611
 9168SOL    HW128403   2.153   0.083   5.585
 9168SOL    HW228404   2.219   0.225   5.632
 9169SOL     OW28405   0.373   1.291   4.638
 9169SOL    HW128406   0.364   1.390   4.648
 9169SOL    HW228407   0.439   1.271   4.565
 9170SOL     OW28408   6.934   5.101   0.498
 9170SOL    HW128409   6.962   5.182   0.446
 9170SOL    HW228410   6.837   5.109   0.523
 9171SOL     OW28411   2.691   6.006   7.001
 9171SOL    HW128412   2.780   6.051   7.009
 9171SOL    HW228413   2.677   5.974   6.908
 9172SOL     OW28414   3.645   0.942   4.341
 9172SOL    HW128415   3.726   0.909   4.293
 9172SOL    HW228416   3.563   0.912   4.294
 9173SOL     OW28417   6.442   4.931   4.989
 9173SOL    HW128418   6.512   4.860   4.979
 9173SOL    HW228419   6.485   5.021   4.985
 9174SOL     OW28420   6.285   4.329   0.184
 9174SOL    HW128421   6.244   4.417   0.163
 9174SOL    HW228422   6.213   4.262   0.204
 9175SOL     OW28423   2.400   6.150   5.821
 9175SOL    HW128424   2.407   6.232   5.765
 9175SOL    HW228425   2.345   6.169   5.902
 9176SOL     OW28426   2.025   1.185   5.169
 9176SOL    HW128427   2.067   1.115   5.228
 9176SOL    HW228428   2.080   1.268   5.172
 9177SOL     OW28429   1.383   3.979   4.185
 9177SOL    HW128430   1.285   3.962   4.182
 9177SOL    HW228431   1.419   3.991   4.093
 9178SOL     OW28432   2.178   5.732   0.956
 9178SOL    HW128433   2.128   5.646   0.949
 9178SOL    HW228434   2.160   5.788   0.876
 9179SOL     OW28435   2.962   5.225   4.204
 9179SOL    HW128436   2.968   5.134   4.163
 9179SOL    HW228437   2.880   5.230   4.262
 9180SOL     OW28438   6.375   2.293   3.682
 9180SOL    HW128439   6.420   2.206   3.701
 9180SOL    HW228440   6.287   2.276   3.639
 9181SOL     OW28441   4.478   2.016   2.611
 9181SOL    HW128442   4.561   2.070   2.628
 9181SOL    HW228443   4.470   1.998   2.513
 9182SOL     OW28444   1.559   5.877   2.258
 9182SOL    HW128445   1.638   5.917   2.305
 9182SOL    HW228446   1.485   5.862   2.323
 9183SOL     OW28447   5.232   6.172   0.715
 9183SOL    HW128448   5.139   6.208   0.725
 9183SOL    HW228449   5.283   6.228   0.650
 9184SOL     OW28450   5.370   6.807   0.602
 9184SOL    HW128451   5.358   6.801   0.701
 9184SOL    HW228452   5.467   6.793   0.579
 9185SOL     OW28453   4.020   0.713   5.334
 9185SOL    HW128454   4.022   0.713   5.434
 9185SOL    HW228455   3.929   0.687   5.302
 9186SOL     OW28456   6.480   0.788   4.739
 9186SOL    HW128457   6.496   0.866   4.680
 9186SOL    HW228458   6.520   0.706   4.698
 9187SOL     OW28459   2.088   6.663   2.148
 9187SOL    HW128460   2.041   6.625   2.228
 9187SOL    HW228461   2.160   6.726   2.179
 9188SOL     OW28462   2.808   7.005   1.317
 9188SOL    HW128463   2.832   0.078   1.306
 9188SOL    HW228464   2.870   6.949   1.262
 9189SOL     OW28465   5.360   5.514   2.606
 9189SOL    HW128466   5.370   5.515   2.706
 9189SOL    HW228467   5.351   5.420   2.575
 9190SOL     OW28468   1.913   5.513   0.148
 9190SOL    HW128469   2.011   5.496   0.147
 9190SOL    HW228470   1.896   5.608   0.174
 9191SOL     OW28471   6.467   0.444   5.316
 9191SOL    HW128472   6.439   0.417   5.408
 9191SOL    HW228473   6.488   0.542   5.316
 9192SOL     OW28474   0.317   4.212   4.701
 9192SOL    HW128475   0.340   4.116   4.715
 9192SOL    HW228476   0.252   4.241   4.771
 9193SOL     OW28477   3.471   3.365   0.283
 9193SOL    HW128478   3.541   3.436   0.295
 9193SOL    HW228479   3.391   3.386   0.338
 9194SOL     OW28480   3.346   0.398   4.208
 9194SOL    HW128481   3.332   0.461   4.131
 9194SOL    HW228482   3.339   0.449   4.293
 9195SOL     OW28483   1.905   2.364   4.845
 9195SOL    HW128484   1.871   2.458   4.848
 9195SOL    HW228485   2.003   2.365   4.822
 9196SOL     OW28486   4.611   1.278   4.956
 9196SOL    HW128487   4.630   1.189   4.915
 9196SOL    HW228488   4.541   1.268   5.027
 9197SOL     OW28489   2.409   3.867   1.232
 9197SOL    HW128490   2.419   3.931   1.156
 9197SOL    HW228491   2.465   3.786   1.215
 9198SOL     OW28492   6.750   5.433   5.501
 9198SOL    HW128493   6.843   5.436   5.464
 9198SOL    HW228494   6.727   5.338   5.526
 9199SOL     OW28495   0.284   4.170   6.200
 9199SOL    HW128496   0.237   4.169   6.288
 9199SOL    HW228497   0.283   4.078   6.161
 9200SOL     OW28498   2.858   0.566   0.915
 9200SOL    HW128499   2.909   0.621   0.980
 9200SOL    HW228500   2.766   0.550   0.949
 9201SOL     OW28501   1.386   3.268   6.713
 9201SOL    HW128502   1.376   3.272   6.812
 9201SOL    HW228503   1.301   3.300   6.670
 9202SOL     OW28504   1.898   6.695   3.138
 9202SOL    HW128505   1.971   6.725   3.200
 9202SOL    HW228506   1.940   6.655   3.056
 9203SOL     OW28507   6.974   5.492   0.751
 9203SOL    HW128508   7.001   5.561   0.684
 9203SOL    HW228509   0.022   5.424   0.760
 9204SOL     OW28510   5.225   1.270   6.542
 9204SOL    HW128511   5.152   1.233   6.484
 9204SOL    HW228512   5.186   1.329   6.612
 9205SOL     OW28513   6.621   3.829   2.630
 9205SOL    HW128514   6.708   3.831   2.680
 9205SOL    HW228515   6.551   3.787   2.688
 9206SOL     OW28516   3.602   5.890   0.583
 9206SOL    HW128517   3.523   5.832   0.560
 9206SOL    HW228518   3.686   5.842   0.560
 9207SOL     OW28519   4.810   5.747   0.196
 9207SOL    HW128520   4.856   5.789   0.275
 9207SOL    HW228521   4.877   5.699   0.139
 9208SOL     OW28522   6.446   4.003   4.316
 9208SOL    HW128523   6.517   3.934   4.330
 9208SOL    HW228524   6.423   4.045   4.403
 9209SOL     OW28525   3.165   1.402   6.759
 9209SOL    HW128526   3.079   1.454   6.759
 9209SOL    HW228527   3.242   1.465   6.750
 9210SOL     OW28528   6.665   1.699   2.905
 9210SOL    HW128529   6.574   1.657   2.907
 9210SOL    HW228530   6.731   1.634   2.944
 9211SOL     OW28531   0.133   2.791   3.960
 9211SOL    HW128532   0.100   2.699   3.985
 9211SOL    HW228533   0.229   2.785   3.931
 9212SOL     OW28534   3.476   5.447   4.345
 9212SOL    HW128535   3.381   5.474   4.329
 9212SOL    HW228536   3.525   5.443   4.258
 9213SOL     OW28537   5.608   3.416   5.960
 9213SOL    HW128538   5.667   3.419   5.879
 9213SOL    HW228539   5.656   3.367   6.034
 9214SOL     OW28540   0.308   5.768   0.117
 9214SOL    HW128541   0.349   5.834   0.179
 9214SOL    HW228542   0.285   5.685   0.167
 9215SOL     OW28543   1.262   1.020   0.490
 9215SOL    HW128544   1.326   0.948   0.516
 9215SOL    HW228545   1.198   1.036   0.565
 9216SOL     OW28546   2.727   0.302   3.053
 9216SOL    HW128547   2.804   0.347   3.007
 9216SOL    HW228548   2.728   0.205   3.030
 9217SOL     OW28549   0.143   1.569   6.644
 9217SOL    HW128550   0.140   1.656   6.693
 9217SOL    HW228551   0.238   1.536   6.641
 9218SOL     OW28552   3.388   6.597   0.190
 9218SOL    HW128553   3.325   6.669   0.221
 9218SOL    HW228554   3.445   6.634   0.116
 9219SOL     OW28555   1.149   2.478   0.914
 9219SOL    HW128556   1.068   2.464   0.970
 9219SOL    HW228557   1.226   2.427   0.952
 9220SOL     OW28558   3.585   6.766   1.665
 9220SOL    HW128559   3.548   6.707   1.737
 9220SOL    HW228560   3.664   6.722   1.623
 9221SOL     OW28561   3.189   6.862   3.686
 9221SOL    HW128562   3.254   6.876   3.611
 9221SOL    HW228563   3.096   6.878   3.652
 9222SOL     OW28564   2.472   1.321   6.633
 9222SOL    HW128565   2.533   1.281   6.702
 9222SOL    HW228566   2.387   1.350   6.677
 9223SOL     OW28567   1.674   2.974   5.292
 9223SOL    HW128568   1.645   2.882   5.321
 9223SOL    HW228569   1.774   2.976   5.283
 9224SOL     OW28570   2.205   5.226   4.226
 9224SOL    HW128571   2.197   5.324   4.243
 9224SOL    HW228572   2.287   5.190   4.271
 9225SOL     OW28573   3.187   6.333   6.739
 9225SOL    HW128574   3.203   6.331   6.838
 9225SOL    HW228575   3.125   6.408   6.717
 9226SOL     OW28576   4.989   6.269   1.681
 9226SOL    HW128577   4.937   6.307   1.758
 9226SOL    HW228578   5.006   6.340   1.613
 9227SOL     OW28579   0.929   5.186   2.869
 9227SOL    HW128580   0.914   5.282   2.845
 9227SOL    HW228581   0.900   5.128   2.793
 9228SOL     OW28582   1.412   0.916   6.143
 9228SOL    HW128583   1.498   0.894   6.189
 9228SOL    HW228584   1.383   0.838   6.088
 9229SOL     OW28585   1.156   5.476   3.728
 9229SOL    HW128586   1.159   5.560   3.783
 9229SOL    HW228587   1.248   5.440   3.716
 9230SOL     OW28588   5.505   0.385   3.493
 9230SOL    HW128589   5.575   0.435   3.544
 9230SOL    HW228590   5.504   0.417   3.398
 9231SOL     OW28591   1.396   3.003   4.301
 9231SOL    HW128592   1.472   2.962   4.352
 9231SOL    HW228593   1.409   2.988   4.203
 9232SOL     OW28594   3.415   5.457   0.396
 9232SOL    HW128595   3.368   5.388   0.342
 9232SOL    HW228596   3.462   5.413   0.473
 9233SOL     OW28597   5.580   5.031   1.418
 9233SOL    HW128598   5.519   4.965   1.376
 9233SOL    HW228599   5.660   5.044   1.360
 9234SOL     OW28600   2.928   5.708   3.262
 9234SOL    HW128601   2.830   5.690   3.252
 9234SOL    HW228602   2.949   5.801   3.231
 9235SOL     OW28603   1.474   2.043   3.410
 9235SOL    HW128604   1.563   2.018   3.372
 9235SOL    HW228605   1.446   2.132   3.374
 9236SOL     OW28606   3.351   3.908   5.370
 9236SOL    HW128607   3.355   4.007   5.376
 9236SOL    HW228608   3.265   3.880   5.327
 9237SOL     OW28609   1.454   4.006   3.935
 9237SOL    HW128610   1.505   3.978   3.854
 9237SOL    HW228611   1.373   4.058   3.907
 9238SOL     OW28612   4.951   2.893   6.691
 9238SOL    HW128613   4.984   2.932   6.777
 9238SOL    HW228614   5.006   2.813   6.668
 9239SOL     OW28615   0.630   3.572   1.336
 9239SOL    HW128616   0.608   3.668   1.347
 9239SOL    HW228617   0.686   3.541   1.413
 9240SOL     OW28618   5.363   1.792   1.635
 9240SOL    HW128619   5.387   1.699   1.660
 9240SOL    HW228620   5.324   1.793   1.542
 9241SOL     OW28621   6.852   5.358   6.754
 9241SOL    HW128622   6.884   5.444   6.792
 9241SOL    HW228623   6.901   5.338   6.669
 9242SOL     OW28624   0.078   6.046   1.414
 9242SOL    HW128625   0.008   6.054   1.485
 9242SOL    HW228626   0.115   5.953   1.414
 9243SOL     OW28627   6.771   6.068   4.193
 9243SOL    HW128628   6.743   5.988   4.246
 9243SOL    HW228629   6.745   6.151   4.241
 9244SOL     OW28630   4.710   5.654   6.568
 9244SOL    HW128631   4.653   5.712   6.510
 9244SOL    HW228632   4.669   5.564   6.577
 9245SOL     OW28633   0.821   5.512   2.470
 9245SOL    HW128634   0.756   5.534   2.543
 9245SOL    HW228635   0.845   5.596   2.421
 9246SOL     OW28636   6.444   5.134   3.691
 9246SOL    HW128637   6.522   5.076   3.666
 9246SOL    HW228638   6.452   5.222   3.644
 9247SOL     OW28639   1.188   6.881   2.965
 9247SOL    HW128640   1.168   6.788   2.933
 9247SOL    HW228641   1.241   6.929   2.895
 9248SOL     OW28642   2.842   2.781   6.130
 9248SOL    HW128643   2.782   2.704   6.107
 9248SOL    HW228644   2.937   2.751   6.127
 9249SOL     OW28645   5.430   1.659   4.627
 9249SOL    HW128646   5.500   1.712   4.579
 9249SOL    HW228647   5.340   1.699   4.609
 9250SOL     OW28648   4.876   3.891   4.187
 9250SOL    HW128649   4.873   3.896   4.287
 9250SOL    HW228650   4.866   3.795   4.158
 9251SOL     OW28651   3.637   1.527   3.201
 9251SOL    HW128652   3.679   1.602   3.253
 9251SOL    HW228653   3.620   1.558   3.107
 9252SOL     OW28654   0.216   6.970   4.910
 9252SOL    HW128655   0.231   0.035   4.867
 9252SOL    HW228656   0.279   6.903   4.871
 9253SOL     OW28657   2.616   6.603   6.049
 9253SOL    HW128658   2.645   6.698   6.040
 9253SOL    HW228659   2.636   6.554   5.964
 9254SOL     OW28660   5.702   3.952   1.374
 9254SOL    HW128661   5.738   3.870   1.418
 9254SOL    HW228662   5.629   3.926   1.311
 9255SOL     OW28663   5.157   3.401   0.522
 9255SOL    HW128664   5.100   3.469   0.475
 9255SOL    HW228665   5.235   3.377   0.464
 9256SOL     OW28666   4.195   4.648   2.256
 9256SOL    HW128667   4.278   4.624   2.206
 9256SOL    HW228668   4.124   4.677   2.191
 9257SOL     OW28669   0.653   4.132   2.461
 9257SOL    HW128670   0.688   4.075   2.387
 9257SOL    HW228671   0.686   4.097   2.548
 9258SOL     OW28672   3.350   2.924   3.701
 9258SOL    HW128673   3.291   2.940   3.622
 9258SOL    HW228674   3.310   2.854   3.759
 9259SOL     OW28675   0.722   2.173   1.289
 9259SOL    HW128676   0.820   2.168   1.268
 9259SOL    HW228677   0.694   2.089   1.336
 9260SOL     OW28678   4.752   2.798   6.049
 9260SOL    HW128679   4.652   2.792   6.043
 9260SOL    HW228680   4.778   2.829   6.141
 9261SOL     OW28681   3.658   0.183   6.543
 9261SOL    HW128682   3.672   0.145   6.634
 9261SOL    HW228683   3.563   0.168   6.514
 9262SOL     OW28684   5.789   1.610   5.252
 9262SOL    HW128685   5.781   1.706   5.226
 9262SOL    HW228686   5.703   1.563   5.232
 9263SOL     OW28687   5.270   3.643   1.131
 9263SOL    HW128688   5.213   3.724   1.122
 9263SOL    HW228689   5.349   3.664   1.188
 9264SOL     OW28690   6.599   3.806   6.964
 9264SOL    HW128691   6.538   3.835   6.890
 9264SOL    HW228692   6.554   3.737   7.020
 9265SOL     OW28693   2.354   2.033   0.203
 9265SOL    HW128694   2.325   2.057   0.295
 9265SOL    HW228695   2.345   2.112   0.143
 9266SOL     OW28696   2.338   5.939   2.482
 9266SOL    HW128697   2.410   5.906   2.543
 9266SOL    HW228698   2.336   5.883   2.399
 9267SOL     OW28699   0.276   3.677   4.419
 9267SOL    HW128700   0.310   3.684   4.512
 9267SOL    HW228701   0.278   3.767   4.375
 9268SOL     OW28702   0.131   6.631   2.759
 9268SOL    HW128703   0.071   6.556   2.786
 9268SOL    HW228704   0.219   6.594   2.730
 9269SOL     OW28705   2.920   1.962   6.849
 9269SOL    HW128706   2.837   1.906   6.852
 9269SOL    HW228707   2.977   1.933   6.772
 9270SOL     OW28708   6.846   6.656   5.673
 9270SOL    HW128709   6.804   6.698   5.592
 9270SOL    HW228710   6.810   6.700   5.755
 9271SOL     OW28711   1.380   6.600   0.981
 9271SOL    HW128712   1.364   6.655   1.064
 9271SOL    HW228713   1.354   6.653   0.901
 9272SOL     OW28714   2.573   4.323   6.587
 9272SOL    HW128715   2.479   4.300   6.613
 9272SOL    HW228716   2.613   4.245   6.539
 9273SOL     OW28717   4.657   5.418   3.813
 9273SOL    HW128718   4.572   5.396   3.766
 9273SOL    HW228719   4.662   5.516   3.828
 9274SOL     OW28720   4.992   2.436   6.677
 9274SOL    HW128721   5.041   2.352   6.699
 9274SOL    HW228722   4.988   2.495   6.757
 9275SOL     OW28723   1.025   1.189   6.448
 9275SOL    HW128724   1.043   1.256   6.521
 9275SOL    HW228725   0.964   1.118   6.483
 9276SOL     OW28726   3.717   5.576   4.588
 9276SOL    HW128727   3.727   5.493   4.643
 9276SOL    HW228728   3.750   5.558   4.495
 9277SOL     OW28729   3.552   3.148   0.011
 9277SOL    HW128730   3.646   3.126   0.035
 9277SOL    HW228731   3.519   3.223   0.069
 9278SOL     OW28732   1.136   1.934   4.088
 9278SOL    HW128733   1.066   1.935   4.017
 9278SOL    HW228734   1.198   1.858   4.072
 9279SOL     OW28735   3.805   0.585   2.180
 9279SOL    HW128736   3.871   0.644   2.134
 9279SOL    HW228737   3.824   0.583   2.278
 9280SOL     OW28738   1.553   6.833   3.717
 9280SOL    HW128739   1.597   6.842   3.806
 9280SOL    HW228740   1.475   6.895   3.711
 9281SOL     OW28741   2.822   2.779   1.000
 9281SOL    HW128742   2.892   2.764   1.070
 9281SOL    HW228743   2.841   2.723   0.920
 9282SOL     OW28744   4.628   1.601   4.459
 9282SOL    HW128745   4.618   1.547   4.375
 9282SOL    HW228746   4.594   1.549   4.537
 9283SOL     OW28747   6.213   2.242   2.857
 9283SOL    HW128748   6.293   2.182   2.859
 9283SOL    HW228749   6.188   2.267   2.951
 9284SOL     OW28750   3.794   3.851   0.808
 9284SOL    HW128751   3.781   3.792   0.728
 9284SOL    HW228752   3.793   3.795   0.891
 9285SOL     OW28753   6.585   2.735   6.864
 9285SOL    HW128754   6.679   2.702   6.870
 9285SOL    HW228755   6.584   2.835   6.866
 9286SOL     OW28756   5.637   0.009   5.435
 9286SOL    HW128757   5.665   0.100   5.468
 9286SOL    HW228758   5.667   7.022   5.341
 9287SOL     OW28759   2.942   5.650   1.252
 9287SOL    HW128760   2.901   5.732   1.293
 9287SOL    HW228761   3.018   5.619   1.309
 9288SOL     OW28762   4.148   1.828   5.532
 9288SOL    HW128763   4.205   1.772   5.472
 9288SOL    HW228764   4.073   1.773   5.568
 9289SOL     OW28765   5.011   2.190   2.327
 9289SOL    HW128766   5.110   2.200   2.329
 9289SOL    HW228767   4.987   2.116   2.263
 9290SOL     OW28768   4.203   2.177   5.008
 9290SOL    HW128769   4.238   2.269   5.026
 9290SOL    HW228770   4.225   2.151   4.914
 9291SOL     OW28771   1.603   0.385   5.152
 9291SOL    HW128772   1.620   0.482   5.164
 9291SOL    HW228773   1.554   0.369   5.066
 9292SOL     OW28774   7.006   3.161   5.906
 9292SOL    HW128775   0.042   3.210   5.843
 9292SOL    HW228776   0.013   3.176   6.000
 9293SOL     OW28777   5.275   4.380   0.560
 9293SOL    HW128778   5.284   4.480   0.552
 9293SOL    HW228779   5.327   4.336   0.487
 9294SOL     OW28780   4.098   5.965   6.892
 9294SOL    HW128781   4.061   6.045   6.939
 9294SOL    HW228782   4.045   5.884   6.917
 9295SOL     OW28783   4.229   1.987   2.734
 9295SOL    HW128784   4.234   1.938   2.821
 9295SOL    HW228785   4.318   1.984   2.688
 9296SOL     OW28786   6.605   6.434   6.131
 9296SOL    HW128787   6.643   6.429   6.224
 9296SOL    HW228788   6.656   6.372   6.071
 9297SOL     OW28789   0.431   0.604   1.485
 9297SOL    HW128790   0.477   0.550   1.555
 9297SOL    HW228791   0.405   0.693   1.523
 9298SOL     OW28792   2.307   6.153   5.441
 9298SOL    HW128793   2.376   6.082   5.424
 9298SOL    HW228794   2.227   6.113   5.485
 9299SOL     OW28795   1.603   3.331   3.895
 9299SOL    HW128796   1.652   3.255   3.853
 9299SOL    HW228797   1.515   3.344   3.848
 9300SOL     OW28798   6.003   4.611   5.342
 9300SOL    HW128799   6.079   4.548   5.324
 9300SOL    HW228800   6.039   4.697   5.378
 9301SOL     OW28801   4.873   4.483   2.727
 9301SOL    HW128802   4.846   4.455   2.819
 9301SOL    HW228803   4.826   4.426   2.660
 9302SOL     OW28804   2.459   2.563   3.386
 9302SOL    HW128805   2.401   2.617   3.448
 9302SOL    HW228806   2.471   2.613   3.300
 9303SOL     OW28807   3.730   6.394   0.106
 9303SOL    HW128808   3.720   6.310   0.053
 9303SOL    HW228809   3.639   6.427   0.133
 9304SOL     OW28810   3.460   4.226   0.708
 9304SOL    HW128811   3.495   4.273   0.626
 9304SOL    HW228812   3.537   4.191   0.760
 9305SOL     OW28813   5.414   2.314   1.725
 9305SOL    HW128814   5.491   2.252   1.737
 9305SOL    HW228815   5.345   2.295   1.795
 9306SOL     OW28816   0.216   4.632   4.080
 9306SOL    HW128817   0.227   4.702   4.009
 9306SOL    HW228818   0.207   4.542   4.036
 9307SOL     OW28819   1.333   2.026   0.741
 9307SOL    HW128820   1.348   1.953   0.808
 9307SOL    HW228821   1.420   2.064   0.712
 9308SOL     OW28822   0.265   3.317   1.159
 9308SOL    HW128823   0.283   3.354   1.068
 9308SOL    HW228824   0.334   3.247   1.181
 9309SOL     OW28825   4.305   3.971   5.811
 9309SOL    HW128826   4.376   3.911   5.773
 9309SOL    HW228827   4.301   4.055   5.758
 9310SOL     OW28828   3.953   6.867   5.964
 9310SOL    HW128829   3.856   6.842   5.957
 9310SOL    HW228830   4.007   6.807   5.904
 9311SOL     OW28831   5.211   4.017   0.548
 9311SOL    HW128832   5.173   3.940   0.496
 9311SOL    HW228833   5.206   3.997   0.645
 9312SOL     OW28834   1.277   4.298   6.536
 9312SOL    HW128835   1.341   4.224   6.559
 9312SOL    HW228836   1.194   4.260   6.496
 9313SOL     OW28837   0.160   0.571   2.492
 9313SOL    HW128838   0.211   0.603   2.412
 9313SOL    HW228839   0.082   0.632   2.508
 9314SOL     OW28840   4.200   5.671   0.084
 9314SOL    HW128841   4.151   5.608   0.023
 9314SOL    HW228842   4.291   5.689   0.047
 9315SOL     OW28843   6.962   0.586   5.676
 9315SOL    HW128844   6.905   0.657   5.719
 9315SOL    HW228845   6.903   0.517   5.634
 9316SOL     OW28846   3.852   5.473   3.864
 9316SOL    HW128847   3.939   5.437   3.899
 9316SOL    HW228848   3.846   5.570   3.887
 9317SOL     OW28849   6.162   5.165   3.143
 9317SOL    HW128850   6.158   5.114   3.057
 9317SOL    HW228851   6.079   5.219   3.153
 9318SOL     OW28852   0.085   0.922   6.762
 9318SOL    HW128853   0.040   0.833   6.769
 9318SOL    HW228854   0.079   0.955   6.668
 9319SOL     OW28855   0.524   3.333   6.457
 9319SOL    HW128856   0.570   3.331   6.368
 9319SOL    HW228857   0.535   3.424   6.498
 9320SOL     OW28858   3.995   2.353   5.910
 9320SOL    HW128859   3.953   2.332   5.998
 9320SOL    HW228860   4.040   2.442   5.915
 9321SOL     OW28861   6.108   6.653   2.907
 9321SOL    HW128862   6.064   6.569   2.875
 9321SOL    HW228863   6.143   6.639   2.999
 9322SOL     OW28864   0.502   6.355   5.954
 9322SOL    HW128865   0.588   6.407   5.959
 9322SOL    HW228866   0.472   6.348   5.859
 9323SOL     OW28867   0.587   1.302   6.140
 9323SOL    HW128868   0.681   1.334   6.152
 9323SOL    HW228869   0.587   1.223   6.079
 9324SOL     OW28870   1.031   5.041   0.446
 9324SOL    HW128871   1.037   4.954   0.494
 9324SOL    HW228872   1.066   5.114   0.505
 9325SOL     OW28873   5.585   1.715   1.157
 9325SOL    HW128874   5.595   1.629   1.208
 9325SOL    HW228875   5.631   1.789   1.206
 9326SOL     OW28876   2.492   6.778   0.604
 9326SOL    HW128877   2.587   6.808   0.603
 9326SOL    HW228878   2.432   6.858   0.609
 9327SOL     OW28879   4.514   6.955   2.889
 9327SOL    HW128880   4.460   0.014   2.870
 9327SOL    HW228881   4.460   6.875   2.863
 9328SOL     OW28882   3.853   1.421   6.801
 9328SOL    HW128883   3.790   1.493   6.827
 9328SOL    HW228884   3.803   1.346   6.757
 9329SOL     OW28885   6.825   3.736   3.119
 9329SOL    HW128886   6.872   3.796   3.183
 9329SOL    HW228887   6.793   3.654   3.167
 9330SOL     OW28888   6.698   7.009   0.632
 9330SOL    HW128889   6.626   0.048   0.603
 9330SOL    HW228890   6.703   7.006   0.732
 9331SOL     OW28891   0.309   0.678   0.044
 9331SOL    HW128892   0.370   0.619   0.097
 9331SOL    HW228893   0.349   0.694   6.978
 9332SOL     OW28894   3.171   3.973   4.350
 9332SOL    HW128895   3.209   4.003   4.262
 9332SOL    HW228896   3.138   3.879   4.341
 9333SOL     OW28897   6.153   3.885   0.970
 9333SOL    HW128898   6.200   3.886   0.882
 9333SOL    HW228899   6.221   3.889   1.044
 9334SOL     OW28900   3.206   0.262   3.501
 9334SOL    HW128901   3.151   0.276   3.583
 9334SOL    HW228902   3.158   0.301   3.422
 9335SOL     OW28903   1.598   1.278   6.388
 9335SOL    HW128904   1.655   1.285   6.307
 9335SOL    HW228905   1.502   1.267   6.361
 9336SOL     OW28906   3.194   6.369   6.108
 9336SOL    HW128907   3.179   6.357   6.207
 9336SOL    HW228908   3.221   6.282   6.068
 9337SOL     OW28909   5.170   0.636   2.256
 9337SOL    HW128910   5.264   0.612   2.277
 9337SOL    HW228911   5.166   0.688   2.171
 9338SOL     OW28912   3.649   0.435   2.615
 9338SOL    HW128913   3.664   0.363   2.684
 9338SOL    HW228914   3.595   0.508   2.656
 9339SOL     OW28915   5.069   6.758   1.090
 9339SOL    HW128916   5.044   6.685   1.027
 9339SOL    HW228917   4.988   6.789   1.140
 9340SOL     OW28918   5.632   3.679   6.278
 9340SOL    HW128919   5.564   3.608   6.261
 9340SOL    HW228920   5.690   3.653   6.354
 9341SOL     OW28921   1.259   5.570   6.844
 9341SOL    HW128922   1.351   5.574   6.806
 9341SOL    HW228923   1.197   5.624   6.787
 9342SOL     OW28924   1.442   0.208   5.382
 9342SOL    HW128925   1.399   0.167   5.302
 9342SOL    HW228926   1.411   0.303   5.392
 9343SOL     OW28927   6.347   5.392   5.066
 9343SOL    HW128928   6.420   5.422   5.128
 9343SOL    HW228929   6.370   5.417   4.972
 9344SOL     OW28930   5.088   6.458   1.517
 9344SOL    HW128931   5.163   6.441   1.453
 9344SOL    HW228932   5.020   6.516   1.472
 9345SOL     OW28933   6.632   2.774   1.314
 9345SOL    HW128934   6.551   2.776   1.256
 9345SOL    HW228935   6.616   2.829   1.396
 9346SOL     OW28936   6.393   0.595   1.275
 9346SOL    HW128937   6.435   0.653   1.345
 9346SOL    HW228938   6.443   0.509   1.267
 9347SOL     OW28939   1.286   6.039   1.487
 9347SOL    HW128940   1.255   6.056   1.580
 9347SOL    HW228941   1.376   6.082   1.473
 9348SOL     OW28942   3.210   5.744   0.413
 9348SOL    HW128943   3.230   5.810   0.340
 9348SOL    HW228944   3.242   5.782   0.500
 9349SOL     OW28945   1.167   6.609   2.496
 9349SOL    HW128946   1.139   6.534   2.556
 9349SOL    HW228947   1.256   6.644   2.524
 9350SOL     OW28948   0.610   2.439   5.687
 9350SOL    HW128949   0.561   2.430   5.600
 9350SOL    HW228950   0.570   2.378   5.755
 9351SOL     OW28951   3.477   2.481   0.091
 9351SOL    HW128952   3.482   2.421   0.171
 9351SOL    HW228953   3.405   2.448   0.029
 9352SOL     OW28954   2.875   4.871   6.908
 9352SOL    HW128955   2.823   4.819   6.976
 9352SOL    HW228956   2.962   4.900   6.947
 9353SOL     OW28957   0.585   5.947   1.853
 9353SOL    HW128958   0.523   5.937   1.775
 9353SOL    HW228959   0.593   6.043   1.878
 9354SOL     OW28960   6.229   2.243   0.081
 9354SOL    HW128961   6.154   2.293   0.039
 9354SOL    HW228962   6.223   2.146   0.057
 9355SOL     OW28963   0.625   1.652   5.258
 9355SOL    HW128964   0.582   1.621   5.343
 9355SOL    HW228965   0.595   1.593   5.183
 9356SOL     OW28966   4.753   6.868   2.228
 9356SOL    HW128967   4.682   6.938   2.238
 9356SOL    HW228968   4.748   6.827   2.137
 9357SOL     OW28969   0.721   2.187   6.973
 9357SOL    HW128970   0.703   2.131   0.030
 9357SOL    HW228971   0.642   2.181   6.911
 9358SOL     OW28972   1.557   3.628   2.417
 9358SOL    HW128973   1.596   3.693   2.481
 9358SOL    HW228974   1.615   3.622   2.335
 9359SOL     OW28975   1.956   6.796   6.229
 9359SOL    HW128976   1.905   6.812   6.145
 9359SOL    HW228977   1.947   6.875   6.290
 9360SOL     OW28978   0.972   0.422   6.242
 9360SOL    HW128979   0.899   0.385   6.300
 9360SOL    HW228980   0.946   0.512   6.209
 9361SOL     OW28981   2.240   5.925   4.152
 9361SOL    HW128982   2.292   5.886   4.228
 9361SOL    HW228983   2.229   5.855   4.081
 9362SOL     OW28984   2.015   0.358   2.052
 9362SOL    HW128985   2.011   0.265   2.015
 9362SOL    HW228986   1.943   0.413   2.011
 9363SOL     OW28987   3.073   5.159   2.296
 9363SOL    HW128988   3.123   5.074   2.278
 9363SOL    HW228989   3.128   5.218   2.355
 9364SOL     OW28990   1.497   2.084   1.117
 9364SOL    HW128991   1.413   2.125   1.154
 9364SOL    HW228992   1.559   2.158   1.091
 9365SOL     OW28993   3.408   2.111   4.566
 9365SOL    HW128994   3.481   2.056   4.607
 9365SOL    HW228995   3.439   2.205   4.557
 9366SOL     OW28996   3.583   5.641   0.266
 9366SOL    HW128997   3.518   5.571   0.295
 9366SOL    HW228998   3.541   5.731   0.276
 9367SOL     OW28999   6.572   0.719   1.485
 9367SOL    HW129000   6.514   0.690   1.561
 9367SOL    HW229001   6.623   0.801   1.511
 9368SOL     OW29002   3.563   0.704   2.725
 9368SOL    HW129003   3.599   0.764   2.654
 9368SOL    HW229004   3.464   0.695   2.715
 9369SOL     OW29005   2.251   5.477   6.535
 9369SOL    HW129006   2.224   5.518   6.623
 9369SOL    HW229007   2.349   5.458   6.536
 9370SOL     OW29008   4.792   1.774   4.038
 9370SOL    HW129009   4.815   1.801   3.945
 9370SOL    HW229010   4.817   1.846   4.102
 9371SOL     OW29011   4.151   6.078   1.533
 9371SOL    HW129012   4.092   6.149   1.497
 9371SOL    HW229013   4.246   6.098   1.509
 9372SOL     OW29014   5.206   6.627   1.741
 9372SOL    HW129015   5.190   6.571   1.660
 9372SOL    HW229016   5.284   6.687   1.725
 9373SOL     OW29017   6.846   0.937   0.685
 9373SOL    HW129018   6.803   0.963   0.599
 9373SOL    HW229019   6.935   0.982   0.694
 9374SOL     OW29020   0.458   5.044   5.520
 9374SOL    HW129021   0.542   4.991   5.510
 9374SOL    HW229022   0.481   5.141   5.530
 9375SOL     OW29023   0.348   1.269   6.985
 9375SOL    HW129024   0.433   1.223   7.011
 9375SOL    HW229025   0.319   1.329   0.035
 9376SOL     OW29026   2.105   3.714   1.902
 9376SOL    HW129027   2.142   3.748   1.816
 9376SOL    HW229028   2.137   3.620   1.918
 9377SOL     OW29029   2.366   6.302   2.899
 9377SOL    HW129030   2.379   6.396   2.868
 9377SOL    HW229031   2.381   6.297   2.998
 9378SOL     OW29032   3.038   0.687   3.487
 9378SOL    HW129033   3.059   0.721   3.395
 9378SOL    HW229034   2.963   0.620   3.482
 9379SOL     OW29035   3.928   6.462   4.613
 9379SOL    HW129036   3.880   6.537   4.658
 9379SOL    HW229037   3.867   6.420   4.545
 9380SOL     OW29038   5.083   5.638   0.181
 9380SOL    HW129039   5.088   5.714   0.116
 9380SOL    HW229040   5.164   5.580   0.172
 9381SOL     OW29041   5.382   1.998   4.309
 9381SOL    HW129042   5.344   2.062   4.376
 9381SOL    HW229043   5.354   1.905   4.332
 9382SOL     OW29044   3.112   0.154   4.899
 9382SOL    HW129045   3.077   0.061   4.892
 9382SOL    HW229046   3.042   0.212   4.941
 9383SOL     OW29047   4.925   4.177   3.234
 9383SOL    HW129048   4.877   4.152   3.150
 9383SOL    HW229049   5.021   4.150   3.227
 9384SOL     OW29050   2.146   0.633   1.889
 9384SOL    HW129051   2.200   0.606   1.968
 9384SOL    HW229052   2.050   0.613   1.906
 9385SOL     OW29053   3.658   1.770   3.456
 9385SOL    HW129054   3.604   1.687   3.465
 9385SOL    HW229055   3.737   1.767   3.517
 9386SOL     OW29056   4.215   6.389   6.162
 9386SOL    HW129057   4.119   6.364   6.148
 9386SOL    HW229058   4.272   6.307   6.152
 9387SOL     OW29059   2.644   2.359   0.288
 9387SOL    HW129060   2.592   2.436   0.324
 9387SOL    HW229061   2.642   2.284   0.354
 9388SOL     OW29062   2.344   6.158   4.530
 9388SOL    HW129063   2.298   6.195   4.611
 9388SOL    HW229064   2.384   6.232   4.478
 9389SOL     OW29065   2.634   4.446   1.703
 9389SOL    HW129066   2.572   4.465   1.779
 9389SOL    HW229067   2.729   4.451   1.734
 9390SOL     OW29068   5.259   5.021   5.185
 9390SOL    HW129069   5.210   5.068   5.111
 9390SOL    HW229070   5.299   4.936   5.150
 9391SOL     OW29071   1.635   5.860   4.564
 9391SOL    HW129072   1.722   5.860   4.613
 9391SOL    HW229073   1.645   5.808   4.479
 9392SOL     OW29074   5.815   4.233   2.685
 9392SOL    HW129075   5.802   4.228   2.586
 9392SOL    HW229076   5.910   4.258   2.705
 9393SOL     OW29077   2.887   6.940   6.108
 9393SOL    HW129078   2.979   6.903   6.100
 9393SOL    HW229079   2.865   6.957   6.204
 9394SOL     OW29080   4.314   0.397   0.787
 9394SOL    HW129081   4.244   0.462   0.817
 9394SOL    HW229082   4.348   0.345   0.866
 9395SOL     OW29083   2.135   1.984   0.636
 9395SOL    HW129084   2.192   1.937   0.704
 9395SOL    HW229085   2.039   1.959   0.650
 9396SOL     OW29086   0.681   6.442   6.662
 9396SOL    HW129087   0.593   6.401   6.683
 9396SOL    HW229088   0.744   6.371   6.629
 9397SOL     OW29089   3.875   1.157   5.953
 9397SOL    HW129090   3.910   1.099   6.027
 9397SOL    HW229091   3.802   1.216   5.988
 9398SOL     OW29092   0.436   1.518   6.712
 9398SOL    HW129093   0.441   1.445   6.781
 9398SOL    HW229094   0.527   1.558   6.700
 9399SOL     OW29095   1.995   3.026   4.034
 9399SOL    HW129096   2.026   2.946   3.981
 9399SOL    HW229097   2.062   3.046   4.106
 9400SOL     OW29098   5.766   1.408   0.739
 9400SOL    HW129099   5.760   1.395   0.640
 9400SOL    HW229100   5.674   1.421   0.777
 9401SOL     OW29101   0.436   1.985   3.194
 9401SOL    HW129102   0.352   1.932   3.188
 9401SOL    HW229103   0.436   2.036   3.281
 9402SOL     OW29104   1.702   6.095   3.824
 9402SOL    HW129105   1.658   6.138   3.744
 9402SOL    HW229106   1.754   6.165   3.874
 9403SOL     OW29107   6.335   2.069   2.036
 9403SOL    HW129108   6.257   2.033   1.986
 9403SOL    HW229109   6.305   2.144   2.094
 9404SOL     OW29110   1.752   3.189   0.526
 9404SOL    HW129111   1.717   3.249   0.598
 9404SOL    HW229112   1.697   3.105   0.523
 9405SOL     OW29113   0.318   5.698   5.162
 9405SOL    HW129114   0.277   5.759   5.229
 9405SOL    HW229115   0.311   5.739   5.071
 9406SOL     OW29116   0.041   2.980   0.366
 9406SOL    HW129117   0.059   2.942   0.457
 9406SOL    HW229118   0.083   3.070   0.358
 9407SOL     OW29119   1.042   5.595   5.186
 9407SOL    HW129120   0.997   5.534   5.122
 9407SOL    HW229121   1.109   5.544   5.240
 9408SOL     OW29122   0.155   3.925   4.811
 9408SOL    HW129123   0.071   3.895   4.767
 9408SOL    HW229124   0.209   3.846   4.839
 9409SOL     OW29125   6.777   5.329   2.401
 9409SOL    HW129126   6.741   5.288   2.484
 9409SOL    HW229127   6.733   5.418   2.386
 9410SOL     OW29128   3.745   0.874   0.747
 9410SOL    HW129129   3.656   0.910   0.719
 9410SOL    HW229130   3.731   0.796   0.808
 9411SOL     OW29131   3.031   3.284   3.014
 9411SOL    HW129132   3.015   3.380   3.034
 9411SOL    HW229133   3.047   3.234   3.099
 9412SOL     OW29134   5.966   6.308   1.107
 9412SOL    HW129135   6.064   6.304   1.127
 9412SOL    HW229136   5.941   6.399   1.075
 9413SOL     OW29137   4.669   4.302   2.638
 9413SOL    HW129138   4.698   4.213   2.602
 9413SOL    HW229139   4.630   4.357   2.563
 9414SOL     OW29140   1.675   2.083   3.831
 9414SOL    HW129141   1.719   2.108   3.745
 9414SOL    HW229142   1.744   2.054   3.897
 9415SOL     OW29143   4.055   1.054   2.516
 9415SOL    HW129144   4.029   1.140   2.471
 9415SOL    HW229145   3.999   1.040   2.597
 9416SOL     OW29146   5.871   4.807   5.974
 9416SOL    HW129147   5.788   4.861   5.955
 9416SOL    HW229148   5.883   4.739   5.901
 9417SOL     OW29149   3.542   5.915   1.945
 9417SOL    HW129150   3.639   5.940   1.935
 9417SOL    HW229151   3.500   5.974   2.013
 9418SOL     OW29152   3.328   1.869   4.756
 9418SOL    HW129153   3.333   1.925   4.673
 9418SOL    HW229154   3.312   1.928   4.835
 9419SOL     OW29155   2.062   3.200   6.195
 9419SOL    HW129156   2.038   3.198   6.292
 9419SOL    HW229157   1.986   3.238   6.142
 9420SOL     OW29158   6.392   3.982   6.590
 9420SOL    HW129159   6.417   3.906   6.530
 9420SOL    HW229160   6.474   4.036   6.611
 9421SOL     OW29161   3.477   6.222   5.749
 9421SOL    HW129162   3.575   6.211   5.732
 9421SOL    HW229163   3.428   6.215   5.662
 9422SOL     OW29164   2.532   6.061   4.745
 9422SOL    HW129165   2.543   6.155   4.778
 9422SOL    HW229166   2.466   6.060   4.670
 9423SOL     OW29167   4.704   4.850   3.162
 9423SOL    HW129168   4.701   4.783   3.087
 9423SOL    HW229169   4.792   4.897   3.161
 9424SOL     OW29170   5.970   6.953   4.443
 9424SOL    HW129171   5.978   6.932   4.541
 9424SOL    HW229172   6.018   6.883   4.390
 9425SOL     OW29173   6.721   4.903   1.190
 9425SOL    HW129174   6.718   4.990   1.239
 9425SOL    HW229175   6.816   4.882   1.165
 9426SOL     OW29176   0.111   1.836   6.722
 9426SOL    HW129177   0.054   1.917   6.707
 9426SOL    HW229178   0.189   1.861   6.779
 9427SOL     OW29179   4.928   4.778   2.755
 9427SOL    HW129180   4.887   4.824   2.676
 9427SOL    HW229181   4.931   4.679   2.738
 9428SOL     OW29182   0.126   6.165   5.316
 9428SOL    HW129183   0.078   6.165   5.228
 9428SOL    HW229184   0.087   6.236   5.375
 9429SOL     OW29185   2.851   2.324   4.345
 9429SOL    HW129186   2.765   2.357   4.384
 9429SOL    HW229187   2.841   2.316   4.245
 9430SOL     OW29188   1.127   2.302   4.644
 9430SOL    HW129189   1.058   2.281   4.713
 9430SOL    HW229190   1.197   2.230   4.644
 9431SOL     OW29191   0.645   4.766   5.476
 9431SOL    HW129192   0.634   4.721   5.565
 9431SOL    HW229193   0.555   4.784   5.437
 9432SOL     OW29194   6.507   1.222   3.613
 9432SOL    HW129195   6.596   1.195   3.577
 9432SOL    HW229196   6.467   1.292   3.554
 9433SOL     OW29197   4.609   5.533   2.092
 9433SOL    HW129198   4.686   5.577   2.047
 9433SOL    HW229199   4.590   5.580   2.178
 9434SOL     OW29200   4.907   5.139   4.235
 9434SOL    HW129201   4.819   5.101   4.265
 9434SOL    HW229202   4.891   5.213   4.170
 9435SOL     OW29203   0.383   2.809   1.811
 9435SOL    HW129204   0.311   2.769   1.754
 9435SOL    HW229205   0.366   2.788   1.907
 9436SOL     OW29206   1.843   0.396   2.937
 9436SOL    HW129207   1.780   0.451   2.991
 9436SOL    HW229208   1.831   0.418   2.840
 9437SOL     OW29209   5.569   6.387   5.208
 9437SOL    HW129210   5.496   6.451   5.234
 9437SOL    HW229211   5.658   6.431   5.223
 9438SOL     OW29212   4.744   6.638   2.327
 9438SOL    HW129213   4.745   6.731   2.290
 9438SOL    HW229214   4.711   6.574   2.257
 9439SOL     OW29215   1.311   2.884   0.498
 9439SOL    HW129216   1.409   2.902   0.495
 9439SOL    HW229217   1.261   2.961   0.459
 9440SOL     OW29218   2.501   5.331   3.374
 9440SOL    HW129219   2.428   5.287   3.321
 9440SOL    HW229220   2.584   5.277   3.367
 9441SOL     OW29221   0.761   6.040   4.316
 9441SOL    HW129222   0.859   6.033   4.334
 9441SOL    HW229223   0.734   5.968   4.252
 9442SOL     OW29224   4.789   3.145   0.752
 9442SOL    HW129225   4.709   3.138   0.811
 9442SOL    HW229226   4.761   3.131   0.657
 9443SOL     OW29227   2.139   4.891   3.162
 9443SOL    HW129228   2.233   4.860   3.157
 9443SOL    HW229229   2.101   4.899   3.070
 9444SOL     OW29230   0.944   4.427   5.960
 9444SOL    HW129231   1.021   4.479   5.998
 9444SOL    HW229232   0.933   4.450   5.863
 9445SOL     OW29233   0.649   1.169   3.770
 9445SOL    HW129234   0.554   1.192   3.751
 9445SOL    HW229235   0.691   1.242   3.824
 9446SOL     OW29236   6.543   4.914   3.360
 9446SOL    HW129237   6.474   4.864   3.413
 9446SOL    HW229238   6.594   4.849   3.303
 9447SOL     OW29239   4.860   4.503   1.629
 9447SOL    HW129240   4.864   4.445   1.548
 9447SOL    HW229241   4.919   4.465   1.700
 9448SOL     OW29242   5.954   0.624   5.088
 9448SOL    HW129243   6.017   0.606   5.012
 9448SOL    HW229244   5.924   0.537   5.127
 9449SOL     OW29245   5.564   0.215   1.465
 9449SOL    HW129246   5.523   0.143   1.521
 9449SOL    HW229247   5.608   0.174   1.385
 9450SOL     OW29248   1.035   5.613   3.028
 9450SOL    HW129249   1.132   5.620   3.003
 9450SOL    HW229250   1.024   5.640   3.124
 9451SOL     OW29251   3.736   5.646   6.420
 9451SOL    HW129252   3.665   5.678   6.358
 9451SOL    HW229253   3.826   5.668   6.381
 9452SOL     OW29254   6.118   3.968   0.176
 9452SOL    HW129255   6.039   3.957   0.236
 9452SOL    HW229256   6.109   3.906   0.098
 9453SOL     OW29257   4.658   5.100   1.756
 9453SOL    HW129258   4.655   5.026   1.824
 9453SOL    HW229259   4.573   5.153   1.760
 9454SOL     OW29260   5.792   4.352   0.455
 9454SOL    HW129261   5.836   4.287   0.393
 9454SOL    HW229262   5.717   4.307   0.503
 9455SOL     OW29263   3.755   1.572   1.976
 9455SOL    HW129264   3.783   1.482   2.008
 9455SOL    HW229265   3.816   1.603   1.903
 9456SOL     OW29266   0.330   3.068   1.993
 9456SOL    HW129267   0.349   3.001   1.922
 9456SOL    HW229268   0.247   3.043   2.042
 9457SOL     OW29269   6.738   6.309   4.363
 9457SOL    HW129270   6.711   6.257   4.443
 9457SOL    HW229271   6.705   6.403   4.371
 9458SOL     OW29272   6.718   3.436   0.085
 9458SOL    HW129273   6.778   3.486   0.148
 9458SOL    HW229274   6.774   3.384   0.021
 9459SOL     OW29275   4.643   5.062   5.504
 9459SOL    HW129276   4.613   4.978   5.549
 9459SOL    HW229277   4.725   5.096   5.550
 9460SOL     OW29278   1.660   2.218   2.807
 9460SOL    HW129279   1.626   2.124   2.818
 9460SOL    HW229280   1.624   2.256   2.722
 9461SOL     OW29281   1.651   2.148   2.253
 9461SOL    HW129282   1.737   2.173   2.210
 9461SOL    HW229283   1.604   2.230   2.285
 9462SOL     OW29284   0.816   1.298   4.285
 9462SOL    HW129285   0.862   1.368   4.230
 9462SOL    HW229286   0.881   1.256   4.348
 9463SOL     OW29287   5.562   5.299   1.498
 9463SOL    HW129288   5.646   5.350   1.477
 9463SOL    HW229289   5.574   5.203   1.475
 9464SOL     OW29290   1.002   1.256   2.119
 9464SOL    HW129291   1.009   1.307   2.033
 9464SOL    HW229292   1.094   1.244   2.157
 9465SOL     OW29293   6.731   4.111   1.342
 9465SOL    HW129294   6.658   4.123   1.273
 9465SOL    HW229295   6.725   4.185   1.409
 9466SOL     OW29296   3.997   4.845   6.005
 9466SOL    HW129297   4.024   4.908   6.078
 9466SOL    HW229298   4.019   4.752   6.031
 9467SOL     OW29299   1.715   3.665   0.622
 9467SOL    HW129300   1.774   3.597   0.579
 9467SOL    HW229301   1.623   3.628   0.634
 9468SOL     OW29302   6.270   1.399   0.560
 9468SOL    HW129303   6.281   1.338   0.482
 9468SOL    HW229304   6.263   1.494   0.527
 9469SOL     OW29305   0.883   6.476   1.344
 9469SOL    HW129306   0.878   6.450   1.247
 9469SOL    HW229307   0.906   6.395   1.398
 9470SOL     OW29308   3.687   3.656   0.998
 9470SOL    HW129309   3.646   3.595   1.066
 9470SOL    HW229310   3.742   3.726   1.045
 9471SOL     OW29311   6.353   3.500   5.056
 9471SOL    HW129312   6.340   3.450   4.971
 9471SOL    HW229313   6.271   3.554   5.075
 9472SOL     OW29314   1.637   3.035   6.375
 9472SOL    HW129315   1.553   2.997   6.336
 9472SOL    HW229316   1.615   3.086   6.458
 9473SOL     OW29317   2.880   4.513   0.921
 9473SOL    HW129318   2.878   4.537   1.018
 9473SOL    HW229319   2.809   4.565   0.873
 9474SOL     OW29320   5.578   3.124   0.597
 9474SOL    HW129321   5.478   3.121   0.604
 9474SOL    HW229322   5.610   3.050   0.538
 9475SOL     OW29323   4.897   3.827   6.367
 9475SOL    HW129324   4.938   3.835   6.277
 9475SOL    HW229325   4.953   3.876   6.434
 9476SOL     OW29326   3.934   4.309   6.711
 9476SOL    HW129327   3.903   4.368   6.637
 9476SOL    HW229328   3.854   4.276   6.763
 9477SOL     OW29329   1.953   4.294   0.494
 9477SOL    HW129330   1.880   4.322   0.430
 9477SOL    HW229331   1.913   4.274   0.583
 9478SOL     OW29332   5.854   3.211   0.374
 9478SOL    HW129333   5.827   3.130   0.322
 9478SOL    HW229334   5.932   3.188   0.433
 9479SOL     OW29335   4.390   0.793   2.347
 9479SOL    HW129336   4.423   0.728   2.278
 9479SOL    HW229337   4.327   0.746   2.410
 9480SOL     OW29338   6.622   0.853   0.809
 9480SOL    HW129339   6.621   0.842   0.908
 9480SOL    HW229340   6.710   0.891   0.780
 9481SOL     OW29341   4.238   0.271   3.815
 9481SOL    HW129342   4.200   0.288   3.723
 9481SOL    HW229343   4.282   0.354   3.848
 9482SOL     OW29344   6.460   6.288   6.873
 9482SOL    HW129345   6.508   6.275   6.959
 9482SOL    HW229346   6.361   6.297   6.890
 9483SOL     OW29347   6.522   6.838   0.339
 9483SOL    HW129348   6.526   6.936   0.357
 9483SOL    HW229349   6.596   6.792   0.388
 9484SOL     OW29350   4.204   5.707   4.538
 9484SOL    HW129351   4.267   5.770   4.585
 9484SOL    HW229352   4.146   5.661   4.606
 9485SOL     OW29353   0.313   1.093   0.243
 9485SOL    HW129354   0.267   1.182   0.239
 9485SOL    HW229355   0.408   1.105   0.271
 9486SOL     OW29356   5.232   5.858   0.432
 9486SOL    HW129357   5.214   5.956   0.430
 9486SOL    HW229358   5.145   5.808   0.435
 9487SOL     OW29359   3.277   2.976   2.886
 9487SOL    HW129360   3.213   2.979   2.809
 9487SOL    HW229361   3.369   2.955   2.852
 9488SOL     OW29362   1.599   0.886   0.528
 9488SOL    HW129363   1.518   0.840   0.563
 9488SOL    HW229364   1.654   0.920   0.604
 9489SOL     OW29365   5.601   3.207   0.241
 9489SOL    HW129366   5.652   3.271   0.298
 9489SOL    HW229367   5.642   3.116   0.249
 9490SOL     OW29368   5.525   3.594   4.299
 9490SOL    HW129369   5.581   3.676   4.288
 9490SOL    HW229370   5.467   3.583   4.219
 9491SOL     OW29371   5.585   6.215   2.708
 9491SOL    HW129372   5.648   6.228   2.784
 9491SOL    HW229373   5.537   6.301   2.690
 9492SOL     OW29374   5.008   2.973   4.248
 9492SOL    HW129375   4.991   3.071   4.232
 9492SOL    HW229376   4.941   2.939   4.314
 9493SOL     OW29377   4.216   6.502   1.839
 9493SOL    HW129378   4.268   6.419   1.858
 9493SOL    HW229379   4.233   6.569   1.911
 9494SOL     OW29380   5.272   2.249   2.276
 9494SOL    HW129381   5.301   2.333   2.230
 9494SOL    HW229382   5.346   2.182   2.270
 9495SOL     OW29383   0.010   1.896   2.254
 9495SOL    HW129384   0.094   1.937   2.218
 9495SOL    HW229385   0.030   1.806   2.291
 9496SOL     OW29386   5.333   2.315   2.573
 9496SOL    HW129387   5.347   2.317   2.474
 9496SOL    HW229388   5.257   2.374   2.598
 9497SOL     OW29389   4.874   4.574   4.794
 9497SOL    HW129390   4.810   4.619   4.731
 9497SOL    HW229391   4.897   4.483   4.759
 9498SOL     OW29392   0.991   5.287   3.637
 9498SOL    HW129393   0.938   5.223   3.692
 9498SOL    HW229394   1.034   5.355   3.696
 9499SOL     OW29395   6.569   5.850   5.073
 9499SOL    HW129396   6.543   5.855   4.976
 9499SOL    HW229397   6.488   5.865   5.129
 9500SOL     OW29398   3.870   2.091   0.652
 9500SOL    HW129399   3.919   2.167   0.609
 9500SOL    HW229400   3.927   2.009   0.649
 9501SOL     OW29401   1.937   2.965   5.293
 9501SOL    HW129402   2.008   3.035   5.284
 9501SOL    HW229403   1.973   2.876   5.268
 9502SOL     OW29404   5.188   4.418   4.918
 9502SOL    HW129405   5.202   4.467   4.832
 9502SOL    HW229406   5.111   4.459   4.968
 9503SOL     OW29407   6.918   2.161   7.002
 9503SOL    HW129408   6.976   2.081   6.988
 9503SOL    HW229409   6.972   2.244   6.991
 9504SOL     OW29410   6.089   5.192   2.240
 9504SOL    HW129411   6.029   5.172   2.163
 9504SOL    HW229412   6.180   5.154   2.223
 9505SOL     OW29413   3.995   5.763   5.342
 9505SOL    HW129414   3.932   5.695   5.378
 9505SOL    HW229415   4.078   5.718   5.309
 9506SOL     OW29416   3.181   1.214   1.110
 9506SOL    HW129417   3.223   1.263   1.186
 9506SOL    HW229418   3.081   1.216   1.120
 9507SOL     OW29419   5.304   0.414   2.499
 9507SOL    HW129420   5.211   0.426   2.464
 9507SOL    HW229421   5.347   0.338   2.453
 9508SOL     OW29422   5.099   2.042   3.124
 9508SOL    HW129423   5.084   2.054   3.222
 9508SOL    HW229424   5.148   1.957   3.108
 9509SOL     OW29425   5.533   0.449   3.214
 9509SOL    HW129426   5.589   0.408   3.142
 9509SOL    HW229427   5.436   0.434   3.195
 9510SOL     OW29428   1.207   2.624   3.740
 9510SOL    HW129429   1.113   2.596   3.720
 9510SOL    HW229430   1.221   2.628   3.839
 9511SOL     OW29431   1.351   1.708   0.492
 9511SOL    HW129432   1.310   1.798   0.495
 9511SOL    HW229433   1.284   1.641   0.460
 9512SOL     OW29434   6.042   1.747   1.286
 9512SOL    HW129435   6.033   1.658   1.332
 9512SOL    HW229436   6.078   1.814   1.350
 9513SOL     OW29437   4.192   4.786   5.790
 9513SOL    HW129438   4.101   4.807   5.825
 9513SOL    HW229439   4.236   4.870   5.758
 9514SOL     OW29440   3.508   3.131   6.769
 9514SOL    HW129441   3.511   3.144   6.868
 9514SOL    HW229442   3.598   3.104   6.735
 9515SOL     OW29443   0.757   5.468   3.188
 9515SOL    HW129444   0.774   5.418   3.273
 9515SOL    HW229445   0.718   5.406   3.121
 9516SOL     OW29446   6.673   4.012   0.425
 9516SOL    HW129447   6.694   3.914   0.436
 9516SOL    HW229448   6.613   4.024   0.346
 9517SOL     OW29449   0.758   5.007   0.407
 9517SOL    HW129450   0.854   5.032   0.420
 9517SOL    HW229451   0.753   4.914   0.370
 9518SOL     OW29452   0.787   1.223   0.148
 9518SOL    HW129453   0.818   1.302   0.200
 9518SOL    HW229454   0.862   1.156   0.141
 9519SOL     OW29455   1.278   3.165   5.227
 9519SOL    HW129456   1.309   3.259   5.241
 9519SOL    HW229457   1.181   3.157   5.253
 9520SOL     OW29458   3.492   7.011   1.515
 9520SOL    HW129459   3.424   6.987   1.445
 9520SOL    HW229460   3.535   6.928   1.550
 9521SOL     OW29461   5.636   5.395   3.999
 9521SOL    HW129462   5.703   5.328   3.965
 9521SOL    HW229463   5.685   5.471   4.042
 9522SOL     OW29464   3.222   5.726   0.867
 9522SOL    HW129465   3.235   5.663   0.790
 9522SOL    HW229466   3.156   5.687   0.931
 9523SOL     OW29467   3.678   6.266   4.881
 9523SOL    HW129468   3.746   6.201   4.917
 9523SOL    HW229469   3.614   6.290   4.953
 9524SOL     OW29470   4.619   2.722   1.116
 9524SOL    HW129471   4.583   2.762   1.032
 9524SOL    HW229472   4.593   2.779   1.194
 9525SOL     OW29473   3.448   0.606   6.374
 9525SOL    HW129474   3.457   0.518   6.419
 9525SOL    HW229475   3.539   0.647   6.364
 9526SOL     OW29476   5.597   5.518   1.892
 9526SOL    HW129477   5.588   5.434   1.838
 9526SOL    HW229478   5.515   5.529   1.948
 9527SOL     OW29479   6.116   2.000   1.900
 9527SOL    HW129480   6.121   1.944   1.817
 9527SOL    HW229481   6.117   2.097   1.875
 9528SOL     OW29482   6.494   0.936   2.451
 9528SOL    HW129483   6.517   1.029   2.423
 9528SOL    HW229484   6.452   0.887   2.375
 9529SOL     OW29485   0.672   3.443   4.990
 9529SOL    HW129486   0.671   3.366   4.925
 9529SOL    HW229487   0.582   3.487   4.991
 9530SOL     OW29488   1.597   2.476   4.480
 9530SOL    HW129489   1.565   2.391   4.525
 9530SOL    HW229490   1.559   2.555   4.529
 9531SOL     OW29491   2.926   6.369   3.133
 9531SOL    HW129492   2.960   6.278   3.157
 9531SOL    HW229493   2.928   6.380   3.033
 9532SOL     OW29494   2.545   1.055   1.612
 9532SOL    HW129495   2.532   0.961   1.642
 9532SOL    HW229496   2.565   1.112   1.692
 9533SOL     OW29497   2.080   0.096   5.215
 9533SOL    HW129498   2.146   0.153   5.264
 9533SOL    HW229499   1.994   0.146   5.203
 9534SOL     OW29500   4.703   1.945   4.858
 9534SOL    HW129501   4.687   2.044   4.863
 9534SOL    HW229502   4.772   1.926   4.788
 9535SOL     OW29503   2.166   2.191   5.899
 9535SOL    HW129504   2.228   2.269   5.893
 9535SOL    HW229505   2.079   2.221   5.937
 9536SOL     OW29506   2.798   6.899   6.389
 9536SOL    HW129507   2.700   6.914   6.401
 9536SOL    HW229508   2.821   6.806   6.416
 9537SOL     OW29509   3.065   6.990   0.967
 9537SOL    HW129510   3.069   0.062   0.996
 9537SOL    HW229511   3.111   6.933   1.035
 9538SOL     OW29512   5.849   3.047   3.786
 9538SOL    HW129513   5.808   3.033   3.877
 9538SOL    HW229514   5.788   3.008   3.717
 9539SOL     OW29515   0.128   4.889   1.320
 9539SOL    HW129516   0.101   4.810   1.266
 9539SOL    HW229517   0.162   4.859   1.409
 9540SOL     OW29518   5.315   3.926   4.782
 9540SOL    HW129519   5.255   3.888   4.712
 9540SOL    HW229520   5.282   4.015   4.810
 9541SOL     OW29521   1.347   1.770   3.782
 9541SOL    HW129522   1.433   1.808   3.749
 9541SOL    HW229523   1.359   1.735   3.875
 9542SOL     OW29524   5.018   3.812   4.716
 9542SOL    HW129525   5.039   3.797   4.813
 9542SOL    HW229526   5.016   3.724   4.669
 9543SOL     OW29527   4.867   2.227   1.872
 9543SOL    HW129528   4.942   2.254   1.811
 9543SOL    HW229529   4.813   2.307   1.895
 9544SOL     OW29530   3.393   1.769   2.157
 9544SOL    HW129531   3.407   1.671   2.172
 9544SOL    HW229532   3.473   1.807   2.110
 9545SOL     OW29533   0.219   6.780   4.280
 9545SOL    HW129534   0.219   6.692   4.232
 9545SOL    HW229535   0.173   6.849   4.224
 9546SOL     OW29536   2.539   4.652   1.269
 9546SOL    HW129537   2.456   4.657   1.324
 9546SOL    HW229538   2.566   4.557   1.257
 9547SOL     OW29539   6.326   6.013   3.096
 9547SOL    HW129540   6.402   6.029   3.158
 9547SOL    HW229541   6.338   6.068   3.013
 9548SOL     OW29542   4.661   6.290   2.829
 9548SOL    HW129543   4.654   6.377   2.780
 9548SOL    HW229544   4.666   6.308   2.927
 9549SOL     OW29545   2.835   5.750   0.684
 9549SOL    HW129546   2.870   5.821   0.746
 9549SOL    HW229547   2.911   5.706   0.638
 9550SOL     OW29548   0.900   1.806   0.303
 9550SOL    HW129549   0.879   1.874   0.233
 9550SOL    HW229550   0.830   1.808   0.374
 9551SOL     OW29551   2.290   5.857   4.979
 9551SOL    HW129552   2.312   5.953   4.996
 9551SOL    HW229553   2.192   5.843   4.994
 9552SOL     OW29554   1.200   5.320   3.458
 9552SOL    HW129555   1.139   5.314   3.538
 9552SOL    HW229556   1.294   5.309   3.488
 9553SOL     OW29557   5.239   4.738   5.535
 9553SOL    HW129558   5.260   4.664   5.472
 9553SOL    HW229559   5.225   4.823   5.484
 9554SOL     OW29560   2.483   1.354   1.926
 9554SOL    HW129561   2.453   1.259   1.915
 9554SOL    HW229562   2.442   1.411   1.856
 9555SOL     OW29563   6.322   2.218   6.780
 9555SOL    HW129564   6.327   2.159   6.860
 9555SOL    HW229565   6.355   2.310   6.804
 9556SOL     OW29566   0.211   1.722   0.973
 9556SOL    HW129567   0.282   1.712   0.904
 9556SOL    HW229568   0.179   1.631   1.000
 9557SOL     OW29569   5.239   2.289   1.493
 9557SOL    HW129570   5.310   2.246   1.549
 9557SOL    HW229571   5.274   2.306   1.401
 9558SOL     OW29572   6.307   4.901   1.991
 9558SOL    HW129573   6.304   4.983   1.934
 9558SOL    HW229574   6.258   4.827   1.944
 9559SOL     OW29575   6.533   2.562   2.178
 9559SOL    HW129576   6.553   2.623   2.254
 9559SOL    HW229577   6.523   2.616   2.094
 9560SOL     OW29578   3.110   1.772   4.223
 9560SOL    HW129579   3.016   1.793   4.196
 9560SOL    HW229580   3.163   1.857   4.229
 9561SOL     OW29581   4.392   6.899   0.877
 9561SOL    HW129582   4.409   6.831   0.948
 9561SOL    HW229583   4.354   6.854   0.796
 9562SOL     OW29584   5.748   5.569   3.283
 9562SOL    HW129585   5.657   5.578   3.325
 9562SOL    HW229586   5.742   5.594   3.187
 9563SOL     OW29587   0.120   5.788   6.698
 9563SOL    HW129588   0.132   5.873   6.647
 9563SOL    HW229589   0.130   5.806   6.796
 9564SOL     OW29590   2.213   0.117   0.098
 9564SOL    HW129591   2.266   0.097   0.016
 9564SOL    HW229592   2.116   0.106   0.078
 9565SOL     OW29593   4.144   6.164   4.226
 9565SOL    HW129594   4.055   6.136   4.259
 9565SOL    HW229595   4.163   6.257   4.256
 9566SOL     OW29596   3.294   4.877   5.020
 9566SOL    HW129597   3.346   4.803   4.976
 9566SOL    HW229598   3.200   4.847   5.033
 9567SOL     OW29599   6.127   5.940   5.707
 9567SOL    HW129600   6.032   5.914   5.722
 9567SOL    HW229601   6.131   6.035   5.674
 9568SOL     OW29602   5.337   3.737   6.449
 9568SOL    HW129603   5.271   3.674   6.492
 9568SOL    HW229604   5.289   3.818   6.416
 9569SOL     OW29605   6.126   0.176   1.278
 9569SOL    HW129606   6.146   0.106   1.346
 9569SOL    HW229607   6.121   0.265   1.322
 9570SOL     OW29608   0.716   0.134   6.703
 9570SOL    HW129609   0.704   0.129   6.802
 9570SOL    HW229610   0.700   0.044   6.663
 9571SOL     OW29611   2.193   3.336   0.051
 9571SOL    HW129612   2.229   3.297   6.990
 9571SOL    HW229613   2.187   3.264   0.120
 9572SOL     OW29614   0.806   4.072   0.627
 9572SOL    HW129615   0.852   4.013   0.560
 9572SOL    HW229616   0.799   4.164   0.590
 9573SOL     OW29617   6.487   2.138   1.833
 9573SOL    HW129618   6.419   2.157   1.762
 9573SOL    HW229619   6.442   2.129   1.922
 9574SOL     OW29620   2.546   2.129   4.763
 9574SOL    HW129621   2.524   2.226   4.770
 9574SOL    HW229622   2.639   2.119   4.729
 9575SOL     OW29623   4.895   0.933   1.647
 9575SOL    HW129624   4.955   1.013   1.655
 9575SOL    HW229625   4.803   0.958   1.675
 9576SOL     OW29626   3.739   1.386   4.916
 9576SOL    HW129627   3.672   1.318   4.948
 9576SOL    HW229628   3.733   1.467   4.973
 9577SOL     OW29629   0.239   6.295   3.018
 9577SOL    HW129630   0.249   6.361   3.093
 9577SOL    HW229631   0.329   6.265   2.988
 9578SOL     OW29632   5.737   3.681   1.459
 9578SOL    HW129633   5.788   3.605   1.499
 9578SOL    HW229634   5.651   3.692   1.508
 9579SOL     OW29635   1.094   6.396   2.630
 9579SOL    HW129636   1.153   6.371   2.707
 9579SOL    HW229637   1.008   6.346   2.637
 9580SOL     OW29638   4.400   3.815   6.300
 9580SOL    HW129639   4.333   3.750   6.336
 9580SOL    HW229640   4.359   3.864   6.222
 9581SOL     OW29641   1.698   5.123   6.123
 9581SOL    HW129642   1.732   5.050   6.182
 9581SOL    HW229643   1.602   5.141   6.145
 9582SOL     OW29644   4.544   4.864   4.878
 9582SOL    HW129645   4.542   4.778   4.827
 9582SOL    HW229646   4.590   4.935   4.825
 9583SOL     OW29647   2.445   4.486   1.918
 9583SOL    HW129648   2.377   4.513   1.850
 9583SOL    HW229649   2.403   4.422   1.983
 9584SOL     OW29650   5.432   5.758   6.476
 9584SOL    HW129651   5.336   5.762   6.449
 9584SOL    HW229652   5.460   5.663   6.487
 9585SOL     OW29653   0.408   6.762   3.879
 9585SOL    HW129654   0.431   6.687   3.941
 9585SOL    HW229655   0.475   6.835   3.888
 9586SOL     OW29656   5.183   3.356   2.413
 9586SOL    HW129657   5.102   3.380   2.466
 9586SOL    HW229658   5.201   3.429   2.346
 9587SOL     OW29659   4.684   6.579   2.724
 9587SOL    HW129660   4.739   6.619   2.797
 9587SOL    HW229661   4.738   6.573   2.640
 9588SOL     OW29662   0.113   0.729   3.153
 9588SOL    HW129663   0.205   0.742   3.189
 9588SOL    HW229664   0.106   0.638   3.112
 9589SOL     OW29665   2.418   1.929   5.890
 9589SOL    HW129666   2.331   1.918   5.938
 9589SOL    HW229667   2.465   2.010   5.924
 9590SOL     OW29668   0.176   4.565   4.538
 9590SOL    HW129669   0.122   4.491   4.500
 9590SOL    HW229670   0.235   4.604   4.467
 9591SOL     OW29671   1.380   4.400   2.352
 9591SOL    HW129672   1.409   4.385   2.257
 9591SOL    HW229673   1.286   4.433   2.354
 9592SOL     OW29674   5.168   5.586   2.189
 9592SOL    HW129675   5.092   5.650   2.197
 9592SOL    HW229676   5.168   5.545   2.097
 9593SOL     OW29677   1.681   3.073   4.254
 9593SOL    HW129678   1.749   3.040   4.320
 9593SOL    HW229679   1.723   3.141   4.194
 9594SOL     OW29680   6.178   6.672   1.913
 9594SOL    HW129681   6.233   6.610   1.969
 9594SOL    HW229682   6.207   6.665   1.817
 9595SOL     OW29683   1.038   3.938   4.503
 9595SOL    HW129684   1.044   4.038   4.497
 9595SOL    HW229685   0.942   3.912   4.516
 9596SOL     OW29686   4.739   5.594   2.852
 9596SOL    HW129687   4.819   5.650   2.830
 9596SOL    HW229688   4.709   5.544   2.771
 9597SOL     OW29689   1.921   3.942   1.196
 9597SOL    HW129690   2.000   4.003   1.188
 9597SOL    HW229691   1.868   3.944   1.111
 9598SOL     OW29692   1.185   5.853   5.594
 9598SOL    HW129693   1.241   5.780   5.634
 9598SOL    HW229694   1.089   5.839   5.619
 9599SOL     OW29695   4.809   1.511   3.944
 9599SOL    HW129696   4.795   1.608   3.960
 9599SOL    HW229697   4.882   1.478   4.005
 9600SOL     OW29698   1.476   6.381   0.001
 9600SOL    HW129699   1.427   6.398   0.087
 9600SOL    HW229700   1.439   6.299   6.981
 9601SOL     OW29701   0.641   6.091   6.014
 9601SOL    HW129702   0.704   6.037   5.959
 9601SOL    HW229703   0.647   6.187   5.987
 9602SOL     OW29704   1.065   5.606   0.393
 9602SOL    HW129705   1.106   5.517   0.374
 9602SOL    HW229706   1.121   5.655   0.460
 9603SOL     OW29707   1.074   4.525   4.015
 9603SOL    HW129708   1.164   4.493   3.986
 9603SOL    HW229709   1.045   4.476   4.097
 9604SOL     OW29710   6.903   0.136   0.507
 9604SOL    HW129711   6.826   0.073   0.516
 9604SOL    HW229712   6.872   0.229   0.523
 9605SOL     OW29713   2.396   5.753   0.028
 9605SOL    HW129714   2.482   5.800   0.045
 9605SOL    HW229715   2.391   5.727   6.955
 9606SOL     OW29716   6.244   0.050   4.975
 9606SOL    HW129717   6.294   0.102   4.905
 9606SOL    HW229718   6.206   0.113   5.043
 9607SOL     OW29719   0.470   2.781   2.338
 9607SOL    HW129720   0.490   2.879   2.336
 9607SOL    HW229721   0.464   2.750   2.433
 9608SOL     OW29722   6.775   0.253   2.717
 9608SOL    HW129723   6.849   0.211   2.664
 9608SOL    HW229724   6.814   0.295   2.799
 9609SOL     OW29725   1.732   2.011   3.360
 9609SOL    HW129726   1.803   1.995   3.428
 9609SOL    HW229727   1.755   2.091   3.304
 9610SOL     OW29728   3.213   2.323   6.169
 9610SOL    HW129729   3.273   2.398   6.198
 9610SOL    HW229730   3.158   2.352   6.092
 9611SOL     OW29731   5.924   5.654   1.186
 9611SOL    HW129732   5.965   5.701   1.264
 9611SOL    HW229733   5.995   5.609   1.132
 9612SOL     OW29734   4.866   3.800   2.957
 9612SOL    HW129735   4.767   3.785   2.958
 9612SOL    HW229736   4.895   3.819   2.863
 9613SOL     OW29737   5.967   6.558   5.670
 9613SOL    HW129738   5.906   6.485   5.640
 9613SOL    HW229739   5.944   6.585   5.763
 9614SOL     OW29740   3.601   2.883   2.057
 9614SOL    HW129741   3.585   2.982   2.054
 9614SOL    HW229742   3.531   2.837   2.003
 9615SOL     OW29743   0.483   6.525   3.456
 9615SOL    HW129744   0.546   6.450   3.436
 9615SOL    HW229745   0.414   6.494   3.522
 9616SOL     OW29746   2.172   3.222   1.283
 9616SOL    HW129747   2.126   3.134   1.272
 9616SOL    HW229748   2.268   3.208   1.305
 9617SOL     OW29749   0.941   3.619   2.375
 9617SOL    HW129750   1.006   3.545   2.393
 9617SOL    HW229751   0.968   3.700   2.428
 9618SOL     OW29752   3.849   4.982   0.577
 9618SOL    HW129753   3.898   5.033   0.647
 9618SOL    HW229754   3.815   5.045   0.508
 9619SOL     OW29755   2.079   6.973   0.951
 9619SOL    HW129756   2.006   6.913   0.919
 9619SOL    HW229757   2.164   6.921   0.960
 9620SOL     OW29758   3.848   1.856   6.963
 9620SOL    HW129759   3.794   1.940   6.963
 9620SOL    HW229760   3.828   1.803   6.880
 9621SOL     OW29761   1.004   2.150   2.108
 9621SOL    HW129762   1.060   2.134   2.189
 9621SOL    HW229763   1.024   2.080   2.039
 9622SOL     OW29764   0.033   6.067   5.619
 9622SOL    HW129765   0.081   6.153   5.636
 9622SOL    HW229766   6.999   6.076   5.538
 9623SOL     OW29767   4.839   6.883   5.874
 9623SOL    HW129768   4.832   6.888   5.974
 9623SOL    HW229769   4.906   6.813   5.849
 9624SOL     OW29770   4.713   5.283   5.015
 9624SOL    HW129771   4.786   5.217   5.034
 9624SOL    HW229772   4.753   5.373   4.999
 9625SOL     OW29773   4.880   3.515   5.642
 9625SOL    HW129774   4.895   3.426   5.685
 9625SOL    HW229775   4.783   3.524   5.619
 9626SOL     OW29776   1.791   2.452   6.296
 9626SOL    HW129777   1.726   2.525   6.279
 9626SOL    HW229778   1.833   2.465   6.386
 9627SOL     OW29779   0.426   5.400   0.317
 9627SOL    HW129780   0.355   5.389   0.387
 9627SOL    HW229781   0.502   5.452   0.356
 9628SOL     OW29782   5.901   1.418   6.016
 9628SOL    HW129783   5.987   1.375   5.990
 9628SOL    HW229784   5.886   1.407   6.115
 9629SOL     OW29785   0.282   5.526   4.140
 9629SOL    HW129786   0.379   5.501   4.144
 9629SOL    HW229787   0.229   5.462   4.194
 9630SOL     OW29788   5.877   0.159   5.166
 9630SOL    HW129789   5.914   0.112   5.246
 9630SOL    HW229790   5.793   0.113   5.136
 9631SOL     OW29791   3.376   0.080   0.492
 9631SOL    HW129792   3.464   0.111   0.454
 9631SOL    HW229793   3.314   0.057   0.417
 9632SOL     OW29794   3.438   5.420   2.179
 9632SOL    HW129795   3.470   5.498   2.125
 9632SOL    HW229796   3.408   5.347   2.118
 9633SOL     OW29797   3.819   3.265   3.049
 9633SOL    HW129798   3.753   3.191   3.035
 9633SOL    HW229799   3.831   3.316   2.964
 9634SOL     OW29800   5.533   4.906   3.342
 9634SOL    HW129801   5.557   4.814   3.315
 9634SOL    HW229802   5.525   4.965   3.261
 9635SOL     OW29803   1.138   5.256   3.940
 9635SOL    HW129804   1.108   5.179   3.996
 9635SOL    HW229805   1.202   5.312   3.993
 9636SOL     OW29806   5.186   3.794   4.088
 9636SOL    HW129807   5.216   3.773   4.180
 9636SOL    HW229808   5.154   3.889   4.084
 9637SOL     OW29809   1.605   3.152   0.124
 9637SOL    HW129810   1.684   3.124   0.069
 9637SOL    HW229811   1.572   3.073   0.176
 9638SOL     OW29812   5.678   5.582   5.539
 9638SOL    HW129813   5.682   5.538   5.629
 9638SOL    HW229814   5.646   5.515   5.472
 9639SOL     OW29815   4.255   1.905   2.001
 9639SOL    HW129816   4.198   1.890   2.081
 9639SOL    HW229817   4.324   1.974   2.022
 9640SOL     OW29818   4.527   0.256   3.054
 9640SOL    HW129819   4.606   0.309   3.085
 9640SOL    HW229820   4.552   0.201   2.975
 9641SOL     OW29821   6.286   3.403   3.259
 9641SOL    HW129822   6.286   3.489   3.311
 9641SOL    HW229823   6.334   3.333   3.312
 9642SOL     OW29824   1.296   0.243   4.434
 9642SOL    HW129825   1.238   0.216   4.511
 9642SOL    HW229826   1.240   0.269   4.356
 9643SOL     OW29827   4.937   5.172   4.651
 9643SOL    HW129828   4.935   5.216   4.561
 9643SOL    HW229829   4.930   5.243   4.722
 9644SOL     OW29830   1.711   5.299   4.137
 9644SOL    HW129831   1.711   5.204   4.167
 9644SOL    HW229832   1.704   5.359   4.218
 9645SOL     OW29833   0.684   4.749   6.121
 9645SOL    HW129834   0.619   4.815   6.083
 9645SOL    HW229835   0.667   4.659   6.081
 9646SOL     OW29836   4.536   5.434   6.512
 9646SOL    HW129837   4.515   5.363   6.579
 9646SOL    HW229838   4.457   5.447   6.452
 9647SOL     OW29839   6.449   6.609   3.314
 9647SOL    HW129840   6.537   6.585   3.273
 9647SOL    HW229841   6.413   6.530   3.364
 9648SOL     OW29842   4.071   1.987   1.003
 9648SOL    HW129843   3.971   1.996   0.999
 9648SOL    HW229844   4.111   2.024   0.919
 9649SOL     OW29845   1.165   5.510   0.065
 9649SOL    HW129846   1.128   5.584   0.123
 9649SOL    HW229847   1.218   5.550   7.014
 9650SOL     OW29848   6.989   4.721   4.382
 9650SOL    HW129849   0.022   4.680   4.453
 9650SOL    HW229850   6.977   4.656   4.307
 9651SOL     OW29851   4.257   1.620   0.061
 9651SOL    HW129852   4.235   1.608   0.158
 9651SOL    HW229853   4.204   1.696   0.024
 9652SOL     OW29854   0.445   4.182   0.395
 9652SOL    HW129855   0.544   4.176   0.379
 9652SOL    HW229856   0.396   4.147   0.315
 9653SOL     OW29857   4.548   4.116   5.981
 9653SOL    HW129858   4.600   4.068   6.050
 9653SOL    HW229859   4.597   4.112   5.893
 9654SOL     OW29860   3.519   3.715   3.029
 9654SOL    HW129861   3.462   3.760   3.098
 9654SOL    HW229862   3.593   3.665   3.074
 9655SOL     OW29863   4.198   1.357   1.191
 9655SOL    HW129864   4.136   1.391   1.261
 9655SOL    HW229865   4.211   1.427   1.121
 9656SOL     OW29866   5.890   3.961   0.337
 9656SOL    HW129867   5.863   3.866   0.321
 9656SOL    HW229868   5.816   4.022   0.307
 9657SOL     OW29869   5.679   3.890   3.939
 9657SOL    HW129870   5.738   3.946   3.882
 9657SOL    HW229871   5.583   3.913   3.920
 9658SOL     OW29872   4.699   1.932   2.360
 9658SOL    HW129873   4.788   1.921   2.316
 9658SOL    HW229874   4.692   1.870   2.438
 9659SOL     OW29875   2.656   3.116   6.609
 9659SOL    HW129876   2.722   3.085   6.541
 9659SOL    HW229877   2.686   3.203   6.648
 9660SOL     OW29878   1.393   6.134   1.957
 9660SOL    HW129879   1.458   6.208   1.940
 9660SOL    HW229880   1.441   6.055   1.997
 9661SOL     OW29881   4.460   3.743   0.775
 9661SOL    HW129882   4.474   3.762   0.872
 9661SOL    HW229883   4.548   3.733   0.730
 9662SOL     OW29884   5.515   5.347   6.015
 9662SOL    HW129885   5.434   5.289   6.006
 9662SOL    HW229886   5.496   5.421   6.079
 9663SOL     OW29887   0.891   5.236   2.395
 9663SOL    HW129888   0.890   5.335   2.411
 9663SOL    HW229889   0.892   5.188   2.482
 9664SOL     OW29890   4.766   4.664   2.392
 9664SOL    HW129891   4.853   4.625   2.360
 9664SOL    HW229892   4.696   4.592   2.395
 9665SOL     OW29893   6.720   5.851   6.499
 9665SOL    HW129894   6.624   5.834   6.478
 9665SOL    HW229895   6.762   5.768   6.536
 9666SOL     OW29896   5.714   4.103   0.002
 9666SOL    HW129897   5.656   4.024   0.021
 9666SOL    HW229898   5.766   4.088   6.943
 9667SOL     OW29899   5.762   5.995   6.290
 9667SOL    HW129900   5.746   6.091   6.314
 9667SOL    HW229901   5.832   5.957   6.350
 9668SOL     OW29902   0.799   0.572   6.478
 9668SOL    HW129903   0.887   0.619   6.469
 9668SOL    HW229904   0.810   0.476   6.452
 9669SOL     OW29905   3.593   0.550   0.242
 9669SOL    HW129906   3.539   0.597   0.172
 9669SOL    HW229907   3.638   0.618   0.300
 9670SOL     OW29908   0.002   7.012   0.306
 9670SOL    HW129909   6.987   0.021   0.220
 9670SOL    HW229910   6.976   0.028   0.383
 9671SOL     OW29911   1.255   5.312   6.613
 9671SOL    HW129912   1.312   5.389   6.639
 9671SOL    HW229913   1.168   5.317   6.662
 9672SOL     OW29914   0.927   3.355   3.853
 9672SOL    HW129915   0.839   3.319   3.823
 9672SOL    HW229916   0.994   3.280   3.859
 9673SOL     OW29917   2.024   3.442   0.280
 9673SOL    HW129918   1.936   3.445   0.233
 9673SOL    HW229919   2.093   3.404   0.219
 9674SOL     OW29920   2.506   6.324   4.388
 9674SOL    HW129921   2.515   6.379   4.305
 9674SOL    HW229922   2.560   6.365   4.461
 9675SOL     OW29923   5.959   3.398   6.526
 9675SOL    HW129924   5.971   3.460   6.604
 9675SOL    HW229925   5.933   3.307   6.560
 9676SOL     OW29926   0.776   2.709   0.249
 9676SOL    HW129927   0.783   2.779   0.320
 9676SOL    HW229928   0.863   2.702   0.200
 9677SOL     OW29929   6.981   5.111   1.420
 9677SOL    HW129930   0.019   5.082   1.347
 9677SOL    HW229931   6.985   5.044   1.495
 9678SOL     OW29932   3.555   3.434   5.347
 9678SOL    HW129933   3.535   3.510   5.408
 9678SOL    HW229934   3.474   3.411   5.293
 9679SOL     OW29935   1.528   1.613   4.506
 9679SOL    HW129936   1.542   1.522   4.543
 9679SOL    HW229937   1.615   1.662   4.503
 9680SOL     OW29938   4.761   6.279   2.060
 9680SOL    HW129939   4.801   6.233   1.981
 9680SOL    HW229940   4.821   6.270   2.139
 9681SOL     OW29941   1.356   1.694   1.708
 9681SOL    HW129942   1.404   1.639   1.777
 9681SOL    HW229943   1.333   1.636   1.630
 9682SOL     OW29944   4.874   6.298   5.570
 9682SOL    HW129945   4.807   6.237   5.527
 9682SOL    HW229946   4.831   6.388   5.585
 9683SOL     OW29947   3.173   6.216   2.505
 9683SOL    HW129948   3.235   6.276   2.454
 9683SOL    HW229949   3.201   6.121   2.493
 9684SOL     OW29950   0.066   3.278   5.674
 9684SOL    HW129951   0.048   3.376   5.666
 9684SOL    HW229952   0.056   3.235   5.584
 9685SOL     OW29953   3.938   4.152   1.326
 9685SOL    HW129954   4.027   4.115   1.300
 9685SOL    HW229955   3.867   4.109   1.271
 9686SOL     OW29956   6.800   1.620   5.438
 9686SOL    HW129957   6.742   1.701   5.435
 9686SOL    HW229958   6.890   1.642   5.401
 9687SOL     OW29959   6.055   1.307   3.213
 9687SOL    HW129960   6.050   1.263   3.124
 9687SOL    HW229961   6.104   1.393   3.206
 9688SOL     OW29962   0.861   4.413   1.111
 9688SOL    HW129963   0.806   4.340   1.070
 9688SOL    HW229964   0.903   4.380   1.195
 9689SOL     OW29965   2.504   6.188   1.048
 9689SOL    HW129966   2.490   6.286   1.061
 9689SOL    HW229967   2.571   6.173   0.975
 9690SOL     OW29968   6.612   5.163   4.973
 9690SOL    HW129969   6.606   5.262   4.963
 9690SOL    HW229970   6.576   5.119   4.891
 9691SOL     OW29971   2.950   3.771   1.673
 9691SOL    HW129972   3.022   3.750   1.608
 9691SOL    HW229973   2.964   3.717   1.757
 9692SOL     OW29974   4.900   4.057   0.800
 9692SOL    HW129975   4.925   4.147   0.835
 9692SOL    HW229976   4.895   4.061   0.700
 9693SOL     OW29977   5.098   3.236   5.220
 9693SOL    HW129978   5.048   3.303   5.274
 9693SOL    HW229979   5.195   3.237   5.246
 9694SOL     OW29980   2.710   0.206   2.225
 9694SOL    HW129981   2.790   0.256   2.191
 9694SOL    HW229982   2.628   0.262   2.213
 9695SOL     OW29983   0.762   2.644   2.867
 9695SOL    HW129984   0.735   2.694   2.784
 9695SOL    HW229985   0.695   2.573   2.886
 9696SOL     OW29986   5.052   2.346   3.444
 9696SOL    HW129987   5.128   2.326   3.382
 9696SOL    HW229988   5.033   2.444   3.442
 9697SOL     OW29989   0.579   6.959   0.890
 9697SOL    HW129990   0.621   6.905   0.817
 9697SOL    HW229991   0.504   6.907   0.930
 9698SOL     OW29992   6.171   3.593   1.684
 9698SOL    HW129993   6.092   3.654   1.680
 9698SOL    HW229994   6.192   3.571   1.779
 9699SOL     OW29995   1.317   6.152   0.873
 9699SOL    HW129996   1.373   6.071   0.856
 9699SOL    HW229997   1.376   6.227   0.905
 9700SOL     OW29998   5.545   0.328   5.307
 9700SOL    HW129999   5.533   0.411   5.252
 9700SOL    HW230000   5.598   0.349   5.389
 9701SOL     OW30001   4.035   3.834   6.560
 9701SOL    HW130002   4.048   3.929   6.530
 9701SOL    HW230003   4.114   3.805   6.613
 9702SOL     OW30004   3.585   3.817   1.956
 9702SOL    HW130005   3.604   3.719   1.963
 9702SOL    HW230006   3.487   3.831   1.944
 9703SOL     OW30007   6.758   4.392   4.802
 9703SOL    HW130008   6.680   4.352   4.753
 9703SOL    HW230009   6.843   4.353   4.766
 9704SOL     OW30010   1.685   3.852   3.022
 9704SOL    HW130011   1.762   3.822   2.965
 9704SOL    HW230012   1.613   3.888   2.963
 9705SOL     OW30013   6.083   3.704   5.352
 9705SOL    HW130014   6.010   3.638   5.366
 9705SOL    HW230015   6.124   3.728   5.440
 9706SOL     OW30016   0.670   1.497   2.731
 9706SOL    HW130017   0.673   1.430   2.656
 9706SOL    HW230018   0.715   1.581   2.703
 9707SOL     OW30019   1.201   4.891   2.274
 9707SOL    HW130020   1.181   4.839   2.357
 9707SOL    HW230021   1.226   4.985   2.298
 9708SOL     OW30022   2.604   0.688   1.449
 9708SOL    HW130023   2.640   0.715   1.360
 9708SOL    HW230024   2.524   0.630   1.436
 9709SOL     OW30025   5.369   2.028   1.504
 9709SOL    HW130026   5.381   1.944   1.558
 9709SOL    HW230027   5.271   2.049   1.497
 9710SOL     OW30028   6.759   5.630   3.740
 9710SOL    HW130029   6.760   5.667   3.833
 9710SOL    HW230030   6.830   5.560   3.731
 9711SOL     OW30031   3.509   0.957   0.658
 9711SOL    HW130032   3.531   0.972   0.562
 9711SOL    HW230033   3.410   0.966   0.672
 9712SOL     OW30034   5.467   1.846   6.193
 9712SOL    HW130035   5.541   1.789   6.229
 9712SOL    HW230036   5.444   1.917   6.259
 9713SOL     OW30037   0.968   6.315   2.993
 9713SOL    HW130038   0.911   6.327   2.912
 9713SOL    HW230039   1.028   6.395   3.003
 9714SOL     OW30040   2.396   4.393   4.173
 9714SOL    HW130041   2.402   4.387   4.273
 9714SOL    HW230042   2.424   4.306   4.133
 9715SOL     OW30043   6.874   3.286   6.945
 9715SOL    HW130044   6.829   3.306   6.858
 9715SOL    HW230045   6.973   3.288   6.934
 9716SOL     OW30046   2.156   5.325   0.080
 9716SOL    HW130047   2.073   5.270   0.081
 9716SOL    HW230048   2.235   5.266   0.099
 9717SOL     OW30049   4.108   2.228   5.417
 9717SOL    HW130050   4.114   2.299   5.488
 9717SOL    HW230051   4.040   2.160   5.445
 9718SOL     OW30052   3.933   2.689   6.292
 9718SOL    HW130053   3.959   2.616   6.355
 9718SOL    HW230054   3.852   2.661   6.240
 9719SOL     OW30055   5.041   0.067   5.846
 9719SOL    HW130056   4.987   7.007   5.858
 9719SOL    HW230057   5.119   0.065   5.908
 9720SOL     OW30058   2.163   3.176   3.296
 9720SOL    HW130059   2.228   3.238   3.252
 9720SOL    HW230060   2.085   3.161   3.235
 9721SOL     OW30061   0.890   1.414   0.437
 9721SOL    HW130062   0.846   1.453   0.517
 9721SOL    HW230063   0.987   1.439   0.437
 9722SOL     OW30064   4.198   2.792   5.371
 9722SOL    HW130065   4.194   2.715   5.307
 9722SOL    HW230066   4.120   2.853   5.354
 9723SOL     OW30067   6.388   0.236   4.796
 9723SOL    HW130068   6.468   0.239   4.736
 9723SOL    HW230069   6.370   0.327   4.833
 9724SOL     OW30070   1.567   5.436   6.954
 9724SOL    HW130071   1.660   5.472   6.958
 9724SOL    HW230072   1.552   5.371   0.004
 9725SOL     OW30073   4.321   5.393   4.938
 9725SOL    HW130074   4.274   5.358   4.856
 9725SOL    HW230075   4.264   5.461   4.983
 9726SOL     OW30076   0.033   1.303   3.988
 9726SOL    HW130077   0.042   1.311   3.889
 9726SOL    HW230078   0.091   1.229   4.022
 9727SOL     OW30079   0.349   1.231   0.944
 9727SOL    HW130080   0.259   1.202   0.976
 9727SOL    HW230081   0.412   1.154   0.947
 9728SOL     OW30082   4.686   1.613   4.840
 9728SOL    HW130083   4.626   1.553   4.786
 9728SOL    HW230084   4.702   1.571   4.929
 9729SOL     OW30085   0.503   5.087   2.725
 9729SOL    HW130086   0.456   5.171   2.698
 9729SOL    HW230087   0.538   5.041   2.644
 9730SOL     OW30088   0.555   3.902   3.036
 9730SOL    HW130089   0.596   3.988   3.004
 9730SOL    HW230090   0.455   3.909   3.029
 9731SOL     OW30091   5.142   3.655   1.583
 9731SOL    HW130092   5.106   3.628   1.494
 9731SOL    HW230093   5.163   3.574   1.637
 9732SOL     OW30094   1.871   3.148   3.171
 9732SOL    HW130095   1.815   3.088   3.114
 9732SOL    HW230096   1.874   3.239   3.130
 9733SOL     OW30097   6.010   4.767   2.474
 9733SOL    HW130098   6.073   4.690   2.483
 9733SOL    HW230099   6.056   4.851   2.503
 9734SOL     OW30100   5.155   5.740   6.406
 9734SOL    HW130101   5.073   5.751   6.462
 9734SOL    HW230102   5.149   5.798   6.325
 9735SOL     OW30103   0.534   2.750   0.985
 9735SOL    HW130104   0.562   2.711   0.898
 9735SOL    HW230105   0.592   2.713   1.058
 9736SOL     OW30106   5.138   1.467   4.460
 9736SOL    HW130107   5.117   1.522   4.379
 9736SOL    HW230108   5.162   1.527   4.536
 9737SOL     OW30109   5.693   3.254   2.570
 9737SOL    HW130110   5.593   3.248   2.577
 9737SOL    HW230111   5.724   3.207   2.488
 9738SOL     OW30112   2.569   6.284   1.825
 9738SOL    HW130113   2.603   6.377   1.826
 9738SOL    HW230114   2.487   6.279   1.767
 9739SOL     OW30115   5.913   6.824   6.837
 9739SOL    HW130116   5.951   6.855   6.924
 9739SOL    HW230117   5.850   6.748   6.853
 9740SOL     OW30118   6.102   0.553   3.033
 9740SOL    HW130119   6.079   0.650   3.038
 9740SOL    HW230120   6.022   0.501   3.002
 9741SOL     OW30121   2.402   1.897   4.778
 9741SOL    HW130122   2.442   1.826   4.837
 9741SOL    HW230123   2.444   1.985   4.799
 9742SOL     OW30124   4.109   2.081   6.071
 9742SOL    HW130125   4.204   2.057   6.050
 9742SOL    HW230126   4.066   2.006   6.122
 9743SOL     OW30127   5.314   3.702   4.544
 9743SOL    HW130128   5.259   3.622   4.565
 9743SOL    HW230129   5.407   3.674   4.519
 9744SOL     OW30130   1.517   1.222   3.276
 9744SOL    HW130131   1.463   1.254   3.198
 9744SOL    HW230132   1.458   1.169   3.338
 9745SOL     OW30133   6.827   0.511   6.026
 9745SOL    HW130134   6.814   0.598   6.073
 9745SOL    HW230135   6.918   0.475   6.045
 9746SOL     OW30136   4.319   5.323   6.086
 9746SOL    HW130137   4.355   5.388   6.153
 9746SOL    HW230138   4.221   5.311   6.100
 9747SOL     OW30139   2.297   1.640   3.052
 9747SOL    HW130140   2.242   1.672   3.130
 9747SOL    HW230141   2.394   1.650   3.074
 9748SOL     OW30142   1.240   0.575   3.665
 9748SOL    HW130143   1.331   0.612   3.649
 9748SOL    HW230144   1.229   0.553   3.762
 9749SOL     OW30145   6.522   0.686   2.156
 9749SOL    HW130146   6.428   0.706   2.184
 9749SOL    HW230147   6.582   0.683   2.236
 9750SOL     OW30148   6.324   2.873   4.064
 9750SOL    HW130149   6.385   2.930   4.009
 9750SOL    HW230150   6.325   2.779   4.028
 9751SOL     OW30151   3.401   0.189   1.853
 9751SOL    HW130152   3.367   0.238   1.773
 9751SOL    HW230153   3.352   0.102   1.862
 9752SOL     OW30154   3.341   3.424   6.807
 9752SOL    HW130155   3.252   3.442   6.763
 9752SOL    HW230156   3.330   3.425   6.906
 9753SOL     OW30157   6.894   6.471   5.051
 9753SOL    HW130158   6.922   6.494   4.958
 9753SOL    HW230159   6.797   6.445   5.051
 9754SOL     OW30160   3.299   1.060   1.561
 9754SOL    HW130161   3.307   1.005   1.478
 9754SOL    HW230162   3.389   1.070   1.603
 9755SOL     OW30163   2.979   4.402   0.498
 9755SOL    HW130164   2.959   4.336   0.426
 9755SOL    HW230165   2.913   4.391   0.572
 9756SOL     OW30166   5.584   0.243   5.937
 9756SOL    HW130167   5.655   0.272   5.874
 9756SOL    HW230168   5.614   0.160   5.985
 9757SOL     OW30169   4.989   4.665   4.235
 9757SOL    HW130170   5.078   4.655   4.190
 9757SOL    HW230171   4.916   4.655   4.168
 9758SOL     OW30172   2.253   0.312   1.719
 9758SOL    HW130173   2.250   0.234   1.782
 9758SOL    HW230174   2.256   0.277   1.625
 9759SOL     OW30175   6.734   0.972   1.544
 9759SOL    HW130176   6.781   0.910   1.480
 9759SOL    HW230177   6.800   1.036   1.583
 9760SOL     OW30178   4.876   1.085   0.089
 9760SOL    HW130179   4.821   1.161   0.122
 9760SOL    HW230180   4.844   1.058   7.022
 9761SOL     OW30181   1.079   2.231   0.760
 9761SOL    HW130182   1.133   2.170   0.818
 9761SOL    HW230183   1.137   2.307   0.729
 9762SOL     OW30184   2.773   1.967   5.780
 9762SOL    HW130185   2.709   1.929   5.713
 9762SOL    HW230186   2.860   1.985   5.735
 9763SOL     OW30187   6.247   0.907   0.946
 9763SOL    HW130188   6.331   0.868   0.985
 9763SOL    HW230189   6.173   0.899   1.013
 9764SOL     OW30190   6.891   2.682   2.421
 9764SOL    HW130191   6.981   2.658   2.458
 9764SOL    HW230192   6.883   2.781   2.417
 9765SOL     OW30193   0.071   0.442   2.218
 9765SOL    HW130194   0.037   0.535   2.228
 9765SOL    HW230195   0.005   0.387   2.167
 9766SOL     OW30196   2.162   2.033   4.558
 9766SOL    HW130197   2.184   1.940   4.590
 9766SOL    HW230198   2.063   2.046   4.560
 9767SOL     OW30199   2.493   2.640   5.505
 9767SOL    HW130200   2.399   2.652   5.474
 9767SOL    HW230201   2.498   2.661   5.603
 9768SOL     OW30202   5.756   3.053   0.795
 9768SOL    HW130203   5.694   3.090   0.727
 9768SOL    HW230204   5.851   3.067   0.766
 9769SOL     OW30205   3.305   1.637   5.335
 9769SOL    HW130206   3.366   1.615   5.412
 9769SOL    HW230207   3.327   1.728   5.300
 9770SOL     OW30208   2.538   2.669   6.494
 9770SOL    HW130209   2.453   2.669   6.441
 9770SOL    HW230210   2.528   2.730   6.573
 9771SOL     OW30211   2.858   6.819   2.329
 9771SOL    HW130212   2.822   6.802   2.420
 9771SOL    HW230213   2.859   6.734   2.276
 9772SOL     OW30214   1.627   0.557   1.169
 9772SOL    HW130215   1.598   0.462   1.176
 9772SOL    HW230216   1.637   0.597   1.260
 9773SOL     OW30217   5.094   4.789   1.998
 9773SOL    HW130218   5.144   4.703   1.984
 9773SOL    HW230219   5.159   4.862   2.018
 9774SOL     OW30220   1.038   4.985   5.016
 9774SOL    HW130221   1.040   5.066   4.958
 9774SOL    HW230222   1.008   5.009   5.108
 9775SOL     OW30223   2.501   1.176   3.542
 9775SOL    HW130224   2.517   1.112   3.467
 9775SOL    HW230225   2.408   1.212   3.536
 9776SOL     OW30226   2.392   5.212   0.122
 9776SOL    HW130227   2.465   5.175   0.065
 9776SOL    HW230228   2.431   5.275   0.189
 9777SOL     OW30229   4.432   0.608   5.658
 9777SOL    HW130230   4.396   0.683   5.602
 9777SOL    HW230231   4.456   0.531   5.599
 9778SOL     OW30232   6.991   3.455   4.102
 9778SOL    HW130233   0.058   3.472   4.064
 9778SOL    HW230234   6.924   3.513   4.055
 9779SOL     OW30235   2.259   1.065   4.035
 9779SOL    HW130236   2.279   1.147   3.982
 9779SOL    HW230237   2.211   1.090   4.119
 9780SOL     OW30238   0.937   2.403   1.983
 9780SOL    HW130239   0.960   2.321   2.037
 9780SOL    HW230240   0.902   2.474   2.044
 9781SOL     OW30241   2.146   2.080   3.724
 9781SOL    HW130242   2.205   2.131   3.787
 9781SOL    HW230243   2.197   2.059   3.641
 9782SOL     OW30244   6.610   2.255   0.941
 9782SOL    HW130245   6.699   2.299   0.950
 9782SOL    HW230246   6.621   2.156   0.944
 9783SOL     OW30247   3.600   0.855   3.256
 9783SOL    HW130248   3.668   0.900   3.198
 9783SOL    HW230249   3.515   0.842   3.204
 9784SOL     OW30250   1.239   1.119   6.138
 9784SOL    HW130251   1.186   1.078   6.212
 9784SOL    HW230252   1.317   1.059   6.116
 9785SOL     OW30253   0.004   3.460   4.910
 9785SOL    HW130254   0.033   3.367   4.887
 9785SOL    HW230255   0.017   3.519   4.830
 9786SOL     OW30256   1.720   4.067   0.371
 9786SOL    HW130257   1.712   4.010   0.453
 9786SOL    HW230258   1.764   4.154   0.395
 9787SOL     OW30259   3.026   3.866   3.315
 9787SOL    HW130260   2.978   3.882   3.229
 9787SOL    HW230261   3.103   3.929   3.322
 9788SOL     OW30262   4.849   0.609   2.054
 9788SOL    HW130263   4.935   0.604   2.104
 9788SOL    HW230264   4.800   0.522   2.064
 9789SOL     OW30265   3.996   1.549   6.600
 9789SOL    HW130266   3.995   1.482   6.526
 9789SOL    HW230267   3.972   1.503   6.686
 9790SOL     OW30268   0.240   4.425   3.882
 9790SOL    HW130269   0.249   4.326   3.876
 9790SOL    HW230270   0.158   4.454   3.833
 9791SOL     OW30271   1.174   6.361   1.054
 9791SOL    HW130272   1.223   6.287   1.008
 9791SOL    HW230273   1.183   6.445   1.000
 9792SOL     OW30274   4.025   6.436   0.433
 9792SOL    HW130275   3.954   6.429   0.504
 9792SOL    HW230276   4.043   6.346   0.394
 9793SOL     OW30277   5.649   0.700   3.324
 9793SOL    HW130278   5.609   0.631   3.265
 9793SOL    HW230279   5.708   0.655   3.392
 9794SOL     OW30280   4.811   4.803   4.636
 9794SOL    HW130281   4.834   4.860   4.715
 9794SOL    HW230282   4.715   4.775   4.642
 9795SOL     OW30283   2.069   3.562   3.323
 9795SOL    HW130284   2.045   3.633   3.390
 9795SOL    HW230285   2.004   3.564   3.248
 9796SOL     OW30286   4.129   3.471   3.662
 9796SOL    HW130287   4.075   3.396   3.624
 9796SOL    HW230288   4.165   3.528   3.588
 9797SOL     OW30289   2.914   5.469   6.732
 9797SOL    HW130290   2.990   5.422   6.777
 9797SOL    HW230291   2.835   5.473   6.793
 9798SOL     OW30292   0.692   3.819   0.393
 9798SOL    HW130293   0.707   3.917   0.382
 9798SOL    HW230294   0.775   3.776   0.430
 9799SOL     OW30295   2.822   0.352   6.511
 9799SOL    HW130296   2.856   0.352   6.605
 9799SOL    HW230297   2.727   0.384   6.510
 9800SOL     OW30298   6.771   3.905   5.160
 9800SOL    HW130299   6.691   3.894   5.218
 9800SOL    HW230300   6.742   3.930   5.067
 9801SOL     OW30301   6.104   6.141   6.738
 9801SOL    HW130302   6.191   6.148   6.688
 9801SOL    HW230303   6.033   6.192   6.689
 9802SOL     OW30304   4.017   4.830   7.005
 9802SOL    HW130305   3.934   4.806   6.954
 9802SOL    HW230306   4.044   4.754   0.040
 9803SOL     OW30307   0.884   3.705   6.310
 9803SOL    HW130308   0.843   3.795   6.328
 9803SOL    HW230309   0.971   3.718   6.262
 9804SOL     OW30310   0.268   5.982   2.594
 9804SOL    HW130311   0.197   6.046   2.622
 9804SOL    HW230312   0.246   5.946   2.503
 9805SOL     OW30313   0.755   6.233   3.706
 9805SOL    HW130314   0.822   6.197   3.771
 9805SOL    HW230315   0.738   6.164   3.635
 9806SOL     OW30316   3.837   1.746   6.680
 9806SOL    HW130317   3.886   1.834   6.679
 9806SOL    HW230318   3.888   1.680   6.625
 9807SOL     OW30319   3.225   3.415   2.122
 9807SOL    HW130320   3.289   3.465   2.180
 9807SOL    HW230321   3.268   3.395   2.034
 9808SOL     OW30322   4.370   6.213   2.695
 9808SOL    HW130323   4.452   6.210   2.753
 9808SOL    HW230324   4.309   6.285   2.728
 9809SOL     OW30325   7.021   3.361   1.135
 9809SOL    HW130326   0.094   3.347   1.156
 9809SOL    HW230327   6.965   3.309   1.199
 9810SOL     OW30328   2.438   1.774   0.120
 9810SOL    HW130329   2.504   1.760   0.193
 9810SOL    HW230330   2.384   1.856   0.139
 9811SOL     OW30331   6.474   3.344   4.096
 9811SOL    HW130332   6.493   3.379   4.188
 9811SOL    HW230333   6.378   3.318   4.089
 9812SOL     OW30334   3.289   6.309   5.547
 9812SOL    HW130335   3.238   6.266   5.621
 9812SOL    HW230336   3.230   6.372   5.497
 9813SOL     OW30337   5.022   1.634   1.785
 9813SOL    HW130338   4.955   1.565   1.813
 9813SOL    HW230339   5.035   1.631   1.686
 9814SOL     OW30340   5.504   1.206   0.490
 9814SOL    HW130341   5.428   1.237   0.432
 9814SOL    HW230342   5.573   1.278   0.496
 9815SOL     OW30343   4.406   2.398   4.817
 9815SOL    HW130344   4.361   2.324   4.769
 9815SOL    HW230345   4.342   2.439   4.882
 9816SOL     OW30346   1.700   0.057   0.017
 9816SOL    HW130347   1.647   0.137   7.015
 9816SOL    HW230348   1.638   7.010   0.051
 9817SOL     OW30349   6.870   6.870   3.287
 9817SOL    HW130350   6.911   6.961   3.283
 9817SOL    HW230351   6.890   6.829   3.376
 9818SOL     OW30352   6.655   2.559   4.138
 9818SOL    HW130353   6.684   2.561   4.234
 9818SOL    HW230354   6.644   2.653   4.105
 9819SOL     OW30355   3.971   0.911   3.339
 9819SOL    HW130356   4.070   0.912   3.352
 9819SOL    HW230357   3.944   0.823   3.302
 9820SOL     OW30358   4.166   3.707   5.890
 9820SOL    HW130359   4.188   3.801   5.865
 9820SOL    HW230360   4.163   3.650   5.808
 9821SOL     OW30361   6.208   5.660   0.089
 9821SOL    HW130362   6.176   5.568   0.114
 9821SOL    HW230363   6.138   5.706   0.035
 9822SOL     OW30364   0.617   6.828   2.875
 9822SOL    HW130365   0.548   6.821   2.946
 9822SOL    HW230366   0.707   6.842   2.917
 9823SOL     OW30367   3.354   1.220   2.104
 9823SOL    HW130368   3.412   1.154   2.057
 9823SOL    HW230369   3.258   1.191   2.096
 9824SOL     OW30370   1.350   4.074   5.600
 9824SOL    HW130371   1.445   4.042   5.603
 9824SOL    HW230372   1.296   4.028   5.670
 9825SOL     OW30373   4.251   5.332   5.477
 9825SOL    HW130374   4.265   5.349   5.379
 9825SOL    HW230375   4.230   5.236   5.491
 9826SOL     OW30376   4.398   0.381   5.955
 9826SOL    HW130377   4.365   0.475   5.949
 9826SOL    HW230378   4.442   0.355   5.869
 9827SOL     OW30379   0.641   3.652   4.645
 9827SOL    HW130380   0.700   3.605   4.711
 9827SOL    HW230381   0.697   3.702   4.579
 9828SOL     OW30382   3.606   2.716   6.348
 9828SOL    HW130383   3.648   2.640   6.298
 9828SOL    HW230384   3.524   2.684   6.395
 9829SOL     OW30385   2.230   5.584   0.423
 9829SOL    HW130386   2.219   5.591   0.324
 9829SOL    HW230387   2.264   5.671   0.459
 9830SOL     OW30388   6.023   1.362   1.694
 9830SOL    HW130389   5.971   1.438   1.734
 9830SOL    HW230390   6.006   1.278   1.745
 9831SOL     OW30391   6.547   6.975   1.627
 9831SOL    HW130392   6.614   6.942   1.694
 9831SOL    HW230393   6.519   6.900   1.568
 9832SOL     OW30394   4.449   5.300   1.798
 9832SOL    HW130395   4.435   5.398   1.816
 9832SOL    HW230396   4.386   5.246   1.853
 9833SOL     OW30397   3.514   3.720   5.248
 9833SOL    HW130398   3.455   3.759   5.319
 9833SOL    HW230399   3.483   3.752   5.158
 9834SOL     OW30400   0.851   3.575   4.839
 9834SOL    HW130401   0.944   3.544   4.820
 9834SOL    HW230402   0.810   3.518   4.910
 9835SOL     OW30403   5.114   1.620   4.253
 9835SOL    HW130404   5.094   1.542   4.193
 9835SOL    HW230405   5.207   1.652   4.236
 9836SOL     OW30406   5.134   4.822   3.493
 9836SOL    HW130407   5.167   4.728   3.499
 9836SOL    HW230408   5.199   4.877   3.440
 9837SOL     OW30409   2.718   6.425   4.561
 9837SOL    HW130410   2.785   6.493   4.530
 9837SOL    HW230411   2.734   6.404   4.657
 9838SOL     OW30412   1.011   5.971   5.965
 9838SOL    HW130413   1.081   6.036   5.937
 9838SOL    HW230414   0.925   5.990   5.917
 9839SOL     OW30415   0.015   1.411   1.522
 9839SOL    HW130416   0.108   1.440   1.498
 9839SOL    HW230417   7.008   1.343   1.455
 9840SOL     OW30418   6.501   0.295   1.010
 9840SOL    HW130419   6.431   0.228   1.033
 9840SOL    HW230420   6.480   0.336   0.921
 9841SOL     OW30421   1.811   3.866   4.372
 9841SOL    HW130422   1.844   3.933   4.305
 9841SOL    HW230423   1.888   3.816   4.410
 9842SOL     OW30424   2.963   3.324   2.469
 9842SOL    HW130425   3.061   3.340   2.480
 9842SOL    HW230426   2.929   3.269   2.545
 9843SOL     OW30427   6.763   2.289   1.575
 9843SOL    HW130428   6.751   2.261   1.670
 9843SOL    HW230429   6.801   2.214   1.522
 9844SOL     OW30430   5.764   0.341   2.392
 9844SOL    HW130431   5.792   0.429   2.431
 9844SOL    HW230432   5.666   0.327   2.407
 9845SOL     OW30433   1.443   2.043   3.724
 9845SOL    HW130434   1.478   2.039   3.630
 9845SOL    HW230435   1.520   2.042   3.788
 9846SOL     OW30436   3.250   3.627   3.278
 9846SOL    HW130437   3.245   3.606   3.375
 9846SOL    HW230438   3.284   3.721   3.266
 9847SOL     OW30439   1.482   3.836   6.774
 9847SOL    HW130440   1.526   3.747   6.761
 9847SOL    HW230441   1.419   3.853   6.698
 9848SOL     OW30442   4.530   2.886   0.096
 9848SOL    HW130443   4.502   2.960   0.158
 9848SOL    HW230444   4.594   2.922   0.028
 9849SOL     OW30445   6.791   6.937   6.172
 9849SOL    HW130446   6.834   6.881   6.242
 9849SOL    HW230447   6.691   6.931   6.180
 9850SOL     OW30448   4.068   6.789   2.176
 9850SOL    HW130449   4.073   6.853   2.099
 9850SOL    HW230450   3.972   6.768   2.195
 9851SOL     OW30451   5.367   1.907   5.310
 9851SOL    HW130452   5.311   1.957   5.244
 9851SOL    HW230453   5.358   1.951   5.400
 9852SOL     OW30454   4.589   1.689   3.703
 9852SOL    HW130455   4.497   1.697   3.742
 9852SOL    HW230456   4.628   1.601   3.728
 9853SOL     OW30457   5.517   3.704   2.861
 9853SOL    HW130458   5.426   3.744   2.869
 9853SOL    HW230459   5.514   3.628   2.795
 9854SOL     OW30460   5.778   5.171   4.738
 9854SOL    HW130461   5.746   5.076   4.737
 9854SOL    HW230462   5.798   5.200   4.645
 9855SOL     OW30463   1.392   4.096   1.824
 9855SOL    HW130464   1.465   4.028   1.831
 9855SOL    HW230465   1.432   4.188   1.823
 9856SOL     OW30466   3.344   3.634   0.448
 9856SOL    HW130467   3.301   3.684   0.373
 9856SOL    HW230468   3.322   3.537   0.440
 9857SOL     OW30469   5.221   3.305   3.163
 9857SOL    HW130470   5.247   3.252   3.244
 9857SOL    HW230471   5.297   3.363   3.135
 9858SOL     OW30472   5.367   1.047   2.270
 9858SOL    HW130473   5.288   1.092   2.311
 9858SOL    HW230474   5.401   0.976   2.333
 9859SOL     OW30475   6.302   0.794   2.285
 9859SOL    HW130476   6.234   0.866   2.273
 9859SOL    HW230477   6.258   0.709   2.312
 9860SOL     OW30478   0.736   0.702   2.398
 9860SOL    HW130479   0.775   0.616   2.430
 9860SOL    HW230480   0.676   0.740   2.469
 9861SOL     OW30481   4.350   5.983   4.359
 9861SOL    HW130482   4.330   5.910   4.294
 9861SOL    HW230483   4.279   6.053   4.355
 9862SOL     OW30484   1.982   2.593   0.422
 9862SOL    HW130485   2.047   2.516   0.422
 9862SOL    HW230486   2.010   2.659   0.493
 9863SOL     OW30487   2.942   0.476   3.024
 9863SOL    HW130488   2.941   0.570   2.990
 9863SOL    HW230489   2.995   0.471   3.109
 9864SOL     OW30490   4.686   5.754   3.301
 9864SOL    HW130491   4.665   5.846   3.333
 9864SOL    HW230492   4.723   5.758   3.208
 9865SOL     OW30493   0.719   0.183   3.681
 9865SOL    HW130494   0.658   0.110   3.651
 9865SOL    HW230495   0.812   0.147   3.690
 9866SOL     OW30496   4.889   3.897   4.471
 9866SOL    HW130497   4.946   3.837   4.528
 9866SOL    HW230498   4.886   3.988   4.512
 9867SOL     OW30499   4.734   1.651   0.600
 9867SOL    HW130500   4.809   1.602   0.645
 9867SOL    HW230501   4.705   1.728   0.658
 9868SOL     OW30502   6.612   4.611   6.808
 9868SOL    HW130503   6.633   4.562   6.892
 9868SOL    HW230504   6.689   4.669   6.782
 9869SOL     OW30505   2.083   4.002   3.348
 9869SOL    HW130506   2.153   4.059   3.304
 9869SOL    HW230507   2.011   3.981   3.282
 9870SOL     OW30508   4.598   4.469   2.443
 9870SOL    HW130509   4.607   4.411   2.361
 9870SOL    HW230510   4.505   4.506   2.447
 9871SOL     OW30511   2.189   0.519   5.550
 9871SOL    HW130512   2.177   0.490   5.455
 9871SOL    HW230513   2.140   0.456   5.611
 9872SOL     OW30514   2.917   4.865   3.285
 9872SOL    HW130515   2.929   4.955   3.328
 9872SOL    HW230516   2.899   4.797   3.356
 9873SOL     OW30517   1.710   2.703   0.469
 9873SOL    HW130518   1.668   2.701   0.378
 9873SOL    HW230519   1.792   2.646   0.470
 9874SOL     OW30520   0.607   2.751   3.444
 9874SOL    HW130521   0.627   2.798   3.359
 9874SOL    HW230522   0.685   2.694   3.471
 9875SOL     OW30523   0.516   0.798   2.545
 9875SOL    HW130524   0.450   0.844   2.486
 9875SOL    HW230525   0.468   0.743   2.613
 9876SOL     OW30526   6.576   6.822   2.930
 9876SOL    HW130527   6.573   6.798   3.027
 9876SOL    HW230528   6.632   6.905   2.919
 9877SOL     OW30529   3.156   6.883   2.528
 9877SOL    HW130530   3.070   6.838   2.503
 9877SOL    HW230531   3.170   6.875   2.626
 9878SOL     OW30532   1.480   5.589   5.375
 9878SOL    HW130533   1.465   5.641   5.459
 9878SOL    HW230534   1.578   5.571   5.364
 9879SOL     OW30535   4.482   6.040   4.989
 9879SOL    HW130536   4.409   5.972   4.996
 9879SOL    HW230537   4.537   6.020   4.908
 9880SOL     OW30538   0.919   2.258   5.715
 9880SOL    HW130539   0.974   2.185   5.674
 9880SOL    HW230540   0.979   2.317   5.769
 9881SOL     OW30541   0.768   2.275   5.284
 9881SOL    HW130542   0.798   2.327   5.364
 9881SOL    HW230543   0.696   2.326   5.237
 9882SOL     OW30544   1.292   2.632   4.381
 9882SOL    HW130545   1.360   2.633   4.454
 9882SOL    HW230546   1.338   2.638   4.292
 9883SOL     OW30547   1.853   0.660   1.662
 9883SOL    HW130548   1.771   0.660   1.719
 9883SOL    HW230549   1.899   0.572   1.671
 9884SOL     OW30550   4.243   0.614   3.821
 9884SOL    HW130551   4.154   0.591   3.860
 9884SOL    HW230552   4.297   0.663   3.888
 9885SOL     OW30553   6.288   4.322   4.796
 9885SOL    HW130554   6.246   4.395   4.743
 9885SOL    HW230555   6.220   4.253   4.819
 9886SOL     OW30556   1.419   4.864   2.788
 9886SOL    HW130557   1.511   4.842   2.820
 9886SOL    HW230558   1.399   4.812   2.705
 9887SOL     OW30559   3.659   1.591   0.119
 9887SOL    HW130560   3.615   1.604   0.030
 9887SOL    HW230561   3.752   1.628   0.116
 9888SOL     OW30562   0.137   3.552   0.369
 9888SOL    HW130563   0.085   3.625   0.414
 9888SOL    HW230564   0.216   3.591   0.322
 9889SOL     OW30565   6.239   5.217   0.521
 9889SOL    HW130566   6.229   5.222   0.620
 9889SOL    HW230567   6.325   5.170   0.499
 9890SOL     OW30568   1.441   2.458   1.087
 9890SOL    HW130569   1.458   2.425   0.994
 9890SOL    HW230570   1.391   2.544   1.084
 9891SOL     OW30571   5.665   2.812   0.469
 9891SOL    HW130572   5.612   2.739   0.512
 9891SOL    HW230573   5.761   2.805   0.499
 9892SOL     OW30574   6.878   4.818   0.228
 9892SOL    HW130575   6.964   4.825   0.279
 9892SOL    HW230576   6.816   4.891   0.258
 9893SOL     OW30577   2.291   0.928   0.770
 9893SOL    HW130578   2.244   0.981   0.700
 9893SOL    HW230579   2.311   0.836   0.735
 9894SOL     OW30580   1.511   1.696   0.729
 9894SOL    HW130581   1.447   1.743   0.789
 9894SOL    HW230582   1.469   1.683   0.639
 9895SOL     OW30583   5.761   3.473   4.367
 9895SOL    HW130584   5.673   3.519   4.352
 9895SOL    HW230585   5.828   3.540   4.399
 9896SOL     OW30586   6.637   0.139   0.219
 9896SOL    HW130587   6.586   0.115   0.137
 9896SOL    HW230588   6.689   0.223   0.204
 9897SOL     OW30589   5.911   5.381   3.523
 9897SOL    HW130590   5.939   5.469   3.486
 9897SOL    HW230591   5.835   5.344   3.468
 9898SOL     OW30592   3.180   6.527   5.860
 9898SOL    HW130593   3.279   6.525   5.843
 9898SOL    HW230594   3.161   6.493   5.952
 9899SOL     OW30595   0.740   5.284   0.693
 9899SOL    HW130596   0.828   5.252   0.728
 9899SOL    HW230597   0.748   5.303   0.596
 9900SOL     OW30598   1.313   4.153   3.390
 9900SOL    HW130599   1.359   4.072   3.355
 9900SOL    HW230600   1.217   4.151   3.364
 9901SOL     OW30601   2.494   2.674   5.817
 9901SOL    HW130602   2.557   2.608   5.857
 9901SOL    HW230603   2.541   2.762   5.804
 9902SOL     OW30604   2.365   4.764   6.239
 9902SOL    HW130605   2.323   4.836   6.294
 9902SOL    HW230606   2.442   4.801   6.187
 9903SOL     OW30607   4.945   1.740   3.422
 9903SOL    HW130608   4.845   1.739   3.421
 9903SOL    HW230609   4.980   1.716   3.332
 9904SOL     OW30610   0.213   3.767   6.229
 9904SOL    HW130611   0.128   3.800   6.269
 9904SOL    HW230612   0.222   3.801   6.135
 9905SOL     OW30613   4.067   1.523   0.729
 9905SOL    HW130614   4.070   1.488   0.636
 9905SOL    HW230615   3.971   1.532   0.759
 9906SOL     OW30616   3.685   2.888   2.598
 9906SOL    HW130617   3.755   2.942   2.550
 9906SOL    HW230618   3.619   2.853   2.531
 9907SOL     OW30619   0.214   0.751   1.875
 9907SOL    HW130620   0.223   0.680   1.805
 9907SOL    HW230621   0.178   0.710   1.959
 9908SOL     OW30622   4.862   2.466   3.164
 9908SOL    HW130623   4.860   2.369   3.138
 9908SOL    HW230624   4.828   2.476   3.258
 9909SOL     OW30625   3.455   6.333   3.718
 9909SOL    HW130626   3.487   6.271   3.790
 9909SOL    HW230627   3.359   6.355   3.733
 9910SOL     OW30628   0.927   4.349   2.435
 9910SOL    HW130629   0.889   4.381   2.349
 9910SOL    HW230630   0.984   4.269   2.419
 9911SOL     OW30631   4.182   0.197   2.192
 9911SOL    HW130632   4.207   0.294   2.191
 9911SOL    HW230633   4.143   0.173   2.281
 9912SOL     OW30634   4.226   2.093   0.750
 9912SOL    HW130635   4.312   2.117   0.706
 9912SOL    HW230636   4.168   2.044   0.685
 9913SOL     OW30637   5.804   3.330   7.015
 9913SOL    HW130638   5.788   3.232   7.001
 9913SOL    HW230639   5.794   3.378   6.928
 9914SOL     OW30640   0.525   2.848   4.269
 9914SOL    HW130641   0.622   2.827   4.280
 9914SOL    HW230642   0.507   2.941   4.301
 9915SOL     OW30643   4.716   1.012   3.190
 9915SOL    HW130644   4.812   1.003   3.163
 9915SOL    HW230645   4.670   0.924   3.179
 9916SOL     OW30646   2.354   2.744   2.353
 9916SOL    HW130647   2.403   2.658   2.340
 9916SOL    HW230648   2.362   2.773   2.448
 9917SOL     OW30649   6.563   4.188   6.643
 9917SOL    HW130650   6.570   4.246   6.562
 9917SOL    HW230651   6.621   4.225   6.716
 9918SOL     OW30652   4.179   1.640   3.021
 9918SOL    HW130653   4.173   1.609   2.926
 9918SOL    HW230654   4.244   1.715   3.028
 9919SOL     OW30655   6.233   6.350   1.150
 9919SOL    HW130656   6.302   6.278   1.147
 9919SOL    HW230657   6.260   6.424   1.088
 9920SOL     OW30658   4.996   1.227   2.588
 9920SOL    HW130659   5.042   1.309   2.621
 9920SOL    HW230660   4.927   1.253   2.520
 9921SOL     OW30661   4.445   5.423   5.851
 9921SOL    HW130662   4.462   5.519   5.875
 9921SOL    HW230663   4.378   5.385   5.916
 9922SOL     OW30664   1.197   5.178   0.008
 9922SOL    HW130665   1.135   5.131   0.071
 9922SOL    HW230666   1.175   5.276   0.007
 9923SOL     OW30667   4.823   5.164   6.742
 9923SOL    HW130668   4.877   5.174   6.658
 9923SOL    HW230669   4.744   5.106   6.724
 9924SOL     OW30670   0.058   3.019   5.072
 9924SOL    HW130671   0.087   3.092   5.134
 9924SOL    HW230672   0.126   2.946   5.072
 9925SOL     OW30673   5.938   3.266   4.108
 9925SOL    HW130674   5.962   3.353   4.149
 9925SOL    HW230675   6.001   3.195   4.140
 9926SOL     OW30676   2.788   4.072   0.109
 9926SOL    HW130677   2.791   4.137   0.032
 9926SOL    HW230678   2.784   3.979   0.073
 9927SOL     OW30679   6.621   0.015   2.448
 9927SOL    HW130680   6.613   6.940   2.461
 9927SOL    HW230681   6.639   0.059   2.536
 9928SOL     OW30682   4.813   4.820   0.959
 9928SOL    HW130683   4.716   4.812   0.980
 9928SOL    HW230684   4.848   4.907   0.995
 9929SOL     OW30685   2.030   5.811   5.018
 9929SOL    HW130686   1.965   5.803   5.094
 9929SOL    HW230687   2.019   5.732   4.957
 9930SOL     OW30688   6.619   0.206   4.644
 9930SOL    HW130689   6.638   0.115   4.680
 9930SOL    HW230690   6.589   0.200   4.549
 9931SOL     OW30691   0.698   4.576   4.871
 9931SOL    HW130692   0.623   4.579   4.936
 9931SOL    HW230693   0.666   4.603   4.780
 9932SOL     OW30694   1.211   7.006   6.389
 9932SOL    HW130695   1.178   6.912   6.404
 9932SOL    HW230696   1.291   7.023   6.446
 9933SOL     OW30697   1.841   5.360   2.674
 9933SOL    HW130698   1.910   5.289   2.668
 9933SOL    HW230699   1.878   5.439   2.723
 9934SOL     OW30700   5.625   2.436   5.436
 9934SOL    HW130701   5.575   2.510   5.392
 9934SOL    HW230702   5.594   2.348   5.400
 9935SOL     OW30703   2.514   0.988   0.204
 9935SOL    HW130704   2.449   0.945   0.268
 9935SOL    HW230705   2.501   1.087   0.205
 9936SOL     OW30706   0.361   5.000   5.085
 9936SOL    HW130707   0.347   5.098   5.095
 9936SOL    HW230708   0.390   4.980   4.991
 9937SOL     OW30709   6.005   2.341   5.987
 9937SOL    HW130710   5.961   2.258   5.954
 9937SOL    HW230711   6.091   2.317   6.032
 9938SOL     OW30712   0.318   5.705   3.280
 9938SOL    HW130713   0.238   5.694   3.221
 9938SOL    HW230714   0.331   5.802   3.299
 9939SOL     OW30715   3.076   2.857   1.129
 9939SOL    HW130716   3.069   2.898   1.038
 9939SOL    HW230717   3.036   2.919   1.196
 9940SOL     OW30718   0.167   0.430   1.099
 9940SOL    HW130719   0.244   0.425   1.036
 9940SOL    HW230720   0.179   0.508   1.161
 9941SOL     OW30721   2.814   3.872   5.283
 9941SOL    HW130722   2.714   3.863   5.290
 9941SOL    HW230723   2.855   3.847   5.370
 9942SOL     OW30724   2.195   5.878   2.729
 9942SOL    HW130725   2.256   5.876   2.808
 9942SOL    HW230726   2.249   5.883   2.645
 9943SOL     OW30727   0.702   5.700   6.398
 9943SOL    HW130728   0.655   5.784   6.370
 9943SOL    HW230729   0.704   5.694   6.497
 9944SOL     OW30730   1.793   4.510   6.189
 9944SOL    HW130731   1.770   4.560   6.106
 9944SOL    HW230732   1.713   4.457   6.219
 9945SOL     OW30733   6.852   5.504   0.071
 9945SOL    HW130734   6.767   5.512   0.019
 9945SOL    HW230735   6.896   5.416   0.051
 9946SOL     OW30736   5.399   1.047   4.788
 9946SOL    HW130737   5.443   1.047   4.698
 9946SOL    HW230738   5.313   0.996   4.782
 9947SOL     OW30739   6.520   4.347   5.797
 9947SOL    HW130740   6.615   4.379   5.797
 9947SOL    HW230741   6.486   4.344   5.703
 9948SOL     OW30742   4.668   4.236   4.786
 9948SOL    HW130743   4.673   4.331   4.817
 9948SOL    HW230744   4.606   4.229   4.708
 9949SOL     OW30745   5.389   4.665   3.599
 9949SOL    HW130746   5.404   4.705   3.508
 9949SOL    HW230747   5.364   4.737   3.663
 9950SOL     OW30748   5.241   6.251   5.204
 9950SOL    HW130749   5.309   6.178   5.195
 9950SOL    HW230750   5.288   6.337   5.222
 9951SOL     OW30751   6.130   2.282   3.596
 9951SOL    HW130752   6.084   2.328   3.672
 9951SOL    HW230753   6.072   2.207   3.563
 9952SOL     OW30754   6.401   3.873   0.801
 9952SOL    HW130755   6.374   3.908   0.711
 9952SOL    HW230756   6.499   3.887   0.814
 9953SOL     OW30757   6.725   2.112   3.735
 9953SOL    HW130758   6.662   2.042   3.769
 9953SOL    HW230759   6.795   2.130   3.805
 9954SOL     OW30760   6.037   6.766   5.224
 9954SOL    HW130761   6.037   6.772   5.324
 9954SOL    HW230762   6.131   6.770   5.190
 9955SOL     OW30763   6.843   5.019   4.800
 9955SOL    HW130764   6.909   5.018   4.725
 9955SOL    HW230765   6.756   5.056   4.767
 9956SOL     OW30766   1.710   6.926   1.918
 9956SOL    HW130767   1.782   6.927   1.987
 9956SOL    HW230768   1.726   6.850   1.854
 9957SOL     OW30769   6.276   5.522   3.553
 9957SOL    HW130770   6.261   5.454   3.481
 9957SOL    HW230771   6.283   5.613   3.513
 9958SOL     OW30772   3.047   4.645   0.739
 9958SOL    HW130773   2.994   4.608   0.816
 9958SOL    HW230774   3.125   4.585   0.721
 9959SOL     OW30775   4.042   3.630   6.127
 9959SOL    HW130776   4.087   3.677   6.051
 9959SOL    HW230777   4.054   3.531   6.116
 9960SOL     OW30778   0.076   1.429   3.176
 9960SOL    HW130779   0.021   1.347   3.160
 9960SOL    HW230780   0.144   1.438   3.104
 9961SOL     OW30781   2.316   5.480   4.268
 9961SOL    HW130782   2.347   5.565   4.311
 9961SOL    HW230783   2.375   5.459   4.190
 9962SOL     OW30784   5.706   6.215   4.773
 9962SOL    HW130785   5.668   6.189   4.862
 9962SOL    HW230786   5.733   6.132   4.723
 9963SOL     OW30787   3.510   1.997   0.934
 9963SOL    HW130788   3.469   1.940   1.006
 9963SOL    HW230789   3.608   2.006   0.951
 9964SOL     OW30790   4.579   5.930   4.227
 9964SOL    HW130791   4.524   5.984   4.292
 9964SOL    HW230792   4.570   5.833   4.249
 9965SOL     OW30793   3.680   0.110   6.782
 9965SOL    HW130794   3.778   0.120   6.800
 9965SOL    HW230795   3.649   0.020   6.814
 9966SOL     OW30796   1.473   5.181   2.078
 9966SOL    HW130797   1.518   5.132   2.153
 9966SOL    HW230798   1.421   5.116   2.023
 9967SOL     OW30799   1.560   5.938   1.714
 9967SOL    HW130800   1.476   5.902   1.674
 9967SOL    HW230801   1.542   5.971   1.807
 9968SOL     OW30802   3.815   3.988   1.931
 9968SOL    HW130803   3.742   3.931   1.894
 9968SOL    HW230804   3.784   4.030   2.016
 9969SOL     OW30805   1.488   4.040   2.643
 9969SOL    HW130806   1.444   4.054   2.732
 9969SOL    HW230807   1.419   4.018   2.574
 9970SOL     OW30808   5.462   4.869   1.822
 9970SOL    HW130809   5.497   4.843   1.912
 9970SOL    HW230810   5.376   4.918   1.832
 9971SOL     OW30811   1.842   4.254   0.727
 9971SOL    HW130812   1.878   4.248   0.821
 9971SOL    HW230813   1.747   4.284   0.730
 9972SOL     OW30814   6.354   4.911   3.088
 9972SOL    HW130815   6.377   5.007   3.103
 9972SOL    HW230816   6.355   4.863   3.176
 9973SOL     OW30817   6.007   0.977   4.389
 9973SOL    HW130818   5.967   0.887   4.378
 9973SOL    HW230819   6.032   1.014   4.300
 9974SOL     OW30820   1.760   0.718   3.846
 9974SOL    HW130821   1.670   0.695   3.882
 9974SOL    HW230822   1.825   0.646   3.870
 9975SOL     OW30823   0.004   2.786   0.007
 9975SOL    HW130824   7.001   2.880   0.026
 9975SOL    HW230825   0.070   2.755   0.076
 9976SOL     OW30826   1.070   0.155   5.396
 9976SOL    HW130827   0.974   0.148   5.369
 9976SOL    HW230828   1.128   0.150   5.314
 9977SOL     OW30829   6.450   4.463   5.026
 9977SOL    HW130830   6.515   4.430   4.958
 9977SOL    HW230831   6.384   4.524   4.982
 9978SOL     OW30832   0.449   2.528   4.376
 9978SOL    HW130833   0.460   2.627   4.386
 9978SOL    HW230834   0.536   2.483   4.398
 9979SOL     OW30835   6.085   3.600   5.020
 9979SOL    HW130836   6.027   3.525   5.053
 9979SOL    HW230837   6.030   3.684   5.012
 9980SOL     OW30838   3.562   0.450   6.689
 9980SOL    HW130839   3.632   0.388   6.655
 9980SOL    HW230840   3.537   0.425   6.783
 9981SOL     OW30841   3.132   1.586   3.814
 9981SOL    HW130842   3.222   1.542   3.820
 9981SOL    HW230843   3.118   1.620   3.721
 9982SOL     OW30844   7.017   5.998   4.082
 9982SOL    HW130845   6.935   6.046   4.112
 9982SOL    HW230846   0.075   6.048   4.114
 9983SOL     OW30847   0.016   1.672   2.380
 9983SOL    HW130848   0.074   1.645   2.457
 9983SOL    HW230849   0.006   1.595   2.317
 9984SOL     OW30850   3.186   1.661   6.462
 9984SOL    HW130851   3.271   1.609   6.450
 9984SOL    HW230852   3.119   1.632   6.394
 9985SOL     OW30853   1.857   1.056   1.474
 9985SOL    HW130854   1.947   1.090   1.447
 9985SOL    HW230855   1.863   1.013   1.564
 9986SOL     OW30856   5.578   4.028   4.549
 9986SOL    HW130857   5.606   3.980   4.633
 9986SOL    HW230858   5.553   4.122   4.571
 9987SOL     OW30859   6.247   3.849   6.252
 9987SOL    HW130860   6.193   3.933   6.247
 9987SOL    HW230861   6.336   3.870   6.292
 9988SOL     OW30862   6.664   6.870   5.353
 9988SOL    HW130863   6.623   6.961   5.358
 9988SOL    HW230864   6.608   6.805   5.404
 9989SOL     OW30865   0.147   3.217   5.229
 9989SOL    HW130866   0.106   3.307   5.212
 9989SOL    HW230867   0.243   3.229   5.255
 9990SOL     OW30868   1.063   4.568   2.892
 9990SOL    HW130869   1.161   4.582   2.878
 9990SOL    HW230870   1.036   4.607   2.980
 9991SOL     OW30871   3.033   2.210   3.964
 9991SOL    HW130872   3.084   2.125   3.983
 9991SOL    HW230873   3.035   2.268   4.046
 9992SOL     OW30874   5.923   5.569   6.363
 9992SOL    HW130875   5.859   5.514   6.309
 9992SOL    HW230876   5.872   5.627   6.427
 9993SOL     OW30877   1.484   1.588   1.397
 9993SOL    HW130878   1.439   1.675   1.416
 9993SOL    HW230879   1.569   1.583   1.449
 9994SOL     OW30880   5.740   4.543   3.492
 9994SOL    HW130881   5.820   4.492   3.458
 9994SOL    HW230882   5.671   4.478   3.524
 9995SOL     OW30883   5.937   0.809   3.908
 9995SOL    HW130884   6.002   0.846   3.973
 9995SOL    HW230885   5.853   0.782   3.956
 9996SOL     OW30886   3.441   4.564   6.741
 9996SOL    HW130887   3.519   4.523   6.788
 9996SOL    HW230888   3.427   4.519   6.652
 9997SOL     OW30889   2.334   0.152   5.326
 9997SOL    HW130890   2.343   0.053   5.328
 9997SOL    HW230891   2.401   0.190   5.261
 9998SOL     OW30892   5.726   5.512   5.786
 9998SOL    HW130893   5.674   5.536   5.867
 9998SOL    HW230894   5.744   5.413   5.786
 9999SOL     OW30895   6.181   2.499   5.800
 9999SOL    HW130896   6.100   2.553   5.780
 9999SOL    HW230897   6.160   2.430   5.869
10000SOL     OW30898   6.886   2.167   6.446
10000SOL    HW130899   6.913   2.149   6.541
10000SOL    HW230900   6.962   2.211   6.398
10001SOL     OW30901   4.945   0.349   2.853
10001SOL    HW130902   4.979   0.431   2.900
10001SOL    HW230903   4.863   0.372   2.801
10002SOL     OW30904   1.395   0.569   1.700
10002SOL    HW130905   1.339   0.493   1.733
10002SOL    HW230906   1.354   0.656   1.728
10003SOL     OW30907   3.729   2.122   3.576
10003SOL    HW130908   3.697   2.094   3.486
10003SOL    HW230909   3.655   2.112   3.642
10004SOL     OW30910   0.010   2.326   3.030
10004SOL    HW130911   6.995   2.326   3.122
10004SOL    HW230912   0.109   2.339   3.036
10005SOL     OW30913   4.736   6.899   3.935
10005SOL    HW130914   4.638   6.894   3.954
10005SOL    HW230915   4.766   6.995   3.935
10006SOL     OW30916   3.945   6.682   4.169
10006SOL    HW130917   3.899   6.697   4.256
10006SOL    HW230918   3.901   6.606   4.121
10007SOL     OW30919   0.203   3.409   4.307
10007SOL    HW130920   0.216   3.485   4.371
10007SOL    HW230921   0.138   3.435   4.236
10008SOL     OW30922   2.831   0.504   4.105
10008SOL    HW130923   2.857   0.581   4.047
10008SOL    HW230924   2.878   0.512   4.194
10009SOL     OW30925   1.849   4.178   1.908
10009SOL    HW130926   1.850   4.251   1.977
10009SOL    HW230927   1.789   4.104   1.938
10010SOL     OW30928   1.268   2.135   6.162
10010SOL    HW130929   1.298   2.119   6.256
10010SOL    HW230930   1.327   2.085   6.099
10011SOL     OW30931   6.754   6.722   5.940
10011SOL    HW130932   6.675   6.697   5.996
10011SOL    HW230933   6.768   6.821   5.945
10012SOL     OW30934   5.904   1.171   3.882
10012SOL    HW130935   5.939   1.243   3.943
10012SOL    HW230936   5.915   1.200   3.787
10013SOL     OW30937   0.721   0.560   2.678
10013SOL    HW130938   0.737   0.634   2.743
10013SOL    HW230939   0.808   0.532   2.637
10014SOL     OW30940   0.282   4.854   6.314
10014SOL    HW130941   0.323   4.766   6.341
10014SOL    HW230942   0.210   4.879   6.378
10015SOL     OW30943   1.841   4.281   6.535
10015SOL    HW130944   1.840   4.356   6.601
10015SOL    HW230945   1.935   4.262   6.507
10016SOL     OW30946   2.610   1.122   5.386
10016SOL    HW130947   2.704   1.155   5.391
10016SOL    HW230948   2.576   1.102   5.478
10017SOL     OW30949   1.977   2.450   4.270
10017SOL    HW130950   2.000   2.358   4.238
10017SOL    HW230951   1.885   2.450   4.308
10018SOL     OW30952   5.164   0.400   5.566
10018SOL    HW130953   5.228   0.447   5.627
10018SOL    HW230954   5.114   0.468   5.512
10019SOL     OW30955   1.293   1.014   3.149
10019SOL    HW130956   1.203   1.055   3.164
10019SOL    HW230957   1.335   1.054   3.068
10020SOL     OW30958   0.458   3.022   1.005
10020SOL    HW130959   0.512   3.074   1.072
10020SOL    HW230960   0.487   2.926   1.006
10021SOL     OW30961   0.263   3.598   1.036
10021SOL    HW130962   0.228   3.630   0.948
10021SOL    HW230963   0.363   3.605   1.037
10022SOL     OW30964   1.205   2.147   6.428
10022SOL    HW130965   1.235   2.162   6.522
10022SOL    HW230966   1.197   2.049   6.410
10023SOL     OW30967   6.993   3.493   0.872
10023SOL    HW130968   6.985   3.453   0.963
10023SOL    HW230969   0.016   3.428   0.811
10024SOL     OW30970   1.807   4.558   3.979
10024SOL    HW130971   1.779   4.645   4.019
10024SOL    HW230972   1.907   4.555   3.972
10025SOL     OW30973   1.459   1.259   0.681
10025SOL    HW130974   1.364   1.235   0.703
10025SOL    HW230975   1.473   1.255   0.583
10026SOL     OW30976   6.747   0.521   3.425
10026SOL    HW130977   6.797   0.603   3.451
10026SOL    HW230978   6.811   0.449   3.399
10027SOL     OW30979   4.976   2.999   5.391
10027SOL    HW130980   4.901   2.964   5.334
10027SOL    HW230981   5.030   3.064   5.338
10028SOL     OW30982   1.919   1.294   0.723
10028SOL    HW130983   1.907   1.360   0.649
10028SOL    HW230984   1.833   1.248   0.742
10029SOL     OW30985   5.926   1.617   4.011
10029SOL    HW130986   5.860   1.622   4.086
10029SOL    HW230987   5.889   1.666   3.932
10030SOL     OW30988   1.894   0.224   3.602
10030SOL    HW130989   1.826   0.263   3.540
10030SOL    HW230990   1.882   0.125   3.606
10031SOL     OW30991   6.469   4.499   4.055
10031SOL    HW130992   6.398   4.497   4.125
10031SOL    HW230993   6.517   4.586   4.058
10032SOL     OW30994   2.661   1.452   4.357
10032SOL    HW130995   2.740   1.480   4.302
10032SOL    HW230996   2.688   1.443   4.453
10033SOL     OW30997   5.811   3.047   5.180
10033SOL    HW130998   5.784   2.989   5.104
10033SOL    HW230999   5.743   3.040   5.253
10034SOL     OW31000   5.256   0.483   5.238
10034SOL    HW131001   5.265   0.420   5.160
10034SOL    HW231002   5.345   0.524   5.257
10035SOL     OW31003   0.587   5.576   1.587
10035SOL    HW131004   0.603   5.646   1.517
10035SOL    HW231005   0.490   5.574   1.611
10036SOL     OW31006   6.764   0.959   0.431
10036SOL    HW131007   6.698   0.886   0.412
10036SOL    HW231008   6.846   0.945   0.376
10037SOL     OW31009   0.919   6.678   0.122
10037SOL    HW131010   0.849   6.738   0.160
10037SOL    HW231011   0.877   6.620   0.051
10038SOL     OW31012   6.651   6.708   1.079
10038SOL    HW131013   6.613   6.800   1.069
10038SOL    HW231014   6.730   6.698   1.019
10039SOL     OW31015   3.304   0.021   3.476
10039SOL    HW131016   3.249   0.104   3.487
10039SOL    HW231017   3.258   6.983   3.412
10040SOL     OW31018   0.755   3.095   1.292
10040SOL    HW131019   0.802   3.059   1.212
10040SOL    HW231020   0.821   3.139   1.353
10041SOL     OW31021   1.634   5.932   0.148
10041SOL    HW131022   1.643   6.025   0.110
10041SOL    HW231023   1.547   5.893   0.119
10042SOL     OW31024   6.091   2.862   2.451
10042SOL    HW131025   6.057   2.956   2.451
10042SOL    HW231026   6.123   2.838   2.359
10043SOL     OW31027   0.473   1.433   5.350
10043SOL    HW131028   0.485   1.358   5.285
10043SOL    HW231029   0.376   1.457   5.355
10044SOL     OW31030   3.421   2.340   5.869
10044SOL    HW131031   3.396   2.248   5.841
10044SOL    HW231032   3.520   2.343   5.888
10045SOL     OW31033   3.812   1.379   0.742
10045SOL    HW131034   3.755   1.460   0.747
10045SOL    HW231035   3.832   1.358   0.646
10046SOL     OW31036   1.579   5.661   0.784
10046SOL    HW131037   1.602   5.649   0.881
10046SOL    HW231038   1.619   5.587   0.730
10047SOL     OW31039   0.567   3.573   1.051
10047SOL    HW131040   0.594   3.576   1.147
10047SOL    HW231041   0.602   3.489   1.009
10048SOL     OW31042   6.104   5.686   3.091
10048SOL    HW131043   6.200   5.709   3.074
10048SOL    HW231044   6.053   5.687   3.005
10049SOL     OW31045   6.920   0.860   5.745
10049SOL    HW131046   6.824   0.880   5.765
10049SOL    HW231047   6.939   0.879   5.649
10050SOL     OW31048   6.863   2.895   6.788
10050SOL    HW131049   6.776   2.943   6.792
10050SOL    HW231050   6.915   2.913   6.871
10051SOL     OW31051   2.151   3.293   3.738
10051SOL    HW131052   2.083   3.274   3.809
10051SOL    HW231053   2.105   3.309   3.651
10052SOL     OW31054   1.295   6.314   3.229
10052SOL    HW131055   1.233   6.366   3.171
10052SOL    HW231056   1.355   6.376   3.279
10053SOL     OW31057   5.851   5.433   4.864
10053SOL    HW131058   5.805   5.366   4.806
10053SOL    HW231059   5.949   5.413   4.867
10054SOL     OW31060   6.300   4.003   5.303
10054SOL    HW131061   6.360   4.062   5.250
10054SOL    HW231062   6.340   3.911   5.309
10055SOL     OW31063   0.988   1.489   6.591
10055SOL    HW131064   0.895   1.522   6.574
10055SOL    HW231065   1.041   1.496   6.506
10056SOL     OW31066   6.257   2.388   3.364
10056SOL    HW131067   6.319   2.323   3.320
10056SOL    HW231068   6.200   2.339   3.431
10057SOL     OW31069   6.118   4.655   4.942
10057SOL    HW131070   6.147   4.611   4.857
10057SOL    HW231071   6.131   4.754   4.933
10058SOL     OW31072   6.811   3.896   5.599
10058SOL    HW131073   6.908   3.893   5.622
10058SOL    HW231074   6.787   3.987   5.566
10059SOL     OW31075   6.174   0.863   6.560
10059SOL    HW131076   6.131   0.797   6.499
10059SOL    HW231077   6.122   0.949   6.559
10060SOL     OW31078   2.288   2.036   1.728
10060SOL    HW131079   2.326   2.095   1.657
10060SOL    HW231080   2.257   2.092   1.805
10061SOL     OW31081   3.650   0.003   3.182
10061SOL    HW131082   3.613   0.072   3.244
10061SOL    HW231083   3.725   6.979   3.227
10062SOL     OW31084   6.555   0.023   5.044
10062SOL    HW131085   6.582   0.100   5.101
10062SOL    HW231086   6.465   0.041   5.004
10063SOL     OW31087   2.428   2.329   5.618
10063SOL    HW131088   2.384   2.272   5.687
10063SOL    HW231089   2.403   2.425   5.633
10064SOL     OW31090   2.786   6.889   0.560
10064SOL    HW131091   2.817   6.916   0.651
10064SOL    HW231092   2.742   6.967   0.515
10065SOL     OW31093   0.528   1.597   1.503
10065SOL    HW131094   0.614   1.569   1.460
10065SOL    HW231095   0.547   1.664   1.575
10066SOL     OW31096   6.349   3.445   3.700
10066SOL    HW131097   6.295   3.366   3.729
10066SOL    HW231098   6.436   3.446   3.749
10067SOL     OW31099   6.764   3.212   5.528
10067SOL    HW131100   6.805   3.203   5.619
10067SOL    HW231101   6.823   3.167   5.460
10068SOL     OW31102   2.101   3.445   2.891
10068SOL    HW131103   2.131   3.437   2.796
10068SOL    HW231104   2.136   3.530   2.931
10069SOL     OW31105   3.131   4.984   0.427
10069SOL    HW131106   3.038   5.013   0.448
10069SOL    HW231107   3.172   4.941   0.507
10070SOL     OW31108   4.115   6.614   6.293
10070SOL    HW131109   4.083   6.692   6.239
10070SOL    HW231110   4.153   6.544   6.232
10071SOL     OW31111   6.052   0.050   4.094
10071SOL    HW131112   6.104   0.087   4.172
10071SOL    HW231113   6.040   6.975   4.107
10072SOL     OW31114   6.661   2.972   1.503
10072SOL    HW131115   6.592   3.042   1.485
10072SOL    HW231116   6.637   2.921   1.585
10073SOL     OW31117   6.358   4.645   4.344
10073SOL    HW131118   6.297   4.611   4.272
10073SOL    HW231119   6.420   4.572   4.372
10074SOL     OW31120   1.028   5.057   0.183
10074SOL    HW131121   1.043   5.051   0.282
10074SOL    HW231122   0.936   5.023   0.161
10075SOL     OW31123   1.432   3.486   2.023
10075SOL    HW131124   1.520   3.440   2.019
10075SOL    HW231125   1.400   3.488   2.118
10076SOL     OW31126   5.277   5.208   4.623
10076SOL    HW131127   5.278   5.115   4.585
10076SOL    HW231128   5.252   5.273   4.551
10077SOL     OW31129   5.093   3.453   6.781
10077SOL    HW131130   5.146   3.521   6.830
10077SOL    HW231131   4.995   3.467   6.799
10078SOL     OW31132   6.948   5.518   5.264
10078SOL    HW131133   6.865   5.463   5.256
10078SOL    HW231134   7.023   5.471   5.217
10079SOL     OW31135   4.797   3.025   4.000
10079SOL    HW131136   4.764   2.942   4.046
10079SOL    HW231137   4.802   3.100   4.067
10080SOL     OW31138   5.032   1.549   5.559
10080SOL    HW131139   5.074   1.626   5.510
10080SOL    HW231140   5.044   1.562   5.657
10081SOL     OW31141   1.603   4.349   0.782
10081SOL    HW131142   1.510   4.319   0.762
10081SOL    HW231143   1.630   4.319   0.873
10082SOL     OW31144   0.614   4.763   0.878
10082SOL    HW131145   0.659   4.848   0.852
10082SOL    HW231146   0.633   4.692   0.809
10083SOL     OW31147   3.286   5.562   2.664
10083SOL    HW131148   3.360   5.590   2.603
10083SOL    HW231149   3.269   5.464   2.652
10084SOL     OW31150   1.103   0.969   5.283
10084SOL    HW131151   1.058   1.058   5.294
10084SOL    HW231152   1.034   0.896   5.284
10085SOL     OW31153   5.216   0.321   0.525
10085SOL    HW131154   5.266   0.270   0.455
10085SOL    HW231155   5.204   0.416   0.496
10086SOL     OW31156   5.577   6.755   3.253
10086SOL    HW131157   5.635   6.773   3.332
10086SOL    HW231158   5.502   6.821   3.251
10087SOL     OW31159   1.523   5.982   5.749
10087SOL    HW131160   1.617   5.980   5.783
10087SOL    HW231161   1.521   6.027   5.660
10088SOL     OW31162   6.645   3.046   1.193
10088SOL    HW131163   6.701   3.109   1.140
10088SOL    HW231164   6.693   2.958   1.201
10089SOL     OW31165   3.701   0.966   1.608
10089SOL    HW131166   3.758   0.885   1.590
10089SOL    HW231167   3.705   0.987   1.705
10090SOL     OW31168   2.668   6.404   2.660
10090SOL    HW131169   2.756   6.367   2.630
10090SOL    HW231170   2.604   6.329   2.677
10091SOL     OW31171   6.295   4.571   5.679
10091SOL    HW131172   6.322   4.555   5.773
10091SOL    HW231173   6.346   4.649   5.642
10092SOL     OW31174   0.983   2.584   4.043
10092SOL    HW131175   1.060   2.646   4.045
10092SOL    HW231176   1.013   2.494   4.011
10093SOL     OW31177   4.653   4.822   6.725
10093SOL    HW131178   4.731   4.775   6.684
10093SOL    HW231179   4.641   4.791   6.820
10094SOL     OW31180   3.549   1.975   1.312
10094SOL    HW131181   3.643   1.957   1.283
10094SOL    HW231182   3.545   2.063   1.359
10095SOL     OW31183   4.197   3.051   5.659
10095SOL    HW131184   4.206   3.144   5.622
10095SOL    HW231185   4.103   3.020   5.647
10096SOL     OW31186   6.666   2.795   1.987
10096SOL    HW131187   6.654   2.893   2.008
10096SOL    HW231188   6.727   2.785   1.909
10097SOL     OW31189   0.261   1.392   0.446
10097SOL    HW131190   0.170   1.418   0.479
10097SOL    HW231191   0.297   1.318   0.503
10098SOL     OW31192   2.671   5.388   3.726
10098SOL    HW131193   2.704   5.333   3.802
10098SOL    HW231194   2.579   5.356   3.700
10099SOL     OW31195   0.214   4.954   2.099
10099SOL    HW131196   0.266   4.896   2.036
10099SOL    HW231197   0.147   5.007   2.047
10100SOL     OW31198   5.395   5.288   4.192
10100SOL    HW131199   5.403   5.328   4.284
10100SOL    HW231200   5.430   5.353   4.125
10101SOL     OW31201   0.039   3.209   0.879
10101SOL    HW131202   0.012   3.260   0.960
10101SOL    HW231203   7.013   3.122   0.877
10102SOL     OW31204   6.977   5.360   3.324
10102SOL    HW131205   6.995   5.271   3.282
10102SOL    HW231206   0.018   5.376   3.399
10103SOL     OW31207   6.807   5.703   6.186
10103SOL    HW131208   6.860   5.718   6.103
10103SOL    HW231209   6.864   5.657   6.254
10104SOL     OW31210   2.496   0.635   4.853
10104SOL    HW131211   2.411   0.627   4.800
10104SOL    HW231212   2.493   0.573   4.931
10105SOL     OW31213   3.197   1.263   4.702
10105SOL    HW131214   3.231   1.291   4.792
10105SOL    HW231215   3.272   1.227   4.647
10106SOL     OW31216   5.445   4.216   1.247
10106SOL    HW131217   5.498   4.139   1.281
10106SOL    HW231218   5.507   4.286   1.211
10107SOL     OW31219   5.313   5.129   0.473
10107SOL    HW131220   5.248   5.193   0.432
10107SOL    HW231221   5.391   5.116   0.412
10108SOL     OW31222   2.312   2.113   6.371
10108SOL    HW131223   2.285   2.203   6.338
10108SOL    HW231224   2.381   2.074   6.310
10109SOL     OW31225   0.976   2.343   1.407
10109SOL    HW131226   1.027   2.361   1.323
10109SOL    HW231227   0.913   2.419   1.424
10110SOL     OW31228   6.038   5.472   2.850
10110SOL    HW131229   5.981   5.477   2.768
10110SOL    HW231230   5.992   5.416   2.919
10111SOL     OW31231   0.813   2.274   1.779
10111SOL    HW131232   0.854   2.302   1.866
10111SOL    HW231233   0.811   2.352   1.717
10112SOL     OW31234   0.430   2.396   2.760
10112SOL    HW131235   0.460   2.353   2.675
10112SOL    HW231236   0.507   2.398   2.825
10113SOL     OW31237   6.343   0.526   6.110
10113SOL    HW131238   6.323   0.590   6.183
10113SOL    HW231239   6.411   0.459   6.142
10114SOL     OW31240   6.223   2.856   1.454
10114SOL    HW131241   6.238   2.895   1.363
10114SOL    HW231242   6.126   2.833   1.464
10115SOL     OW31243   3.695   2.820   5.512
10115SOL    HW131244   3.725   2.725   5.522
10115SOL    HW231245   3.684   2.841   5.415
10116SOL     OW31246   0.141   0.234   5.731
10116SOL    HW131247   0.164   0.177   5.652
10116SOL    HW231248   0.211   0.222   5.802
10117SOL     OW31249   6.294   4.759   3.301
10117SOL    HW131250   6.320   4.663   3.309
10117SOL    HW231251   6.235   4.784   3.377
10118SOL     OW31252   4.244   5.173   3.790
10118SOL    HW131253   4.192   5.256   3.768
10118SOL    HW231254   4.193   5.093   3.756
10119SOL     OW31255   6.498   6.115   6.049
10119SOL    HW131256   6.443   6.049   5.997
10119SOL    HW231257   6.558   6.066   6.112
10120SOL     OW31258   2.444   2.688   3.777
10120SOL    HW131259   2.409   2.662   3.687
10120SOL    HW231260   2.448   2.788   3.784
10121SOL     OW31261   0.182   4.754   0.739
10121SOL    HW131262   0.181   4.764   0.838
10121SOL    HW231263   0.259   4.805   0.701
10122SOL     OW31264   1.685   0.396   3.535
10122SOL    HW131265   1.643   0.404   3.625
10122SOL    HW231266   1.639   0.457   3.470
10123SOL     OW31267   6.575   5.091   6.847
10123SOL    HW131268   6.674   5.077   6.854
10123SOL    HW231269   6.529   5.004   6.865
10124SOL     OW31270   2.322   5.274   2.957
10124SOL    HW131271   2.411   5.303   2.922
10124SOL    HW231272   2.280   5.211   2.893
10125SOL     OW31273   1.105   0.513   4.799
10125SOL    HW131274   1.092   0.599   4.750
10125SOL    HW231275   1.017   0.470   4.816
10126SOL     OW31276   6.457   6.660   6.063
10126SOL    HW131277   6.499   6.569   6.063
10126SOL    HW231278   6.368   6.656   6.018
10127SOL     OW31279   3.167   0.063   5.460
10127SOL    HW131280   3.145   0.111   5.546
10127SOL    HW231281   3.219   7.004   5.481
10128SOL     OW31282   2.334   2.990   0.421
10128SOL    HW131283   2.390   3.061   0.378
10128SOL    HW231284   2.308   2.922   0.353
10129SOL     OW31285   6.044   1.641   4.366
10129SOL    HW131286   6.091   1.584   4.298
10129SOL    HW231287   6.054   1.737   4.341
10130SOL     OW31288   0.712   1.722   4.477
10130SOL    HW131289   0.753   1.727   4.385
10130SOL    HW231290   0.777   1.678   4.539
10131SOL     OW31291   2.362   6.812   4.248
10131SOL    HW131292   2.288   6.877   4.265
10131SOL    HW231293   2.449   6.860   4.248
10132SOL     OW31294   5.895   0.039   1.445
10132SOL    HW131295   5.909   0.027   1.347
10132SOL    HW231296   5.912   0.135   1.470
10133SOL     OW31297   5.151   6.286   1.057
10133SOL    HW131298   5.128   6.190   1.074
10133SOL    HW231299   5.194   6.294   0.967
10134SOL     OW31300   6.884   0.421   2.964
10134SOL    HW131301   6.982   0.431   2.981
10134SOL    HW231302   6.841   0.375   3.041
10135SOL     OW31303   5.856   0.281   3.177
10135SOL    HW131304   5.797   0.207   3.207
10135SOL    HW231305   5.804   0.366   3.174
10136SOL     OW31306   4.497   2.183   2.944
10136SOL    HW131307   4.505   2.105   2.883
10136SOL    HW231308   4.485   2.151   3.038
10137SOL     OW31309   6.431   5.188   5.385
10137SOL    HW131310   6.348   5.241   5.400
10137SOL    HW231311   6.407   5.100   5.344
10138SOL     OW31312   0.125   2.486   1.545
10138SOL    HW131313   0.056   2.418   1.569
10138SOL    HW231314   0.216   2.450   1.568
10139SOL     OW31315   2.972   2.605   6.556
10139SOL    HW131316   3.013   2.676   6.499
10139SOL    HW231317   2.958   2.522   6.503
10140SOL     OW31318   1.272   6.108   5.722
10140SOL    HW131319   1.230   6.047   5.656
10140SOL    HW231320   1.362   6.073   5.748
10141SOL     OW31321   1.710   2.676   4.090
10141SOL    HW131322   1.676   2.588   4.124
10141SOL    HW231323   1.810   2.678   4.098
10142SOL     OW31324   5.045   6.621   3.386
10142SOL    HW131325   4.999   6.533   3.384
10142SOL    HW231326   5.000   6.684   3.322
10143SOL     OW31327   5.529   2.798   6.501
10143SOL    HW131328   5.472   2.842   6.570
10143SOL    HW231329   5.478   2.724   6.457
10144SOL     OW31330   3.262   6.403   0.688
10144SOL    HW131331   3.253   6.503   0.688
10144SOL    HW231332   3.350   6.378   0.650
10145SOL     OW31333   5.961   6.785   6.255
10145SOL    HW131334   6.043   6.785   6.313
10145SOL    HW231335   5.945   6.877   6.220
10146SOL     OW31336   0.772   2.705   4.873
10146SOL    HW131337   0.712   2.663   4.805
10146SOL    HW231338   0.814   2.787   4.835
10147SOL     OW31339   4.213   6.094   5.672
10147SOL    HW131340   4.123   6.073   5.635
10147SOL    HW231341   4.253   6.011   5.711
10148SOL     OW31342   0.622   4.263   0.019
10148SOL    HW131343   0.616   4.163   0.027
10148SOL    HW231344   0.631   4.288   6.946
10149SOL     OW31345   3.898   3.338   1.164
10149SOL    HW131346   3.871   3.344   1.260
10149SOL    HW231347   3.833   3.279   1.115
10150SOL     OW31348   4.573   4.222   1.069
10150SOL    HW131349   4.647   4.286   1.047
10150SOL    HW231350   4.502   4.229   0.998
10151SOL     OW31351   6.488   0.644   5.921
10151SOL    HW131352   6.532   0.588   5.851
10151SOL    HW231353   6.425   0.587   5.975
10152SOL     OW31354   4.082   6.852   2.595
10152SOL    HW131355   4.005   6.847   2.659
10152SOL    HW231356   4.078   6.774   2.533
10153SOL     OW31357   4.768   4.634   1.922
10153SOL    HW131358   4.672   4.612   1.904
10153SOL    HW231359   4.801   4.698   1.852
10154SOL     OW31360   4.855   5.400   5.810
10154SOL    HW131361   4.867   5.307   5.775
10154SOL    HW231362   4.912   5.463   5.758
10155SOL     OW31363   4.217   1.706   4.242
10155SOL    HW131364   4.238   1.616   4.281
10155SOL    HW231365   4.272   1.776   4.288
10156SOL     OW31366   3.918   1.668   0.122
10156SOL    HW131367   3.984   1.608   0.078
10156SOL    HW231368   3.911   1.754   0.071
10157SOL     OW31369   0.502   4.459   1.566
10157SOL    HW131370   0.599   4.465   1.591
10157SOL    HW231371   0.488   4.502   1.477
10158SOL     OW31372   5.790   5.201   6.958
10158SOL    HW131373   5.879   5.193   7.003
10158SOL    HW231374   5.801   5.248   6.871
10159SOL     OW31375   3.277   2.784   1.983
10159SOL    HW131376   3.260   2.865   1.927
10159SOL    HW231377   3.211   2.712   1.960
10160SOL     OW31378   0.381   4.665   2.628
10160SOL    HW131379   0.479   4.672   2.648
10160SOL    HW231380   0.340   4.594   2.686
10161SOL     OW31381   5.434   3.290   5.542
10161SOL    HW131382   5.352   3.314   5.593
10161SOL    HW231383   5.465   3.199   5.569
10162SOL     OW31384   1.488   2.457   1.678
10162SOL    HW131385   1.516   2.393   1.749
10162SOL    HW231386   1.395   2.434   1.648
10163SOL     OW31387   2.807   5.457   5.145
10163SOL    HW131388   2.894   5.465   5.193
10163SOL    HW231389   2.796   5.364   5.110
10164SOL     OW31390   0.730   1.611   3.713
10164SOL    HW131391   0.644   1.618   3.662
10164SOL    HW231392   0.805   1.593   3.650
10165SOL     OW31393   0.935   3.428   4.500
10165SOL    HW131394   1.014   3.367   4.496
10165SOL    HW231395   0.966   3.523   4.502
10166SOL     OW31396   2.185   6.155   2.508
10166SOL    HW131397   2.238   6.071   2.497
10166SOL    HW231398   2.226   6.228   2.455
10167SOL     OW31399   2.125   1.688   6.672
10167SOL    HW131400   2.081   1.746   6.741
10167SOL    HW231401   2.161   1.745   6.598
10168SOL     OW31402   6.820   0.298   6.498
10168SOL    HW131403   6.901   0.307   6.556
10168SOL    HW231404   6.771   0.214   6.522
10169SOL     OW31405   5.035   4.565   3.912
10169SOL    HW131406   5.052   4.613   3.826
10169SOL    HW231407   5.104   4.493   3.924
10170SOL     OW31408   5.473   5.881   0.027
10170SOL    HW131409   5.412   5.835   0.091
10170SOL    HW231410   5.483   5.825   6.968
10171SOL     OW31411   1.992   4.861   5.028
10171SOL    HW131412   2.055   4.818   5.094
10171SOL    HW231413   1.898   4.838   5.053
10172SOL     OW31414   6.589   0.847   3.345
10172SOL    HW131415   6.687   0.840   3.327
10172SOL    HW231416   6.539   0.852   3.258
10173SOL     OW31417   3.516   3.481   4.991
10173SOL    HW131418   3.492   3.525   4.905
10173SOL    HW231419   3.466   3.394   4.999
10174SOL     OW31420   4.276   5.238   1.553
10174SOL    HW131421   4.245   5.162   1.611
10174SOL    HW231422   4.366   5.269   1.583
10175SOL     OW31423   6.975   6.841   4.540
10175SOL    HW131424   0.050   6.831   4.553
10175SOL    HW231425   6.927   6.775   4.598
10176SOL     OW31426   6.498   1.101   4.709
10176SOL    HW131427   6.454   1.186   4.678
10176SOL    HW231428   6.597   1.112   4.704
10177SOL     OW31429   2.740   1.100   3.850
10177SOL    HW131430   2.810   1.042   3.893
10177SOL    HW231431   2.693   1.049   3.779
10178SOL     OW31432   0.568   1.753   0.992
10178SOL    HW131433   0.566   1.763   1.091
10178SOL    HW231434   0.532   1.836   0.949
10179SOL     OW31435   1.006   4.163   0.162
10179SOL    HW131436   1.028   4.202   0.251
10179SOL    HW231437   0.970   4.234   0.102
10180SOL     OW31438   4.167   0.227   5.896
10180SOL    HW131439   4.216   0.142   5.878
10180SOL    HW231440   4.232   0.300   5.916
10181SOL     OW31441   5.911   3.271   2.709
10181SOL    HW131442   5.820   3.266   2.669
10181SOL    HW231443   5.977   3.298   2.639
10182SOL     OW31444   4.396   1.146   1.117
10182SOL    HW131445   4.355   1.055   1.119
10182SOL    HW231446   4.331   1.213   1.152
10183SOL     OW31447   5.462   0.814   5.551
10183SOL    HW131448   5.409   0.733   5.527
10183SOL    HW231449   5.402   0.884   5.589
10184SOL     OW31450   5.006   2.054   5.939
10184SOL    HW131451   5.007   2.152   5.917
10184SOL    HW231452   5.068   2.037   6.016
10185SOL     OW31453   3.612   5.521   1.174
10185SOL    HW131454   3.561   5.573   1.106
10185SOL    HW231455   3.673   5.582   1.225
10186SOL     OW31456   3.567   3.365   6.606
10186SOL    HW131457   3.494   3.366   6.674
10186SOL    HW231458   3.620   3.281   6.613
10187SOL     OW31459   1.932   4.695   5.334
10187SOL    HW131460   1.862   4.752   5.376
10187SOL    HW231461   1.891   4.609   5.303
10188SOL     OW31462   3.146   0.298   5.931
10188SOL    HW131463   3.177   0.204   5.925
10188SOL    HW231464   3.067   0.304   5.993
10189SOL     OW31465   2.189   1.915   5.352
10189SOL    HW131466   2.183   1.935   5.254
10189SOL    HW231467   2.237   1.989   5.399
10190SOL     OW31468   4.429   4.639   0.781
10190SOL    HW131469   4.518   4.596   0.764
10190SOL    HW231470   4.424   4.670   0.876
10191SOL     OW31471   5.533   6.936   0.238
10191SOL    HW131472   5.434   6.932   0.258
10191SOL    HW231473   5.581   6.963   0.321
10192SOL     OW31474   1.720   1.108   4.601
10192SOL    HW131475   1.797   1.048   4.578
10192SOL    HW231476   1.743   1.165   4.680
10193SOL     OW31477   3.825   3.605   3.704
10193SOL    HW131478   3.830   3.571   3.797
10193SOL    HW231479   3.792   3.533   3.643
10194SOL     OW31480   2.885   0.275   2.602
10194SOL    HW131481   2.964   0.304   2.548
10194SOL    HW231482   2.847   0.191   2.563
10195SOL     OW31483   5.265   6.904   2.680
10195SOL    HW131484   5.189   6.909   2.745
10195SOL    HW231485   5.335   6.971   2.706
10196SOL     OW31486   5.669   3.246   4.221
10196SOL    HW131487   5.731   3.299   4.279
10196SOL    HW231488   5.686   3.269   4.125
10197SOL     OW31489   5.723   1.214   2.200
10197SOL    HW131490   5.729   1.185   2.295
10197SOL    HW231491   5.668   1.298   2.194
10198SOL     OW31492   2.289   6.955   0.626
10198SOL    HW131493   2.238   6.940   0.541
10198SOL    HW231494   2.265   0.021   0.663
10199SOL     OW31495   0.686   1.810   0.446
10199SOL    HW131496   0.725   1.845   0.531
10199SOL    HW231497   0.588   1.794   0.458
10200SOL     OW31498   6.063   4.783   5.572
10200SOL    HW131499   6.062   4.853   5.644
10200SOL    HW231500   6.133   4.715   5.592
10201SOL     OW31501   1.884   5.038   3.017
10201SOL    HW131502   1.925   5.129   3.011
10201SOL    HW231503   1.830   5.031   3.101
10202SOL     OW31504   0.503   2.673   2.581
10202SOL    HW131505   0.459   2.606   2.640
10202SOL    HW231506   0.520   2.757   2.633
10203SOL     OW31507   1.129   3.611   1.930
10203SOL    HW131508   1.174   3.681   1.875
10203SOL    HW231509   1.164   3.615   2.024
10204SOL     OW31510   3.224   5.197   4.096
10204SOL    HW131511   3.228   5.120   4.032
10204SOL    HW231512   3.168   5.173   4.174
10205SOL     OW31513   4.485   1.025   2.820
10205SOL    HW131514   4.434   1.084   2.884
10205SOL    HW231515   4.438   1.024   2.732
10206SOL     OW31516   4.869   0.311   6.212
10206SOL    HW131517   4.847   0.315   6.114
10206SOL    HW231518   4.928   0.387   6.236
10207SOL     OW31519   4.370   0.917   3.143
10207SOL    HW131520   4.375   1.012   3.113
10207SOL    HW231521   4.314   0.910   3.225
10208SOL     OW31522   5.573   3.800   5.202
10208SOL    HW131523   5.575   3.899   5.191
10208SOL    HW231524   5.623   3.775   5.285
10209SOL     OW31525   5.355   6.772   6.633
10209SOL    HW131526   5.385   6.843   6.570
10209SOL    HW231527   5.315   6.696   6.582
10210SOL     OW31528   5.036   5.739   1.845
10210SOL    HW131529   5.094   5.715   1.767
10210SOL    HW231530   5.056   5.833   1.874
10211SOL     OW31531   3.774   5.631   4.854
10211SOL    HW131532   3.684   5.589   4.868
10211SOL    HW231533   3.785   5.655   4.758
10212SOL     OW31534   6.029   6.481   5.214
10212SOL    HW131535   6.026   6.581   5.217
10212SOL    HW231536   6.099   6.452   5.150
10213SOL     OW31537   5.159   0.344   3.440
10213SOL    HW131538   5.191   0.381   3.527
10213SOL    HW231539   5.221   0.373   3.367
10214SOL     OW31540   6.887   0.357   2.062
10214SOL    HW131541   6.889   0.443   2.011
10214SOL    HW231542   6.839   0.288   2.009
10215SOL     OW31543   3.879   2.691   0.156
10215SOL    HW131544   3.965   2.668   0.111
10215SOL    HW231545   3.823   2.745   0.094
10216SOL     OW31546   4.898   0.562   2.542
10216SOL    HW131547   4.953   0.521   2.469
10216SOL    HW231548   4.943   0.646   2.573
10217SOL     OW31549   2.996   2.056   5.669
10217SOL    HW131550   3.036   2.095   5.586
10217SOL    HW231551   3.062   2.061   5.744
10218SOL     OW31552   2.380   2.653   1.072
10218SOL    HW131553   2.289   2.611   1.079
10218SOL    HW231554   2.425   2.623   0.988
10219SOL     OW31555   1.044   4.125   0.771
10219SOL    HW131556   1.052   4.073   0.856
10219SOL    HW231557   0.953   4.112   0.731
10220SOL     OW31558   4.158   2.486   0.699
10220SOL    HW131559   4.247   2.529   0.679
10220SOL    HW231560   4.167   2.427   0.779
10221SOL     OW31561   3.101   0.927   5.262
10221SOL    HW131562   3.164   0.852   5.281
10221SOL    HW231563   3.017   0.891   5.221
10222SOL     OW31564   1.966   4.903   5.947
10222SOL    HW131565   2.022   4.831   5.989
10222SOL    HW231566   2.019   4.949   5.876
10223SOL     OW31567   6.687   4.801   0.512
10223SOL    HW131568   6.591   4.783   0.533
10223SOL    HW231569   6.694   4.874   0.444
10224SOL     OW31570   2.231   6.713   4.660
10224SOL    HW131571   2.318   6.666   4.677
10224SOL    HW231572   2.249   6.801   4.615
10225SOL     OW31573   5.537   5.919   4.750
10225SOL    HW131574   5.531   5.927   4.850
10225SOL    HW231575   5.629   5.945   4.720
10226SOL     OW31576   0.080   2.496   0.211
10226SOL    HW131577   0.153   2.565   0.217
10226SOL    HW231578   0.036   2.487   0.301
10227SOL     OW31579   5.552   6.182   6.573
10227SOL    HW131580   5.459   6.171   6.610
10227SOL    HW231581   5.607   6.234   6.639
10228SOL     OW31582   0.693   3.537   3.302
10228SOL    HW131583   0.770   3.547   3.239
10228SOL    HW231584   0.621   3.483   3.259
10229SOL     OW31585   2.432   0.968   1.906
10229SOL    HW131586   2.435   0.899   1.834
10229SOL    HW231587   2.523   0.978   1.947
10230SOL     OW31588   6.452   6.510   4.674
10230SOL    HW131589   6.441   6.515   4.773
10230SOL    HW231590   6.479   6.599   4.639
10231SOL     OW31591   4.215   6.446   4.316
10231SOL    HW131592   4.190   6.461   4.221
10231SOL    HW231593   4.313   6.426   4.322
10232SOL     OW31594   3.919   2.130   4.768
10232SOL    HW131595   3.930   2.035   4.740
10232SOL    HW231596   3.979   2.189   4.714
10233SOL     OW31597   4.498   1.142   5.543
10233SOL    HW131598   4.574   1.135   5.478
10233SOL    HW231599   4.524   1.100   5.630
10234SOL     OW31600   6.040   5.760   1.402
10234SOL    HW131601   6.098   5.841   1.411
10234SOL    HW231602   5.953   5.777   1.449
10235SOL     OW31603   5.218   1.430   5.926
10235SOL    HW131604   5.244   1.510   5.979
10235SOL    HW231605   5.292   1.362   5.929
10236SOL     OW31606   2.379   5.987   2.941
10236SOL    HW131607   2.297   6.024   2.984
10236SOL    HW231608   2.460   6.019   2.990
10237SOL     OW31609   6.856   2.344   3.273
10237SOL    HW131610   6.932   2.398   3.309
10237SOL    HW231611   6.796   2.318   3.349
10238SOL     OW31612   4.679   5.062   4.373
10238SOL    HW131613   4.596   5.053   4.319
10238SOL    HW231614   4.679   5.150   4.420
10239SOL     OW31615   6.735   3.839   4.104
10239SOL    HW131616   6.769   3.745   4.107
10239SOL    HW231617   6.807   3.901   4.133
10240SOL     OW31618   6.576   3.793   3.673
10240SOL    HW131619   6.547   3.811   3.767
10240SOL    HW231620   6.537   3.862   3.613
10241SOL     OW31621   2.010   1.281   3.775
10241SOL    HW131622   2.022   1.361   3.717
10241SOL    HW231623   1.929   1.230   3.745
10242SOL     OW31624   0.840   6.467   6.211
10242SOL    HW131625   0.811   6.378   6.245
10242SOL    HW231626   0.801   6.482   6.120
10243SOL     OW31627   0.702   5.693   2.677
10243SOL    HW131628   0.618   5.747   2.679
10243SOL    HW231629   0.770   5.735   2.737
10244SOL     OW31630   1.965   6.324   6.914
10244SOL    HW131631   1.900   6.399   6.905
10244SOL    HW231632   2.018   6.336   6.998
10245SOL     OW31633   2.137   2.343   0.243
10245SOL    HW131634   2.078   2.265   0.223
10245SOL    HW231635   2.178   2.377   0.159
10246SOL     OW31636   3.847   4.020   4.266
10246SOL    HW131637   3.926   3.960   4.273
10246SOL    HW231638   3.836   4.050   4.171
10247SOL     OW31639   1.392   5.731   5.771
10247SOL    HW131640   1.434   5.819   5.791
10247SOL    HW231641   1.463   5.660   5.775
10248SOL     OW31642   4.765   0.314   2.293
10248SOL    HW131643   4.828   0.249   2.250
10248SOL    HW231644   4.709   0.266   2.361
10249SOL     OW31645   3.978   1.129   0.011
10249SOL    HW131646   3.889   1.172   7.018
10249SOL    HW231647   4.043   1.198   0.042
10250SOL     OW31648   6.210   0.385   0.194
10250SOL    HW131649   6.212   0.335   0.108
10250SOL    HW231650   6.116   0.413   0.214
10251SOL     OW31651   3.771   4.444   6.543
10251SOL    HW131652   3.795   4.541   6.538
10251SOL    HW231653   3.672   4.435   6.557
10252SOL     OW31654   6.426   5.219   2.381
10252SOL    HW131655   6.491   5.160   2.430
10252SOL    HW231656   6.461   5.239   2.290
10253SOL     OW31657   3.614   5.165   6.626
10253SOL    HW131658   3.556   5.138   6.549
10253SOL    HW231659   3.604   5.263   6.642
10254SOL     OW31660   2.516   1.912   4.518
10254SOL    HW131661   2.478   1.921   4.610
10254SOL    HW231662   2.544   1.818   4.502
10255SOL     OW31663   2.968   6.046   2.794
10255SOL    HW131664   3.021   6.008   2.870
10255SOL    HW231665   2.880   5.999   2.788
10256SOL     OW31666   5.821   6.097   6.987
10256SOL    HW131667   5.914   6.082   7.019
10256SOL    HW231668   5.764   6.019   7.013
10257SOL     OW31669   1.768   6.666   6.520
10257SOL    HW131670   1.861   6.636   6.540
10257SOL    HW231671   1.768   6.764   6.499
10258SOL     OW31672   4.244   0.893   3.393
10258SOL    HW131673   4.235   0.839   3.476
10258SOL    HW231674   4.273   0.986   3.417
10259SOL     OW31675   0.656   3.511   3.574
10259SOL    HW131676   0.745   3.543   3.606
10259SOL    HW231677   0.653   3.516   3.474
10260SOL     OW31678   0.119   6.979   1.212
10260SOL    HW131679   0.181   0.033   1.212
10260SOL    HW231680   0.091   6.958   1.305
10261SOL     OW31681   2.339   6.739   1.310
10261SOL    HW131682   2.241   6.730   1.290
10261SOL    HW231683   2.370   6.831   1.286
10262SOL     OW31684   2.000   5.129   5.111
10262SOL    HW131685   2.033   5.056   5.051
10262SOL    HW231686   2.004   5.099   5.206
10263SOL     OW31687   6.365   1.936   6.004
10263SOL    HW131688   6.392   1.864   5.941
10263SOL    HW231689   6.446   1.973   6.049
10264SOL     OW31690   0.208   6.372   6.890
10264SOL    HW131691   0.261   6.455   6.907
10264SOL    HW231692   0.120   6.396   6.849
10265SOL     OW31693   4.418   1.903   2.370
10265SOL    HW131694   4.503   1.887   2.320
10265SOL    HW231695   4.370   1.816   2.382
10266SOL     OW31696   3.814   4.339   6.299
10266SOL    HW131697   3.911   4.337   6.273
10266SOL    HW231698   3.806   4.375   6.392
10267SOL     OW31699   6.090   1.867   6.369
10267SOL    HW131700   5.997   1.899   6.349
10267SOL    HW231701   6.156   1.920   6.315
10268SOL     OW31702   6.080   4.708   1.954
10268SOL    HW131703   6.014   4.766   2.003
10268SOL    HW231704   6.092   4.622   2.004
10269SOL     OW31705   3.054   3.035   6.160
10269SOL    HW131706   3.110   2.994   6.089
10269SOL    HW231707   3.091   3.125   6.184
10270SOL     OW31708   2.748   6.092   0.646
10270SOL    HW131709   2.827   6.032   0.656
10270SOL    HW231710   2.764   6.157   0.572
10271SOL     OW31711   3.495   5.236   0.878
10271SOL    HW131712   3.430   5.164   0.853
10271SOL    HW231713   3.571   5.236   0.814
10272SOL     OW31714   0.590   0.899   6.014
10272SOL    HW131715   0.560   0.822   5.957
10272SOL    HW231716   0.517   0.924   6.077
10273SOL     OW31717   4.399   5.896   4.614
10273SOL    HW131718   4.481   5.938   4.653
10273SOL    HW231719   4.391   5.923   4.518
10274SOL     OW31720   2.248   6.127   6.050
10274SOL    HW131721   2.284   6.120   6.143
10274SOL    HW231722   2.171   6.190   6.048
10275SOL     OW31723   0.872   6.055   2.094
10275SOL    HW131724   0.938   6.104   2.153
10275SOL    HW231725   0.902   6.063   1.999
10276SOL     OW31726   6.809   6.284   6.321
10276SOL    HW131727   6.845   6.364   6.368
10276SOL    HW231728   6.811   6.299   6.223
10277SOL     OW31729   1.943   5.254   3.380
10277SOL    HW131730   1.946   5.287   3.286
10277SOL    HW231731   1.958   5.155   3.382
10278SOL     OW31732   6.167   0.655   5.870
10278SOL    HW131733   6.142   0.746   5.837
10278SOL    HW231734   6.220   0.664   5.955
10279SOL     OW31735   3.341   6.599   3.450
10279SOL    HW131736   3.391   6.602   3.537
10279SOL    HW231737   3.366   6.679   3.395
10280SOL     OW31738   2.746   2.690   6.742
10280SOL    HW131739   2.801   2.645   6.672
10280SOL    HW231740   2.761   2.645   6.830
10281SOL     OW31741   4.103   6.713   3.792
10281SOL    HW131742   4.102   6.768   3.876
10281SOL    HW231743   4.012   6.712   3.752
10282SOL     OW31744   1.207   2.736   4.728
10282SOL    HW131745   1.218   2.823   4.680
10282SOL    HW231746   1.258   2.665   4.680
10283SOL     OW31747   0.816   3.460   5.737
10283SOL    HW131748   0.768   3.454   5.649
10283SOL    HW231749   0.790   3.383   5.794
10284SOL     OW31750   5.501   3.602   6.626
10284SOL    HW131751   5.437   3.653   6.567
10284SOL    HW231752   5.588   3.592   6.579
10285SOL     OW31753   6.017   0.441   0.462
10285SOL    HW131754   6.069   0.441   0.548
10285SOL    HW231755   6.007   0.535   0.429
10286SOL     OW31756   4.665   0.810   3.642
10286SOL    HW131757   4.754   0.851   3.622
10286SOL    HW231758   4.669   0.712   3.625
10287SOL     OW31759   2.012   5.499   1.648
10287SOL    HW131760   1.936   5.487   1.712
10287SOL    HW231761   2.013   5.593   1.614
10288SOL     OW31762   4.940   6.360   3.907
10288SOL    HW131763   4.952   6.402   3.997
10288SOL    HW231764   4.950   6.261   3.915
10289SOL     OW31765   3.216   1.598   1.561
10289SOL    HW131766   3.312   1.623   1.558
10289SOL    HW231767   3.169   1.636   1.481
10290SOL     OW31768   2.972   3.667   2.635
10290SOL    HW131769   2.918   3.703   2.559
10290SOL    HW231770   2.926   3.587   2.674
10291SOL     OW31771   3.827   0.277   5.960
10291SOL    HW131772   3.876   0.320   6.036
10291SOL    HW231773   3.729   0.292   5.972
10292SOL     OW31774   6.636   0.855   4.419
10292SOL    HW131775   6.557   0.835   4.362
10292SOL    HW231776   6.671   0.770   4.459
10293SOL     OW31777   2.396   5.701   2.957
10293SOL    HW131778   2.483   5.656   2.941
10293SOL    HW231779   2.406   5.800   2.946
10294SOL     OW31780   6.038   1.623   3.337
10294SOL    HW131781   6.077   1.607   3.246
10294SOL    HW231782   6.112   1.627   3.404
10295SOL     OW31783   1.047   5.124   5.666
10295SOL    HW131784   0.981   5.129   5.741
10295SOL    HW231785   1.061   5.028   5.641
10296SOL     OW31786   6.243   2.005   0.877
10296SOL    HW131787   6.294   1.919   0.870
10296SOL    HW231788   6.166   1.994   0.940
10297SOL     OW31789   2.201   5.036   4.582
10297SOL    HW131790   2.144   5.026   4.664
10297SOL    HW231791   2.167   4.975   4.510
10298SOL     OW31792   5.565   3.483   3.407
10298SOL    HW131793   5.570   3.383   3.404
10298SOL    HW231794   5.650   3.522   3.370
10299SOL     OW31795   5.028   4.923   2.372
10299SOL    HW131796   5.023   4.832   2.330
10299SOL    HW231797   4.947   4.939   2.427
10300SOL     OW31798   2.227   5.068   2.790
10300SOL    HW131799   2.220   4.975   2.827
10300SOL    HW231800   2.145   5.088   2.736
10301SOL     OW31801   5.624   1.811   1.901
10301SOL    HW131802   5.530   1.802   1.868
10301SOL    HW231803   5.656   1.723   1.934
10302SOL     OW31804   1.578   5.201   3.272
10302SOL    HW131805   1.618   5.267   3.209
10302SOL    HW231806   1.535   5.127   3.220
10303SOL     OW31807   3.601   2.901   0.936
10303SOL    HW131808   3.506   2.933   0.932
10303SOL    HW231809   3.618   2.836   0.862
10304SOL     OW31810   6.279   6.468   3.912
10304SOL    HW131811   6.197   6.525   3.910
10304SOL    HW231812   6.269   6.392   3.848
10305SOL     OW31813   1.725   5.948   1.301
10305SOL    HW131814   1.628   5.957   1.277
10305SOL    HW231815   1.752   6.023   1.361
10306SOL     OW31816   4.318   4.910   0.525
10306SOL    HW131817   4.226   4.871   0.525
10306SOL    HW231818   4.312   5.009   0.509
10307SOL     OW31819   2.867   1.196   5.341
10307SOL    HW131820   2.906   1.287   5.330
10307SOL    HW231821   2.882   1.143   5.258
10308SOL     OW31822   3.287   5.653   3.424
10308SOL    HW131823   3.335   5.740   3.415
10308SOL    HW231824   3.196   5.668   3.465
10309SOL     OW31825   0.890   6.422   3.272
10309SOL    HW131826   0.892   6.362   3.352
10309SOL    HW231827   0.940   6.380   3.197
10310SOL     OW31828   3.765   3.628   4.121
10310SOL    HW131829   3.858   3.647   4.089
10310SOL    HW231830   3.768   3.606   4.219
10311SOL     OW31831   7.015   6.138   0.655
10311SOL    HW131832   6.996   6.235   0.666
10311SOL    HW231833   0.085   6.119   0.685
10312SOL     OW31834   1.761   5.311   0.944
10312SOL    HW131835   1.857   5.337   0.944
10312SOL    HW231836   1.754   5.211   0.952
10313SOL     OW31837   5.941   6.002   3.432
10313SOL    HW131838   5.960   6.010   3.334
10313SOL    HW231839   6.001   5.933   3.472
10314SOL     OW31840   6.542   5.566   6.195
10314SOL    HW131841   6.632   5.607   6.183
10314SOL    HW231842   6.474   5.638   6.210
10315SOL     OW31843   6.230   5.862   4.806
10315SOL    HW131844   6.237   5.883   4.904
10315SOL    HW231845   6.206   5.945   4.756
10316SOL     OW31846   6.735   4.209   2.649
10316SOL    HW131847   6.741   4.304   2.617
10316SOL    HW231848   6.827   4.173   2.663
10317SOL     OW31849   3.480   4.817   0.877
10317SOL    HW131850   3.437   4.904   0.850
10317SOL    HW231851   3.453   4.745   0.813
10318SOL     OW31852   6.670   5.603   2.351
10318SOL    HW131853   6.746   5.611   2.286
10318SOL    HW231854   6.601   5.672   2.330
10319SOL     OW31855   4.837   6.112   4.248
10319SOL    HW131856   4.792   6.022   4.249
10319SOL    HW231857   4.772   6.181   4.215
10320SOL     OW31858   4.520   6.229   1.211
10320SOL    HW131859   4.470   6.142   1.219
10320SOL    HW231860   4.542   6.246   1.115
10321SOL     OW31861   4.211   6.755   4.119
10321SOL    HW131862   4.219   6.658   4.093
10321SOL    HW231863   4.115   6.782   4.119
10322SOL     OW31864   6.559   2.768   0.165
10322SOL    HW131865   6.591   2.787   0.258
10322SOL    HW231866   6.626   2.711   0.118
10323SOL     OW31867   6.108   2.282   5.224
10323SOL    HW131868   6.028   2.257   5.279
10323SOL    HW231869   6.078   2.340   5.148
10324SOL     OW31870   2.967   3.793   3.760
10324SOL    HW131871   2.961   3.701   3.720
10324SOL    HW231872   2.959   3.786   3.859
10325SOL     OW31873   0.844   3.617   3.767
10325SOL    HW131874   0.916   3.547   3.769
10325SOL    HW231875   0.778   3.599   3.840
10326SOL     OW31876   4.761   1.326   1.380
10326SOL    HW131877   4.834   1.264   1.409
10326SOL    HW231878   4.801   1.415   1.356
10327SOL     OW31879   6.986   0.817   3.940
10327SOL    HW131880   6.933   0.740   3.905
10327SOL    HW231881   0.025   0.784   4.011
10328SOL     OW31882   5.727   2.729   2.158
10328SOL    HW131883   5.721   2.783   2.242
10328SOL    HW231884   5.773   2.783   2.087
10329SOL     OW31885   3.829   6.216   2.044
10329SOL    HW131886   3.908   6.188   2.099
10329SOL    HW231887   3.833   6.314   2.027
10330SOL     OW31888   3.702   4.456   1.054
10330SOL    HW131889   3.679   4.385   1.120
10330SOL    HW231890   3.755   4.528   1.099
10331SOL     OW31891   5.259   0.550   4.304
10331SOL    HW131892   5.308   0.617   4.360
10331SOL    HW231893   5.274   0.571   4.207
10332SOL     OW31894   7.005   1.701   6.994
10332SOL    HW131895   6.998   1.612   0.015
10332SOL    HW231896   6.914   1.737   6.976
10333SOL     OW31897   5.007   4.070   4.736
10333SOL    HW131898   5.083   4.132   4.751
10333SOL    HW231899   5.041   3.977   4.725
10334SOL     OW31900   0.943   4.694   5.111
10334SOL    HW131901   0.990   4.769   5.063
10334SOL    HW231902   0.845   4.710   5.108
10335SOL     OW31903   2.146   5.321   2.003
10335SOL    HW131904   2.102   5.405   2.034
10335SOL    HW231905   2.155   5.323   1.903
10336SOL     OW31906   4.377   6.328   3.015
10336SOL    HW131907   4.470   6.356   3.038
10336SOL    HW231908   4.327   6.405   2.975
10337SOL     OW31909   0.812   4.988   5.260
10337SOL    HW131910   0.750   4.962   5.185
10337SOL    HW231911   0.841   4.906   5.309
10338SOL     OW31912   3.780   4.888   3.420
10338SOL    HW131913   3.782   4.807   3.362
10338SOL    HW231914   3.844   4.877   3.496
10339SOL     OW31915   2.915   5.449   0.771
10339SOL    HW131916   2.965   5.482   0.691
10339SOL    HW231917   2.932   5.510   0.848
10340SOL     OW31918   1.626   6.910   6.810
10340SOL    HW131919   1.655   6.960   6.891
10340SOL    HW231920   1.528   6.924   6.795
10341SOL     OW31921   1.458   2.073   2.467
10341SOL    HW131922   1.496   2.158   2.504
10341SOL    HW231923   1.532   2.016   2.432
10342SOL     OW31924   2.790   6.744   4.310
10342SOL    HW131925   2.785   6.683   4.389
10342SOL    HW231926   2.881   6.785   4.305
10343SOL     OW31927   2.164   3.092   4.244
10343SOL    HW131928   2.228   3.022   4.275
10343SOL    HW231929   2.155   3.163   4.314
10344SOL     OW31930   3.968   3.951   0.114
10344SOL    HW131931   4.058   3.984   0.145
10344SOL    HW231932   3.977   3.912   0.022
10345SOL     OW31933   1.629   1.848   5.893
10345SOL    HW131934   1.636   1.808   5.802
10345SOL    HW231935   1.715   1.894   5.916
10346SOL     OW31936   5.382   5.558   0.204
10346SOL    HW131937   5.415   5.603   0.287
10346SOL    HW231938   5.454   5.559   0.134
10347SOL     OW31939   4.827   1.657   2.127
10347SOL    HW131940   4.768   1.600   2.184
10347SOL    HW231941   4.771   1.707   2.060
10348SOL     OW31942   0.090   4.970   5.999
10348SOL    HW131943   0.020   5.005   5.937
10348SOL    HW231944   0.152   5.045   6.024
10349SOL     OW31945   0.336   1.706   1.215
10349SOL    HW131946   0.294   1.711   1.124
10349SOL    HW231947   0.336   1.610   1.246
10350SOL     OW31948   2.353   4.400   4.459
10350SOL    HW131949   2.414   4.417   4.537
10350SOL    HW231950   2.274   4.460   4.465
10351SOL     OW31951   4.581   4.504   4.954
10351SOL    HW131952   4.486   4.508   4.985
10351SOL    HW231953   4.637   4.465   5.027
10352SOL     OW31954   5.442   1.189   6.730
10352SOL    HW131955   5.383   1.237   6.665
10352SOL    HW231956   5.455   1.094   6.700
10353SOL     OW31957   6.425   2.710   3.590
10353SOL    HW131958   6.467   2.623   3.564
10353SOL    HW231959   6.327   2.707   3.572
10354SOL     OW31960   6.213   3.276   1.165
10354SOL    HW131961   6.248   3.359   1.121
10354SOL    HW231962   6.155   3.226   1.100
10355SOL     OW31963   0.317   1.799   0.699
10355SOL    HW131964   0.219   1.801   0.680
10355SOL    HW231965   0.361   1.732   0.638
10356SOL     OW31966   5.929   3.460   5.849
10356SOL    HW131967   6.010   3.454   5.906
10356SOL    HW231968   5.897   3.555   5.845
10357SOL     OW31969   0.850   0.979   5.978
10357SOL    HW131970   0.758   0.942   5.987
10357SOL    HW231971   0.905   0.951   6.057
10358SOL     OW31972   0.975   2.624   3.153
10358SOL    HW131973   1.023   2.567   3.086
10358SOL    HW231974   0.928   2.699   3.106
10359SOL     OW31975   6.165   2.487   1.996
10359SOL    HW131976   6.251   2.530   1.972
10359SOL    HW231977   6.160   2.473   2.095
10360SOL     OW31978   5.818   4.424   1.719
10360SOL    HW131979   5.824   4.378   1.630
10360SOL    HW231980   5.855   4.516   1.712
10361SOL     OW31981   6.662   1.984   2.599
10361SOL    HW131982   6.749   1.965   2.553
10361SOL    HW231983   6.679   2.022   2.690
10362SOL     OW31984   1.085   5.734   1.858
10362SOL    HW131985   0.996   5.762   1.821
10362SOL    HW231986   1.123   5.661   1.801
10363SOL     OW31987   5.536   4.514   6.596
10363SOL    HW131988   5.593   4.592   6.570
10363SOL    HW231989   5.469   4.543   6.664
10364SOL     OW31990   6.155   4.553   2.566
10364SOL    HW131991   6.214   4.612   2.622
10364SOL    HW231992   6.109   4.487   2.624
10365SOL     OW31993   5.681   5.114   0.650
10365SOL    HW131994   5.716   5.069   0.732
10365SOL    HW231995   5.598   5.164   0.671
10366SOL     OW31996   2.677   6.464   2.983
10366SOL    HW131997   2.735   6.450   2.902
10366SOL    HW231998   2.622   6.383   3.000
10367SOL     OW31999   5.910   6.304   1.395
10367SOL    HW132000   5.948   6.325   1.305
10367SOL    HW232001   5.979   6.325   1.465
10368SOL     OW32002   2.069   6.711   1.190
10368SOL    HW132003   2.031   6.724   1.099
10368SOL    HW232004   2.008   6.751   1.258
10369SOL     OW32005   2.773   0.299   5.622
10369SOL    HW132006   2.767   0.320   5.719
10369SOL    HW232007   2.684   0.269   5.588
10370SOL     OW32008   1.169   0.774   5.553
10370SOL    HW132009   1.073   0.785   5.577
10370SOL    HW232010   1.217   0.860   5.569
10371SOL     OW32011   4.532   5.319   2.781
10371SOL    HW132012   4.450   5.267   2.759
10371SOL    HW232013   4.553   5.383   2.707
10372SOL     OW32014   3.009   6.269   1.823
10372SOL    HW132015   2.978   6.178   1.851
10372SOL    HW232016   3.093   6.261   1.770
10373SOL     OW32017   6.673   1.731   6.076
10373SOL    HW132018   6.755   1.680   6.051
10373SOL    HW232019   6.601   1.711   6.010
10374SOL     OW32020   3.708   5.534   3.171
10374SOL    HW132021   3.658   5.561   3.254
10374SOL    HW232022   3.708   5.434   3.163
10375SOL     OW32023   2.412   4.922   6.929
10375SOL    HW132024   2.315   4.926   6.953
10375SOL    HW232025   2.456   5.009   6.953
10376SOL     OW32026   2.304   5.004   3.590
10376SOL    HW132027   2.404   5.007   3.583
10376SOL    HW232028   2.269   5.096   3.606
10377SOL     OW32029   1.763   0.930   2.113
10377SOL    HW132030   1.789   0.854   2.173
10377SOL    HW232031   1.818   0.926   2.029
10378SOL     OW32032   6.974   5.645   4.199
10378SOL    HW132033   7.012   5.668   4.110
10378SOL    HW232034   0.024   5.617   4.261
10379SOL     OW32035   1.981   6.755   4.318
10379SOL    HW132036   2.038   6.676   4.293
10379SOL    HW232037   2.036   6.839   4.311
10380SOL     OW32038   2.840   2.266   4.633
10380SOL    HW132039   2.867   2.257   4.537
10380SOL    HW232040   2.912   2.228   4.691
10381SOL     OW32041   4.519   6.323   2.288
10381SOL    HW132042   4.582   6.350   2.216
10381SOL    HW232043   4.536   6.227   2.313
10382SOL     OW32044   4.100   6.013   1.796
10382SOL    HW132045   4.146   6.042   1.712
10382SOL    HW232046   4.166   5.964   1.854
10383SOL     OW32047   1.558   4.516   6.912
10383SOL    HW132048   1.627   4.588   6.902
10383SOL    HW232049   1.469   4.558   6.929
10384SOL     OW32050   5.920   5.862   1.824
10384SOL    HW132051   5.973   5.919   1.886
10384SOL    HW232052   5.886   5.781   1.872
10385SOL     OW32053   4.728   4.785   7.007
10385SOL    HW132054   4.746   4.863   0.044
10385SOL    HW232055   4.652   4.731   0.020
10386SOL     OW32056   0.358   0.733   0.823
10386SOL    HW132057   0.305   0.649   0.806
10386SOL    HW232058   0.331   0.772   0.911
10387SOL     OW32059   5.188   3.364   1.977
10387SOL    HW132060   5.205   3.269   2.003
10387SOL    HW232061   5.234   3.425   2.042
10388SOL     OW32062   2.383   0.197   4.892
10388SOL    HW132063   2.317   0.126   4.918
10388SOL    HW232064   2.473   0.175   4.931
10389SOL     OW32065   0.562   3.723   0.804
10389SOL    HW132066   0.486   3.700   0.743
10389SOL    HW232067   0.552   3.672   0.890
10390SOL     OW32068   2.434   2.152   1.524
10390SOL    HW132069   2.386   2.206   1.454
10390SOL    HW232070   2.531   2.176   1.524
10391SOL     OW32071   5.379   6.980   4.276
10391SOL    HW132072   5.351   6.972   4.372
10391SOL    HW232073   5.435   6.902   4.251
10392SOL     OW32074   6.518   3.911   3.930
10392SOL    HW132075   6.565   3.884   4.014
10392SOL    HW232076   6.436   3.964   3.953
10393SOL     OW32077   1.245   3.380   3.858
10393SOL    HW132078   1.240   3.297   3.803
10393SOL    HW232079   1.280   3.358   3.948
10394SOL     OW32080   3.171   6.691   4.313
10394SOL    HW132081   3.086   6.661   4.356
10394SOL    HW232082   3.200   6.623   4.245
10395SOL     OW32083   1.259   0.672   1.089
10395SOL    HW132084   1.179   0.701   1.142
10395SOL    HW232085   1.338   0.727   1.115
10396SOL     OW32086   2.826   2.038   5.006
10396SOL    HW132087   2.798   1.968   4.941
10396SOL    HW232088   2.747   2.064   5.063
10397SOL     OW32089   3.488   2.133   2.948
10397SOL    HW132090   3.583   2.117   2.920
10397SOL    HW232091   3.486   2.149   3.047
10398SOL     OW32092   6.337   2.681   1.629
10398SOL    HW132093   6.305   2.746   1.560
10398SOL    HW232094   6.273   2.604   1.635
10399SOL     OW32095   6.954   3.400   1.652
10399SOL    HW132096   7.018   3.433   1.720
10399SOL    HW232097   6.903   3.323   1.689
10400SOL     OW32098   4.295   6.367   0.141
10400SOL    HW132099   4.311   6.450   0.195
10400SOL    HW232100   4.218   6.317   0.179
10401SOL     OW32101   0.464   1.060   5.354
10401SOL    HW132102   0.410   1.108   5.423
10401SOL    HW232103   0.486   1.123   5.279
10402SOL     OW32104   6.741   3.061   4.802
10402SOL    HW132105   6.772   3.069   4.896
10402SOL    HW232106   6.673   3.132   4.783
10403SOL     OW32107   2.523   0.615   2.493
10403SOL    HW132108   2.545   0.712   2.502
10403SOL    HW232109   2.604   0.561   2.511
10404SOL     OW32110   0.254   6.825   6.701
10404SOL    HW132111   0.284   6.748   6.758
10404SOL    HW232112   0.238   6.792   6.608
10405SOL     OW32113   6.767   1.372   6.317
10405SOL    HW132114   6.835   1.410   6.380
10405SOL    HW232115   6.801   1.285   6.280
10406SOL     OW32116   2.888   4.656   1.633
10406SOL    HW132117   2.907   4.590   1.706
10406SOL    HW232118   2.972   4.675   1.583
10407SOL     OW32119   2.963   6.538   0.122
10407SOL    HW132120   2.911   6.595   0.185
10407SOL    HW232121   2.951   6.573   0.028
10408SOL     OW32122   3.914   0.598   0.623
10408SOL    HW132123   3.853   0.672   0.593
10408SOL    HW232124   4.007   0.634   0.634
10409SOL     OW32125   5.971   4.763   1.347
10409SOL    HW132126   5.938   4.783   1.439
10409SOL    HW232127   6.011   4.671   1.345
10410SOL     OW32128   5.593   0.656   1.097
10410SOL    HW132129   5.509   0.632   1.048
10410SOL    HW232130   5.671   0.652   1.033
10411SOL     OW32131   3.175   5.544   3.127
10411SOL    HW132132   3.139   5.542   3.221
10411SOL    HW232133   3.102   5.566   3.063
10412SOL     OW32134   6.365   0.406   0.805
10412SOL    HW132135   6.438   0.471   0.783
10412SOL    HW232136   6.297   0.451   0.863
10413SOL     OW32137   5.771   2.536   1.156
10413SOL    HW132138   5.740   2.499   1.243
10413SOL    HW232139   5.749   2.633   1.151
10414SOL     OW32140   4.813   2.900   4.409
10414SOL    HW132141   4.793   2.863   4.318
10414SOL    HW232142   4.790   2.832   4.478
10415SOL     OW32143   0.847   5.995   6.477
10415SOL    HW132144   0.946   6.012   6.482
10415SOL    HW232145   0.824   5.918   6.535
10416SOL     OW32146   5.830   3.111   4.678
10416SOL    HW132147   5.782   3.199   4.674
10416SOL    HW232148   5.778   3.043   4.627
10417SOL     OW32149   2.449   4.648   4.086
10417SOL    HW132150   2.423   4.557   4.116
10417SOL    HW232151   2.539   4.672   4.122
10418SOL     OW32152   0.922   4.510   5.691
10418SOL    HW132153   0.891   4.495   5.597
10418SOL    HW232154   1.012   4.553   5.690
10419SOL     OW32155   1.222   1.183   0.800
10419SOL    HW132156   1.145   1.161   0.740
10419SOL    HW232157   1.194   1.252   0.867
10420SOL     OW32158   6.990   3.352   3.101
10420SOL    HW132159   6.941   3.279   3.053
10420SOL    HW232160   6.929   3.430   3.114
10421SOL     OW32161   0.801   0.684   2.912
10421SOL    HW132162   0.900   0.679   2.925
10421SOL    HW232163   0.773   0.780   2.913
10422SOL     OW32164   5.972   2.841   6.306
10422SOL    HW132165   6.001   2.802   6.394
10422SOL    HW232166   5.955   2.939   6.317
10423SOL     OW32167   4.687   4.583   3.454
10423SOL    HW132168   4.689   4.498   3.401
10423SOL    HW232169   4.635   4.652   3.404
10424SOL     OW32170   5.050   1.747   6.722
10424SOL    HW132171   4.980   1.692   6.766
10424SOL    HW232172   5.118   1.775   6.789
10425SOL     OW32173   1.091   5.772   2.594
10425SOL    HW132174   1.012   5.752   2.535
10425SOL    HW232175   1.170   5.793   2.536
10426SOL     OW32176   6.206   4.579   0.118
10426SOL    HW132177   6.228   4.676   0.115
10426SOL    HW232178   6.114   4.567   0.155
10427SOL     OW32179   5.403   2.211   0.394
10427SOL    HW132180   5.462   2.238   0.318
10427SOL    HW232181   5.311   2.244   0.378
10428SOL     OW32182   4.616   0.288   4.675
10428SOL    HW132183   4.695   0.337   4.713
10428SOL    HW232184   4.647   0.201   4.637
10429SOL     OW32185   6.954   6.114   1.633
10429SOL    HW132186   6.884   6.052   1.666
10429SOL    HW232187   6.992   6.166   1.709
10430SOL     OW32188   4.099   6.620   2.427
10430SOL    HW132189   4.085   6.661   2.337
10430SOL    HW232190   4.187   6.573   2.429
10431SOL     OW32191   2.928   0.578   4.372
10431SOL    HW132192   2.875   0.617   4.447
10431SOL    HW232193   3.025   0.598   4.386
10432SOL     OW32194   6.206   0.789   4.692
10432SOL    HW132195   6.292   0.796   4.743
10432SOL    HW232196   6.211   0.846   4.610
10433SOL     OW32197   2.194   6.615   0.874
10433SOL    HW132198   2.097   6.632   0.853
10433SOL    HW232199   2.237   6.567   0.798
10434SOL     OW32200   2.606   0.548   3.701
10434SOL    HW132201   2.647   0.536   3.791
10434SOL    HW232202   2.555   0.466   3.676
10435SOL     OW32203   5.561   6.319   6.315
10435SOL    HW132204   5.505   6.276   6.385
10435SOL    HW232205   5.518   6.307   6.225
10436SOL     OW32206   1.742   4.802   4.057
10436SOL    HW132207   1.654   4.807   4.011
10436SOL    HW232208   1.750   4.877   4.123
10437SOL     OW32209   6.604   5.396   5.919
10437SOL    HW132210   6.690   5.446   5.906
10437SOL    HW232211   6.558   5.430   6.001
10438SOL     OW32212   4.107   6.765   0.255
10438SOL    HW132213   4.020   6.728   0.287
10438SOL    HW232214   4.183   6.713   0.295
10439SOL     OW32215   3.944   0.068   5.755
10439SOL    HW132216   3.899   0.135   5.814
10439SOL    HW232217   3.993   0.002   5.811
10440SOL     OW32218   1.897   6.578   0.792
10440SOL    HW132219   1.887   6.488   0.836
10440SOL    HW232220   1.855   6.575   0.701
10441SOL     OW32221   5.391   2.022   6.385
10441SOL    HW132222   5.339   2.108   6.384
10441SOL    HW232223   5.454   2.022   6.463
10442SOL     OW32224   3.756   4.959   5.880
10442SOL    HW132225   3.839   4.930   5.929
10442SOL    HW232226   3.676   4.935   5.934
10443SOL     OW32227   5.538   3.573   5.057
10443SOL    HW132228   5.481   3.535   5.130
10443SOL    HW232229   5.578   3.660   5.088
10444SOL     OW32230   4.186   5.295   4.705
10444SOL    HW132231   4.100   5.345   4.695
10444SOL    HW232232   4.176   5.203   4.667
10445SOL     OW32233   6.641   6.379   4.924
10445SOL    HW132234   6.603   6.420   4.841
10445SOL    HW232235   6.701   6.303   4.899
10446SOL     OW32236   1.201   5.294   5.526
10446SOL    HW132237   1.292   5.255   5.537
10446SOL    HW232238   1.138   5.252   5.592
10447SOL     OW32239   6.051   2.588   1.247
10447SOL    HW132240   6.013   2.500   1.274
10447SOL    HW232241   6.046   2.652   1.323
10448SOL     OW32242   3.939   4.006   2.501
10448SOL    HW132243   3.993   4.021   2.419
10448SOL    HW232244   3.851   4.052   2.491
10449SOL     OW32245   2.942   5.361   4.542
10449SOL    HW132246   2.873   5.394   4.477
10449SOL    HW232247   3.000   5.437   4.569
10450SOL     OW32248   0.042   2.043   0.792
10450SOL    HW132249   0.048   2.140   0.771
10450SOL    HW232250   0.132   2.001   0.783
10451SOL     OW32251   2.428   4.556   2.945
10451SOL    HW132252   2.432   4.506   3.031
10451SOL    HW232253   2.411   4.491   2.870
10452SOL     OW32254   0.892   3.055   3.723
10452SOL    HW132255   0.960   3.079   3.792
10452SOL    HW232256   0.855   2.965   3.744
10453SOL     OW32257   4.894   6.454   1.880
10453SOL    HW132258   4.849   6.401   1.952
10453SOL    HW232259   4.933   6.537   1.919
10454SOL     OW32260   5.174   3.118   2.062
10454SOL    HW132261   5.216   3.029   2.079
10454SOL    HW232262   5.094   3.130   2.121
10455SOL     OW32263   6.967   4.914   3.870
10455SOL    HW132264   6.923   4.858   3.940
10455SOL    HW232265   0.030   4.950   3.905
10456SOL     OW32266   4.418   5.981   1.224
10456SOL    HW132267   4.428   6.000   1.321
10456SOL    HW232268   4.325   6.001   1.195
10457SOL     OW32269   4.034   3.480   3.175
10457SOL    HW132270   3.943   3.507   3.146
10457SOL    HW232271   4.052   3.386   3.147
10458SOL     OW32272   1.054   6.585   0.890
10458SOL    HW132273   1.027   6.629   0.804
10458SOL    HW232274   1.005   6.498   0.900
10459SOL     OW32275   6.145   5.079   2.883
10459SOL    HW132276   6.101   5.009   2.827
10459SOL    HW232277   6.228   5.112   2.838
10460SOL     OW32278   2.075   4.986   2.077
10460SOL    HW132279   2.127   5.071   2.068
10460SOL    HW232280   1.986   5.006   2.117
10461SOL     OW32281   2.732   1.319   6.775
10461SOL    HW132282   2.759   1.365   6.860
10461SOL    HW232283   2.711   1.387   6.705
10462SOL     OW32284   6.835   0.352   0.866
10462SOL    HW132285   6.742   0.369   0.898
10462SOL    HW232286   6.865   0.261   0.898
10463SOL     OW32287   2.782   5.044   0.546
10463SOL    HW132288   2.684   5.026   0.553
10463SOL    HW232289   2.806   5.061   0.451
10464SOL     OW32290   5.464   0.295   1.186
10464SOL    HW132291   5.495   0.341   1.269
10464SOL    HW232292   5.386   0.237   1.207
10465SOL     OW32293   6.410   5.107   6.136
10465SOL    HW132294   6.453   5.031   6.183
10465SOL    HW232295   6.476   5.151   6.075
10466SOL     OW32296   5.002   6.235   5.813
10466SOL    HW132297   4.975   6.268   5.722
10466SOL    HW232298   5.016   6.136   5.809
10467SOL     OW32299   3.007   0.998   5.538
10467SOL    HW132300   3.015   1.020   5.440
10467SOL    HW232301   2.968   1.076   5.586
10468SOL     OW32302   3.200   6.408   3.772
10468SOL    HW132303   3.231   6.496   3.808
10468SOL    HW232304   3.112   6.420   3.726
10469SOL     OW32305   1.658   4.608   0.733
10469SOL    HW132306   1.661   4.518   0.777
10469SOL    HW232307   1.681   4.678   0.800
10470SOL     OW32308   2.545   1.677   4.406
10470SOL    HW132309   2.582   1.584   4.404
10470SOL    HW232310   2.459   1.679   4.354
10471SOL     OW32311   3.116   3.747   0.614
10471SOL    HW132312   3.182   3.726   0.686
10471SOL    HW232313   3.106   3.668   0.554
10472SOL     OW32314   4.837   1.237   2.361
10472SOL    HW132315   4.766   1.180   2.403
10472SOL    HW232316   4.841   1.216   2.263
10473SOL     OW32317   4.976   6.226   0.704
10473SOL    HW132318   4.910   6.153   0.684
10473SOL    HW232319   4.929   6.300   0.752
10474SOL     OW32320   4.020   0.445   5.148
10474SOL    HW132321   4.049   0.519   5.087
10474SOL    HW232322   4.042   0.470   5.242
10475SOL     OW32323   4.157   6.843   1.668
10475SOL    HW132324   4.115   6.755   1.645
10475SOL    HW232325   4.249   6.848   1.630
10476SOL     OW32326   0.002   5.270   0.022
10476SOL    HW132327   0.035   5.176   0.013
10476SOL    HW232328   0.064   5.332   6.998
10477SOL     OW32329   5.298   4.043   5.445
10477SOL    HW132330   5.253   4.054   5.357
10477SOL    HW232331   5.304   3.946   5.468
10478SOL     OW32332   0.365   6.659   1.131
10478SOL    HW132333   0.389   6.665   1.228
10478SOL    HW232334   0.364   6.563   1.102
10479SOL     OW32335   1.047   4.053   3.414
10479SOL    HW132336   0.973   4.110   3.449
10479SOL    HW232337   1.105   4.023   3.490
10480SOL     OW32338   5.796   0.234   2.129
10480SOL    HW132339   5.803   0.269   2.223
10480SOL    HW232340   5.735   0.292   2.076
10481SOL     OW32341   2.176   0.454   5.118
10481SOL    HW132342   2.132   0.534   5.158
10481SOL    HW232343   2.144   0.371   5.165
10482SOL     OW32344   1.615   5.579   5.742
10482SOL    HW132345   1.668   5.494   5.746
10482SOL    HW232346   1.646   5.634   5.665
10483SOL     OW32347   6.984   5.300   0.333
10483SOL    HW132348   6.918   5.375   0.343
10483SOL    HW232349   6.974   5.258   0.243
10484SOL     OW32350   6.306   1.234   1.484
10484SOL    HW132351   6.294   1.307   1.416
10484SOL    HW232352   6.296   1.272   1.576
10485SOL     OW32353   3.623   4.175   3.335
10485SOL    HW132354   3.714   4.133   3.341
10485SOL    HW232355   3.586   4.187   3.428
10486SOL     OW32356   6.340   6.878   5.593
10486SOL    HW132357   6.373   6.937   5.519
10486SOL    HW232358   6.410   6.809   5.613
10487SOL     OW32359   4.983   2.693   1.875
10487SOL    HW132360   4.936   2.782   1.875
10487SOL    HW232361   4.915   2.621   1.863
10488SOL     OW32362   5.887   2.545   6.187
10488SOL    HW132363   5.948   2.483   6.138
10488SOL    HW232364   5.933   2.578   6.270
10489SOL     OW32365   6.169   4.566   4.689
10489SOL    HW132366   6.223   4.602   4.614
10489SOL    HW232367   6.073   4.556   4.660
10490SOL     OW32368   5.529   6.489   6.592
10490SOL    HW132369   5.500   6.448   6.506
10490SOL    HW232370   5.603   6.554   6.574
10491SOL     OW32371   1.766   2.771   6.397
10491SOL    HW132372   1.736   2.866   6.409
10491SOL    HW232373   1.861   2.769   6.368
10492SOL     OW32374   3.714   0.727   0.449
10492SOL    HW132375   3.689   0.822   0.465
10492SOL    HW232376   3.664   0.669   0.513
10493SOL     OW32377   4.486   5.798   1.028
10493SOL    HW132378   4.464   5.872   1.090
10493SOL    HW232379   4.485   5.711   1.078
10494SOL     OW32380   0.925   4.721   5.416
10494SOL    HW132381   0.941   4.623   5.401
10494SOL    HW232382   0.829   4.736   5.437
10495SOL     OW32383   0.188   6.645   0.810
10495SOL    HW132384   0.213   6.721   0.870
10495SOL    HW232385   0.172   6.563   0.865
10496SOL     OW32386   0.067   3.465   5.164
10496SOL    HW132387   0.023   3.544   5.205
10496SOL    HW232388   0.027   3.447   5.074
10497SOL     OW32389   2.433   0.365   0.798
10497SOL    HW132390   2.485   0.300   0.742
10497SOL    HW232391   2.360   0.405   0.743
10498SOL     OW32392   4.357   4.766   0.201
10498SOL    HW132393   4.412   4.752   0.284
10498SOL    HW232394   4.261   4.775   0.226
10499SOL     OW32395   5.746   4.526   2.674
10499SOL    HW132396   5.793   4.439   2.656
10499SOL    HW232397   5.737   4.539   2.773
10500SOL     OW32398   7.021   3.117   5.456
10500SOL    HW132399   6.952   3.047   5.439
10500SOL    HW232400   0.049   3.133   5.373
10501SOL     OW32401   3.486   5.152   2.466
10501SOL    HW132402   3.451   5.232   2.514
10501SOL    HW232403   3.463   5.069   2.518
10502SOL     OW32404   3.317   3.794   1.919
10502SOL    HW132405   3.263   3.843   1.851
10502SOL    HW232406   3.299   3.831   2.009
10503SOL     OW32407   6.292   2.658   6.545
10503SOL    HW132408   6.308   2.604   6.628
10503SOL    HW232409   6.197   2.649   6.517
10504SOL     OW32410   1.411   2.964   5.866
10504SOL    HW132411   1.411   3.033   5.939
10504SOL    HW232412   1.387   2.875   5.904
10505SOL     OW32413   6.018   6.616   0.710
10505SOL    HW132414   5.970   6.579   0.630
10505SOL    HW232415   5.987   6.568   0.792
10506SOL     OW32416   0.831   2.546   6.944
10506SOL    HW132417   0.744   2.579   6.981
10506SOL    HW232418   0.854   2.458   6.987
10507SOL     OW32419   1.228   5.404   6.177
10507SOL    HW132420   1.308   5.345   6.186
10507SOL    HW232421   1.222   5.438   6.084
10508SOL     OW32422   1.895   4.834   4.617
10508SOL    HW132423   1.827   4.824   4.691
10508SOL    HW232424   1.958   4.909   4.641
10509SOL     OW32425   4.803   2.817   3.310
10509SOL    HW132426   4.769   2.759   3.385
10509SOL    HW232427   4.801   2.912   3.338
10510SOL     OW32428   5.623   5.678   3.732
10510SOL    HW132429   5.723   5.676   3.743
10510SOL    HW232430   5.585   5.750   3.789
10511SOL     OW32431   4.658   2.180   1.683
10511SOL    HW132432   4.688   2.221   1.598
10511SOL    HW232433   4.727   2.194   1.754
10512SOL     OW32434   4.693   0.820   5.014
10512SOL    HW132435   4.762   0.774   5.071
10512SOL    HW232436   4.625   0.754   4.983
10513SOL     OW32437   4.372   3.290   1.031
10513SOL    HW132438   4.279   3.268   1.001
10513SOL    HW232439   4.375   3.385   1.060
10514SOL     OW32440   1.140   3.397   1.727
10514SOL    HW132441   1.133   3.460   1.804
10514SOL    HW232442   1.149   3.449   1.642
10515SOL     OW32443   2.418   2.622   5.014
10515SOL    HW132444   2.384   2.687   4.946
10515SOL    HW232445   2.449   2.672   5.095
10516SOL     OW32446   3.865   1.875   1.615
10516SOL    HW132447   3.825   1.960   1.649
10516SOL    HW232448   3.958   1.891   1.583
10517SOL     OW32449   1.627   2.281   2.556
10517SOL    HW132450   1.712   2.231   2.574
10517SOL    HW232451   1.642   2.347   2.482
10518SOL     OW32452   0.685   4.791   2.919
10518SOL    HW132453   0.591   4.825   2.912
10518SOL    HW232454   0.711   4.786   3.016
10519SOL     OW32455   3.659   6.639   1.189
10519SOL    HW132456   3.696   6.586   1.113
10519SOL    HW232457   3.615   6.578   1.254
10520SOL     OW32458   6.713   2.557   5.873
10520SOL    HW132459   6.802   2.590   5.904
10520SOL    HW232460   6.700   2.463   5.903
10521SOL     OW32461   0.147   2.899   2.179
10521SOL    HW132462   0.064   2.843   2.178
10521SOL    HW232463   0.162   2.934   2.272
10522SOL     OW32464   5.026   2.632   3.388
10522SOL    HW132465   4.989   2.679   3.308
10522SOL    HW232466   5.009   2.687   3.470
10523SOL     OW32467   0.260   4.249   3.040
10523SOL    HW132468   0.333   4.233   3.107
10523SOL    HW232469   0.226   4.343   3.051
10524SOL     OW32470   0.378   6.344   5.287
10524SOL    HW132471   0.331   6.304   5.366
10524SOL    HW232472   0.341   6.305   5.203
10525SOL     OW32473   4.791   1.926   3.801
10525SOL    HW132474   4.723   1.941   3.729
10525SOL    HW232475   4.865   1.868   3.766
10526SOL     OW32476   1.174   4.625   0.500
10526SOL    HW132477   1.267   4.604   0.529
10526SOL    HW232478   1.145   4.562   0.428
10527SOL     OW32479   0.563   0.143   4.743
10527SOL    HW132480   0.492   0.099   4.689
10527SOL    HW232481   0.525   0.223   4.790
10528SOL     OW32482   1.675   3.665   5.612
10528SOL    HW132483   1.693   3.715   5.696
10528SOL    HW232484   1.626   3.580   5.633
10529SOL     OW32485   0.462   6.365   0.981
10529SOL    HW132486   0.491   6.353   1.075
10529SOL    HW232487   0.539   6.399   0.926
10530SOL     OW32488   0.246   5.456   0.707
10530SOL    HW132489   0.242   5.526   0.779
10530SOL    HW232490   0.335   5.412   0.708
10531SOL     OW32491   2.898   3.300   5.170
10531SOL    HW132492   2.944   3.308   5.259
10531SOL    HW232493   2.799   3.303   5.184
10532SOL     OW32494   5.344   6.406   6.784
10532SOL    HW132495   5.412   6.409   6.711
10532SOL    HW232496   5.387   6.377   6.869
10533SOL     OW32497   3.936   6.323   2.942
10533SOL    HW132498   3.992   6.309   3.024
10533SOL    HW232499   3.995   6.348   2.865
10534SOL     OW32500   1.639   5.902   3.979
10534SOL    HW132501   1.662   5.972   3.911
10534SOL    HW232502   1.717   5.886   4.039
10535SOL     OW32503   3.835   2.057   2.455
10535SOL    HW132504   3.871   2.106   2.376
10535SOL    HW232505   3.911   2.019   2.508
10536SOL     OW32506   5.243   2.514   4.235
10536SOL    HW132507   5.298   2.590   4.198
10536SOL    HW232508   5.208   2.459   4.159
10537SOL     OW32509   3.857   6.942   4.212
10537SOL    HW132510   3.897   6.890   4.287
10537SOL    HW232511   3.878   0.015   4.223
10538SOL     OW32512   6.883   3.861   2.718
10538SOL    HW132513   6.933   3.946   2.738
10538SOL    HW232514   6.896   3.836   2.622
10539SOL     OW32515   6.553   0.107   3.127
10539SOL    HW132516   6.536   0.171   3.202
10539SOL    HW232517   6.543   0.014   3.161
10540SOL     OW32518   1.760   3.794   6.108
10540SOL    HW132519   1.735   3.794   6.205
10540SOL    HW232520   1.839   3.735   6.094
10541SOL     OW32521   3.360   3.168   5.119
10541SOL    HW132522   3.442   3.189   5.066
10541SOL    HW232523   3.330   3.249   5.168
10542SOL     OW32524   5.052   6.837   4.356
10542SOL    HW132525   5.023   6.764   4.418
10542SOL    HW232526   4.976   6.860   4.294
10543SOL     OW32527   0.936   3.315   5.107
10543SOL    HW132528   0.856   3.369   5.081
10543SOL    HW232529   0.987   3.289   5.026
10544SOL     OW32530   1.947   1.898   3.520
10544SOL    HW132531   2.045   1.911   3.507
10544SOL    HW232532   1.911   1.972   3.576
10545SOL     OW32533   2.125   2.635   2.447
10545SOL    HW132534   2.190   2.699   2.406
10545SOL    HW232535   2.173   2.578   2.514
10546SOL     OW32536   2.925   6.655   6.897
10546SOL    HW132537   2.921   6.752   6.921
10546SOL    HW232538   2.846   6.631   6.840
10547SOL     OW32539   4.195   7.002   5.071
10547SOL    HW132540   4.271   6.961   5.021
10547SOL    HW232541   4.115   7.008   5.011
10548SOL     OW32542   0.109   5.509   3.917
10548SOL    HW132543   0.153   5.460   3.993
10548SOL    HW232544   0.120   5.607   3.930
10549SOL     OW32545   0.095   0.457   1.377
10549SOL    HW132546   0.114   0.553   1.357
10549SOL    HW232547   0.046   0.450   1.464
10550SOL     OW32548   4.883   5.550   3.272
10550SOL    HW132549   4.864   5.618   3.342
10550SOL    HW232550   4.799   5.499   3.251
10551SOL     OW32551   2.373   1.884   5.641
10551SOL    HW132552   2.452   1.919   5.590
10551SOL    HW232553   2.390   1.896   5.739
10552SOL     OW32554   2.739   1.106   4.287
10552SOL    HW132555   2.770   1.017   4.252
10552SOL    HW232556   2.733   1.171   4.211
10553SOL     OW32557   6.742   5.378   0.804
10553SOL    HW132558   6.819   5.428   0.763
10553SOL    HW232559   6.755   5.371   0.902
10554SOL     OW32560   6.039   5.894   2.121
10554SOL    HW132561   6.120   5.912   2.177
10554SOL    HW232562   5.992   5.813   2.156
10555SOL     OW32563   4.128   3.179   0.887
10555SOL    HW132564   4.032   3.200   0.902
10555SOL    HW232565   4.154   3.100   0.943
10556SOL     OW32566   2.252   1.665   2.794
10556SOL    HW132567   2.257   1.671   2.894
10556SOL    HW232568   2.159   1.683   2.764
10557SOL     OW32569   2.503   4.585   3.302
10557SOL    HW132570   2.485   4.588   3.400
10557SOL    HW232571   2.466   4.500   3.264
10558SOL     OW32572   3.446   5.645   4.995
10558SOL    HW132573   3.432   5.665   4.898
10558SOL    HW232574   3.490   5.555   5.004
10559SOL     OW32575   3.885   6.648   0.336
10559SOL    HW132576   3.813   6.665   0.404
10559SOL    HW232577   3.955   6.589   0.377
10560SOL     OW32578   5.552   0.001   2.351
10560SOL    HW132579   5.513   6.954   2.409
10560SOL    HW232580   5.650   7.009   2.341
10561SOL     OW32581   5.935   4.808   0.022
10561SOL    HW132582   5.947   4.742   0.096
10561SOL    HW232583   5.981   4.775   6.964
10562SOL     OW32584   4.043   5.928   2.581
10562SOL    HW132585   4.065   6.007   2.639
10562SOL    HW232586   4.098   5.850   2.608
10563SOL     OW32587   0.329   0.114   1.886
10563SOL    HW132588   0.403   0.066   1.933
10563SOL    HW232589   0.286   0.052   1.820
10564SOL     OW32590   5.448   4.904   4.052
10564SOL    HW132591   5.383   4.978   4.068
10564SOL    HW232592   5.478   4.906   3.956
10565SOL     OW32593   0.567   0.127   6.360
10565SOL    HW132594   0.580   0.114   6.262
10565SOL    HW232595   0.576   0.039   6.407
10566SOL     OW32596   3.115   2.971   0.446
10566SOL    HW132597   3.031   2.945   0.400
10566SOL    HW232598   3.191   2.971   0.380
10567SOL     OW32599   1.310   2.428   6.731
10567SOL    HW132600   1.347   2.369   6.803
10567SOL    HW232601   1.384   2.457   6.670
10568SOL     OW32602   4.907   2.614   5.916
10568SOL    HW132603   4.997   2.645   5.886
10568SOL    HW232604   4.851   2.693   5.941
10569SOL     OW32605   6.209   6.475   0.402
10569SOL    HW132606   6.237   6.379   0.403
10569SOL    HW232607   6.229   6.517   0.490
10570SOL     OW32608   1.011   4.586   3.147
10570SOL    HW132609   1.039   4.493   3.124
10570SOL    HW232610   0.980   4.589   3.242
10571SOL     OW32611   6.462   4.660   6.360
10571SOL    HW132612   6.365   4.646   6.340
10571SOL    HW232613   6.503   4.574   6.392
10572SOL     OW32614   5.763   4.185   0.913
10572SOL    HW132615   5.828   4.128   0.963
10572SOL    HW232616   5.813   4.248   0.854
10573SOL     OW32617   5.801   1.763   3.321
10573SOL    HW132618   5.808   1.840   3.383
10573SOL    HW232619   5.886   1.710   3.324
10574SOL     OW32620   0.023   2.498   3.389
10574SOL    HW132621   0.094   2.442   3.347
10574SOL    HW232622   0.058   2.539   3.473
10575SOL     OW32623   6.092   0.112   1.733
10575SOL    HW132624   6.118   0.044   1.801
10575SOL    HW232625   6.094   0.071   1.642
10576SOL     OW32626   1.141   4.205   4.477
10576SOL    HW132627   1.233   4.208   4.438
10576SOL    HW232628   1.145   4.222   4.575
10577SOL     OW32629   3.675   4.783   0.601
10577SOL    HW132630   3.733   4.864   0.593
10577SOL    HW232631   3.671   4.754   0.697
10578SOL     OW32632   0.230   2.981   4.587
10578SOL    HW132633   0.149   3.005   4.640
10578SOL    HW232634   0.233   3.036   4.504
10579SOL     OW32635   0.889   3.542   6.518
10579SOL    HW132636   0.926   3.593   6.441
10579SOL    HW232637   0.798   3.577   6.540
10580SOL     OW32638   6.269   6.828   0.260
10580SOL    HW132639   6.221   6.784   0.335
10580SOL    HW232640   6.368   6.824   0.277
10581SOL     OW32641   5.101   6.943   3.138
10581SOL    HW132642   5.166   6.935   3.062
10581SOL    HW232643   5.146   6.990   3.214
10582SOL     OW32644   5.483   4.159   6.477
10582SOL    HW132645   5.554   4.204   6.531
10582SOL    HW232646   5.525   4.098   6.410
10583SOL     OW32647   2.990   1.741   4.954
10583SOL    HW132648   3.033   1.830   4.965
10583SOL    HW232649   2.999   1.690   5.040
10584SOL     OW32650   1.176   6.893   4.530
10584SOL    HW132651   1.256   6.856   4.577
10584SOL    HW232652   1.204   6.930   4.442
10585SOL     OW32653   1.276   6.851   5.135
10585SOL    HW132654   1.280   6.853   5.235
10585SOL    HW232655   1.253   6.758   5.104
10586SOL     OW32656   4.347   4.197   5.324
10586SOL    HW132657   4.275   4.132   5.349
10586SOL    HW232658   4.305   4.281   5.288
10587SOL     OW32659   2.228   4.947   5.214
10587SOL    HW132660   2.202   4.852   5.197
10587SOL    HW232661   2.327   4.956   5.209
10588SOL     OW32662   1.118   3.920   4.228
10588SOL    HW132663   1.126   3.897   4.325
10588SOL    HW232664   1.032   3.884   4.192
10589SOL     OW32665   5.195   5.870   3.817
10589SOL    HW132666   5.144   5.943   3.864
10589SOL    HW232667   5.142   5.785   3.820
10590SOL     OW32668   0.833   5.090   2.650
10590SOL    HW132669   0.909   5.026   2.644
10590SOL    HW232670   0.760   5.061   2.588
10591SOL     OW32671   6.763   2.543   1.762
10591SOL    HW132672   6.770   2.449   1.796
10591SOL    HW232673   6.792   2.546   1.666
10592SOL     OW32674   6.443   2.089   5.141
10592SOL    HW132675   6.504   2.037   5.080
10592SOL    HW232676   6.406   2.167   5.092
10593SOL     OW32677   3.318   5.313   3.149
10593SOL    HW132678   3.271   5.392   3.109
10593SOL    HW232679   3.250   5.245   3.176
10594SOL     OW32680   2.667   6.323   3.771
10594SOL    HW132681   2.729   6.397   3.797
10594SOL    HW232682   2.679   6.246   3.834
10595SOL     OW32683   5.308   6.497   0.276
10595SOL    HW132684   5.235   6.557   0.245
10595SOL    HW232685   5.391   6.550   0.292
10596SOL     OW32686   4.922   2.919   0.160
10596SOL    HW132687   4.975   3.000   0.133
10596SOL    HW232688   4.935   2.902   0.258
10597SOL     OW32689   2.676   0.693   5.210
10597SOL    HW132690   2.616   0.628   5.163
10597SOL    HW232691   2.666   0.682   5.309
10598SOL     OW32692   2.696   1.315   6.313
10598SOL    HW132693   2.761   1.330   6.239
10598SOL    HW232694   2.713   1.381   6.386
10599SOL     OW32695   6.984   2.090   6.683
10599SOL    HW132696   6.901   2.127   6.724
10599SOL    HW232697   0.040   2.128   6.729
10600SOL     OW32698   2.585   2.361   1.140
10600SOL    HW132699   2.493   2.400   1.141
10600SOL    HW232700   2.634   2.389   1.222
10601SOL     OW32701   1.174   0.632   6.095
10601SOL    HW132702   1.084   0.663   6.124
10601SOL    HW232703   1.193   0.664   6.003
10602SOL     OW32704   6.820   0.198   1.371
10602SOL    HW132705   6.773   0.121   1.328
10602SOL    HW232706   6.868   0.251   1.301
10603SOL     OW32707   5.254   0.889   2.824
10603SOL    HW132708   5.283   0.896   2.919
10603SOL    HW232709   5.314   0.945   2.767
10604SOL     OW32710   5.223   6.945   4.870
10604SOL    HW132711   5.259   6.865   4.918
10604SOL    HW232712   5.297   6.991   4.821
10605SOL     OW32713   2.299   2.352   1.202
10605SOL    HW132714   2.283   2.329   1.106
10605SOL    HW232715   2.212   2.356   1.251
10606SOL     OW32716   6.321   0.626   0.164
10606SOL    HW132717   6.279   0.537   0.184
10606SOL    HW232718   6.254   0.699   0.182
10607SOL     OW32719   3.130   4.902   6.507
10607SOL    HW132720   3.108   4.997   6.486
10607SOL    HW232721   3.143   4.851   6.422
10608SOL     OW32722   5.784   3.994   3.509
10608SOL    HW132723   5.764   3.900   3.539
10608SOL    HW232724   5.842   3.992   3.428
10609SOL     OW32725   4.547   1.467   6.615
10609SOL    HW132726   4.448   1.473   6.615
10609SOL    HW232727   4.586   1.558   6.632
10610SOL     OW32728   0.873   1.005   3.221
10610SOL    HW132729   0.884   0.949   3.139
10610SOL    HW232730   0.879   0.948   3.302
10611SOL     OW32731   3.789   5.557   4.320
10611SOL    HW132732   3.722   5.547   4.247
10611SOL    HW232733   3.881   5.542   4.283
10612SOL     OW32734   6.084   1.819   3.609
10612SOL    HW132735   6.085   1.844   3.706
10612SOL    HW232736   5.996   1.847   3.569
10613SOL     OW32737   4.361   6.369   4.593
10613SOL    HW132738   4.401   6.384   4.503
10613SOL    HW232739   4.359   6.271   4.612
10614SOL     OW32740   3.956   1.014   6.150
10614SOL    HW132741   4.002   0.934   6.112
10614SOL    HW232742   4.024   1.071   6.197
10615SOL     OW32743   1.420   1.469   5.651
10615SOL    HW132744   1.497   1.440   5.594
10615SOL    HW232745   1.352   1.396   5.654
10616SOL     OW32746   2.297   6.378   0.032
10616SOL    HW132747   2.264   6.466   7.022
10616SOL    HW232748   2.237   6.347   0.106
10617SOL     OW32749   2.444   3.217   1.371
10617SOL    HW132750   2.442   3.232   1.470
10617SOL    HW232751   2.538   3.199   1.342
10618SOL     OW32752   1.448   5.081   3.849
10618SOL    HW132753   1.399   5.043   3.771
10618SOL    HW232754   1.418   5.175   3.865
10619SOL     OW32755   2.123   2.259   2.350
10619SOL    HW132756   2.216   2.290   2.369
10619SOL    HW232757   2.125   2.185   2.283
10620SOL     OW32758   3.156   1.250   6.214
10620SOL    HW132759   3.128   1.259   6.310
10620SOL    HW232760   3.177   1.341   6.177
10621SOL     OW32761   0.229   3.702   3.356
10621SOL    HW132762   0.222   3.609   3.394
10621SOL    HW232763   0.324   3.723   3.336
10622SOL     OW32764   4.465   2.151   0.085
10622SOL    HW132765   4.404   2.188   0.015
10622SOL    HW232766   4.480   2.054   0.068
10623SOL     OW32767   4.832   6.622   6.075
10623SOL    HW132768   4.784   6.559   6.013
10623SOL    HW232769   4.771   6.648   6.149
10624SOL     OW32770   0.359   1.910   6.775
10624SOL    HW132771   0.399   2.001   6.767
10624SOL    HW232772   0.419   1.852   6.830
10625SOL     OW32773   5.314   4.744   6.997
10625SOL    HW132774   5.367   4.715   0.053
10625SOL    HW232775   5.225   4.778   0.004
10626SOL     OW32776   5.184   3.336   1.035
10626SOL    HW132777   5.131   3.401   0.981
10626SOL    HW232778   5.137   3.248   1.036
10627SOL     OW32779   6.059   5.241   5.903
10627SOL    HW132780   6.061   5.340   5.890
10627SOL    HW232781   5.964   5.210   5.908
10628SOL     OW32782   3.837   6.618   0.756
10628SOL    HW132783   3.803   6.565   0.834
10628SOL    HW232784   3.760   6.653   0.703
10629SOL     OW32785   3.192   5.458   4.442
10629SOL    HW132786   3.198   5.553   4.473
10629SOL    HW232787   3.153   5.456   4.350
10630SOL     OW32788   3.893   0.957   2.246
10630SOL    HW132789   3.986   0.939   2.277
10630SOL    HW232790   3.870   1.053   2.264
10631SOL     OW32791   3.998   6.209   0.033
10631SOL    HW132792   3.939   6.155   6.997
10631SOL    HW232793   3.979   6.306   0.018
10632SOL     OW32794   4.717   6.184   3.213
10632SOL    HW132795   4.788   6.122   3.179
10632SOL    HW232796   4.628   6.156   3.175
10633SOL     OW32797   1.506   3.056   1.451
10633SOL    HW132798   1.465   2.976   1.408
10633SOL    HW232799   1.441   3.096   1.516
10634SOL     OW32800   0.597   3.477   6.930
10634SOL    HW132801   0.509   3.433   6.914
10634SOL    HW232802   0.597   3.567   6.887
10635SOL     OW32803   2.322   4.479   6.277
10635SOL    HW132804   2.351   4.568   6.241
10635SOL    HW232805   2.403   4.427   6.305
10636SOL     OW32806   6.478   2.427   6.428
10636SOL    HW132807   6.574   2.442   6.407
10636SOL    HW232808   6.442   2.504   6.481
10637SOL     OW32809   3.082   0.807   0.126
10637SOL    HW132810   3.028   0.777   0.047
10637SOL    HW232811   3.174   0.769   0.119
10638SOL     OW32812   6.874   5.959   1.946
10638SOL    HW132813   6.868   5.991   2.041
10638SOL    HW232814   6.811   5.882   1.934
10639SOL     OW32815   1.523   4.475   1.648
10639SOL    HW132816   1.564   4.401   1.595
10639SOL    HW232817   1.526   4.560   1.594
10640SOL     OW32818   4.247   6.808   3.569
10640SOL    HW132819   4.335   6.795   3.616
10640SOL    HW232820   4.174   6.770   3.625
10641SOL     OW32821   1.388   1.092   3.477
10641SOL    HW132822   1.456   1.052   3.539
10641SOL    HW232823   1.315   1.026   3.461
10642SOL     OW32824   5.572   2.057   6.576
10642SOL    HW132825   5.623   1.971   6.572
10642SOL    HW232826   5.591   2.104   6.662
10643SOL     OW32827   2.110   4.888   5.468
10643SOL    HW132828   2.162   4.917   5.387
10643SOL    HW232829   2.084   4.792   5.457
10644SOL     OW32830   6.527   2.690   2.888
10644SOL    HW132831   6.609   2.709   2.834
10644SOL    HW232832   6.446   2.705   2.832
10645SOL     OW32833   2.731   2.354   3.673
10645SOL    HW132834   2.681   2.422   3.727
10645SOL    HW232835   2.681   2.336   3.589
10646SOL     OW32836   5.406   0.736   3.510
10646SOL    HW132837   5.456   0.779   3.585
10646SOL    HW232838   5.468   0.718   3.434
10647SOL     OW32839   3.444   5.182   4.745
10647SOL    HW132840   3.450   5.101   4.686
10647SOL    HW232841   3.452   5.154   4.840
10648SOL     OW32842   4.933   5.247   5.402
10648SOL    HW132843   4.951   5.152   5.376
10648SOL    HW232844   5.018   5.289   5.433
10649SOL     OW32845   6.301   3.235   2.816
10649SOL    HW132846   6.378   3.294   2.796
10649SOL    HW232847   6.280   3.179   2.736
10650SOL     OW32848   0.595   0.425   3.713
10650SOL    HW132849   0.625   0.330   3.715
10650SOL    HW232850   0.613   0.464   3.622
10651SOL     OW32851   4.291   6.143   6.083
10651SOL    HW132852   4.221   6.117   6.016
10651SOL    HW232853   4.277   6.092   6.168
10652SOL     OW32854   1.815   0.213   6.771
10652SOL    HW132855   1.739   0.252   6.823
10652SOL    HW232856   1.857   0.285   6.715
10653SOL     OW32857   4.387   5.719   3.901
10653SOL    HW132858   4.387   5.806   3.852
10653SOL    HW232859   4.481   5.693   3.923
10654SOL     OW32860   5.783   1.696   4.221
10654SOL    HW132861   5.720   1.620   4.239
10654SOL    HW232862   5.846   1.706   4.298
10655SOL     OW32863   0.524   4.937   1.108
10655SOL    HW132864   0.515   4.854   1.053
10655SOL    HW232865   0.536   5.016   1.047
10656SOL     OW32866   6.132   2.322   3.111
10656SOL    HW132867   6.166   2.345   3.202
10656SOL    HW232868   6.108   2.407   3.063
10657SOL     OW32869   5.180   6.497   4.448
10657SOL    HW132870   5.109   6.427   4.445
10657SOL    HW232871   5.252   6.468   4.511
10658SOL     OW32872   0.546   3.254   5.474
10658SOL    HW132873   0.622   3.194   5.449
10658SOL    HW232874   0.494   3.212   5.549
10659SOL     OW32875   0.992   5.118   0.805
10659SOL    HW132876   1.054   5.039   0.807
10659SOL    HW232877   1.020   5.181   0.733
10660SOL     OW32878   5.936   3.139   5.444
10660SOL    HW132879   5.917   3.203   5.518
10660SOL    HW232880   5.910   3.179   5.357
10661SOL     OW32881   1.670   4.994   5.632
10661SOL    HW132882   1.660   4.951   5.722
10661SOL    HW232883   1.659   5.093   5.641
10662SOL     OW32884   2.480   1.130   2.924
10662SOL    HW132885   2.535   1.212   2.907
10662SOL    HW232886   2.403   1.154   2.984
10663SOL     OW32887   1.533   1.810   4.242
10663SOL    HW132888   1.548   1.745   4.317
10663SOL    HW232889   1.537   1.762   4.155
10664SOL     OW32890   1.445   5.263   4.447
10664SOL    HW132891   1.416   5.215   4.364
10664SOL    HW232892   1.522   5.322   4.425
10665SOL     OW32893   2.007   2.846   5.901
10665SOL    HW132894   1.969   2.930   5.864
10665SOL    HW232895   1.935   2.776   5.904
10666SOL     OW32896   3.333   3.504   1.853
10666SOL    HW132897   3.343   3.515   1.754
10666SOL    HW232898   3.308   3.592   1.894
10667SOL     OW32899   5.820   1.934   3.525
10667SOL    HW132900   5.721   1.921   3.527
10667SOL    HW232901   5.849   1.981   3.609
10668SOL     OW32902   3.056   2.440   5.392
10668SOL    HW132903   3.021   2.530   5.368
10668SOL    HW232904   3.123   2.411   5.323
10669SOL     OW32905   6.528   1.221   0.954
10669SOL    HW132906   6.551   1.318   0.947
10669SOL    HW232907   6.536   1.179   0.864
10670SOL     OW32908   4.966   3.315   4.403
10670SOL    HW132909   5.059   3.312   4.439
10670SOL    HW232910   4.922   3.400   4.433
10671SOL     OW32911   1.296   3.261   4.115
10671SOL    HW132912   1.329   3.167   4.104
10671SOL    HW232913   1.370   3.319   4.149
10672SOL     OW32914   6.095   3.602   1.250
10672SOL    HW132915   6.145   3.688   1.264
10672SOL    HW232916   6.120   3.537   1.322
10673SOL     OW32917   2.247   1.055   1.020
10673SOL    HW132918   2.149   1.046   1.034
10673SOL    HW232919   2.273   1.009   0.934
10674SOL     OW32920   3.467   4.098   4.036
10674SOL    HW132921   3.373   4.088   4.066
10674SOL    HW232922   3.523   4.131   4.112
10675SOL     OW32923   3.883   6.851   5.484
10675SOL    HW132924   3.965   6.868   5.429
10675SOL    HW232925   3.820   6.792   5.433
10676SOL     OW32926   2.105   6.106   5.621
10676SOL    HW132927   2.037   6.179   5.622
10676SOL    HW232928   2.148   6.100   5.712
10677SOL     OW32929   0.103   1.446   0.806
10677SOL    HW132930   0.039   1.438   0.882
10677SOL    HW232931   0.142   1.356   0.785
10678SOL     OW32932   4.429   5.441   3.622
10678SOL    HW132933   4.486   5.521   3.605
10678SOL    HW232934   4.364   5.462   3.696
10679SOL     OW32935   3.819   3.454   6.810
10679SOL    HW132936   3.768   3.370   6.791
10679SOL    HW232937   3.771   3.532   6.770
10680SOL     OW32938   4.226   1.207   4.189
10680SOL    HW132939   4.310   1.154   4.185
10680SOL    HW232940   4.185   1.212   4.097
10681SOL     OW32941   1.178   3.198   5.889
10681SOL    HW132942   1.096   3.143   5.903
10681SOL    HW232943   1.247   3.174   5.958
10682SOL     OW32944   5.663   2.891   6.224
10682SOL    HW132945   5.759   2.862   6.227
10682SOL    HW232946   5.611   2.844   6.295
10683SOL     OW32947   3.536   6.955   3.683
10683SOL    HW132948   3.512   7.008   3.765
10683SOL    HW232949   3.479   6.984   3.607
10684SOL     OW32950   4.142   4.566   1.703
10684SOL    HW132951   4.206   4.498   1.667
10684SOL    HW232952   4.186   4.617   1.778
10685SOL     OW32953   0.894   5.974   1.578
10685SOL    HW132954   0.947   5.915   1.517
10685SOL    HW232955   0.816   6.011   1.528
10686SOL     OW32956   2.387   3.125   0.026
10686SOL    HW132957   2.346   3.148   6.962
10686SOL    HW232958   2.395   3.025   0.034
10687SOL     OW32959   0.660   4.489   3.238
10687SOL    HW132960   0.618   4.398   3.230
10687SOL    HW232961   0.671   4.512   3.335
10688SOL     OW32962   5.365   1.552   2.328
10688SOL    HW132963   5.301   1.503   2.387
10688SOL    HW232964   5.340   1.649   2.324
10689SOL     OW32965   6.685   6.748   2.474
10689SOL    HW132966   6.771   6.797   2.490
10689SOL    HW232967   6.704   6.657   2.439
10690SOL     OW32968   0.005   6.540   3.760
10690SOL    HW132969   7.009   6.499   3.849
10690SOL    HW232970   6.943   6.569   3.717
10691SOL     OW32971   3.237   1.482   2.845
10691SOL    HW132972   3.159   1.525   2.800
10691SOL    HW232973   3.219   1.475   2.943
10692SOL     OW32974   2.770   0.847   4.206
10692SOL    HW132975   2.825   0.791   4.143
10692SOL    HW232976   2.680   0.862   4.166
10693SOL     OW32977   1.269   5.802   0.528
10693SOL    HW132978   1.348   5.746   0.505
10693SOL    HW232979   1.271   5.823   0.626
10694SOL     OW32980   4.825   6.600   5.627
10694SOL    HW132981   4.740   6.644   5.658
10694SOL    HW232982   4.899   6.623   5.690
10695SOL     OW32983   0.116   3.761   1.225
10695SOL    HW132984   0.079   3.718   1.307
10695SOL    HW232985   0.169   3.693   1.173
10696SOL     OW32986   0.135   4.388   4.905
10696SOL    HW132987   0.088   4.392   4.994
10696SOL    HW232988   0.141   4.480   4.867
10697SOL     OW32989   1.316   5.233   5.108
10697SOL    HW132990   1.294   5.208   5.014
10697SOL    HW232991   1.350   5.327   5.111
10698SOL     OW32992   4.609   3.573   0.054
10698SOL    HW132993   4.562   3.585   6.991
10698SOL    HW232994   4.677   3.647   0.065
10699SOL     OW32995   3.199   4.207   0.772
10699SOL    HW132996   3.299   4.202   0.769
10699SOL    HW232997   3.160   4.139   0.709
10700SOL     OW32998   5.283   6.991   0.414
10700SOL    HW132999   5.248   6.943   0.334
10700SOL    HW233000   5.339   6.928   0.469
10701SOL     OW33001   2.937   0.367   6.100
10701SOL    HW133002   2.891   0.285   6.135
10701SOL    HW233003   2.918   0.444   6.162
10702SOL     OW33004   4.802   2.774   2.502
10702SOL    HW133005   4.863   2.699   2.478
10702SOL    HW233006   4.710   2.738   2.521
10703SOL     OW33007   1.587   2.661   6.231
10703SOL    HW133008   1.644   2.712   6.295
10703SOL    HW233009   1.505   2.714   6.209
10704SOL     OW33010   7.001   6.588   2.458
10704SOL    HW133011   0.062   6.546   2.490
10704SOL    HW233012   6.926   6.557   2.517
10705SOL     OW33013   5.832   4.727   1.035
10705SOL    HW133014   5.826   4.640   1.084
10705SOL    HW233015   5.914   4.776   1.065
10706SOL     OW33016   5.079   0.411   2.356
10706SOL    HW133017   5.104   0.483   2.291
10706SOL    HW233018   5.042   0.333   2.305
10707SOL     OW33019   5.991   6.775   4.048
10707SOL    HW133020   6.014   6.730   4.133
10707SOL    HW233021   5.891   6.778   4.038
10708SOL     OW33022   4.585   2.614   2.510
10708SOL    HW133023   4.510   2.574   2.458
10708SOL    HW233024   4.566   2.607   2.608
10709SOL     OW33025   5.971   5.520   4.148
10709SOL    HW133026   5.996   5.457   4.075
10709SOL    HW233027   6.030   5.504   4.227
10710SOL     OW33028   4.983   1.247   2.919
10710SOL    HW133029   4.939   1.222   2.834
10710SOL    HW233030   5.011   1.343   2.915
10711SOL     OW33031   3.504   6.618   1.896
10711SOL    HW133032   3.497   6.534   1.842
10711SOL    HW233033   3.579   6.609   1.961
10712SOL     OW33034   3.419   0.233   2.997
10712SOL    HW133035   3.462   0.307   2.945
10712SOL    HW233036   3.442   0.145   2.956
10713SOL     OW33037   1.146   3.489   0.835
10713SOL    HW133038   1.229   3.541   0.815
10713SOL    HW233039   1.121   3.502   0.931
10714SOL     OW33040   3.610   2.985   3.878
10714SOL    HW133041   3.514   2.980   3.849
10714SOL    HW233042   3.662   3.038   3.812
10715SOL     OW33043   5.622   0.727   2.244
10715SOL    HW133044   5.551   0.664   2.214
10715SOL    HW233045   5.655   0.780   2.166
10716SOL     OW33046   6.638   2.352   2.821
10716SOL    HW133047   6.652   2.401   2.907
10716SOL    HW233048   6.653   2.414   2.744
10717SOL     OW33049   1.033   2.705   0.766
10717SOL    HW133050   1.020   2.716   0.667
10717SOL    HW233051   1.090   2.625   0.783
10718SOL     OW33052   1.161   4.632   6.090
10718SOL    HW133053   1.151   4.731   6.091
10718SOL    HW233054   1.178   4.599   6.183
10719SOL     OW33055   6.478   5.801   3.963
10719SOL    HW133056   6.425   5.738   3.906
10719SOL    HW233057   6.575   5.783   3.952
10720SOL     OW33058   5.768   5.467   4.338
10720SOL    HW133059   5.759   5.543   4.402
10720SOL    HW233060   5.843   5.485   4.274
10721SOL     OW33061   4.957   3.973   5.234
10721SOL    HW133062   5.015   3.896   5.262
10721SOL    HW233063   4.921   4.020   5.315
10722SOL     OW33064   6.486   3.919   6.326
10722SOL    HW133065   6.562   3.861   6.296
10722SOL    HW233066   6.489   4.006   6.277
10723SOL     OW33067   0.204   1.181   6.780
10723SOL    HW133068   0.260   1.207   6.858
10723SOL    HW233069   0.194   1.081   6.778
10724SOL     OW33070   0.302   6.757   0.547
10724SOL    HW133071   0.226   6.818   0.525
10724SOL    HW233072   0.268   6.683   0.606
10725SOL     OW33073   2.655   5.225   5.360
10725SOL    HW133074   2.592   5.300   5.378
10725SOL    HW233075   2.634   5.149   5.422
10726SOL     OW33076   5.222   0.934   3.639
10726SOL    HW133077   5.188   1.013   3.588
10726SOL    HW233078   5.303   0.897   3.594
10727SOL     OW33079   1.199   5.464   5.887
10727SOL    HW133080   1.209   5.563   5.895
10727SOL    HW233081   1.289   5.421   5.886
10728SOL     OW33082   6.698   5.226   0.573
10728SOL    HW133083   6.743   5.285   0.505
10728SOL    HW233084   6.707   5.268   0.664
10729SOL     OW33085   6.241   2.075   1.629
10729SOL    HW133086   6.302   2.120   1.564
10729SOL    HW233087   6.207   2.143   1.694
10730SOL     OW33088   3.908   0.497   1.637
10730SOL    HW133089   3.823   0.452   1.664
10730SOL    HW233090   3.986   0.451   1.680
10731SOL     OW33091   4.152   1.185   0.754
10731SOL    HW133092   4.199   1.239   0.684
10731SOL    HW233093   4.218   1.157   0.824
10732SOL     OW33094   0.378   4.782   5.247
10732SOL    HW133095   0.380   4.863   5.188
10732SOL    HW233096   0.284   4.764   5.276
10733SOL     OW33097   5.530   1.573   6.542
10733SOL    HW133098   5.465   1.643   6.570
10733SOL    HW233099   5.577   1.536   6.622
10734SOL     OW33100   0.798   1.550   0.959
10734SOL    HW133101   0.824   1.515   1.049
10734SOL    HW233102   0.734   1.626   0.971
10735SOL     OW33103   0.170   2.730   1.673
10735SOL    HW133104   0.120   2.661   1.620
10735SOL    HW233105   0.120   2.817   1.671
10736SOL     OW33106   2.022   6.982   3.951
10736SOL    HW133107   1.923   6.994   3.962
10736SOL    HW233108   2.059   0.031   3.894
10737SOL     OW33109   0.428   1.995   1.655
10737SOL    HW133110   0.380   2.003   1.568
10737SOL    HW233111   0.450   2.086   1.689
10738SOL     OW33112   3.797   6.094   2.769
10738SOL    HW133113   3.824   6.016   2.825
10738SOL    HW233114   3.814   6.179   2.820
10739SOL     OW33115   1.417   2.814   1.363
10739SOL    HW133116   1.348   2.766   1.309
10739SOL    HW233117   1.507   2.800   1.322
10740SOL     OW33118   5.640   4.941   5.035
10740SOL    HW133119   5.593   4.879   4.972
10740SOL    HW233120   5.646   5.032   4.994
10741SOL     OW33121   4.252   0.800   2.621
10741SOL    HW133122   4.275   0.809   2.718
10741SOL    HW233123   4.184   0.728   2.609
10742SOL     OW33124   5.817   5.328   1.199
10742SOL    HW133125   5.759   5.396   1.245
10742SOL    HW233126   5.840   5.360   1.107
10743SOL     OW33127   1.973   2.336   3.957
10743SOL    HW133128   1.951   2.373   3.867
10743SOL    HW233129   2.041   2.394   4.001
10744SOL     OW33130   3.091   1.651   1.077
10744SOL    HW133131   3.149   1.583   1.123
10744SOL    HW233132   3.134   1.741   1.084
10745SOL     OW33133   0.283   5.434   5.848
10745SOL    HW133134   0.244   5.344   5.830
10745SOL    HW233135   0.382   5.431   5.834
10746SOL     OW33136   1.270   3.643   5.827
10746SOL    HW133137   1.354   3.602   5.861
10746SOL    HW233138   1.192   3.586   5.854
10747SOL     OW33139   2.896   0.989   4.502
10747SOL    HW133140   2.896   1.073   4.446
10747SOL    HW233141   2.807   0.944   4.494
10748SOL     OW33142   6.212   1.246   2.404
10748SOL    HW133143   6.261   1.296   2.333
10748SOL    HW233144   6.190   1.154   2.370
10749SOL     OW33145   1.080   6.402   5.387
10749SOL    HW133146   1.108   6.351   5.306
10749SOL    HW233147   1.144   6.383   5.462
10750SOL     OW33148   3.754   0.447   5.182
10750SOL    HW133149   3.850   0.448   5.156
10750SOL    HW233150   3.743   0.493   5.271
10751SOL     OW33151   2.122   4.436   4.156
10751SOL    HW133152   2.218   4.454   4.180
10751SOL    HW233153   2.111   4.441   4.056
10752SOL     OW33154   5.090   4.903   5.364
10752SOL    HW133155   5.010   4.862   5.320
10752SOL    HW233156   5.153   4.937   5.294
10753SOL     OW33157   0.616   3.846   4.295
10753SOL    HW133158   0.529   3.893   4.307
10753SOL    HW233159   0.600   3.748   4.280
10754SOL     OW33160   1.123   0.085   3.075
10754SOL    HW133161   1.140   7.015   3.043
10754SOL    HW233162   1.089   0.140   2.998
10755SOL     OW33163   6.853   6.722   2.061
10755SOL    HW133164   6.816   6.737   1.970
10755SOL    HW233165   6.878   6.809   2.103
10756SOL     OW33166   6.964   5.664   5.555
10756SOL    HW133167   0.033   5.634   5.576
10756SOL    HW233168   6.965   5.757   5.519
10757SOL     OW33169   2.045   2.777   0.209
10757SOL    HW133170   1.990   2.705   0.167
10757SOL    HW233171   2.046   2.765   0.308
10758SOL     OW33172   0.528   6.222   3.365
10758SOL    HW133173   0.548   6.248   3.271
10758SOL    HW233174   0.506   6.125   3.369
10759SOL     OW33175   0.831   3.182   0.811
10759SOL    HW133176   0.896   3.116   0.849
10759SOL    HW233177   0.775   3.138   0.742
10760SOL     OW33178   5.864   1.317   3.645
10760SOL    HW133179   5.928   1.394   3.653
10760SOL    HW233180   5.882   1.268   3.560
10761SOL     OW33181   1.934   5.117   6.439
10761SOL    HW133182   1.902   5.036   6.487
10761SOL    HW233183   2.034   5.122   6.443
10762SOL     OW33184   2.833   0.261   5.305
10762SOL    HW133185   2.827   0.178   5.361
10762SOL    HW233186   2.846   0.341   5.364
10763SOL     OW33187   3.453   0.586   3.652
10763SOL    HW133188   3.512   0.590   3.571
10763SOL    HW233189   3.435   0.491   3.675
10764SOL     OW33190   5.135   1.202   4.495
10764SOL    HW133191   5.141   1.301   4.481
10764SOL    HW233192   5.099   1.184   4.586
10765SOL     OW33193   5.084   3.093   1.054
10765SOL    HW133194   5.133   3.054   1.132
10765SOL    HW233195   5.124   3.060   0.969
10766SOL     OW33196   3.856   4.253   0.718
10766SOL    HW133197   3.814   4.330   0.669
10766SOL    HW233198   3.793   4.220   0.788
10767SOL     OW33199   2.864   0.200   0.880
10767SOL    HW133200   2.837   0.109   0.849
10767SOL    HW233201   2.938   0.192   0.947
10768SOL     OW33202   6.447   4.670   1.014
10768SOL    HW133203   6.441   4.635   0.921
10768SOL    HW233204   6.542   4.691   1.036
10769SOL     OW33205   1.840   3.435   5.801
10769SOL    HW133206   1.904   3.511   5.789
10769SOL    HW233207   1.826   3.389   5.713
10770SOL     OW33208   4.737   5.147   2.834
10770SOL    HW133209   4.651   5.195   2.820
10770SOL    HW233210   4.802   5.207   2.881
10771SOL     OW33211   4.019   6.918   3.980
10771SOL    HW133212   3.949   6.957   3.920
10771SOL    HW233213   3.974   6.871   4.056
10772SOL     OW33214   6.755   5.779   3.986
10772SOL    HW133215   6.782   5.875   3.990
10772SOL    HW233216   6.781   5.733   4.071
10773SOL     OW33217   6.074   4.278   5.058
10773SOL    HW133218   6.076   4.182   5.028
10773SOL    HW233219   6.018   4.332   4.995
10774SOL     OW33220   1.461   1.309   4.128
10774SOL    HW133221   1.558   1.333   4.140
10774SOL    HW233222   1.415   1.314   4.216
10775SOL     OW33223   0.989   4.205   1.784
10775SOL    HW133224   0.933   4.184   1.704
10775SOL    HW233225   1.027   4.296   1.775
10776SOL     OW33226   1.823   1.123   6.005
10776SOL    HW133227   1.847   1.127   5.908
10776SOL    HW233228   1.872   1.047   6.048
10777SOL     OW33229   3.768   5.141   1.304
10777SOL    HW133230   3.824   5.059   1.287
10777SOL    HW233231   3.705   5.155   1.228
10778SOL     OW33232   5.332   6.063   4.120
10778SOL    HW133233   5.336   6.070   4.020
10778SOL    HW233234   5.237   6.055   4.149
10779SOL     OW33235   6.095   2.966   3.158
10779SOL    HW133236   6.097   3.051   3.106
10779SOL    HW233237   6.098   2.888   3.096
10780SOL     OW33238   1.294   0.770   3.967
10780SOL    HW133239   1.224   0.815   3.911
10780SOL    HW233240   1.377   0.826   3.968
10781SOL     OW33241   3.900   0.231   4.172
10781SOL    HW133242   3.868   0.289   4.097
10781SOL    HW233243   3.990   0.194   4.149
10782SOL     OW33244   6.377   6.903   4.178
10782SOL    HW133245   6.392   6.976   4.112
10782SOL    HW233246   6.459   6.846   4.184
10783SOL     OW33247   0.205   2.751   3.223
10783SOL    HW133248   0.218   2.691   3.144
10783SOL    HW233249   0.111   2.743   3.256
10784SOL     OW33250   2.838   1.315   3.746
10784SOL    HW133251   2.790   1.235   3.782
10784SOL    HW233252   2.861   1.377   3.821
10785SOL     OW33253   1.095   3.876   0.129
10785SOL    HW133254   1.058   3.969   0.123
10785SOL    HW233255   1.020   3.810   0.122
10786SOL     OW33256   6.056   5.961   3.156
10786SOL    HW133257   6.041   5.864   3.135
10786SOL    HW233258   6.149   5.986   3.128
10787SOL     OW33259   0.446   0.519   5.549
10787SOL    HW133260   0.388   0.586   5.596
10787SOL    HW233261   0.540   0.526   5.583
10788SOL     OW33262   0.582   3.732   6.802
10788SOL    HW133263   0.527   3.798   6.752
10788SOL    HW233264   0.663   3.777   6.841
10789SOL     OW33265   6.839   2.600   6.951
10789SOL    HW133266   6.913   2.660   6.983
10789SOL    HW233267   6.865   2.504   6.965
10790SOL     OW33268   0.372   6.834   1.613
10790SOL    HW133269   0.439   6.804   1.680
10790SOL    HW233270   0.291   6.869   1.661
10791SOL     OW33271   6.490   6.054   2.388
10791SOL    HW133272   6.490   6.147   2.351
10791SOL    HW233273   6.511   6.057   2.486
10792SOL     OW33274   3.837   3.654   5.360
10792SOL    HW133275   3.898   3.724   5.323
10792SOL    HW233276   3.890   3.579   5.397
10793SOL     OW33277   5.358   3.473   5.885
10793SOL    HW133278   5.314   3.539   5.945
10793SOL    HW233279   5.443   3.441   5.926
10794SOL     OW33280   3.526   3.517   3.731
10794SOL    HW133281   3.547   3.614   3.746
10794SOL    HW233282   3.457   3.508   3.659
10795SOL     OW33283   1.168   4.267   2.739
10795SOL    HW133284   1.192   4.364   2.748
10795SOL    HW233285   1.086   4.248   2.793
10796SOL     OW33286   0.820   6.451   5.418
10796SOL    HW133287   0.802   6.518   5.345
10796SOL    HW233288   0.918   6.432   5.421
10797SOL     OW33289   4.123   2.818   0.732
10797SOL    HW133290   4.215   2.842   0.704
10797SOL    HW233291   4.061   2.827   0.654
10798SOL     OW33292   1.983   1.437   0.974
10798SOL    HW133293   1.896   1.475   1.004
10798SOL    HW233294   1.980   1.422   0.875
10799SOL     OW33295   3.946   0.625   2.958
10799SOL    HW133296   3.885   0.565   3.009
10799SOL    HW233297   4.036   0.627   3.002
10800SOL     OW33298   1.301   6.121   0.301
10800SOL    HW133299   1.292   6.061   0.221
10800SOL    HW233300   1.372   6.085   0.362
10801SOL     OW33301   1.273   0.926   0.209
10801SOL    HW133302   1.225   0.941   0.295
10801SOL    HW233303   1.290   1.013   0.164
10802SOL     OW33304   6.500   6.625   3.917
10802SOL    HW133305   6.427   6.567   3.883
10802SOL    HW233306   6.475   6.721   3.907
10803SOL     OW33307   1.479   5.517   6.679
10803SOL    HW133308   1.535   5.480   6.753
10803SOL    HW233309   1.535   5.529   6.597
10804SOL     OW33310   0.151   3.148   3.558
10804SOL    HW133311   0.096   3.174   3.638
10804SOL    HW233312   0.246   3.176   3.573
10805SOL     OW33313   5.894   0.717   4.435
10805SOL    HW133314   5.885   0.626   4.476
10805SOL    HW233315   5.845   0.784   4.491
10806SOL     OW33316   2.890   5.123   6.773
10806SOL    HW133317   2.861   5.034   6.808
10806SOL    HW233318   2.875   5.193   6.843
10807SOL     OW33319   2.290   5.982   3.715
10807SOL    HW133320   2.281   5.915   3.641
10807SOL    HW233321   2.257   6.071   3.683
10808SOL     OW33322   6.868   2.081   6.119
10808SOL    HW133323   6.847   2.166   6.072
10808SOL    HW233324   6.908   2.101   6.208
10809SOL     OW33325   2.624   4.874   4.340
10809SOL    HW133326   2.554   4.813   4.377
10809SOL    HW233327   2.696   4.887   4.408
10810SOL     OW33328   0.298   0.560   4.168
10810SOL    HW133329   0.350   0.547   4.252
10810SOL    HW233330   0.360   0.565   4.090
10811SOL     OW33331   5.022   5.608   4.893
10811SOL    HW133332   4.964   5.625   4.973
10811SOL    HW233333   5.116   5.634   4.915
10812SOL     OW33334   6.931   3.258   6.537
10812SOL    HW133335   6.925   3.164   6.504
10812SOL    HW233336   7.017   3.299   6.507
10813SOL     OW33337   0.362   3.737   5.880
10813SOL    HW133338   0.345   3.686   5.796
10813SOL    HW233339   0.447   3.704   5.922
10814SOL     OW33340   1.904   0.304   0.296
10814SOL    HW133341   1.977   0.242   0.322
10814SOL    HW233342   1.820   0.252   0.281
10815SOL     OW33343   5.166   1.514   3.826
10815SOL    HW133344   5.098   1.466   3.770
10815SOL    HW233345   5.192   1.599   3.781
10816SOL     OW33346   3.203   2.984   3.478
10816SOL    HW133347   3.158   3.047   3.414
10816SOL    HW233348   3.175   2.890   3.458
10817SOL     OW33349   2.460   0.422   3.308
10817SOL    HW133350   2.370   0.378   3.305
10817SOL    HW233351   2.487   0.450   3.216
10818SOL     OW33352   4.755   5.269   6.043
10818SOL    HW133353   4.745   5.328   6.123
10818SOL    HW233354   4.809   5.315   5.973
10819SOL     OW33355   0.022   5.298   6.568
10819SOL    HW133356   0.073   5.382   6.551
10819SOL    HW233357   0.005   5.250   6.482
10820SOL     OW33358   1.240   5.469   5.315
10820SOL    HW133359   1.224   5.401   5.387
10820SOL    HW233360   1.332   5.507   5.325
10821SOL     OW33361   4.297   5.212   2.660
10821SOL    HW133362   4.233   5.136   2.658
10821SOL    HW233363   4.253   5.292   2.700
10822SOL     OW33364   5.966   2.398   0.509
10822SOL    HW133365   5.971   2.470   0.439
10822SOL    HW233366   5.903   2.327   0.479
10823SOL     OW33367   0.200   6.917   3.155
10823SOL    HW133368   0.129   6.873   3.100
10823SOL    HW233369   0.183   7.015   3.160
10824SOL     OW33370   1.191   0.955   4.420
10824SOL    HW133371   1.116   1.016   4.445
10824SOL    HW233372   1.177   0.923   4.326
10825SOL     OW33373   1.139   1.977   0.549
10825SOL    HW133374   1.229   1.991   0.591
10825SOL    HW233375   1.072   2.037   0.593
10826SOL     OW33376   1.752   2.016   2.509
10826SOL    HW133377   1.729   2.047   2.417
10826SOL    HW233378   1.831   2.066   2.543
10827SOL     OW33379   6.376   3.681   5.348
10827SOL    HW133380   6.350   3.667   5.443
10827SOL    HW233381   6.293   3.690   5.292
10828SOL     OW33382   6.815   3.480   6.726
10828SOL    HW133383   6.884   3.475   6.655
10828SOL    HW233384   6.826   3.563   6.779
10829SOL     OW33385   4.548   3.448   6.570
10829SOL    HW133386   4.630   3.397   6.546
10829SOL    HW233387   4.549   3.536   6.522
10830SOL     OW33388   4.774   1.454   3.308
10830SOL    HW133389   4.861   1.427   3.349
10830SOL    HW233390   4.739   1.534   3.356
10831SOL     OW33391   4.291   0.777   2.902
10831SOL    HW133392   4.385   0.810   2.907
10831SOL    HW233393   4.255   0.765   2.995
10832SOL     OW33394   6.760   3.502   0.737
10832SOL    HW133395   6.849   3.483   0.779
10832SOL    HW233396   6.700   3.544   0.805
10833SOL     OW33397   0.728   1.444   0.693
10833SOL    HW133398   0.736   1.515   0.763
10833SOL    HW233399   0.668   1.476   0.620
10834SOL     OW33400   6.721   6.775   0.517
10834SOL    HW133401   6.728   6.864   0.564
10834SOL    HW233402   6.779   6.708   0.563
10835SOL     OW33403   5.871   3.107   6.341
10835SOL    HW133404   5.829   3.138   6.255
10835SOL    HW233405   5.800   3.074   6.403
10836SOL     OW33406   0.815   1.681   3.267
10836SOL    HW133407   0.846   1.612   3.202
10836SOL    HW233408   0.869   1.676   3.351
10837SOL     OW33409   6.995   4.336   2.428
10837SOL    HW133410   0.010   4.260   2.479
10837SOL    HW233411   6.980   4.309   2.333
10838SOL     OW33412   6.089   5.820   3.553
10838SOL    HW133413   6.085   5.741   3.492
10838SOL    HW233414   6.181   5.829   3.591
10839SOL     OW33415   4.862   3.813   0.297
10839SOL    HW133416   4.816   3.811   0.209
10839SOL    HW233417   4.797   3.836   0.369
10840SOL     OW33418   3.252   0.295   0.976
10840SOL    HW133419   3.311   0.215   0.979
10840SOL    HW233420   3.218   0.308   0.883
10841SOL     OW33421   0.938   5.209   4.842
10841SOL    HW133422   1.032   5.234   4.820
10841SOL    HW233423   0.895   5.165   4.763
10842SOL     OW33424   4.781   4.040   1.160
10842SOL    HW133425   4.862   4.097   1.176
10842SOL    HW233426   4.708   4.095   1.121
10843SOL     OW33427   1.882   1.907   1.005
10843SOL    HW133428   1.808   1.894   1.071
10843SOL    HW233429   1.893   1.824   0.951
10844SOL     OW33430   1.006   5.699   4.781
10844SOL    HW133431   0.923   5.684   4.834
10844SOL    HW233432   0.982   5.713   4.685
10845SOL     OW33433   4.537   6.223   5.367
10845SOL    HW133434   4.470   6.151   5.349
10845SOL    HW233435   4.626   6.182   5.383
10846SOL     OW33436   5.372   6.340   0.553
10846SOL    HW133437   5.339   6.411   0.490
10846SOL    HW233438   5.445   6.288   0.509
10847SOL     OW33439   1.654   1.675   6.912
10847SOL    HW133440   1.667   1.654   6.815
10847SOL    HW233441   1.608   1.763   6.922
10848SOL     OW33442   1.752   4.277   1.001
10848SOL    HW133443   1.774   4.180   1.004
10848SOL    HW233444   1.817   4.328   1.058
10849SOL     OW33445   2.917   5.528   3.983
10849SOL    HW133446   2.940   5.452   3.923
10849SOL    HW233447   2.819   5.548   3.977
10850SOL     OW33448   4.063   6.207   0.305
10850SOL    HW133449   4.051   6.112   0.333
10850SOL    HW233450   4.039   6.216   0.208
10851SOL     OW33451   2.343   4.460   2.210
10851SOL    HW133452   2.424   4.517   2.211
10851SOL    HW233453   2.263   4.516   2.188
10852SOL     OW33454   2.275   1.833   1.094
10852SOL    HW133455   2.220   1.754   1.067
10852SOL    HW233456   2.217   1.914   1.098
10853SOL     OW33457   2.219   2.352   6.292
10853SOL    HW133458   2.179   2.385   6.377
10853SOL    HW233459   2.170   2.391   6.214
10854SOL     OW33460   4.076   6.015   5.240
10854SOL    HW133461   4.023   5.934   5.268
10854SOL    HW233462   4.123   5.996   5.155
10855SOL     OW33463   3.292   1.379   0.606
10855SOL    HW133464   3.292   1.376   0.706
10855SOL    HW233465   3.282   1.287   0.569
10856SOL     OW33466   6.792   0.373   0.114
10856SOL    HW133467   6.825   0.403   0.025
10856SOL    HW233468   6.719   0.434   0.145
10857SOL     OW33469   6.587   1.169   2.340
10857SOL    HW133470   6.529   1.247   2.317
10857SOL    HW233471   6.683   1.193   2.323
10858SOL     OW33472   2.347   5.702   1.441
10858SOL    HW133473   2.342   5.797   1.410
10858SOL    HW233474   2.350   5.700   1.541
10859SOL     OW33475   0.899   5.373   4.020
10859SOL    HW133476   0.894   5.326   4.108
10859SOL    HW233477   0.974   5.334   3.966
10860SOL     OW33478   6.642   2.742   2.352
10860SOL    HW133479   6.669   2.831   2.315
10860SOL    HW233480   6.724   2.688   2.371
10861SOL     OW33481   3.335   2.873   4.306
10861SOL    HW133482   3.403   2.864   4.378
10861SOL    HW233483   3.358   2.951   4.248
10862SOL     OW33484   1.921   0.008   4.852
10862SOL    HW133485   1.895   0.071   4.779
10862SOL    HW233486   1.843   7.018   4.913
10863SOL     OW33487   3.300   5.878   4.633
10863SOL    HW133488   3.351   5.795   4.655
10863SOL    HW233489   3.360   5.957   4.638
10864SOL     OW33490   3.515   6.544   2.383
10864SOL    HW133491   3.472   6.633   2.392
10864SOL    HW233492   3.614   6.555   2.370
10865SOL     OW33493   5.904   1.589   6.529
10865SOL    HW133494   5.906   1.595   6.629
10865SOL    HW233495   5.990   1.624   6.492
10866SOL     OW33496   5.310   4.885   0.339
10866SOL    HW133497   5.270   4.890   0.248
10866SOL    HW233498   5.285   4.967   0.391
10867SOL     OW33499   3.470   3.810   0.642
10867SOL    HW133500   3.421   3.750   0.579
10867SOL    HW233501   3.559   3.769   0.663
10868SOL     OW33502   3.212   1.613   3.377
10868SOL    HW133503   3.237   1.527   3.421
10868SOL    HW233504   3.190   1.681   3.447
10869NA      NA33505   5.867   2.372   5.554
10870NA      NA33506   4.270   4.609   5.274
10871NA      NA33507   2.156   3.600   1.412
10872NA      NA33508   4.813   3.868   5.087
10873NA      NA33509   4.374   2.477   5.209
10874NA      NA33510   3.658   4.699   1.582
10875NA      NA33511   6.737   5.637   5.653
10876NA      NA33512   3.676   3.548   5.172
10877NA      NA33513   4.924   6.649   6.844
10878NA      NA33514   3.726   7.023   5.612
10879NA      NA33515   6.496   4.709   2.339
10880NA      NA33516   2.244   0.495   3.683
10881NA      NA33517   3.474   4.891   1.342
10882NA      NA33518   3.408   3.701   2.826
   7.02387   7.02387   7.02387
